Fe BCC                                  
   2.85000000000000     
    -0.500000    0.500000    0.500000
     0.500000   -0.500000    0.500000
     0.500000    0.500000   -0.500000
   Fe
     1
Direct
  0.000000  0.000000  0.000000
 
   32   32   32
  98.108      95.806      89.242      79.348      67.393      54.688      42.366      31.280      21.995      14.820    
  9.8126      6.7679      5.2286      4.5585      4.1625      3.9185      3.8369      3.9185      4.1625      4.5585    
  5.2286      6.7679      9.8126      14.820      21.995      31.280      42.366      54.688      67.393      79.348    
  89.242      95.806      95.806      95.045      89.922      81.181      69.988      57.645      45.340      34.006    
  24.291      16.580      11.008      7.4567      5.5475      4.6957      4.2540      3.9617      3.8279      3.8547    
  4.0420      4.3850      4.9041      6.0353      8.4364      12.634      18.921      27.332      37.646      49.393    
  61.831      73.932      84.448      92.091      89.242      89.922      86.388      79.163      69.242      57.842    
  46.143      35.116      25.464      17.631      11.816      7.9717      5.8026      4.7915      4.3069      3.9788    
  3.8007      3.7756      3.9035      4.1836      4.6059      5.3732      7.0956      10.347      15.506      22.703    
  31.817      42.480      54.072      65.700      76.235      84.448      79.348      81.181      79.163      73.595    
  65.271      55.259      44.666      34.452      25.338      17.802      12.087      8.2059      5.9338      4.8299    
  4.3143      3.9654      3.7547      3.6856      3.7572      3.9709      4.3237      4.8452      5.9606      8.2570    
  12.183      17.966      25.589      34.795      45.086      55.714      65.700      73.932      67.393      69.988    
  69.242      65.271      58.658      50.290      41.150      32.135      23.950      17.075      11.777      8.1074    
  5.9028      4.7957      4.2739      3.9195      3.6898      3.5880      3.6116      3.7617      4.0418      4.4450    
  5.1170      6.5730      9.3022      13.619      19.615      27.145      35.837      45.086      54.072      61.831    
  54.688      57.645      57.842      55.259      50.290      43.631      36.112      28.529      21.534      15.585    
  10.947      7.6941      5.7074      4.6854      4.1879      3.8418      3.6070      3.4854      3.4724      3.5677    
  3.7767      4.1030      4.5493      5.3809      7.0802      10.024      14.404      20.194      27.145      34.795    
  42.480      49.393      42.366      45.340      46.143      44.666      41.150      36.112      30.219      24.145    
  18.460      13.580      9.7488      7.0459      5.3825      4.5117      4.0629      3.7364      3.5088      3.3799    
  3.3431      3.3957      3.5425      3.7922      4.1472      4.6347      5.5741      7.3666      10.282      14.404    
  19.615      25.589      31.817      37.646      31.280      34.006      35.116      34.452      32.135      28.529    
  24.145      19.524      15.143      11.357      8.3793      6.2795      4.9872      4.2990      3.9088      3.6102    
  3.3994      3.2740      3.2255      3.2488      3.3464      3.5278      3.8031      4.1727      4.6843      5.6450    
  7.3666      10.024      13.619      17.966      22.703      27.332      21.995      24.291      25.464      25.338    
  23.950      21.534      18.460      15.143      11.961      9.1995      7.0330      5.5156      4.5856      4.0735    
  3.7373      3.4723      3.2848      3.1706      3.1202      3.1265      3.1895      3.3165      3.5195      3.8083    
  4.1808      4.6843      5.5741      7.0802      9.3022      12.183      15.506      18.921      14.820      16.580    
  17.631      17.802      17.075      15.585      13.580      11.357      9.1995      7.3246      5.8628      4.8496    
  4.2270      3.8517      3.5603      3.3320      3.1715      3.0733      3.0277      3.0268      3.0683      3.1566    
  3.3021      3.5168      3.8083      4.1727      4.6347      5.3809      6.5730      8.2570      10.347      12.634    
  9.8126      11.008      11.816      12.087      11.777      10.947      9.7488      8.3793      7.0330      5.8628    
  4.9574      4.3324      3.9308      3.6361      3.3890      3.1985      3.0659      2.9855      2.9485      2.9471    
  2.9774      3.0413      3.1461      3.3021      3.5195      3.8031      4.1472      4.5493      5.1170      5.9606    
  7.0956      8.4364      6.7679      7.4567      7.9717      8.2059      8.1074      7.6941      7.0459      6.2795    
  5.5156      4.8496      4.3324      3.9611      3.6793      3.4345      3.2323      3.0787      2.9731      2.9104    
  2.8832      2.8849      2.9112      2.9620      3.0413      3.1566      3.3165      3.5278      3.7922      4.1030    
  4.4450      4.8452      5.3732      6.0353      5.2286      5.5475      5.8026      5.9338      5.9028      5.7074    
  5.3825      4.9872      4.5856      4.2270      3.9308      3.6793      3.4518      3.2554      3.0965      2.9774    
  2.8967      2.8503      2.8328      2.8391      2.8656      2.9112      2.9774      3.0683      3.1895      3.3464    
  3.5425      3.7767      4.0418      4.3237      4.6059      4.9041      4.5585      4.6957      4.7915      4.8299    
  4.7957      4.6854      4.5117      4.2990      4.0735      3.8517      3.6361      3.4345      3.2554      3.1046    
  2.9850      2.8968      2.8382      2.8064      2.7979      2.8096      2.8391      2.8849      2.9471      3.0268    
  3.1265      3.2488      3.3957      3.5677      3.7617      3.9709      4.1836      4.3850      4.1625      4.2540    
  4.3069      4.3143      4.2739      4.1879      4.0629      3.9088      3.7373      3.5603      3.3890      3.2323    
  3.0965      2.9850      2.8987      2.8368      2.7976      2.7792      2.7797      2.7979      2.8328      2.8832    
  2.9485      3.0277      3.1202      3.2255      3.3431      3.4724      3.6116      3.7572      3.9035      4.0420    
  3.9185      3.9617      3.9788      3.9654      3.9195      3.8418      3.7364      3.6102      3.4723      3.3320    
  3.1985      3.0787      2.9774      2.8968      2.8368      2.7964      2.7739      2.7684      2.7792      2.8064    
  2.8503      2.9104      2.9855      3.0733      3.1706      3.2740      3.3799      3.4854      3.5880      3.6856    
  3.7756      3.8547      3.8369      3.8279      3.8007      3.7547      3.6898      3.6070      3.5088      3.3994    
  3.2848      3.1715      3.0659      2.9731      2.8967      2.8382      2.7976      2.7739      2.7662      2.7739    
  2.7976      2.8382      2.8967      2.9731      3.0659      3.1715      3.2848      3.3994      3.5088      3.6070    
  3.6898      3.7547      3.8007      3.8279      3.9185      3.8547      3.7756      3.6856      3.5880      3.4854    
  3.3799      3.2740      3.1706      3.0733      2.9855      2.9104      2.8503      2.8064      2.7792      2.7684    
  2.7739      2.7964      2.8368      2.8968      2.9774      3.0787      3.1985      3.3320      3.4723      3.6102    
  3.7364      3.8418      3.9195      3.9654      3.9788      3.9617      4.1625      4.0420      3.9035      3.7572    
  3.6116      3.4724      3.3431      3.2255      3.1202      3.0277      2.9485      2.8832      2.8328      2.7979    
  2.7797      2.7792      2.7976      2.8368      2.8987      2.9850      3.0965      3.2323      3.3890      3.5603    
  3.7373      3.9088      4.0629      4.1879      4.2739      4.3143      4.3069      4.2540      4.5585      4.3850    
  4.1836      3.9709      3.7617      3.5677      3.3957      3.2488      3.1265      3.0268      2.9471      2.8849    
  2.8391      2.8096      2.7979      2.8064      2.8382      2.8968      2.9850      3.1046      3.2554      3.4345    
  3.6361      3.8517      4.0735      4.2990      4.5117      4.6854      4.7957      4.8299      4.7915      4.6957    
  5.2286      4.9041      4.6059      4.3237      4.0418      3.7767      3.5425      3.3464      3.1895      3.0683    
  2.9774      2.9112      2.8656      2.8391      2.8328      2.8503      2.8967      2.9774      3.0965      3.2554    
  3.4518      3.6793      3.9308      4.2270      4.5856      4.9872      5.3825      5.7074      5.9028      5.9338    
  5.8026      5.5475      6.7679      6.0353      5.3732      4.8452      4.4450      4.1030      3.7922      3.5278    
  3.3165      3.1566      3.0413      2.9620      2.9112      2.8849      2.8832      2.9104      2.9731      3.0787    
  3.2323      3.4345      3.6793      3.9611      4.3324      4.8496      5.5156      6.2795      7.0459      7.6941    
  8.1074      8.2059      7.9717      7.4567      9.8126      8.4364      7.0956      5.9606      5.1170      4.5493    
  4.1472      3.8031      3.5195      3.3021      3.1461      3.0413      2.9774      2.9471      2.9485      2.9855    
  3.0659      3.1985      3.3890      3.6361      3.9308      4.3324      4.9574      5.8628      7.0330      8.3793    
  9.7488      10.947      11.777      12.087      11.816      11.008      14.820      12.634      10.347      8.2570    
  6.5730      5.3809      4.6347      4.1727      3.8083      3.5168      3.3021      3.1566      3.0683      3.0268    
  3.0277      3.0733      3.1715      3.3320      3.5603      3.8517      4.2270      4.8496      5.8628      7.3246    
  9.1995      11.357      13.580      15.585      17.075      17.802      17.631      16.580      21.995      18.921    
  15.506      12.183      9.3022      7.0802      5.5741      4.6843      4.1808      3.8083      3.5195      3.3165    
  3.1895      3.1265      3.1202      3.1706      3.2848      3.4723      3.7373      4.0735      4.5856      5.5156    
  7.0330      9.1995      11.961      15.143      18.460      21.534      23.950      25.338      25.464      24.291    
  31.280      27.332      22.703      17.966      13.619      10.024      7.3666      5.6450      4.6843      4.1727    
  3.8031      3.5278      3.3464      3.2488      3.2255      3.2740      3.3994      3.6102      3.9088      4.2990    
  4.9872      6.2795      8.3793      11.357      15.143      19.524      24.145      28.529      32.135      34.452    
  35.116      34.006      42.366      37.646      31.817      25.589      19.615      14.404      10.282      7.3666    
  5.5741      4.6347      4.1472      3.7922      3.5425      3.3957      3.3431      3.3799      3.5088      3.7364    
  4.0629      4.5117      5.3825      7.0459      9.7488      13.580      18.460      24.145      30.219      36.112    
  41.150      44.666      46.143      45.340      54.688      49.393      42.480      34.795      27.145      20.194    
  14.404      10.024      7.0802      5.3809      4.5493      4.1030      3.7767      3.5677      3.4724      3.4854    
  3.6070      3.8418      4.1879      4.6854      5.7074      7.6941      10.947      15.585      21.534      28.529    
  36.112      43.631      50.290      55.259      57.842      57.645      67.393      61.831      54.072      45.086    
  35.837      27.145      19.615      13.619      9.3022      6.5730      5.1170      4.4450      4.0418      3.7617    
  3.6116      3.5880      3.6898      3.9195      4.2739      4.7957      5.9028      8.1074      11.777      17.075    
  23.950      32.135      41.150      50.290      58.658      65.271      69.242      69.988      79.348      73.932    
  65.700      55.714      45.086      34.795      25.589      17.966      12.183      8.2570      5.9606      4.8452    
  4.3237      3.9709      3.7572      3.6856      3.7547      3.9654      4.3143      4.8299      5.9338      8.2059    
  12.087      17.802      25.338      34.452      44.666      55.259      65.271      73.595      79.163      81.181    
  89.242      84.448      76.235      65.700      54.072      42.480      31.817      22.703      15.506      10.347    
  7.0956      5.3732      4.6059      4.1836      3.9035      3.7756      3.8007      3.9788      4.3069      4.7915    
  5.8026      7.9717      11.816      17.631      25.464      35.116      46.143      57.842      69.242      79.163    
  86.388      89.922      95.806      92.091      84.448      73.932      61.831      49.393      37.646      27.332    
  18.921      12.634      8.4364      6.0353      4.9041      4.3850      4.0420      3.8547      3.8279      3.9617    
  4.2540      4.6957      5.5475      7.4567      11.008      16.580      24.291      34.006      45.340      57.645    
  69.988      81.181      89.922      95.045      95.806      95.045      89.922      81.181      69.988      57.645    
  45.340      34.006      24.291      16.580      11.008      7.4567      5.5475      4.6957      4.2540      3.9617    
  3.8279      3.8547      4.0420      4.3850      4.9041      6.0353      8.4364      12.634      18.921      27.332    
  37.646      49.393      61.831      73.932      84.448      92.091      95.045      95.806      92.091      84.448    
  73.932      61.831      49.393      37.646      27.332      18.921      12.634      8.4364      6.0353      4.9041    
  4.3850      4.0420      3.8547      3.8279      3.9617      4.2540      4.6957      5.5475      7.4567      11.008    
  16.580      24.291      34.006      45.340      57.646      69.988      81.181      89.922      89.922      92.091    
  89.922      83.739      74.419      63.158      51.195      39.606      29.201      20.519      13.850      9.2367    
  6.4663      5.0854      4.4752      4.0947      3.8617      3.7841      3.8617      4.0947      4.4752      5.0854    
  6.4663      9.2367      13.850      20.519      29.201      39.606      51.195      63.158      74.419      83.739    
  81.181      84.448      83.739      79.163      71.382      61.437      50.489      39.603      29.620      21.123    
  14.450      9.7061      6.7502      5.2062      4.5161      4.1129      3.8462      3.7253      3.7500      3.9206    
  4.2362      4.6949      5.6043      7.5717      11.108      16.515      23.851      32.929      43.324      54.357    
  65.095      74.419      69.988      73.932      74.419      71.382      65.271      56.932      47.394      37.654    
  28.538      20.642      14.332      9.7520      6.8202      5.2332      4.5043      4.0923      3.8059      3.6531    
  3.6327      3.7443      3.9905      4.3666      4.9444      6.2011      8.6743      12.744      18.568      26.069    
  34.937      44.626      54.357      63.158      57.645      61.831      63.158      61.437      56.932      50.290    
  42.372      34.067      26.142      19.172      13.526      9.3660      6.6544      5.1497      4.4377      4.0322    
  3.7405      3.5689      3.5147      3.5756      3.7550      4.0567      4.4757      5.2102      6.7607      9.5583    
  13.854      19.680      26.846      34.937      43.324      51.195      45.340      49.393      51.195      50.489    
  47.394      42.372      36.112      29.362      22.803      16.959      12.178      8.6237      6.2828      4.9639    
  4.3205      3.9359      3.6519      3.4745      3.3990      3.4209      3.5423      3.7706      4.1090      4.5689    
  5.4386      7.1580      10.048      14.246      19.680      26.069      32.929      39.606      34.006      37.646    
  39.606      39.603      37.654      34.067      29.362      24.145      18.985      14.338      10.513      7.6603    
  5.7762      4.7067      4.1641      3.8101      3.5444      3.3724      3.2877      3.2835      3.3595      3.5229    
  3.7835      4.1432      4.6359      5.5709      7.3015      10.048      13.854      18.568      23.851      29.201    
  24.291      27.332      29.201      29.620      28.538      26.142      22.803      18.985      15.143      11.654    
  8.7751      6.6325      5.2234      4.4197      3.9832      3.6643      3.4245      3.2665      3.1826      3.1642    
  3.2085      3.3206      3.5114      3.7912      4.1595      4.6607      5.5709      7.1580      9.5583      12.744    
  16.515      20.519      16.580      18.921      20.519      21.123      20.642      19.172      16.959      14.338    
  11.654      9.1995      7.1760      5.6810      4.7059      4.1407      3.7895      3.5092      3.2999      3.1615    
  3.0855      3.0625      3.0877      3.1634      3.2987      3.5058      3.7936      4.1595      4.6359      5.4386    
  6.7607      8.6743      11.108      13.850      11.008      12.634      13.850      14.450      14.332      13.526    
  12.178      10.513      8.7751      7.1760      5.8628      4.9020      4.2762      3.8885      3.5947      3.3553    
  3.1786      3.0624      2.9984      2.9773      2.9933      3.0462      3.1421      3.2915      3.5058      3.7912    
  4.1432      4.5689      5.2102      6.2011      7.5717      9.2367      7.4567      8.4364      9.2367      9.7061    
  9.7520      9.3660      8.6237      7.6603      6.6325      5.6810      4.9020      4.3324      3.9455      3.6567    
  3.4096      3.2119      3.0677      2.9739      2.9233      2.9077      2.9212      2.9619      3.0330      3.1421    
  3.2987      3.5114      3.7835      4.1090      4.4757      4.9443      5.6043      6.4663      5.5475      6.0353    
  6.4663      6.7502      6.8202      6.6544      6.2828      5.7762      5.2234      4.7059      4.2762      3.9455    
  3.6793      3.4429      3.2428      3.0855      2.9721      2.8995      2.8620      2.8532      2.8680      2.9039    
  2.9619      3.0462      3.1634      3.3206      3.5229      3.7706      4.0567      4.3666      4.6949      5.0854    
  4.6957      4.9041      5.0854      5.2062      5.2332      5.1497      4.9639      4.7067      4.4197      4.1407    
  3.8885      3.6567      3.4429      3.2554      3.1003      2.9802      2.8948      2.8414      2.8159      2.8141    
  2.8322      2.8680      2.9212      2.9933      3.0877      3.2085      3.3595      3.5423      3.7550      3.9905    
  4.2362      4.4752      4.2540      4.3850      4.4752      4.5161      4.5043      4.4377      4.3205      4.1641    
  3.9832      3.7895      3.5947      3.4096      3.2428      3.1003      2.9850      2.8975      2.8366      2.8003    
  2.7859      2.7911      2.8141      2.8532      2.9077      2.9773      3.0625      3.1642      3.2835      3.4209    
  3.5756      3.7443      3.9206      4.0947      3.9617      4.0420      4.0947      4.1129      4.0923      4.0322    
  3.9359      3.8101      3.6643      3.5092      3.3553      3.2119      3.0855      2.9802      2.8975      2.8368    
  2.7968      2.7757      2.7723      2.7859      2.8159      2.8620      2.9233      2.9984      3.0855      3.1826    
  3.2877      3.3990      3.5147      3.6327      3.7500      3.8617      3.8279      3.8547      3.8617      3.8462    
  3.8059      3.7405      3.6519      3.5444      3.4245      3.2999      3.1786      3.0677      2.9721      2.8948    
  2.8366      2.7968      2.7739      2.7670      2.7757      2.8003      2.8414      2.8995      2.9739      3.0624    
  3.1615      3.2665      3.3724      3.4745      3.5689      3.6531      3.7253      3.7841      3.8547      3.8279    
  3.7841      3.7253      3.6531      3.5689      3.4745      3.3724      3.2665      3.1615      3.0624      2.9739    
  2.8995      2.8414      2.8003      2.7757      2.7670      2.7739      2.7968      2.8366      2.8948      2.9721    
  3.0677      3.1786      3.2999      3.4245      3.5444      3.6519      3.7405      3.8059      3.8462      3.8617    
  4.0420      3.9617      3.8617      3.7500      3.6327      3.5147      3.3990      3.2877      3.1826      3.0855    
  2.9984      2.9233      2.8620      2.8159      2.7859      2.7723      2.7757      2.7968      2.8368      2.8975    
  2.9802      3.0855      3.2119      3.3553      3.5092      3.6643      3.8101      3.9359      4.0322      4.0923    
  4.1129      4.0947      4.3850      4.2540      4.0947      3.9206      3.7443      3.5756      3.4209      3.2835    
  3.1642      3.0625      2.9773      2.9077      2.8532      2.8141      2.7911      2.7859      2.8003      2.8366    
  2.8975      2.9850      3.1003      3.2428      3.4096      3.5947      3.7895      3.9832      4.1641      4.3205    
  4.4377      4.5043      4.5161      4.4752      4.9041      4.6957      4.4752      4.2362      3.9905      3.7550    
  3.5423      3.3595      3.2085      3.0877      2.9933      2.9212      2.8680      2.8322      2.8141      2.8159    
  2.8414      2.8948      2.9802      3.1003      3.2554      3.4429      3.6567      3.8885      4.1407      4.4197    
  4.7067      4.9639      5.1497      5.2332      5.2062      5.0854      6.0353      5.5475      5.0854      4.6949    
  4.3666      4.0567      3.7706      3.5229      3.3206      3.1634      3.0462      2.9619      2.9039      2.8680    
  2.8532      2.8620      2.8995      2.9721      3.0855      3.2428      3.4429      3.6793      3.9455      4.2762    
  4.7059      5.2234      5.7762      6.2828      6.6544      6.8202      6.7502      6.4663      8.4364      7.4567    
  6.4663      5.6043      4.9444      4.4757      4.1090      3.7835      3.5114      3.2987      3.1421      3.0330    
  2.9619      2.9212      2.9077      2.9233      2.9739      3.0677      3.2119      3.4096      3.6567      3.9455    
  4.3324      4.9020      5.6810      6.6325      7.6603      8.6237      9.3660      9.7520      9.7061      9.2367    
  12.634      11.008      9.2367      7.5717      6.2011      5.2102      4.5689      4.1432      3.7912      3.5058    
  3.2915      3.1421      3.0462      2.9933      2.9773      2.9984      3.0624      3.1786      3.3553      3.5947    
  3.8885      4.2762      4.9020      5.8628      7.1760      8.7751      10.513      12.178      13.526      14.332    
  14.450      13.850      18.921      16.580      13.850      11.108      8.6743      6.7607      5.4386      4.6359    
  4.1595      3.7936      3.5058      3.2987      3.1634      3.0877      3.0625      3.0855      3.1615      3.2999    
  3.5092      3.7895      4.1407      4.7059      5.6810      7.1760      9.1995      11.654      14.338      16.959    
  19.172      20.642      21.123      20.519      27.332      24.291      20.519      16.515      12.744      9.5583    
  7.1580      5.5709      4.6607      4.1595      3.7912      3.5114      3.3206      3.2085      3.1642      3.1826    
  3.2665      3.4245      3.6643      3.9832      4.4197      5.2234      6.6325      8.7751      11.654      15.143    
  18.985      22.803      26.142      28.538      29.620      29.201      37.646      34.006      29.201      23.851    
  18.568      13.854      10.048      7.3015      5.5709      4.6359      4.1432      3.7835      3.5229      3.3595    
  3.2835      3.2877      3.3724      3.5444      3.8101      4.1641      4.7067      5.7762      7.6603      10.513    
  14.338      18.985      24.145      29.362      34.067      37.654      39.603      39.606      49.393      45.340    
  39.606      32.929      26.069      19.680      14.246      10.048      7.1580      5.4386      4.5689      4.1090    
  3.7706      3.5423      3.4209      3.3990      3.4745      3.6519      3.9359      4.3205      4.9639      6.2828    
  8.6237      12.178      16.959      22.803      29.362      36.112      42.372      47.394      50.489      51.195    
  61.831      57.646      51.195      43.324      34.937      26.846      19.680      13.854      9.5583      6.7607    
  5.2102      4.4757      4.0567      3.7550      3.5756      3.5147      3.5689      3.7405      4.0322      4.4377    
  5.1497      6.6544      9.3660      13.526      19.172      26.142      34.067      42.372      50.290      56.932    
  61.437      63.158      73.932      69.988      63.158      54.357      44.626      34.937      26.069      18.568    
  12.744      8.6743      6.2011      4.9443      4.3666      3.9905      3.7443      3.6327      3.6531      3.8059    
  4.0923      4.5043      5.2332      6.8202      9.7520      14.332      20.642      28.538      37.654      47.394    
  56.932      65.271      71.382      74.419      84.448      81.181      74.419      65.095      54.357      43.324    
  32.929      23.851      16.515      11.108      7.5717      5.6043      4.6949      4.2362      3.9206      3.7500    
  3.7253      3.8462      4.1129      4.5161      5.2062      6.7502      9.7061      14.450      21.123      29.620    
  39.603      50.489      61.437      71.382      79.163      83.739      92.091      89.922      83.739      74.419    
  63.158      51.195      39.606      29.201      20.519      13.850      9.2367      6.4663      5.0854      4.4752    
  4.0947      3.8617      3.7841      3.8617      4.0947      4.4752      5.0854      6.4663      9.2367      13.850    
  20.519      29.201      39.606      51.195      63.158      74.419      83.739      89.922      89.242      89.922    
  86.388      79.163      69.242      57.842      46.143      35.116      25.464      17.631      11.816      7.9717    
  5.8026      4.7915      4.3069      3.9788      3.8007      3.7756      3.9035      4.1836      4.6059      5.3732    
  7.0956      10.347      15.506      22.703      31.817      42.480      54.072      65.700      76.235      84.448    
  89.922      92.091      89.922      83.739      74.419      63.158      51.195      39.606      29.201      20.519    
  13.850      9.2367      6.4663      5.0854      4.4752      4.0947      3.8617      3.7841      3.8617      4.0947    
  4.4752      5.0854      6.4663      9.2367      13.850      20.519      29.201      39.606      51.195      63.158    
  74.419      83.739      86.388      89.922      89.242      84.448      76.235      65.700      54.072      42.480    
  31.817      22.703      15.506      10.347      7.0956      5.3732      4.6059      4.1836      3.9035      3.7756    
  3.8007      3.9788      4.3069      4.7915      5.8026      7.9717      11.816      17.631      25.464      35.116    
  46.143      57.842      69.242      79.163      79.163      83.739      84.448      81.181      74.419      65.095    
  54.357      43.324      32.929      23.851      16.515      11.108      7.5717      5.6043      4.6949      4.2362    
  3.9206      3.7500      3.7253      3.8462      4.1129      4.5161      5.2062      6.7502      9.7061      14.450    
  21.123      29.620      39.603      50.489      61.437      71.382      69.242      74.419      76.235      74.419    
  69.242      61.437      52.012      42.019      32.377      23.787      16.710      11.379      7.7945      5.7247    
  4.7299      4.2458      3.9091      3.7066      3.6397      3.7066      3.9091      4.2458      4.7299      5.7247    
  7.7945      11.379      16.710      23.787      32.377      42.019      52.012      61.437      57.842      63.158    
  65.700      65.095      61.437      55.259      47.394      38.773      30.259      22.534      16.066      11.112    
  7.7139      5.6990      4.6984      4.2097      3.8666      3.6454      3.5470      3.5680      3.7094      3.9752    
  4.3602      4.9670      6.2680      8.7384      12.691      18.226      25.223      33.341      42.019      50.489    
  46.143      51.195      54.072      54.357      52.012      47.394      41.150      34.067      26.908      20.304    
  14.702      10.361      7.3435      5.5242      4.5975      4.1299      3.7937      3.5671      3.4495      3.4356    
  3.5245      3.7219      4.0323      4.4532      5.1967      6.7199      9.3922      13.408      18.759      25.223    
  32.377      39.603      35.116      39.606      42.480      43.324      42.019      38.773      34.067      28.529    
  22.803      17.441      12.848      9.2625      6.7553      5.2308      4.4384      4.0123      3.6943      3.4740    
  3.3492      3.3126      3.3609      3.4987      3.7350      4.0735      4.5267      5.3652      6.9757      9.6254    
  13.408      18.226      23.787      29.620      25.464      29.201      31.817      32.929      32.377      30.259    
  26.908      22.803      18.460      14.338      10.783      8.0011      6.0563      4.8724      4.2424      3.8662    
  3.5748      3.3703      3.2485      3.2006      3.2211      3.3122      3.4831      3.7441      4.0972      4.5689    
  5.4272      6.9757      9.3922      12.691      16.710      21.123      17.631      20.519      22.703      23.851    
  23.787      22.534      20.304      17.441      14.338      11.357      8.7751      6.7591      5.3585      4.5069    
  4.0320      3.7027      3.4437      3.2614      3.1502      3.1004      3.1048      3.1630      3.2822      3.4741    
  3.7484      4.1048      4.5689      5.3652      6.7199      8.7384      11.379      14.450      11.816      13.850    
  15.506      16.515      16.710      16.066      14.702      12.848      10.783      8.7751      7.0330      5.6810    
  4.7499      4.1780      3.8201      3.5335      3.3102      3.1536      3.0576      3.0124      3.0100      3.0480    
  3.1306      3.2677      3.4710      3.7484      4.0972      4.5267      5.1967      6.2680      7.7945      9.7061    
  7.9717      9.2367      10.347      11.108      11.379      11.112      10.361      9.2625      8.0011      6.7591    
  5.6810      4.8496      4.2762      3.9009      3.6117      3.3692      3.1827      3.0530      2.9741      2.9371    
  2.9343      2.9619      3.0216      3.1201      3.2677      3.4741      3.7441      4.0735      4.4532      4.9670    
  5.7247      6.7502      5.8026      6.4663      7.0956      7.5717      7.7945      7.7139      7.3435      6.7553    
  6.0563      5.3585      4.7499      4.2762      3.9308      3.6567      3.4164      3.2186      3.0683      2.9648    