   1   1   1   0
  0.1157456E+02  0.2468172E-09  0.2468172E-09  0.2468172E-09  0.5000000E-15
  1.000000000000000E-004
  CAR 
 Fe BCC                                  
     46.43117815     -4.66601208  301      5.56173138      1.00000000
     -4.666  0.0000E+00  0.0000E+00  0.0000E+00  0.0000E+00
     -4.496  0.0000E+00  0.0000E+00  0.0000E+00  0.0000E+00
     -4.325  0.0000E+00  0.0000E+00  0.0000E+00  0.0000E+00
     -4.155  0.0000E+00  0.0000E+00  0.0000E+00  0.0000E+00
     -3.985  0.0000E+00  0.0000E+00  0.0000E+00  0.0000E+00
     -3.814  0.0000E+00  0.0000E+00  0.0000E+00  0.0000E+00
     -3.644  0.0000E+00  0.0000E+00  0.0000E+00  0.0000E+00
     -3.474  0.0000E+00  0.0000E+00  0.0000E+00  0.0000E+00
     -3.303  0.0000E+00  0.0000E+00  0.0000E+00  0.0000E+00
     -3.133  0.0000E+00  0.0000E+00  0.0000E+00  0.0000E+00
     -2.963  0.0000E+00  0.0000E+00  0.0000E+00  0.0000E+00
     -2.792  0.0000E+00  0.0000E+00  0.0000E+00  0.0000E+00
     -2.622  0.0000E+00  0.0000E+00  0.0000E+00  0.0000E+00
     -2.452  0.0000E+00  0.0000E+00  0.0000E+00  0.0000E+00
     -2.281  0.1232E-01  0.0000E+00  0.1334E-02  0.0000E+00
     -2.111  0.1876E-01  0.1445E-01  0.3996E-02  0.2143E-02
     -1.941  0.2417E-01  0.2027E-01  0.7667E-02  0.5115E-02
     -1.771  0.2855E-01  0.2505E-01  0.1217E-01  0.8990E-02
     -1.600  0.3586E-01  0.2929E-01  0.1760E-01  0.1360E-01
     -1.430  0.4263E-01  0.3660E-01  0.2431E-01  0.1923E-01
     -1.260  0.4770E-01  0.4218E-01  0.3203E-01  0.2596E-01
     -1.089  0.4899E-01  0.4602E-01  0.4027E-01  0.3350E-01
     -0.919  0.5462E-01  0.4608E-01  0.4908E-01  0.4123E-01
     -0.749  0.6079E-01  0.5031E-01  0.5890E-01  0.4944E-01
     -0.578  0.6749E-01  0.5482E-01  0.6982E-01  0.5839E-01
     -0.408  0.7472E-01  0.5961E-01  0.8192E-01  0.6813E-01
     -0.238  0.8248E-01  0.6467E-01  0.9530E-01  0.7871E-01
     -0.067  0.9359E-01  0.7002E-01  0.1101E+00  0.9017E-01
      0.103  0.1110E+00  0.7476E-01  0.1275E+00  0.1025E+00
      0.273  0.1299E+00  0.8223E-01  0.1480E+00  0.1159E+00
      0.444  0.1527E+00  0.8948E-01  0.1719E+00  0.1305E+00
      0.614  0.1924E+00  0.9595E-01  0.2011E+00  0.1463E+00
      0.784  0.2448E+00  0.1027E+00  0.2381E+00  0.1632E+00
      0.955  0.4747E+00  0.1117E+00  0.2920E+00  0.1814E+00
      1.125  0.5891E+00  0.1230E+00  0.3816E+00  0.2014E+00
      1.295  0.8189E+00  0.1358E+00  0.5000E+00  0.2234E+00
      1.466  0.1167E+01  0.1501E+00  0.6692E+00  0.2477E+00
      1.636  0.9101E+00  0.1659E+00  0.8481E+00  0.2746E+00
      1.806  0.5741E+00  0.1862E+00  0.9738E+00  0.3044E+00
      1.977  0.4297E+00  0.2525E+00  0.1059E+01  0.3410E+00
      2.147  0.4100E+00  0.3777E+00  0.1122E+01  0.3928E+00
      2.317  0.1617E+01  0.3790E+00  0.1264E+01  0.4590E+00
      2.488  0.1644E+01  0.3938E+00  0.1564E+01  0.5250E+00
      2.658  0.8652E+00  0.3933E+00  0.1785E+01  0.5922E+00
      2.828  0.7906E+00  0.4631E+00  0.1917E+01  0.6612E+00
      2.999  0.1077E+01  0.7044E+00  0.2071E+01  0.7616E+00
      3.169  0.1876E+01  0.6256E+00  0.2309E+01  0.8884E+00
      3.339  0.1116E+01  0.4622E+00  0.2628E+01  0.9815E+00
      3.510  0.5078E+00  0.2259E+00  0.2751E+01  0.1044E+01
      3.680  0.4264E+00  0.1630E+00  0.2830E+01  0.1076E+01
      3.850  0.4181E+00  0.5088E+00  0.2901E+01  0.1120E+01
      4.021  0.7147E+00  0.1182E+01  0.2982E+01  0.1288E+01
      4.191  0.8636E+00  0.1543E+01  0.3105E+01  0.1510E+01
      4.361  0.1620E+01  0.1051E+01  0.3316E+01  0.1759E+01
      4.531  0.2244E+01  0.1151E+01  0.3666E+01  0.1945E+01
      4.702  0.1940E+01  0.1106E+01  0.4072E+01  0.2129E+01
      4.872  0.1354E+01  0.1467E+01  0.4426E+01  0.2345E+01
      5.042  0.1071E+01  0.1279E+01  0.4636E+01  0.2576E+01
      5.213  0.8496E+00  0.8963E+00  0.4791E+01  0.2761E+01
      5.383  0.8107E+00  0.2721E+00  0.4931E+01  0.2856E+01
      5.553  0.1173E+01  0.2088E+00  0.5090E+01  0.2898E+01
      5.724  0.2916E+00  0.1471E+00  0.5212E+01  0.2926E+01
      5.894  0.1511E+00  0.1647E+00  0.5244E+01  0.2951E+01
      6.064  0.1508E+00  0.3012E+00  0.5270E+01  0.2989E+01
      6.235  0.1558E+00  0.3796E+00  0.5296E+01  0.3046E+01
      6.405  0.1737E+00  0.5542E+00  0.5326E+01  0.3123E+01
      6.575  0.1648E+00  0.8137E+00  0.5355E+01  0.3237E+01
      6.746  0.1561E+00  0.1025E+01  0.5383E+01  0.3396E+01
      6.916  0.1513E+00  0.1491E+01  0.5409E+01  0.3618E+01
      7.086  0.1512E+00  0.1653E+01  0.5434E+01  0.3898E+01
      7.257  0.1511E+00  0.1227E+01  0.5460E+01  0.4130E+01
      7.427  0.1510E+00  0.1344E+01  0.5486E+01  0.4346E+01
      7.597  0.1510E+00  0.1549E+01  0.5512E+01  0.4753E+01
      7.768  0.1509E+00  0.1335E+01  0.5537E+01  0.4993E+01
      7.938  0.1502E+00  0.6353E+00  0.5563E+01  0.5191E+01
      8.108  0.1483E+00  0.2985E+00  0.5588E+01  0.5248E+01
      8.279  0.1452E+00  0.2765E+00  0.5613E+01  0.5297E+01
      8.449  0.1489E+00  0.2528E+00  0.5638E+01  0.5343E+01
      8.619  0.1430E+00  0.2224E+00  0.5663E+01  0.5383E+01
      8.790  0.1360E+00  0.2072E+00  0.5687E+01  0.5419E+01
      8.960  0.1537E+00  0.2033E+00  0.5711E+01  0.5454E+01
      9.130  0.1277E+00  0.2007E+00  0.5735E+01  0.5489E+01
      9.301  0.1227E+00  0.1991E+00  0.5756E+01  0.5523E+01
      9.471  0.1177E+00  0.1950E+00  0.5776E+01  0.5556E+01
      9.641  0.1128E+00  0.1881E+00  0.5796E+01  0.5589E+01
      9.812  0.1080E+00  0.1886E+00  0.5815E+01  0.5621E+01
      9.982  0.1033E+00  0.1722E+00  0.5833E+01  0.5652E+01
     10.152  0.9695E-01  0.1629E+00  0.5850E+01  0.5680E+01
     10.322  0.9057E-01  0.1638E+00  0.5866E+01  0.5708E+01
     10.493  0.8427E-01  0.1493E+00  0.5881E+01  0.5736E+01
     10.663  0.7806E-01  0.1422E+00  0.5895E+01  0.5761E+01
     10.833  0.8120E-01  0.1353E+00  0.5908E+01  0.5784E+01
     11.004  0.7448E-01  0.1287E+00  0.5921E+01  0.5807E+01
     11.174  0.6523E-01  0.1223E+00  0.5933E+01  0.5828E+01
     11.344  0.4644E-01  0.1160E+00  0.5943E+01  0.5848E+01
     11.515  0.4279E-01  0.1073E+00  0.5950E+01  0.5867E+01
     11.685  0.3934E-01  0.9870E-01  0.5957E+01  0.5885E+01
     11.855  0.3472E-01  0.9825E-01  0.5965E+01  0.5902E+01
     12.026  0.2708E-01  0.8780E-01  0.5970E+01  0.5918E+01
     12.196  0.2147E-01  0.7510E-01  0.5974E+01  0.5932E+01
     12.366  0.1791E-01  0.5459E-01  0.5978E+01  0.5943E+01
     12.537  0.1648E-01  0.4978E-01  0.5981E+01  0.5952E+01
     12.707  0.1862E-01  0.4528E-01  0.5984E+01  0.5960E+01
     12.877  0.2511E-01  0.3898E-01  0.5987E+01  0.5968E+01
     13.048  0.5457E-01  0.2989E-01  0.5994E+01  0.5974E+01
     13.218  0.8636E-01  0.2319E-01  0.6006E+01  0.5979E+01
     13.388  0.1241E+00  0.1890E-01  0.6024E+01  0.5982E+01
     13.559  0.1825E+00  0.1703E-01  0.6050E+01  0.5985E+01
     13.729  0.2349E+00  0.1810E-01  0.6088E+01  0.5988E+01
     13.899  0.2472E+00  0.2226E-01  0.6129E+01  0.5991E+01
     14.070  0.2579E+00  0.3284E-01  0.6172E+01  0.5997E+01
     14.240  0.2663E+00  0.5139E-01  0.6216E+01  0.6003E+01
     14.410  0.2259E+00  0.9668E-01  0.6260E+01  0.6016E+01
     14.581  0.1835E+00  0.1645E+00  0.6292E+01  0.6038E+01
     14.751  0.1794E+00  0.2295E+00  0.6323E+01  0.6073E+01
     14.921  0.1749E+00  0.2820E+00  0.6353E+01  0.6117E+01
     15.092  0.1704E+00  0.2988E+00  0.6382E+01  0.6166E+01
     15.262  0.1670E+00  0.3080E+00  0.6411E+01  0.6218E+01
     15.432  0.1694E+00  0.2149E+00  0.6440E+01  0.6266E+01
     15.603  0.1774E+00  0.2088E+00  0.6470E+01  0.6302E+01
     15.773  0.1784E+00  0.2021E+00  0.6500E+01  0.6337E+01
     15.943  0.1770E+00  0.2012E+00  0.6530E+01  0.6371E+01
     16.114  0.1669E+00  0.2027E+00  0.6561E+01  0.6406E+01
     16.284  0.1710E+00  0.2199E+00  0.6589E+01  0.6443E+01
     16.454  0.1768E+00  0.1708E+00  0.6619E+01  0.6476E+01
     16.624  0.1837E+00  0.1790E+00  0.6650E+01  0.6506E+01
     16.795  0.1990E+00  0.1822E+00  0.6684E+01  0.6537E+01
     16.965  0.2011E+00  0.1862E+00  0.6718E+01  0.6568E+01
     17.135  0.2034E+00  0.1907E+00  0.6752E+01  0.6600E+01
     17.306  0.2063E+00  0.1967E+00  0.6787E+01  0.6633E+01
     17.476  0.2089E+00  0.2134E+00  0.6822E+01  0.6669E+01
     17.646  0.2101E+00  0.2158E+00  0.6858E+01  0.6705E+01
     17.817  0.2175E+00  0.2180E+00  0.6896E+01  0.6742E+01
     17.987  0.2322E+00  0.2203E+00  0.6935E+01  0.6780E+01
     18.157  0.1932E+00  0.2225E+00  0.6971E+01  0.6817E+01
     18.328  0.1907E+00  0.2302E+00  0.7004E+01  0.6857E+01
     18.498  0.1882E+00  0.2299E+00  0.7036E+01  0.6896E+01
     18.668  0.1858E+00  0.2155E+00  0.7068E+01  0.6936E+01
     18.839  0.1837E+00  0.2022E+00  0.7099E+01  0.6972E+01
     19.009  0.1827E+00  0.1996E+00  0.7130E+01  0.7006E+01
     19.179  0.1813E+00  0.1971E+00  0.7161E+01  0.7040E+01
     19.350  0.1797E+00  0.1946E+00  0.7192E+01  0.7073E+01
     19.520  0.1810E+00  0.1924E+00  0.7224E+01  0.7106E+01
     19.690  0.1771E+00  0.1915E+00  0.7254E+01  0.7139E+01
     19.861  0.1738E+00  0.1902E+00  0.7284E+01  0.7171E+01
     20.031  0.1726E+00  0.1888E+00  0.7313E+01  0.7203E+01
     20.201  0.1704E+00  0.1922E+00  0.7342E+01  0.7236E+01
     20.372  0.1687E+00  0.1843E+00  0.7371E+01  0.7268E+01
     20.542  0.1673E+00  0.1833E+00  0.7400E+01  0.7300E+01
     20.712  0.1659E+00  0.1815E+00  0.7428E+01  0.7331E+01
     20.883  0.1645E+00  0.1793E+00  0.7456E+01  0.7361E+01
     21.053  0.1632E+00  0.1781E+00  0.7484E+01  0.7392E+01
     21.223  0.1619E+00  0.1769E+00  0.7512E+01  0.7422E+01
     21.394  0.1680E+00  0.1756E+00  0.7541E+01  0.7452E+01
     21.564  0.1696E+00  0.1744E+00  0.7570E+01  0.7482E+01
     21.734  0.1727E+00  0.1732E+00  0.7599E+01  0.7512E+01
     21.905  0.1766E+00  0.1721E+00  0.7629E+01  0.7541E+01
     22.075  0.1826E+00  0.1705E+00  0.7659E+01  0.7570E+01
     22.245  0.2083E+00  0.1781E+00  0.7692E+01  0.7601E+01
     22.415  0.2065E+00  0.1815E+00  0.7727E+01  0.7631E+01
     22.586  0.2233E+00  0.1889E+00  0.7764E+01  0.7663E+01
     22.756  0.2345E+00  0.1994E+00  0.7803E+01  0.7696E+01
     22.926  0.2283E+00  0.2243E+00  0.7841E+01  0.7731E+01
     23.097  0.2348E+00  0.2260E+00  0.7881E+01  0.7769E+01
     23.267  0.2410E+00  0.2444E+00  0.7921E+01  0.7810E+01
     23.437  0.2471E+00  0.2417E+00  0.7963E+01  0.7852E+01
     23.608  0.2515E+00  0.2494E+00  0.8005E+01  0.7894E+01
     23.778  0.2598E+00  0.2556E+00  0.8049E+01  0.7937E+01
     23.948  0.2609E+00  0.2612E+00  0.8094E+01  0.7981E+01
     24.119  0.2748E+00  0.2557E+00  0.8140E+01  0.8024E+01
     24.289  0.3114E+00  0.2598E+00  0.8187E+01  0.8068E+01
     24.459  0.2926E+00  0.2725E+00  0.8238E+01  0.8113E+01
     24.630  0.3121E+00  0.2818E+00  0.8289E+01  0.8160E+01
     24.800  0.3068E+00  0.2891E+00  0.8343E+01  0.8210E+01
     24.970  0.3042E+00  0.2998E+00  0.8395E+01  0.8260E+01
     25.141  0.3011E+00  0.3150E+00  0.8446E+01  0.8313E+01
     25.311  0.2897E+00  0.3184E+00  0.8496E+01  0.8368E+01
     25.481  0.2869E+00  0.3143E+00  0.8545E+01  0.8422E+01
     25.652  0.2798E+00  0.3047E+00  0.8594E+01  0.8475E+01
     25.822  0.2717E+00  0.3015E+00  0.8641E+01  0.8527E+01
     25.992  0.2624E+00  0.2915E+00  0.8686E+01  0.8577E+01
     26.163  0.2512E+00  0.2811E+00  0.8730E+01  0.8626E+01
     26.333  0.2373E+00  0.2707E+00  0.8772E+01  0.8673E+01
     26.503  0.2255E+00  0.2587E+00  0.8811E+01  0.8718E+01
     26.674  0.2029E+00  0.2444E+00  0.8848E+01  0.8761E+01
     26.844  0.1756E+00  0.2279E+00  0.8880E+01  0.8801E+01
     27.014  0.1612E+00  0.2127E+00  0.8908E+01  0.8839E+01
     27.185  0.1531E+00  0.1907E+00  0.8936E+01  0.8873E+01
     27.355  0.1533E+00  0.1747E+00  0.8962E+01  0.8904E+01
     27.525  0.1542E+00  0.1653E+00  0.8988E+01  0.8933E+01
     27.696  0.1513E+00  0.1566E+00  0.9014E+01  0.8960E+01
     27.866  0.1567E+00  0.1500E+00  0.9040E+01  0.8986E+01
     28.036  0.1495E+00  0.1517E+00  0.9066E+01  0.9012E+01
     28.207  0.1491E+00  0.1593E+00  0.9092E+01  0.9039E+01
     28.377  0.1486E+00  0.1530E+00  0.9117E+01  0.9065E+01
     28.547  0.1589E+00  0.1522E+00  0.9143E+01  0.9091E+01
     28.717  0.1554E+00  0.1482E+00  0.9170E+01  0.9117E+01
     28.888  0.1469E+00  0.1639E+00  0.9196E+01  0.9143E+01
     29.058  0.1455E+00  0.1523E+00  0.9221E+01  0.9170E+01
     29.228  0.1500E+00  0.1439E+00  0.9246E+01  0.9195E+01
     29.399  0.1561E+00  0.1473E+00  0.9272E+01  0.9220E+01
     29.569  0.1628E+00  0.1508E+00  0.9299E+01  0.9245E+01
     29.739  0.1703E+00  0.1558E+00  0.9327E+01  0.9272E+01
     29.910  0.1784E+00  0.1629E+00  0.9357E+01  0.9299E+01
     30.080  0.2420E+00  0.1667E+00  0.9391E+01  0.9328E+01
     30.250  0.3772E+00  0.1744E+00  0.9447E+01  0.9357E+01
     30.421  0.2739E+00  0.2242E+00  0.9509E+01  0.9390E+01
     30.591  0.2377E+00  0.3255E+00  0.9552E+01  0.9436E+01
     30.761  0.2192E+00  0.2984E+00  0.9591E+01  0.9502E+01
     30.932  0.1994E+00  0.2744E+00  0.9626E+01  0.9550E+01
     31.102  0.1757E+00  0.2473E+00  0.9658E+01  0.9595E+01
     31.272  0.1728E+00  0.2123E+00  0.9688E+01  0.9634E+01
     31.443  0.1732E+00  0.1916E+00  0.9717E+01  0.9669E+01
     31.613  0.1822E+00  0.1930E+00  0.9747E+01  0.9701E+01
     31.783  0.1899E+00  0.1852E+00  0.9779E+01  0.9733E+01
     31.954  0.1830E+00  0.1773E+00  0.9811E+01  0.9764E+01
     32.124  0.1819E+00  0.1749E+00  0.9842E+01  0.9794E+01
     32.294  0.1783E+00  0.1687E+00  0.9873E+01  0.9823E+01
     32.465  0.1732E+00  0.1630E+00  0.9903E+01  0.9852E+01
     32.635  0.1600E+00  0.1576E+00  0.9932E+01  0.9879E+01
     32.805  0.2270E+00  0.1622E+00  0.9965E+01  0.9911E+01
     32.976  0.2466E+00  0.1610E+00  0.1000E+02  0.9939E+01
     33.146  0.2679E+00  0.1519E+00  0.1005E+02  0.9965E+01
     33.316  0.2836E+00  0.2169E+00  0.1010E+02  0.1000E+02
     33.487  0.3059E+00  0.2502E+00  0.1015E+02  0.1004E+02
     33.657  0.3309E+00  0.2888E+00  0.1020E+02  0.1009E+02
     33.827  0.3370E+00  0.3150E+00  0.1026E+02  0.1014E+02
     33.998  0.3267E+00  0.3215E+00  0.1031E+02  0.1020E+02
     34.168  0.3250E+00  0.3316E+00  0.1037E+02  0.1025E+02
     34.338  0.3353E+00  0.3346E+00  0.1043E+02  0.1031E+02
     34.509  0.3295E+00  0.3306E+00  0.1048E+02  0.1036E+02
     34.679  0.3108E+00  0.3333E+00  0.1054E+02  0.1042E+02
     34.849  0.2685E+00  0.3223E+00  0.1059E+02  0.1048E+02
     35.019  0.2519E+00  0.3059E+00  0.1063E+02  0.1053E+02
     35.190  0.2446E+00  0.2829E+00  0.1067E+02  0.1058E+02
     35.360  0.2365E+00  0.2631E+00  0.1072E+02  0.1063E+02
     35.530  0.2245E+00  0.2497E+00  0.1075E+02  0.1067E+02
     35.701  0.2208E+00  0.2428E+00  0.1079E+02  0.1071E+02
     35.871  0.2098E+00  0.2361E+00  0.1083E+02  0.1075E+02
     36.041  0.2079E+00  0.2404E+00  0.1087E+02  0.1079E+02
     36.212  0.2087E+00  0.2441E+00  0.1090E+02  0.1084E+02
     36.382  0.2167E+00  0.2224E+00  0.1094E+02  0.1088E+02
     36.552  0.2337E+00  0.2050E+00  0.1098E+02  0.1091E+02
     36.723  0.2492E+00  0.2109E+00  0.1102E+02  0.1095E+02
     36.893  0.2647E+00  0.2220E+00  0.1106E+02  0.1098E+02
     37.063  0.2773E+00  0.2406E+00  0.1111E+02  0.1102E+02
     37.234  0.2915E+00  0.2574E+00  0.1116E+02  0.1107E+02
     37.404  0.3337E+00  0.2731E+00  0.1121E+02  0.1111E+02
     37.574  0.3490E+00  0.2984E+00  0.1127E+02  0.1116E+02
     37.745  0.3159E+00  0.3105E+00  0.1133E+02  0.1121E+02
     37.915  0.2785E+00  0.3544E+00  0.1138E+02  0.1127E+02
     38.085  0.2398E+00  0.3289E+00  0.1143E+02  0.1133E+02
     38.256  0.2265E+00  0.2955E+00  0.1147E+02  0.1138E+02
     38.426  0.2188E+00  0.2445E+00  0.1150E+02  0.1143E+02
     38.596  0.2111E+00  0.2273E+00  0.1154E+02  0.1147E+02
     38.767  0.2034E+00  0.2195E+00  0.1158E+02  0.1151E+02
     38.937  0.1957E+00  0.2116E+00  0.1161E+02  0.1154E+02
     39.107  0.1880E+00  0.2038E+00  0.1164E+02  0.1158E+02
     39.278  0.1802E+00  0.1906E+00  0.1167E+02  0.1161E+02
     39.448  0.1666E+00  0.1839E+00  0.1170E+02  0.1165E+02
     39.618  0.1723E+00  0.1774E+00  0.1173E+02  0.1168E+02
     39.789  0.1775E+00  0.1710E+00  0.1176E+02  0.1171E+02
     39.959  0.1782E+00  0.1751E+00  0.1179E+02  0.1173E+02
     40.129  0.1745E+00  0.1791E+00  0.1182E+02  0.1177E+02
     40.300  0.1218E+00  0.1800E+00  0.1185E+02  0.1180E+02
     40.470  0.9669E-01  0.1948E+00  0.1187E+02  0.1183E+02
     40.640  0.7676E-01  0.1235E+00  0.1189E+02  0.1186E+02
     40.810  0.6594E-01  0.9215E-01  0.1190E+02  0.1187E+02
     40.981  0.6093E-01  0.7204E-01  0.1191E+02  0.1189E+02
     41.151  0.5694E-01  0.6506E-01  0.1192E+02  0.1190E+02
     41.321  0.5310E-01  0.6090E-01  0.1193E+02  0.1191E+02
     41.492  0.4942E-01  0.5689E-01  0.1194E+02  0.1192E+02
     41.662  0.4589E-01  0.5304E-01  0.1195E+02  0.1193E+02
     41.832  0.4252E-01  0.4933E-01  0.1195E+02  0.1194E+02
     42.003  0.3930E-01  0.4578E-01  0.1196E+02  0.1195E+02
     42.173  0.3624E-01  0.4238E-01  0.1197E+02  0.1195E+02
     42.343  0.3334E-01  0.3913E-01  0.1197E+02  0.1196E+02
     42.514  0.3058E-01  0.3603E-01  0.1198E+02  0.1197E+02
     42.684  0.2340E-01  0.2831E-01  0.1198E+02  0.1198E+02
     42.854  0.2151E-01  0.2606E-01  0.1199E+02  0.1198E+02
     43.025  0.1974E-01  0.2394E-01  0.1199E+02  0.1198E+02
     43.195  0.1279E-01  0.2196E-01  0.1200E+02  0.1199E+02
     43.365  0.4172E-02  0.2078E-01  0.1200E+02  0.1199E+02
     43.536  0.3126E-02  0.1363E-01  0.1200E+02  0.1200E+02
     43.706  0.2697E-02  0.8222E-02  0.1200E+02  0.1200E+02
     43.876  0.2288E-02  0.4551E-02  0.1200E+02  0.1200E+02
     44.047  0.0000E+00  0.2618E-02  0.1200E+02  0.1200E+02
     44.217  0.0000E+00  0.0000E+00  0.1200E+02  0.1200E+02
     44.387  0.0000E+00  0.0000E+00  0.1200E+02  0.1200E+02
     44.558  0.0000E+00  0.0000E+00  0.1200E+02  0.1200E+02
     44.728  0.0000E+00  0.0000E+00  0.1200E+02  0.1200E+02
     44.898  0.0000E+00  0.0000E+00  0.1200E+02  0.1200E+02
     45.069  0.0000E+00  0.0000E+00  0.1200E+02  0.1200E+02
     45.239  0.0000E+00  0.0000E+00  0.1200E+02  0.1200E+02
     45.409  0.0000E+00  0.0000E+00  0.1200E+02  0.1200E+02
     45.580  0.0000E+00  0.0000E+00  0.1200E+02  0.1200E+02
     45.750  0.0000E+00  0.0000E+00  0.1200E+02  0.1200E+02
     45.920  0.0000E+00  0.0000E+00  0.1200E+02  0.1200E+02
     46.091  0.0000E+00  0.0000E+00  0.1200E+02  0.1200E+02
     46.261  0.0000E+00  0.0000E+00  0.1200E+02  0.1200E+02
     46.431  0.0000E+00  0.0000E+00  0.1200E+02  0.1200E+02
     46.43117815     -4.66601208  301      5.56173138      1.00000000
     -4.666  0.0000E+00  0.0000E+00  0.0000E+00  0.0000E+00  0.0000E+00  0.0000E+00  0.0000E+00  0.0000E+00  0.0000E+00  0.0000E+00  0.0000E+00  0.0000E+00  0.0000E+00  0.0000E+00  0.0000E+00  0.0000E+00  0.0000E+00  0.0000E+00
     -4.496  0.0000E+00  0.0000E+00  0.0000E+00  0.0000E+00  0.0000E+00  0.0000E+00  0.0000E+00  0.0000E+00  0.0000E+00  0.0000E+00  0.0000E+00  0.0000E+00  0.0000E+00  0.0000E+00  0.0000E+00  0.0000E+00  0.0000E+00  0.0000E+00
     -4.325  0.0000E+00  0.0000E+00  0.0000E+00  0.0000E+00  0.0000E+00  0.0000E+00  0.0000E+00  0.0000E+00  0.0000E+00  0.0000E+00  0.0000E+00  0.0000E+00  0.0000E+00  0.0000E+00  0.0000E+00  0.0000E+00  0.0000E+00  0.0000E+00
     -4.155  0.0000E+00  0.0000E+00  0.0000E+00  0.0000E+00  0.0000E+00  0.0000E+00  0.0000E+00  0.0000E+00  0.0000E+00  0.0000E+00  0.0000E+00  0.0000E+00  0.0000E+00  0.0000E+00  0.0000E+00  0.0000E+00  0.0000E+00  0.0000E+00
     -3.985  0.0000E+00  0.0000E+00  0.0000E+00  0.0000E+00  0.0000E+00  0.0000E+00  0.0000E+00  0.0000E+00  0.0000E+00  0.0000E+00  0.0000E+00  0.0000E+00  0.0000E+00  0.0000E+00  0.0000E+00  0.0000E+00  0.0000E+00  0.0000E+00
     -3.814  0.0000E+00  0.0000E+00  0.0000E+00  0.0000E+00  0.0000E+00  0.0000E+00  0.0000E+00  0.0000E+00  0.0000E+00  0.0000E+00  0.0000E+00  0.0000E+00  0.0000E+00  0.0000E+00  0.0000E+00  0.0000E+00  0.0000E+00  0.0000E+00
     -3.644  0.0000E+00  0.0000E+00  0.0000E+00  0.0000E+00  0.0000E+00  0.0000E+00  0.0000E+00  0.0000E+00  0.0000E+00  0.0000E+00  0.0000E+00  0.0000E+00  0.0000E+00  0.0000E+00  0.0000E+00  0.0000E+00  0.0000E+00  0.0000E+00
     -3.474  0.0000E+00  0.0000E+00  0.0000E+00  0.0000E+00  0.0000E+00  0.0000E+00  0.0000E+00  0.0000E+00  0.0000E+00  0.0000E+00  0.0000E+00  0.0000E+00  0.0000E+00  0.0000E+00  0.0000E+00  0.0000E+00  0.0000E+00  0.0000E+00
     -3.303  0.0000E+00  0.0000E+00  0.0000E+00  0.0000E+00  0.0000E+00  0.0000E+00  0.0000E+00  0.0000E+00  0.0000E+00  0.0000E+00  0.0000E+00  0.0000E+00  0.0000E+00  0.0000E+00  0.0000E+00  0.0000E+00  0.0000E+00  0.0000E+00
     -3.133  0.0000E+00  0.0000E+00  0.0000E+00  0.0000E+00  0.0000E+00  0.0000E+00  0.0000E+00  0.0000E+00  0.0000E+00  0.0000E+00  0.0000E+00  0.0000E+00  0.0000E+00  0.0000E+00  0.0000E+00  0.0000E+00  0.0000E+00  0.0000E+00
     -2.963  0.0000E+00  0.0000E+00  0.0000E+00  0.0000E+00  0.0000E+00  0.0000E+00  0.0000E+00  0.0000E+00  0.0000E+00  0.0000E+00  0.0000E+00  0.0000E+00  0.0000E+00  0.0000E+00  0.0000E+00  0.0000E+00  0.0000E+00  0.0000E+00
     -2.792  0.0000E+00  0.0000E+00  0.0000E+00  0.0000E+00  0.0000E+00  0.0000E+00  0.0000E+00  0.0000E+00  0.0000E+00  0.0000E+00  0.0000E+00  0.0000E+00  0.0000E+00  0.0000E+00  0.0000E+00  0.0000E+00  0.0000E+00  0.0000E+00
     -2.622  0.0000E+00  0.0000E+00  0.0000E+00  0.0000E+00  0.0000E+00  0.0000E+00  0.0000E+00  0.0000E+00  0.0000E+00  0.0000E+00  0.0000E+00  0.0000E+00  0.0000E+00  0.0000E+00  0.0000E+00  0.0000E+00  0.0000E+00  0.0000E+00
     -2.452  0.0000E+00  0.0000E+00  0.0000E+00  0.0000E+00  0.0000E+00  0.0000E+00  0.0000E+00  0.0000E+00  0.0000E+00  0.0000E+00  0.0000E+00  0.0000E+00  0.0000E+00  0.0000E+00  0.0000E+00  0.0000E+00  0.0000E+00  0.0000E+00
     -2.281  0.8287E-02  0.0000E+00  0.8298E-04  0.0000E+00  0.5621E-04  0.0000E+00  0.3525E-03  0.0000E+00  0.2640E-04  0.0000E+00  0.6960E-05  0.0000E+00  0.9778E-05  0.0000E+00  0.6635E-05  0.0000E+00  0.1122E-04  0.0000E+00
     -2.111  0.1240E-01  0.9647E-02  0.1804E-03  0.1180E-03  0.1129E-03  0.7739E-04  0.6293E-03  0.4435E-03  0.6430E-04  0.2354E-04  0.1904E-04  0.6816E-05  0.2469E-04  0.8333E-05  0.1446E-04  0.6183E-05  0.2837E-04  0.1004E-04
     -1.941  0.1573E-01  0.1333E-01  0.2804E-03  0.2156E-03  0.1594E-03  0.1298E-03  0.9371E-03  0.7240E-03  0.1119E-03  0.4782E-04  0.3627E-04  0.1467E-04  0.4563E-04  0.1777E-04  0.2252E-04  0.1109E-04  0.5497E-04  0.2166E-04
     -1.771  0.1827E-01  0.1624E-01  0.3829E-03  0.3158E-03  0.1956E-03  0.1723E-03  0.1276E-02  0.1033E-02  0.1691E-03  0.7735E-04  0.5865E-04  0.2484E-04  0.7260E-04  0.3038E-04  0.3081E-04  0.1592E-04  0.9101E-04  0.3823E-04
     -1.600  0.2251E-01  0.1868E-01  0.5722E-03  0.4289E-03  0.2927E-03  0.2127E-03  0.1776E-02  0.1389E-02  0.2647E-03  0.1139E-03  0.1227E-03  0.3908E-04  0.1163E-03  0.4672E-04  0.5134E-04  0.2131E-04  0.1486E-03  0.6039E-04
     -1.430  0.2619E-01  0.2293E-01  0.7910E-03  0.6387E-03  0.4281E-03  0.3300E-03  0.2267E-02  0.1894E-02  0.3939E-03  0.1744E-03  0.2384E-03  0.8163E-04  0.1771E-03  0.7206E-04  0.8978E-04  0.3657E-04  0.2275E-03  0.9479E-04
     -1.260  0.2857E-01  0.2592E-01  0.1016E-02  0.8546E-03  0.5859E-03  0.4688E-03  0.2704E-02  0.2344E-02  0.5506E-03  0.2457E-03  0.3999E-03  0.1454E-03  0.2529E-03  0.1023E-03  0.1445E-03  0.5962E-04  0.3255E-03  0.1370E-03
     -1.089  0.2787E-01  0.2766E-01  0.1224E-02  0.1077E-02  0.7860E-03  0.6292E-03  0.3158E-02  0.2739E-02  0.7927E-03  0.3278E-03  0.6427E-03  0.2304E-03  0.4039E-03  0.1374E-03  0.2487E-03  0.9047E-04  0.5537E-03  0.1870E-03
     -0.919  0.3011E-01  0.2652E-01  0.1429E-02  0.1267E-02  0.9470E-03  0.8225E-03  0.3711E-02  0.3142E-02  0.1176E-02  0.4490E-03  0.8314E-03  0.3454E-03  0.6301E-03  0.2059E-03  0.3497E-03  0.1452E-03  0.7609E-03  0.3036E-03
     -0.749  0.3249E-01  0.2829E-01  0.1642E-02  0.1464E-02  0.1115E-02  0.9738E-03  0.4327E-02  0.3640E-02  0.1635E-02  0.6199E-03  0.1053E-02  0.4318E-03  0.9075E-03  0.2918E-03  0.4736E-03  0.1938E-03  0.1003E-02  0.4007E-03
     -0.578  0.3500E-01  0.3014E-01  0.1862E-02  0.1667E-02  0.1289E-02  0.1130E-02  0.5006E-02  0.4187E-02  0.2169E-02  0.8184E-03  0.1308E-02  0.5299E-03  0.1236E-02  0.3931E-03  0.6205E-03  0.2511E-03  0.1281E-02  0.5114E-03
     -0.408  0.3764E-01  0.3207E-01  0.2090E-02  0.1877E-02  0.1471E-02  0.1292E-02  0.5748E-02  0.4785E-02  0.2780E-02  0.1044E-02  0.1595E-02  0.6397E-03  0.1616E-02  0.5099E-03  0.7904E-03  0.3171E-03  0.1594E-02  0.6357E-03
     -0.238  0.4041E-01  0.3407E-01  0.2326E-02  0.2093E-02  0.1659E-02  0.1458E-02  0.6553E-02  0.5431E-02  0.3466E-02  0.1298E-02  0.1915E-02  0.7613E-03  0.2047E-02  0.6421E-03  0.9833E-03  0.3919E-03  0.1942E-02  0.7737E-03
     -0.067  0.4344E-01  0.3614E-01  0.2687E-02  0.2315E-02  0.2027E-02  0.1630E-02  0.7554E-02  0.6128E-02  0.4647E-02  0.1579E-02  0.2906E-02  0.8946E-03  0.2879E-02  0.7898E-03  0.1503E-02  0.4753E-03  0.2495E-02  0.9252E-03
      0.103  0.4784E-01  0.3743E-01  0.3186E-02  0.2529E-02  0.2556E-02  0.1851E-02  0.8997E-02  0.6845E-02  0.6676E-02  0.1946E-02  0.4681E-02  0.1143E-02  0.4434E-02  0.1000E-02  0.2218E-02  0.6411E-03  0.3551E-02  0.1103E-02
      0.273  0.5161E-01  0.3948E-01  0.3601E-02  0.2887E-02  0.3051E-02  0.2220E-02  0.1065E-01  0.7763E-02  0.9218E-02  0.2556E-02  0.6815E-02  0.1667E-02  0.6546E-02  0.1365E-02  0.3059E-02  0.8610E-03  0.5016E-02  0.1408E-02
      0.444  0.5488E-01  0.4108E-01  0.3846E-02  0.3202E-02  0.3383E-02  0.2581E-02  0.1262E-01  0.8727E-02  0.1348E-01  0.3249E-02  0.9467E-02  0.2271E-02  0.1007E-01  0.1818E-02  0.3996E-02  0.1101E-02  0.7066E-02  0.1814E-02
      0.614  0.6183E-01  0.4194E-01  0.4273E-02  0.3430E-02  0.3775E-02  0.2897E-02  0.1517E-01  0.9689E-02  0.2189E-01  0.4047E-02  0.1379E-01  0.2935E-02  0.1653E-01  0.2373E-02  0.5030E-02  0.1356E-02  0.9803E-02  0.2316E-02
      0.784  0.7016E-01  0.4272E-01  0.4716E-02  0.3607E-02  0.4216E-02  0.3163E-02  0.1808E-01  0.1066E-01  0.3405E-01  0.5082E-02  0.1979E-01  0.3657E-02  0.2600E-01  0.3074E-02  0.6236E-02  0.1622E-02  0.1326E-01  0.2880E-02
      0.955  0.1012E+00  0.4431E-01  0.5778E-02  0.3837E-02  0.5644E-02  0.3443E-02  0.2378E-01  0.1173E-01  0.9057E-01  0.6443E-02  0.6079E-01  0.4483E-02  0.7013E-01  0.3950E-02  0.8083E-02  0.1898E-02  0.2926E-01  0.3500E-02
      1.125  0.9601E-01  0.4655E-01  0.5760E-02  0.4102E-02  0.6505E-02  0.3725E-02  0.2760E-01  0.1295E-01  0.9647E-01  0.8332E-02  0.6680E-01  0.5487E-02  0.1209E+00  0.5125E-02  0.1223E-01  0.2187E-02  0.6499E-01  0.4192E-02
      1.295  0.1038E+00  0.4902E-01  0.6310E-02  0.4373E-02  0.7811E-02  0.4019E-02  0.4196E-01  0.1426E-01  0.1206E+00  0.1062E-01  0.8375E-01  0.6656E-02  0.2021E+00  0.6548E-02  0.2059E-01  0.2505E-02  0.1107E+00  0.4961E-02
      1.466  0.9489E-01  0.5169E-01  0.7920E-02  0.4649E-02  0.8606E-02  0.4323E-02  0.5742E-01  0.1568E-01  0.1418E+00  0.1331E-01  0.9457E-01  0.7989E-02  0.3867E+00  0.8220E-02  0.3705E-01  0.2851E-02  0.1778E+00  0.5806E-02
      1.636  0.6233E-01  0.5458E-01  0.7640E-02  0.4931E-02  0.6912E-02  0.4640E-02  0.4130E-01  0.1720E-01  0.1091E+00  0.1641E-01  0.9560E-01  0.9488E-02  0.2593E+00  0.1014E-01  0.4795E-01  0.3225E-02  0.1619E+00  0.6728E-02
      1.806  0.3166E-01  0.5777E-01  0.6198E-02  0.5221E-02  0.3954E-02  0.4966E-02  0.2055E-01  0.1944E-01  0.6564E-01  0.2013E-01  0.1095E+00  0.1116E-01  0.9391E-01  0.1280E-01  0.5291E-01  0.3670E-02  0.1235E+00  0.8651E-02
      1.977  0.1551E-01  0.6728E-01  0.5897E-02  0.6253E-02  0.2242E-02  0.6608E-02  0.1451E-01  0.2343E-01  0.3542E-01  0.3151E-01  0.8842E-01  0.2400E-01  0.5821E-01  0.2089E-01  0.4156E-01  0.5478E-02  0.1208E+00  0.1360E-01
      2.147  0.4576E-02  0.8521E-01  0.9061E-02  0.6903E-02  0.3045E-02  0.7748E-02  0.1272E-01  0.2926E-01  0.1678E-01  0.6077E-01  0.6841E-01  0.4581E-01  0.7594E-01  0.3983E-01  0.3743E-01  0.7340E-02  0.1382E+00  0.2184E-01
      2.317  0.1393E-02  0.7657E-01  0.3113E-01  0.6085E-02  0.2617E-01  0.7548E-02  0.1660E-01  0.3037E-01  0.3754E+00  0.6254E-01  0.1485E+00  0.4678E-01  0.1677E+00  0.4526E-01  0.5240E+00  0.9039E-02  0.1999E+00  0.2378E-01
      2.488  0.3120E-02  0.7300E-01  0.2535E-01  0.5819E-02  0.1598E-01  0.7505E-02  0.1533E-01  0.3196E-01  0.2198E+00  0.6488E-01  0.2816E+00  0.5046E-01  0.1728E+00  0.5023E-01  0.5739E+00  0.1131E-01  0.2162E+00  0.2660E-01
      2.658  0.5218E-02  0.6673E-01  0.1349E-01  0.5438E-02  0.9130E-02  0.7233E-02  0.6856E-02  0.3254E-01  0.1367E+00  0.6367E-01  0.1285E+00  0.5166E-01  0.1161E+00  0.5307E-01  0.2854E+00  0.1378E-01  0.1015E+00  0.2883E-01
      2.828  0.9452E-02  0.6158E-01  0.1921E-01  0.5310E-02  0.2072E-01  0.7062E-02  0.1130E-01  0.3818E-01  0.1782E+00  0.6562E-01  0.1358E+00  0.5257E-01  0.7306E-01  0.7413E-01  0.2102E+00  0.1768E-01  0.7131E-01  0.6071E-01
      2.999  0.1537E-01  0.5941E-01  0.3044E-01  0.6948E-02  0.3131E-01  0.8048E-02  0.2091E-01  0.5277E-01  0.2399E+00  0.7130E-01  0.2402E+00  0.6779E-01  0.7486E-01  0.1557E+00  0.2231E+00  0.2647E-01  0.1146E+00  0.1392E+00
      3.169  0.2775E-01  0.4381E-01  0.5080E-01  0.8209E-02  0.3933E-01  0.8285E-02  0.4693E-01  0.3876E-01  0.4237E+00  0.6809E-01  0.4443E+00  0.7015E-01  0.1046E+00  0.1620E+00  0.3719E+00  0.2920E-01  0.2222E+00  0.9873E-01
      3.339  0.1949E-01  0.2802E-01  0.3433E-01  0.7605E-02  0.2485E-01  0.6451E-02  0.2693E-01  0.2459E-01  0.2105E+00  0.5002E-01  0.2373E+00  0.6346E-01  0.5655E-01  0.1170E+00  0.2626E+00  0.2893E-01  0.1566E+00  0.6675E-01
      3.510  0.1001E-01  0.6807E-02  0.1894E-01  0.5965E-02  0.1403E-01  0.2570E-02  0.1237E-01  0.1173E-01  0.6975E-01  0.9343E-02  0.1130E+00  0.4817E-01  0.2593E-01  0.4980E-01  0.1080E+00  0.9317E-02  0.9435E-01  0.4951E-01
      3.680  0.6743E-02  0.6185E-04  0.1356E-01  0.6654E-02  0.9615E-02  0.1077E-02  0.8916E-02  0.4857E-02  0.5672E-01  0.4162E-02  0.1033E+00  0.1285E-02  0.2359E-01  0.5321E-01  0.9508E-01  0.3874E-02  0.7820E-01  0.6264E-01
      3.850  0.4871E-02  0.1820E-03  0.1052E-01  0.2358E-01  0.7529E-02  0.9102E-02  0.6496E-02  0.1312E-01  0.6661E-01  0.8058E-01  0.1036E+00  0.2698E-01  0.2929E-01  0.7034E-01  0.9681E-01  0.1162E+00  0.6680E-01  0.1066E+00