    1    1    1    2
  0.1157456E+02  0.2468172E-09  0.2468172E-09  0.2468172E-09  0.5000000E-15
  1.000000000000000E-004
  CAR 
 Fe BCC                                  
      8     26     12
 
  0.6250000E-01  0.6250000E-01  0.6250000E-01  0.1562500E-01
    1       -1.733512     -1.617345   1.000000   1.000000
    2        3.140280      5.073831   1.000000   1.000000
    3        3.140280      5.073831   1.000000   1.000000
    4        3.923746      5.956404   1.000000  -0.023787
    5        4.498868      7.192293   1.000000   0.000000
    6        4.498868      7.192293   1.003390   0.000000
    7       26.837245     26.987116   0.000000   0.000000
    8       26.837245     26.987116   0.000000   0.000000
    9       30.624468     31.043031   0.000000   0.000000
   10       31.375171     31.457038   0.000000   0.000000
   11       36.268863     36.552302   0.000000   0.000000
   12       36.268863     36.552302   0.000000   0.000000
 
  0.1875000E+00  0.6250000E-01  0.6250000E-01  0.4687500E-01
    1       -0.155791      0.052392   1.000000   1.000000
    2        2.741759      4.586908   1.000000   1.000000
    3        2.949116      4.751886   1.000000   1.000000
    4        4.438817      6.998544   1.000000  -0.000950
    5        4.618702      7.048080   1.000911   0.000000
    6        4.923745      7.347717   0.882953   0.000000
    7       21.414451     21.979987   0.000000   0.000000
    8       24.499425     24.773567   0.000000   0.000000
    9       26.785580     27.498389   0.000000   0.000000
   10       31.680549     31.580666   0.000000   0.000000
   11       35.695057     36.241815   0.000000   0.000000
   12       36.914803     37.129667   0.000000   0.000000
 
  0.3125000E+00  0.6250000E-01  0.6250000E-01  0.4687500E-01
    1        0.973288      1.848113   1.000000   1.000000
    2        2.399901      4.167550   1.000000   1.000000
    3        3.718671      4.869676   1.000000   1.007838
    4        4.577690      7.141600   1.000000   0.000000
    5        4.713414      7.485948   1.033166   0.000000
    6        6.330228      8.279297   0.010965   0.000000
    7       15.966156     16.900720   0.000000   0.000000
    8       22.807494     23.069543   0.000000   0.000000
    9       24.468194     25.088314   0.000000   0.000000
   10       31.138853     31.292758   0.000000   0.000000
   11       35.003705     35.535311   0.000000   0.000000
   12       40.220363     40.374239   0.000000   0.000000
 
  0.4375000E+00  0.6250000E-01  0.6250000E-01  0.2343750E-01
    1        1.028102      2.324420   1.000000   1.000000
    2        2.268467      4.006962   1.000000   1.000000
    3        4.639403      5.634881   1.000000   0.890249
    4        4.699675      7.213036   1.000000   0.000000
    5        4.751813      7.545441   1.079979   0.000000
    6        7.719171      9.135850  -0.004851   0.000000
    7       12.873950     14.211612   0.000000   0.000000
    8       22.188002     22.428318   0.000000   0.000000
    9       23.604463     24.175573   0.000000   0.000000
   10       30.903360     31.133765   0.000000   0.000000
   11       34.896527     35.452635   0.000000   0.000000
   12       40.170841     40.142916   0.000000   0.000000
 
 -0.6250000E-01  0.6250000E-01  0.6250000E-01  0.1171875E-01
    1       -2.343413     -2.234973   1.000000   1.000000
    2        3.338349      5.310008   1.000000   1.000000
    3        3.338350      5.310008   1.000000   1.000000
    4        3.424100      5.417918   1.000000   0.378340
    5        4.425546      7.108005   1.000000   0.000000
    6        4.619077      7.358036   1.000000   0.000000
    7       28.779021     28.631364   0.000000   0.000000
    8       30.104995     29.952837   0.000000   0.000000
    9       30.104998     29.952838   0.000000   0.000000
   10       33.155427     33.502392   0.000000   0.000000
   11       35.257237     36.003146   0.000000   0.000000
   12       35.257238     36.003151   0.000000   0.000000
 
  0.1875000E+00  0.1875000E+00  0.6250000E-01  0.4687500E-01
    1        1.305508      1.831890   1.000000   1.000000
    2        2.468272      4.193213   1.000000   1.000000
    3        2.665835      4.300512   1.000000   1.000079
    4        4.517726      7.124549   1.000000   0.000000
    5        4.745465      7.479739   1.000752   0.000000
    6        6.531953      8.470678  -0.008151   0.000000
    7       18.918101     19.588287   0.000000   0.000000
    8       19.712181     20.328992   0.000000   0.000000
    9       23.592217     24.151045   0.000000   0.000000
   10       33.599006     33.493071   0.000000   0.000000
   11       37.200263     37.475243   0.000000   0.000000
   12       39.592790     39.857696   0.000000   0.000000
 
  0.3125000E+00  0.1875000E+00  0.6250000E-01  0.9375000E-01
    1        1.642966      2.936351   1.000000   1.000000
    2        2.305876      3.959752   1.000000   1.000000
    3        3.295663      4.543263   1.000000   1.002681
    4        4.654941      7.264378   1.000000   0.000000
    5        4.839832      7.550568   1.009757   0.000000
    6        8.979040     10.394231  -0.003572   0.000000
    7       14.294167     15.308914   0.000000   0.000000
    8       18.147862     18.781342   0.000000   0.000000
    9       22.321912     22.838859   0.000000   0.000000
   10       33.944497     33.979048   0.000000   0.000000
   11       38.252078     38.325482   0.000000   0.000000
   12       40.195244     40.576447   0.000000   0.000000
 
 -0.1875000E+00  0.1875000E+00  0.6250000E-01  0.4687500E-01
    1       -1.164115     -1.028726   1.000000   1.000000
    2        3.078543      4.992076   1.000000   1.000000
    3        3.268843      5.186791   1.000000   1.000000
    4        4.026992      6.081728   1.000000  -0.012194
    5        4.191549      6.756765   1.000000   0.000000
    6        4.716185      7.464396   1.010808   0.000000
    7       24.288730     24.670014   0.000000   0.000000
    8       27.672462     27.751845   0.000000   0.000000
    9       28.511892     28.842556   0.000000   0.000000
   10       32.540376     32.916936   0.000000   0.000000
   11       32.690550     33.216825   0.000000   0.000000
   12       34.257313     34.623052   0.000000   0.000000
 
  0.3125000E+00  0.3125000E+00  0.6250000E-01  0.1562500E-01
    1        1.955651      3.494060   1.000000   1.000000
    2        2.661089      4.089503   1.000000   1.000000
    3        2.661091      4.089504   1.000000   1.000095
    4        4.789808      7.438933   1.000000   0.000000
    5        4.789808      7.438933   1.000000   0.000000
    6       12.481962     13.504095   0.000000   0.000000
    7       12.481965     13.504095   0.000000   0.000000
    8       14.944971     15.834959   0.000000   0.000000
    9       21.853469     22.390584   0.000000   0.000000
   10       36.378953     36.368763   0.000000   0.000000
   11       36.378955     36.368767   0.000000   0.000000
   12       43.425449     44.108579   0.000000   0.000000
 
 -0.3125000E+00  0.3125000E+00  0.6250000E-01  0.4687500E-01
    1        0.457600      0.908689   1.000000   1.000000
    2        2.691498      4.525987   1.000000   1.000000
    3        3.332730      4.919682   1.000000   1.001921
    4        4.392476      6.821874   1.000000   0.000000
    5        4.897815      7.192391   1.017397   0.000000
    6        5.016562      7.583092   0.709224   0.000000
    7       18.517564     19.288779   0.000000   0.000000
    8       25.279668     25.365333   0.000000   0.000000
    9       26.362197     26.941850   0.000000   0.000000
   10       30.849018     31.279497   0.000000   0.000000
   11       32.722452     33.202698   0.000000   0.000000
   12       35.630133     35.869362   0.000000   0.000000
 
 -0.1875000E+00  0.3125000E+00  0.6250000E-01  0.4687500E-01
    1        0.271618      0.547130   1.000000   1.000000
    2        2.870118      4.773791   1.000000   1.000000
    3        3.069481      4.883778   1.000000   1.001787
    4        4.070176      6.482458   1.000000  -0.000532
    5        4.746067      6.930780   1.001793   0.000000
    6        5.094637      7.693913   0.760098   0.000000
    7       21.496711     22.066092   0.000000   0.000000
    8       22.457178     23.001742   0.000000   0.000000
    9       28.974290     29.159712   0.000000   0.000000
   10       29.186537     29.651563   0.000000   0.000000
   11       32.933990     33.295956   0.000000   0.000000
   12       37.552645     37.844904   0.000000   0.000000
 
 -0.4375000E+00  0.4375000E+00  0.6250000E-01  0.4687500E-01
    1        0.908125      2.110463   1.000000   1.000000
    2        2.428795      4.213130   1.000000   1.000000
    3        4.092818      5.500101   1.000000   0.984515
    4        4.555233      7.033310   1.000000   0.000000
    5        5.811902      7.955754   0.488848   0.000000
    6        6.263603      8.106888   0.000796   0.000000
    7       13.778364     14.982281   0.000000   0.000000
    8       23.916114     23.971184   0.000000   0.000000
    9       24.747678     25.300740   0.000000   0.000000
   10       30.139603     30.607864   0.000000   0.000000
   11       32.973550     33.529936   0.000000   0.000000
   12       37.332393     37.406391   0.000000   0.000000
 
 -0.3125000E+00  0.4375000E+00  0.6250000E-01  0.9375000E-01
    1        1.311804      2.255573   1.000000   1.000000
    2        2.571610      4.333983   1.000000   1.000000
    3        3.137622      4.730093   1.000000   1.005708
    4        4.364357      6.734897   1.000000   0.000000
    5        5.129099      7.587739   1.024627   0.000000
    6        6.816127      8.686974  -0.035919   0.000000
    7       16.343404     17.233611   0.000000   0.000000
    8       20.241679     20.819562   0.000000   0.000000
    9       26.788600     27.101444   0.000000   0.000000
   10       29.956836     30.299792   0.000000   0.000000
   11       33.569755     33.853378   0.000000   0.000000
   12       38.071053     38.463845   0.000000   0.000000
 
 -0.4375000E+00 -0.4375000E+00  0.6250000E-01  0.4687500E-01
    1        1.345856      2.738456   1.000000   1.000000
    2        2.561797      4.326946   1.000000   1.000000
    3        3.308470      4.819448   1.000000   1.009669
    4        4.466240      6.890096   1.000000   0.000000
    5        5.474113      7.816273   0.887001   0.000000
    6        8.821622     10.069145  -0.001818   0.000000
    7       12.978308     14.247101   0.000000   0.000000
    8       19.550311     20.115963   0.000000   0.000000
    9       25.955133     26.234372   0.000000   0.000000
   10       30.287887     30.718544   0.000000   0.000000
   11       34.558805     34.618038   0.000000   0.000000
   12       37.375213     37.865958   0.000000   0.000000
 
 -0.3125000E+00 -0.4375000E+00  0.6250000E-01  0.4687500E-01
    1        2.023927      3.440140   1.000000   1.000000
    2        2.276300      3.943198   1.000000   1.000000
    3        2.806163      4.439254   1.000000   1.005822
    4        4.657782      7.025170   1.000000   0.000000
    5        5.103654      7.505255   1.037806   0.000000
    6       10.040886     11.337014  -0.000592   0.000000
    7       14.424196     15.386779   0.000000   0.000000
    8       15.752928     16.557857   0.000000   0.000000
    9       27.174146     27.619502   0.000000   0.000000
   10       30.375516     30.531607   0.000000   0.000000
   11       32.553541     32.724944   0.000000   0.000000
   12       39.582483     40.409985   0.000000   0.000000
 
  0.1875000E+00  0.1875000E+00  0.1875000E+00  0.1562500E-01
    1        2.290594      3.338052   1.000000   1.000000
    2        2.290594      3.885657   1.000000   1.000000
    3        2.460298      3.885657   1.000000   1.000111
    4        4.728893      7.477341   1.000000   0.000000
    5        4.728893      7.477341   1.000000   0.000000
    6        8.957515     10.477846  -0.004524   0.000000
    7       17.277959     17.985417   0.000000   0.000000
    8       17.277959     17.985417   0.000000   0.000000
    9       18.573564     19.236830   0.000000   0.000000
   10       38.283776     37.963286   0.000000   0.000000
   11       40.915431     41.038981   0.000000   0.000000
   12       40.915431     41.038981   0.000000   0.000000
 
  0.3125000E+00  0.1875000E+00  0.1875000E+00  0.2343750E-01
    1        2.178015      3.579351   1.000000   1.000000
    2        2.253427      3.799055   1.000000   1.000000
    3        2.901266      4.202075   1.000000   1.000169
    4        4.762020      7.510262   1.000000   0.000000
    5        4.775968      7.577701   1.000000   0.000000
    6       11.777030     12.806546   0.000000   0.000000
    7       13.593161     14.611643   0.000000   0.000000
    8       16.714718     17.430073   0.000000   0.000000
    9       17.658566     18.312101   0.000000   0.000000
   10       39.307293     39.159026   0.000000   0.000000
   11       42.677751     42.674743   0.000000   0.000000
   12       43.066230     43.363168   0.000000   0.000000
 
 -0.1875000E+00  0.1875000E+00  0.1875000E+00  0.1171875E-01
    1       -0.131137      0.072210   1.000000   1.000000
    2        3.428381      5.407157   1.000000   1.000000
    3        3.489574      5.407158   1.000000   0.982656
    4        3.489575      5.818730   1.000000   0.000921
    5        4.040792      6.107783   1.000000   0.000000
    6        5.072705      7.773206   0.905659   0.000000
    7       24.437117     24.721611   0.000000   0.000000
    8       25.373595     25.926777   0.000000   0.000000
    9       25.373598     25.926780   0.000000   0.000000
   10       27.308232     27.671508   0.000000   0.000000
   11       36.718390     36.969125   0.000000   0.000000
   12       36.718392     36.969128   0.000000   0.000000
 
 -0.3125000E+00  0.3125000E+00  0.1875000E+00  0.4687500E-01
    1        1.160742      1.770271   1.000000   1.000000
    2        2.680516      4.688829   1.000000   1.000000
    3        3.354199      5.240559   1.000000   0.963275
    4        4.001972      6.091544   1.000000   0.000000
    5        4.902843      7.062164   1.032858   0.000000
    6        5.926787      8.193205   0.110946   0.000000
    7       19.369074     20.089239   0.000000   0.000000
    8       22.773576     23.369731   0.000000   0.000000
    9       23.974620     24.356805   0.000000   0.000000
   10       27.903926     28.278748   0.000000   0.000000
   11       35.775597     36.182163   0.000000   0.000000
   12       37.502006     37.851361   0.000000   0.000000
 
 -0.4375000E+00  0.4375000E+00  0.1875000E+00  0.4687500E-01
    1        1.442776      2.843252   1.000000   1.000000
    2        2.615590      4.285543   1.000000   1.000000
    3        3.160744      5.012062   1.000000   0.979789
    4        4.213054      6.428685   1.000000   0.000000
    5        5.732326      8.015438   0.355893   0.000000
    6        8.402998      9.750698  -0.011332   0.000000
    7       14.298162     15.347333   0.000000   0.000000
    8       21.166485     21.712914   0.000000   0.000000
    9       23.135372     23.541669   0.000000   0.000000
   10       30.425916     30.665644   0.000000   0.000000
   11       34.848536     35.277469   0.000000   0.000000
   12       35.501129     36.064011   0.000000   0.000000
 
 -0.3125000E+00  0.4375000E+00  0.1875000E+00  0.4687500E-01
    1        1.756332      2.976196   1.000000   1.000000
    2        2.066790      3.974015   1.000000   1.000000
    3        3.433367      5.311976   1.000000   0.847652
    4        4.390309      6.485688   1.000000   0.000000
    5        5.317790      7.568463   1.064957   0.000000
    6        8.279005      9.774267  -0.015106   0.000000
    7       17.235490     18.046517   0.000000   0.000000
    8       17.843582     18.508039   0.000000   0.000000
    9       25.398530     25.798689   0.000000   0.000000
   10       26.897684     27.282853   0.000000   0.000000
   11       34.494496     34.955799   0.000000   0.000000
   12       37.389466     38.055993   0.000000   0.000000
 
 -0.4375000E+00 -0.4375000E+00  0.1875000E+00  0.4687500E-01
    1        1.709431      3.407595   1.000000   1.000000
    2        2.077600      3.766905   1.000000   1.000000
    3        3.243537      5.049641   1.000000   0.898449
    4        4.694245      6.846892   1.000000   0.000000
    5        5.544258      7.803978   0.760949   0.000000
    6       11.270472     12.276407   0.000000   0.000000
    7       13.452956     14.488054   0.000000   0.000000
    8       16.862498     17.547955   0.000000   0.000000
    9       25.405972     25.799666   0.000000   0.000000
   10       28.562774     28.804263   0.000000   0.000000
   11       31.976075     32.652014   0.000000   0.000000
   12       36.395472     37.025843   0.000000   0.000000
 
 -0.3125000E+00  0.3125000E+00  0.3125000E+00  0.1171875E-01
    1        1.545438      2.710898   1.000000   1.000000
    2        2.022101      4.055590   1.000000   1.000000
    3        4.247288      6.204466   1.000000   0.013570
    4        4.247289      6.204467   1.000000   0.000000
    5        4.937592      7.118466   1.167900   0.000000
    6        7.651365      9.222958  -0.021981   0.000000
    7       19.850991     20.415662   0.000000   0.000000
    8       19.850994     20.415667   0.000000   0.000000
    9       22.115075     22.799907   0.000000   0.000000
   10       24.151541     24.655410   0.000000   0.000000
   11       35.834236     36.528988   0.000000   0.000000
   12       40.653862     41.046939   0.000000   0.000000
 
 -0.4375000E+00  0.4375000E+00  0.3125000E+00  0.4687500E-01
    1        1.446849      3.116665   1.000000   1.000000
    2        1.576393      3.404118   1.000000   1.000000
    3        4.382472      6.382445   1.000000  -0.020863
    4        4.659129      6.683532   1.000000   0.000000
    5        5.622346      7.889797   0.293944   0.000000
    6       10.756314     11.713038   0.000000   0.000000
    7       15.486287     16.207181   0.000000   0.000000
    8       18.047609     18.517811   0.000000   0.000000
    9       22.283060     22.976665   0.000000   0.000000
   10       25.159081     25.630423   0.000000   0.000000
   11       31.182262     32.027277   0.000000   0.000000
   12       40.140105     40.498800   0.000000   0.000000
 
 -0.4375000E+00 -0.4375000E+00  0.3125000E+00  0.1562500E-01
    1        1.309736      3.100158   1.000000   1.000000
    2        1.309736      3.100158   1.000000   1.000000
    3        4.487242      6.465344   1.000000  -0.028111
    4        5.470653      7.685166   1.000000   0.000000
    5        5.470655      7.685169   1.070654   0.000000
    6       14.139124     14.804060   0.000000   0.000000
    7       14.139127     14.804065   0.000000   0.000000
    8       15.257426     15.827602   0.000000   0.000000
    9       23.755622     24.313041   0.000000   0.000000
   10       23.755623     24.313043   0.000000   0.000000
   11       28.647325     29.634188   0.000000   0.000000
   12       40.682973     41.035206   0.000000   0.000000
 
 -0.4375000E+00  0.4375000E+00  0.4375000E+00  0.1171875E-01
    1        1.052197      2.820170   1.000000   1.000000
    2        1.053107      2.878607   1.000000   1.000000
    3        5.430592      7.628331   1.000000  -0.010683
    4        5.430594      7.628333   1.000000   0.000000
    5        5.587759      7.856592   0.237213   0.000000
    6       13.537686     14.046443   0.000000   0.000000
    7       16.048363     16.355135   0.000000   0.000000
    8       16.048366     16.355140   0.000000   0.000000
    9       21.232917     22.142402   0.000000   0.000000
   10       22.399168     23.136935   0.000000   0.000000
   11       27.136162     28.151542   0.000000   0.000000
   12       43.887774     44.105004   0.000000   0.000000
