 running on    4 total cores
 distrk:  each k-point on    4 cores,    1 groups
 distr:  one band on    1 cores,    4 groups
 using from now: INCAR     
 vasp.5.4.1 24Jun15 (build Jul 19 2016 16:50:41) complex                        
  
 POSCAR found type information on POSCAR  Fe
 POSCAR found :  1 types and       1 ions
 LDA part: xc-table for Pade appr. of Perdew
 POSCAR, INCAR and KPOINTS ok, starting setup
 WARNING: small aliasing (wrap around) errors must be expected
 FFT: planning ...
 WAVECAR not read
 entering main loop
       N       E                     dE             d eps       ncg     rms          rms(c)
DAV:   1     0.174778306814E+02    0.17478E+02   -0.36588E+03  1376   0.743E+02
DAV:   2    -0.809673866264E+01   -0.25575E+02   -0.23143E+02  1300   0.116E+02
DAV:   3    -0.869417394872E+01   -0.59744E+00   -0.59078E+00  1448   0.206E+01
DAV:   4    -0.869614034124E+01   -0.19664E-02   -0.19586E-02  1404   0.105E+00
DAV:   5    -0.869615202750E+01   -0.11686E-04   -0.11631E-04  1440   0.853E-02    0.122E+01
DAV:   6    -0.829467269999E+01    0.40148E+00   -0.96677E+00  1412   0.398E+01    0.510E+00
DAV:   7    -0.824913966560E+01    0.45533E-01   -0.46061E-01  1460   0.850E+00    0.318E+00
DAV:   8    -0.824104682483E+01    0.80928E-02   -0.62430E-03  1500   0.585E-01    0.124E+00
DAV:   9    -0.823510719911E+01    0.59396E-02   -0.84656E-03  1680   0.628E-01    0.201E-01
DAV:  10    -0.823507873202E+01    0.28467E-04   -0.69806E-04  1388   0.354E-01    0.516E-02
DAV:  11    -0.823510501684E+01   -0.26285E-04   -0.38013E-05  1396   0.577E-02    0.391E-02
DAV:  12    -0.823511164616E+01   -0.66293E-05   -0.30253E-06  1400   0.161E-02    0.218E-02
DAV:  13    -0.823510986498E+01    0.17812E-05   -0.40171E-07   688   0.687E-03    0.141E-02
DAV:  14    -0.823510992938E+01   -0.64401E-07   -0.26996E-07   676   0.564E-03
   1 F= -.82351099E+01 E0= -.82351099E+01  d E =0.000000E+00  mag=     2.1998
 writing wavefunctions
