PROCAR lm decomposed
# of k-points:   26         # of bands:  12         # of ions:   1

 k-point    1 :    0.06250000 0.06250000 0.06250000     weight = 0.01562500

band   1 # energy   -1.73351209 # occ.  1.00000000
 
ion      s     py     pz     px    dxy    dyz    dz2    dxz    dx2    tot
  1  0.649  0.021  0.021  0.021  0.002  0.002  0.000  0.002  0.000  0.719
 
band   2 # energy    3.14027995 # occ.  1.00000000
 
ion      s     py     pz     px    dxy    dyz    dz2    dxz    dx2    tot
  1  0.000  0.001  0.001  0.001  0.357  0.299  0.014  0.283  0.010  0.967
 
band   3 # energy    3.14027995 # occ.  1.00000000
 
ion      s     py     pz     px    dxy    dyz    dz2    dxz    dx2    tot
  1  0.000  0.001  0.001  0.001  0.269  0.327  0.010  0.343  0.014  0.967
 
band   4 # energy    3.92374564 # occ.  1.00000000
 
ion      s     py     pz     px    dxy    dyz    dz2    dxz    dx2    tot
  1  0.002  0.003  0.003  0.003  0.321  0.321  0.000  0.321  0.000  0.974
 
band   5 # energy    4.49886762 # occ.  1.00000000
 
ion      s     py     pz     px    dxy    dyz    dz2    dxz    dx2    tot
  1  0.000  0.000  0.000  0.000  0.007  0.008  0.360  0.012  0.582  0.969
 
band   6 # energy    4.49886762 # occ.  1.00338958
 
ion      s     py     pz     px    dxy    dyz    dz2    dxz    dx2    tot
  1  0.000  0.000  0.000  0.000  0.011  0.010  0.582  0.006  0.360  0.969
 
band   7 # energy   26.83724470 # occ.  0.00000000
 
ion      s     py     pz     px    dxy    dyz    dz2    dxz    dx2    tot
  1  0.000  0.060  0.008  0.042  0.020  0.102  0.021  0.144  0.161  0.558
 
band   8 # energy   26.83724470 # occ.  0.00000000
 
ion      s     py     pz     px    dxy    dyz    dz2    dxz    dx2    tot
  1  0.000  0.014  0.065  0.031  0.157  0.076  0.161  0.033  0.021  0.558
 
band   9 # energy   30.62446756 # occ.  0.00000000
 
ion      s     py     pz     px    dxy    dyz    dz2    dxz    dx2    tot
  1  0.078  0.170  0.170  0.170  0.143  0.143  0.000  0.143  0.000  1.016
 
band  10 # energy   31.37517068 # occ.  0.00000000
 
ion      s     py     pz     px    dxy    dyz    dz2    dxz    dx2    tot
  1  0.000  0.000  0.000  0.000  0.000  0.000  0.000  0.000  0.000  0.000
 
band  11 # energy   36.26886330 # occ.  0.00000000
 
ion      s     py     pz     px    dxy    dyz    dz2    dxz    dx2    tot
  1  0.000  0.063  0.139  0.120  0.037  0.032  0.024  0.017  0.013  0.446
 
band  12 # energy   36.26886330 # occ.  0.00000000
 
ion      s     py     pz     px    dxy    dyz    dz2    dxz    dx2    tot
  1  0.000  0.152  0.076  0.095  0.020  0.025  0.013  0.041  0.024  0.446
 

 k-point    2 :    0.18750000 0.06250000 0.06250000     weight = 0.04687500

band   1 # energy   -0.15579109 # occ.  1.00000000
 
ion      s     py     pz     px    dxy    dyz    dz2    dxz    dx2    tot
  1  0.502  0.062  0.062  0.018  0.007  0.066  0.004  0.007  0.011  0.738
 
band   2 # energy    2.74175934 # occ.  1.00000000
 
ion      s     py     pz     px    dxy    dyz    dz2    dxz    dx2    tot
  1  0.000  0.002  0.002  0.000  0.464  0.000  0.019  0.464  0.006  0.957
 
band   3 # energy    2.94911588 # occ.  1.00000000
 
ion      s     py     pz     px    dxy    dyz    dz2    dxz    dx2    tot
  1  0.013  0.018  0.018  0.002  0.092  0.545  0.038  0.092  0.115  0.933
 
band   4 # energy    4.43881660 # occ.  1.00000000
 
ion      s     py     pz     px    dxy    dyz    dz2    dxz    dx2    tot
  1  0.001  0.000  0.000  0.000  0.016  0.152  0.197  0.016  0.590  0.972
 
band   5 # energy    4.61870230 # occ.  1.00091074
 
ion      s     py     pz     px    dxy    dyz    dz2    dxz    dx2    tot
  1  0.000  0.000  0.000  0.000  0.014  0.000  0.710  0.014  0.237  0.975
 
band   6 # energy    4.92374511 # occ.  0.88295347
 
ion      s     py     pz     px    dxy    dyz    dz2    dxz    dx2    tot
  1  0.014  0.011  0.011  0.010  0.369  0.181  0.000  0.369  0.000  0.967
 
band   7 # energy   21.41445143 # occ.  0.00000000
 
ion      s     py     pz     px    dxy    dyz    dz2    dxz    dx2    tot
  1  0.061  0.117  0.117  0.023  0.008  0.298  0.034  0.008  0.103  0.770
 
band   8 # energy   24.49942513 # occ.  0.00000000
 
ion      s     py     pz     px    dxy    dyz    dz2    dxz    dx2    tot
  1  0.000  0.103  0.103  0.000  0.152  0.000  0.076  0.152  0.025  0.613
 
band   9 # energy   26.78557982 # occ.  0.00000000
 
ion      s     py     pz     px    dxy    dyz    dz2    dxz    dx2    tot
  1  0.126  0.056  0.056  0.388  0.104  0.002  0.010  0.104  0.029  0.875
 
band  10 # energy   31.68054881 # occ.  0.00000000
 
ion      s     py     pz     px    dxy    dyz    dz2    dxz    dx2    tot
  1  0.000  0.003  0.003  0.000  0.177  0.000  0.018  0.177  0.006  0.383
 
band  11 # energy   35.69505685 # occ.  0.00000000
 
ion      s     py     pz     px    dxy    dyz    dz2    dxz    dx2    tot
  1  0.036  0.053  0.053  0.154  0.061  0.075  0.107  0.061  0.322  0.923
 
band  12 # energy   36.91480267 # occ.  0.00000000
 
ion      s     py     pz     px    dxy    dyz    dz2    dxz    dx2    tot
  1  0.000  0.105  0.105  0.000  0.140  0.000  0.004  0.140  0.001  0.496
 

 k-point    3 :    0.31250000 0.06250000 0.06250000     weight = 0.04687500

band   1 # energy    0.97328785 # occ.  1.00000000
 
ion      s     py     pz     px    dxy    dyz    dz2    dxz    dx2    tot
  1  0.205  0.023  0.023  0.016  0.001  0.400  0.042  0.001  0.127  0.840
 
band   2 # energy    2.39990127 # occ.  1.00000000
 
ion      s     py     pz     px    dxy    dyz    dz2    dxz    dx2    tot
  1  0.000  0.003  0.003  0.000  0.469  0.000  0.006  0.469  0.002  0.952
 
band   3 # energy    3.71867137 # occ.  1.00000000
 
ion      s     py     pz     px    dxy    dyz    dz2    dxz    dx2    tot
  1  0.080  0.117  0.117  0.000  0.161  0.086  0.031  0.161  0.093  0.846
 
band   4 # energy    4.57768974 # occ.  1.00000000
 
ion      s     py     pz     px    dxy    dyz    dz2    dxz    dx2    tot
  1  0.002  0.002  0.002  0.001  0.017  0.291  0.162  0.017  0.485  0.979
 
band   5 # energy    4.71341351 # occ.  1.03316633
 
ion      s     py     pz     px    dxy    dyz    dz2    dxz    dx2    tot
  1  0.000  0.000  0.000  0.000  0.005  0.000  0.729  0.005  0.243  0.981
 
band   6 # energy    6.33022756 # occ.  0.01096510
 
ion      s     py     pz     px    dxy    dyz    dz2    dxz    dx2    tot
  1  0.050  0.061  0.061  0.009  0.313  0.114  0.001  0.313  0.003  0.925
 
band   7 # energy   15.96615604 # occ.  0.00000000
 
ion      s     py     pz     px    dxy    dyz    dz2    dxz    dx2    tot
  1  0.223  0.106  0.106  0.013  0.004  0.296  0.022  0.004  0.066  0.840
 
band   8 # energy   22.80749370 # occ.  0.00000000
 
ion      s     py     pz     px    dxy    dyz    dz2    dxz    dx2    tot
  1  0.000  0.131  0.131  0.000  0.141  0.000  0.021  0.141  0.007  0.571
 
band   9 # energy   24.46819433 # occ.  0.00000000
 
ion      s     py     pz     px    dxy    dyz    dz2    dxz    dx2    tot
  1  0.125  0.009  0.009  0.528  0.035  0.013  0.012  0.035  0.037  0.804
 
band  10 # energy   31.13885256 # occ.  0.00000000
 
ion      s     py     pz     px    dxy    dyz    dz2    dxz    dx2    tot
  1  0.000  0.006  0.006  0.000  0.366  0.000  0.006  0.366  0.002  0.752
 
band  11 # energy   35.00370473 # occ.  0.00000000
 
ion      s     py     pz     px    dxy    dyz    dz2    dxz    dx2    tot
  1  0.103  0.021  0.021  0.127  0.016  0.000  0.155  0.016  0.464  0.923
 
band  12 # energy   40.22036276 # occ.  0.00000000
 
ion      s     py     pz     px    dxy    dyz    dz2    dxz    dx2    tot
  1  0.001  0.087  0.098  0.000  0.057  0.006  0.138  0.063  0.047  0.497
 

 k-point    4 :    0.43750000 0.06250000 0.06250000     weight = 0.02343750

band   1 # energy    1.02810215 # occ.  1.00000000
 
ion      s     py     pz     px    dxy    dyz    dz2    dxz    dx2    tot
  1  0.116  0.000  0.000  0.015  0.000  0.494  0.063  0.000  0.189  0.877
 
band   2 # energy    2.26846653 # occ.  1.00000000
 
ion      s     py     pz     px    dxy    dyz    dz2    dxz    dx2    tot
  1  0.000  0.004  0.004  0.000  0.471  0.000  0.000  0.471  0.000  0.950
 
band   3 # energy    4.63940270 # occ.  1.00000000
 
ion      s     py     pz     px    dxy    dyz    dz2    dxz    dx2    tot
  1  0.011  0.000  0.000  0.001  0.000  0.292  0.169  0.000  0.508  0.980
 
band   4 # energy    4.69967452 # occ.  1.00000000
 
ion      s     py     pz     px    dxy    dyz    dz2    dxz    dx2    tot
  1  0.000  0.133  0.133  0.000  0.302  0.000  0.000  0.302  0.000  0.870
 
band   5 # energy    4.75181255 # occ.  1.07997938
 
ion      s     py     pz     px    dxy    dyz    dz2    dxz    dx2    tot
  1  0.000  0.000  0.000  0.000  0.000  0.000  0.738  0.000  0.246  0.984
 
band   6 # energy    7.71917115 # occ. -0.00485073
 
ion      s     py     pz     px    dxy    dyz    dz2    dxz    dx2    tot
  1  0.000  0.207  0.207  0.000  0.202  0.000  0.000  0.202  0.000  0.818
 
band   7 # energy   12.87394963 # occ.  0.00000000
 
ion      s     py     pz     px    dxy    dyz    dz2    dxz    dx2    tot
  1  0.422  0.000  0.000  0.017  0.000  0.373  0.021  0.000  0.064  0.898
 
band   8 # energy   22.18800187 # occ.  0.00000000
 
ion      s     py     pz     px    dxy    dyz    dz2    dxz    dx2    tot
  1  0.000  0.139  0.139  0.000  0.135  0.000  0.000  0.135  0.000  0.548
 
band   9 # energy   23.60446321 # occ.  0.00000000
 
ion      s     py     pz     px    dxy    dyz    dz2    dxz    dx2    tot
  1  0.122  0.000  0.000  0.581  0.000  0.022  0.012  0.000  0.035  0.772
 
band  10 # energy   30.90335974 # occ.  0.00000000
 
ion      s     py     pz     px    dxy    dyz    dz2    dxz    dx2    tot
  1  0.000  0.007  0.007  0.000  0.422  0.000  0.000  0.422  0.000  0.858
 
band  11 # energy   34.89652687 # occ.  0.00000000
 
ion      s     py     pz     px    dxy    dyz    dz2    dxz    dx2    tot
  1  0.142  0.000  0.000  0.119  0.000  0.010  0.175  0.000  0.524  0.970
 
band  12 # energy   40.17084051 # occ.  0.00000000
 
ion      s     py     pz     px    dxy    dyz    dz2    dxz    dx2    tot
  1  0.000  0.034  0.034  0.000  0.007  0.000  0.000  0.007  0.000  0.081
 

 k-point    5 :   -0.06250000 0.06250000 0.06250000     weight = 0.01171875

band   1 # energy   -2.34341253 # occ.  1.00000000
 
ion      s     py     pz     px    dxy    dyz    dz2    dxz    dx2    tot
  1  0.694  0.000  0.000  0.022  0.000  0.000  0.000  0.000  0.000  0.716
 
band   2 # energy    3.33834859 # occ.  1.00000000
 
ion      s     py     pz     px    dxy    dyz    dz2    dxz    dx2    tot
  1  0.000  0.001  0.001  0.000  0.486  0.000  0.000  0.486  0.000  0.974
 
band   3 # energy    3.33834978 # occ.  1.00000000
 
ion      s     py     pz     px    dxy    dyz    dz2    dxz    dx2    tot
  1  0.000  0.001  0.001  0.000  0.486  0.000  0.000  0.486  0.000  0.974
 
band   4 # energy    3.42409973 # occ.  1.00000000
 
ion      s     py     pz     px    dxy    dyz    dz2    dxz    dx2    tot
  1  0.000  0.000  0.000  0.000  0.000  0.975  0.000  0.000  0.000  0.975
 
band   5 # energy    4.42554615 # occ.  1.00000000
 
ion      s     py     pz     px    dxy    dyz    dz2    dxz    dx2    tot
  1  0.000  0.000  0.000  0.000  0.000  0.000  0.723  0.000  0.241  0.964
 
band   6 # energy    4.61907705 # occ.  1.00000000
 
ion      s     py     pz     px    dxy    dyz    dz2    dxz    dx2    tot
  1  0.000  0.000  0.000  0.000  0.000  0.000  0.243  0.000  0.729  0.973
 
band   7 # energy   28.77902123 # occ.  0.00000000
 
ion      s     py     pz     px    dxy    dyz    dz2    dxz    dx2    tot
  1  0.000  0.000  0.000  0.000  0.000  0.000  0.193  0.000  0.064  0.258
 
band   8 # energy   30.10499532 # occ.  0.00000000
 
ion      s     py     pz     px    dxy    dyz    dz2    dxz    dx2    tot
  1  0.000  0.014  0.014  0.000  0.129  0.000  0.000  0.129  0.000  0.285
 
band   9 # energy   30.10499787 # occ.  0.00000000
 
ion      s     py     pz     px    dxy    dyz    dz2    dxz    dx2    tot
  1  0.000  0.014  0.014  0.000  0.129  0.000  0.000  0.129  0.000  0.285
 
band  10 # energy   33.15542677 # occ.  0.00000000
 
ion      s     py     pz     px    dxy    dyz    dz2    dxz    dx2    tot
  1  0.019  0.000  0.000  0.304  0.000  0.000  0.073  0.000  0.219  0.615
 
band  11 # energy   35.25723714 # occ.  0.00000000
 
ion      s     py     pz     px    dxy    dyz    dz2    dxz    dx2    tot
  1  0.000  0.226  0.226  0.000  0.243  0.000  0.000  0.243  0.000  0.939
 
band  12 # energy   35.25723764 # occ.  0.00000000
 
ion      s     py     pz     px    dxy    dyz    dz2    dxz    dx2    tot
  1  0.000  0.226  0.226  0.000  0.243  0.000  0.000  0.243  0.000  0.939
 

 k-point    6 :    0.18750000 0.18750000 0.06250000     weight = 0.04687500

band   1 # energy    1.30550786 # occ.  1.00000000
 
ion      s     py     pz     px    dxy    dyz    dz2    dxz    dx2    tot
  1  0.282  0.043  0.069  0.043  0.000  0.158  0.045  0.158  0.000  0.799
 
band   2 # energy    2.46827208 # occ.  1.00000000
 
ion      s     py     pz     px    dxy    dyz    dz2    dxz    dx2    tot
  1  0.000  0.019  0.000  0.019  0.000  0.346  0.000  0.346  0.196  0.926
 
band   3 # energy    2.66583539 # occ.  1.00000000
 
ion      s     py     pz     px    dxy    dyz    dz2    dxz    dx2    tot
  1  0.030  0.004  0.062  0.004  0.664  0.075  0.007  0.075  0.000  0.921
 
band   4 # energy    4.51772562 # occ.  1.00000000
 
ion      s     py     pz     px    dxy    dyz    dz2    dxz    dx2    tot
  1  0.000  0.001  0.000  0.001  0.000  0.110  0.000  0.110  0.754  0.976
 
band   5 # energy    4.74546523 # occ.  1.00075156
 
ion      s     py     pz     px    dxy    dyz    dz2    dxz    dx2    tot
  1  0.005  0.000  0.001  0.000  0.000  0.034  0.908  0.034  0.000  0.981
 
band   6 # energy    6.53195266 # occ. -0.00815127
 
ion      s     py     pz     px    dxy    dyz    dz2    dxz    dx2    tot
  1  0.067  0.029  0.056  0.029  0.299  0.216  0.018  0.216  0.000  0.931
 
band   7 # energy   18.91810082 # occ.  0.00000000
 
ion      s     py     pz     px    dxy    dyz    dz2    dxz    dx2    tot
  1  0.000  0.163  0.000  0.163  0.000  0.168  0.000  0.168  0.125  0.787
 
band   8 # energy   19.71218096 # occ.  0.00000000
 
ion      s     py     pz     px    dxy    dyz    dz2    dxz    dx2    tot
  1  0.212  0.015  0.252  0.015  0.073  0.093  0.016  0.093  0.000  0.768
 
band   9 # energy   23.59221664 # occ.  0.00000000
 
ion      s     py     pz     px    dxy    dyz    dz2    dxz    dx2    tot
  1  0.141  0.200  0.008  0.200  0.168  0.007  0.029  0.007  0.000  0.759
 
band  10 # energy   33.59900596 # occ.  0.00000000
 
ion      s     py     pz     px    dxy    dyz    dz2    dxz    dx2    tot
  1  0.000  0.013  0.000  0.013  0.000  0.090  0.000  0.090  0.142  0.348
 
band  11 # energy   37.20026307 # occ.  0.00000000
 
ion      s     py     pz     px    dxy    dyz    dz2    dxz    dx2    tot
  1  0.021  0.023  0.032  0.023  0.382  0.162  0.015  0.162  0.000  0.818
 
band  12 # energy   39.59278957 # occ.  0.00000000
 
ion      s     py     pz     px    dxy    dyz    dz2    dxz    dx2    tot
  1  0.000  0.088  0.000  0.088  0.000  0.028  0.000  0.028  0.407  0.640
 

 k-point    7 :    0.31250000 0.18750000 0.06250000     weight = 0.09375000

band   1 # energy    1.64296612 # occ.  1.00000000
 
ion      s     py     pz     px    dxy    dyz    dz2    dxz    dx2    tot
  1  0.083  0.002  0.006  0.043  0.030  0.530  0.056  0.040  0.098  0.888
 
band   2 # energy    2.30587570 # occ.  1.00000000
 
ion      s     py     pz     px    dxy    dyz    dz2    dxz    dx2    tot
  1  0.000  0.021  0.009  0.011  0.324  0.023  0.000  0.474  0.070  0.932
 
band   3 # energy    3.29566266 # occ.  1.00000000
 
ion      s     py     pz     px    dxy    dyz    dz2    dxz    dx2    tot
  1  0.019  0.079  0.111  0.001  0.372  0.009  0.080  0.145  0.060  0.878
 
band   4 # energy    4.65494104 # occ.  1.00000000
 
ion      s     py     pz     px    dxy    dyz    dz2    dxz    dx2    tot
  1  0.003  0.001  0.000  0.002  0.000  0.212  0.053  0.047  0.663  0.980
 
band   5 # energy    4.83983198 # occ.  1.00975654
 
ion      s     py     pz     px    dxy    dyz    dz2    dxz    dx2    tot
  1  0.004  0.004  0.005  0.000  0.055  0.013  0.766  0.079  0.055  0.982
 
band   6 # energy    8.97903980 # occ. -0.00357185
 
ion      s     py     pz     px    dxy    dyz    dz2    dxz    dx2    tot
  1  0.073  0.116  0.173  0.019  0.188  0.081  0.031  0.171  0.000  0.851
 
band   7 # energy   14.29416699 # occ.  0.00000000
 
ion      s     py     pz     px    dxy    dyz    dz2    dxz    dx2    tot
  1  0.248  0.115  0.029  0.068  0.014  0.283  0.004  0.018  0.060  0.839
 
band   8 # energy   18.14786239 # occ.  0.00000000
 
ion      s     py     pz     px    dxy    dyz    dz2    dxz    dx2    tot
  1  0.178  0.050  0.102  0.154  0.088  0.003  0.001  0.162  0.028  0.764
 
band   9 # energy   22.32191220 # occ.  0.00000000
 
ion      s     py     pz     px    dxy    dyz    dz2    dxz    dx2    tot
  1  0.130  0.111  0.055  0.237  0.110  0.039  0.008  0.044  0.003  0.738
 
band  10 # energy   33.94449689 # occ.  0.00000000
 
ion      s     py     pz     px    dxy    dyz    dz2    dxz    dx2    tot
  1  0.008  0.001  0.002  0.027  0.136  0.006  0.013  0.212  0.144  0.548
 
band  11 # energy   38.25207784 # occ.  0.00000000
 
ion      s     py     pz     px    dxy    dyz    dz2    dxz    dx2    tot
  1  0.004  0.061  0.001  0.000  0.158  0.061  0.091  0.010  0.114  0.499
 
band  12 # energy   40.19524436 # occ.  0.00000000
 
ion      s     py     pz     px    dxy    dyz    dz2    dxz    dx2    tot
  1  0.047  0.007  0.004  0.119  0.064  0.000  0.242  0.035  0.304  0.822
 

 k-point    8 :   -0.18750000 0.18750000 0.06250000     weight = 0.04687500

band   1 # energy   -1.16411458 # occ.  1.00000000
 
ion      s     py     pz     px    dxy    dyz    dz2    dxz    dx2    tot
  1  0.601  0.018  0.000  0.079  0.013  0.000  0.006  0.000  0.005  0.722
 
band   2 # energy    3.07854286 # occ.  1.00000000
 
ion      s     py     pz     px    dxy    dyz    dz2    dxz    dx2    tot
  1  0.000  0.000  0.002  0.000  0.000  0.375  0.000  0.590  0.000  0.967
 
band   3 # energy    3.26884275 # occ.  1.00000000
 
ion      s     py     pz     px    dxy    dyz    dz2    dxz    dx2    tot
  1  0.005  0.012  0.000  0.007  0.810  0.000  0.108  0.000  0.011  0.953
 
band   4 # energy    4.02699216 # occ.  1.00000000
 
ion      s     py     pz     px    dxy    dyz    dz2    dxz    dx2    tot
  1  0.000  0.000  0.006  0.000  0.000  0.597  0.000  0.371  0.000  0.974
 
band   5 # energy    4.19154869 # occ.  1.00000000
 
ion      s     py     pz     px    dxy    dyz    dz2    dxz    dx2    tot
  1  0.000  0.000  0.000  0.000  0.126  0.000  0.654  0.000  0.179  0.960
 
band   6 # energy    4.71618463 # occ.  1.01080799
 
ion      s     py     pz     px    dxy    dyz    dz2    dxz    dx2    tot
  1  0.005  0.000  0.000  0.001  0.005  0.000  0.188  0.000  0.777  0.976
 
band   7 # energy   24.28872973 # occ.  0.00000000
 
ion      s     py     pz     px    dxy    dyz    dz2    dxz    dx2    tot
  1  0.028  0.126  0.000  0.058  0.277  0.000  0.198  0.000  0.015  0.701
 
band   8 # energy   27.67246199 # occ.  0.00000000
 
ion      s     py     pz     px    dxy    dyz    dz2    dxz    dx2    tot
  1  0.026  0.001  0.000  0.143  0.050  0.000  0.047  0.000  0.143  0.410
 
band   9 # energy   28.51189162 # occ.  0.00000000
 
ion      s     py     pz     px    dxy    dyz    dz2    dxz    dx2    tot
  1  0.000  0.000  0.209  0.000  0.000  0.023  0.000  0.584  0.000  0.816
 
band  10 # energy   32.54037615 # occ.  0.00000000
 
ion      s     py     pz     px    dxy    dyz    dz2    dxz    dx2    tot
  1  0.001  0.254  0.000  0.077  0.225  0.000  0.120  0.000  0.002  0.679
 
band  11 # energy   32.69054972 # occ.  0.00000000
 
ion      s     py     pz     px    dxy    dyz    dz2    dxz    dx2    tot
  1  0.000  0.000  0.349  0.000  0.000  0.473  0.000  0.005  0.000  0.826
 
band  12 # energy   34.25731343 # occ.  0.00000000
 
ion      s     py     pz     px    dxy    dyz    dz2    dxz    dx2    tot
  1  0.095  0.123  0.000  0.123  0.000  0.000  0.097  0.000  0.007  0.446
 

 k-point    9 :    0.31250000 0.31250000 0.06250000     weight = 0.01562500

band   1 # energy    1.95565143 # occ.  1.00000000
 
ion      s     py     pz     px    dxy    dyz    dz2    dxz    dx2    tot
  1  0.038  0.007  0.007  0.007  0.290  0.290  0.000  0.290  0.000  0.926
 
band   2 # energy    2.66108945 # occ.  1.00000000
 
ion      s     py     pz     px    dxy    dyz    dz2    dxz    dx2    tot
  1  0.000  0.022  0.089  0.022  0.363  0.091  0.216  0.091  0.000  0.894
 
band   3 # energy    2.66109101 # occ.  1.00000000
 
ion      s     py     pz     px    dxy    dyz    dz2    dxz    dx2    tot
  1  0.000  0.067  0.000  0.067  0.000  0.272  0.000  0.272  0.216  0.894
 
band   4 # energy    4.78980835 # occ.  1.00000000
 
ion      s     py     pz     px    dxy    dyz    dz2    dxz    dx2    tot
  1  0.000  0.004  0.000  0.004  0.000  0.121  0.000  0.121  0.732  0.982
 
band   5 # energy    4.78980850 # occ.  1.00000000
 
ion      s     py     pz     px    dxy    dyz    dz2    dxz    dx2    tot
  1  0.000  0.001  0.005  0.001  0.162  0.040  0.732  0.040  0.000  0.982
 
band   6 # energy   12.48196246 # occ.  0.00000000
 
ion      s     py     pz     px    dxy    dyz    dz2    dxz    dx2    tot
  1  0.000  0.072  0.287  0.072  0.218  0.055  0.059  0.055  0.000  0.816
 
band   7 # energy   12.48196461 # occ.  0.00000000
 
ion      s     py     pz     px    dxy    dyz    dz2    dxz    dx2    tot
  1  0.000  0.215  0.000  0.215  0.000  0.164  0.000  0.164  0.059  0.816
 
band   8 # energy   14.94497072 # occ.  0.00000000
 
ion      s     py     pz     px    dxy    dyz    dz2    dxz    dx2    tot
  1  0.585  0.002  0.002  0.002  0.077  0.077  0.000  0.077  0.000  0.821
 
band   9 # energy   21.85346855 # occ.  0.00000000
 
ion      s     py     pz     px    dxy    dyz    dz2    dxz    dx2    tot
  1  0.129  0.128  0.128  0.128  0.081  0.081  0.000  0.081  0.000  0.756
 
band  10 # energy   36.37895296 # occ.  0.00000000
 
ion      s     py     pz     px    dxy    dyz    dz2    dxz    dx2    tot
  1  0.000  0.008  0.032  0.008  0.062  0.016  0.284  0.016  0.000  0.426
 
band  11 # energy   36.37895530 # occ.  0.00000000
 
ion      s     py     pz     px    dxy    dyz    dz2    dxz    dx2    tot
  1  0.000  0.024  0.000  0.024  0.000  0.047  0.000  0.047  0.284  0.426
 
band  12 # energy   43.42544914 # occ.  0.00000000
 
ion      s     py     pz     px    dxy    dyz    dz2    dxz    dx2    tot
  1  0.026  0.052  0.052  0.052  0.357  0.357  0.000  0.357  0.000  1.254
 

 k-point   10 :   -0.31250000 0.31250000 0.06250000     weight = 0.04687500

band   1 # energy    0.45760047 # occ.  1.00000000
 
ion      s     py     pz     px    dxy    dyz    dz2    dxz    dx2    tot
  1  0.361  0.028  0.000  0.090  0.198  0.000  0.092  0.000  0.010  0.780
 
band   2 # energy    2.69149774 # occ.  1.00000000
 
ion      s     py     pz     px    dxy    dyz    dz2    dxz    dx2    tot
  1  0.000  0.000  0.002  0.000  0.000  0.433  0.000  0.523  0.000  0.958
 
band   3 # energy    3.33272950 # occ.  1.00000000
 
ion      s     py     pz     px    dxy    dyz    dz2    dxz    dx2    tot
  1  0.058  0.062  0.000  0.069  0.264  0.000  0.275  0.000  0.148  0.877
 
band   4 # energy    4.39247572 # occ.  1.00000000
 
ion      s     py     pz     px    dxy    dyz    dz2    dxz    dx2    tot
  1  0.001  0.010  0.000  0.010  0.451  0.000  0.477  0.000  0.018  0.968
 
band   5 # energy    4.89781489 # occ.  1.01739731
 
ion      s     py     pz     px    dxy    dyz    dz2    dxz    dx2    tot
  1  0.033  0.009  0.000  0.018  0.006  0.000  0.098  0.000  0.801  0.965
 
band   6 # energy    5.01656164 # occ.  0.70922378
 
ion      s     py     pz     px    dxy    dyz    dz2    dxz    dx2    tot
  1  0.000  0.000  0.008  0.000  0.000  0.537  0.000  0.434  0.000  0.979
 
band   7 # energy   18.51756357 # occ.  0.00000000
 
ion      s     py     pz     px    dxy    dyz    dz2    dxz    dx2    tot
  1  0.141  0.171  0.000  0.092  0.295  0.000  0.115  0.000  0.007  0.822
 
band   8 # energy   25.27966782 # occ.  0.00000000
 
ion      s     py     pz     px    dxy    dyz    dz2    dxz    dx2    tot
  1  0.028  0.057  0.000  0.146  0.003  0.000  0.070  0.000  0.067  0.372
 
band   9 # energy   26.36219734 # occ.  0.00000000
 
ion      s     py     pz     px    dxy    dyz    dz2    dxz    dx2    tot
  1  0.000  0.000  0.471  0.000  0.000  0.014  0.000  0.428  0.000  0.914
 
band  10 # energy   30.84901826 # occ.  0.00000000
 
ion      s     py     pz     px    dxy    dyz    dz2    dxz    dx2    tot
  1  0.000  0.000  0.191  0.000  0.000  0.590  0.000  0.165  0.000  0.946
 
band  11 # energy   32.72245192 # occ.  0.00000000
 
ion      s     py     pz     px    dxy    dyz    dz2    dxz    dx2    tot
  1  0.081  0.228  0.000  0.000  0.017  0.000  0.458  0.000  0.004  0.790
 
band  12 # energy   35.63013303 # occ.  0.00000000
 
ion      s     py     pz     px    dxy    dyz    dz2    dxz    dx2    tot
  1  0.111  0.018  0.000  0.068  0.187  0.000  0.031  0.000  0.111  0.525
 

 k-point   11 :   -0.18750000 0.31250000 0.06250000     weight = 0.04687500

band   1 # energy    0.27161751 # occ.  1.00000000
 
ion      s     py     pz     px    dxy    dyz    dz2    dxz    dx2    tot
  1  0.440  0.013  0.013  0.137  0.039  0.000  0.017  0.039  0.050  0.746
 
band   2 # energy    2.87011770 # occ.  1.00000000
 
ion      s     py     pz     px    dxy    dyz    dz2    dxz    dx2    tot
  1  0.000  0.010  0.010  0.000  0.281  0.000  0.262  0.281  0.087  0.931
 
band   3 # energy    3.06948103 # occ.  1.00000000
 
ion      s     py     pz     px    dxy    dyz    dz2    dxz    dx2    tot
  1  0.010  0.004  0.004  0.020  0.220  0.471  0.000  0.220  0.000  0.949
 
band   4 # energy    4.07017588 # occ.  1.00000000
 
ion      s     py     pz     px    dxy    dyz    dz2    dxz    dx2    tot
  1  0.000  0.002  0.002  0.000  0.187  0.000  0.438  0.187  0.146  0.962
 
band   5 # energy    4.74606709 # occ.  1.00179294
 
ion      s     py     pz     px    dxy    dyz    dz2    dxz    dx2    tot
  1  0.001  0.003  0.003  0.001  0.160  0.336  0.079  0.160  0.236  0.979
 
band   6 # energy    5.09463708 # occ.  0.76009839
 
ion      s     py     pz     px    dxy    dyz    dz2    dxz    dx2    tot
  1  0.046  0.006  0.006  0.023  0.055  0.164  0.151  0.055  0.454  0.961
 
band   7 # energy   21.49671144 # occ.  0.00000000
 
ion      s     py     pz     px    dxy    dyz    dz2    dxz    dx2    tot
  1  0.000  0.128  0.128  0.000  0.136  0.000  0.188  0.136  0.063  0.778
 
band   8 # energy   22.45717786 # occ.  0.00000000
 
ion      s     py     pz     px    dxy    dyz    dz2    dxz    dx2    tot
  1  0.146  0.067  0.067  0.177  0.143  0.017  0.001  0.143  0.004  0.765
 
band   9 # energy   28.97428984 # occ.  0.00000000
 
ion      s     py     pz     px    dxy    dyz    dz2    dxz    dx2    tot
  1  0.000  0.057  0.057  0.000  0.134  0.000  0.194  0.134  0.065  0.641
 
band  10 # energy   29.18653654 # occ.  0.00000000
 
ion      s     py     pz     px    dxy    dyz    dz2    dxz    dx2    tot
  1  0.001  0.224  0.224  0.061  0.017  0.088  0.003  0.017  0.010  0.647
 
band  11 # energy   32.93399014 # occ.  0.00000000
 
ion      s     py     pz     px    dxy    dyz    dz2    dxz    dx2    tot
  1  0.101  0.001  0.001  0.062  0.125  0.342  0.013  0.125  0.039  0.810
 
band  12 # energy   37.55264457 # occ.  0.00000000
 
ion      s     py     pz     px    dxy    dyz    dz2    dxz    dx2    tot
  1  0.000  0.145  0.145  0.000  0.004  0.000  0.102  0.004  0.034  0.434
 

 k-point   12 :   -0.43750000 0.43750000 0.06250000     weight = 0.04687500

band   1 # energy    0.90812536 # occ.  1.00000000
 
ion      s     py     pz     px    dxy    dyz    dz2    dxz    dx2    tot
  1  0.142  0.000  0.000  0.016  0.433  0.000  0.274  0.000  0.001  0.866
 
band   2 # energy    2.42879486 # occ.  1.00000000
 
ion      s     py     pz     px    dxy    dyz    dz2    dxz    dx2    tot
  1  0.000  0.000  0.002  0.000  0.000  0.463  0.000  0.489  0.000  0.954
 
band   3 # energy    4.09281769 # occ.  1.00000000
 
ion      s     py     pz     px    dxy    dyz    dz2    dxz    dx2    tot
  1  0.017  0.060  0.000  0.066  0.003  0.000  0.103  0.000  0.656  0.905
 
band   4 # energy    4.55523347 # occ.  1.00000000
 
ion      s     py     pz     px    dxy    dyz    dz2    dxz    dx2    tot
  1  0.008  0.005  0.000  0.004  0.336  0.000  0.540  0.000  0.082  0.975
 
band   5 # energy    5.81190182 # occ.  0.48884829
 
ion      s     py     pz     px    dxy    dyz    dz2    dxz    dx2    tot
  1  0.000  0.000  0.002  0.000  0.000  0.511  0.000  0.478  0.000  0.990
 
band   6 # energy    6.26360288 # occ.  0.00079638
 
ion      s     py     pz     px    dxy    dyz    dz2    dxz    dx2    tot
  1  0.055  0.196  0.000  0.236  0.062  0.000  0.009  0.000  0.246  0.803
 
band   7 # energy   13.77836352 # occ.  0.00000000
 
ion      s     py     pz     px    dxy    dyz    dz2    dxz    dx2    tot
  1  0.346  0.082  0.000  0.023  0.332  0.000  0.094  0.000  0.003  0.881
 
band   8 # energy   23.91611408 # occ.  0.00000000
 
ion      s     py     pz     px    dxy    dyz    dz2    dxz    dx2    tot
  1  0.025  0.106  0.000  0.132  0.001  0.000  0.069  0.000  0.008  0.340
 
band   9 # energy   24.74767808 # occ.  0.00000000
 
ion      s     py     pz     px    dxy    dyz    dz2    dxz    dx2    tot
  1  0.000  0.000  0.616  0.000  0.000  0.045  0.000  0.174  0.000  0.835
 
band  10 # energy   30.13960274 # occ.  0.00000000
 
ion      s     py     pz     px    dxy    dyz    dz2    dxz    dx2    tot
  1  0.000  0.000  0.119  0.000  0.000  0.550  0.000  0.413  0.000  1.082
 
band  11 # energy   32.97355012 # occ.  0.00000000
 
ion      s     py     pz     px    dxy    dyz    dz2    dxz    dx2    tot