<?xml version="1.0" encoding="ISO-8859-1"?>
<modeling>
 <generator>
  <i name="program" type="string">vasp </i>
  <i name="version" type="string">5.4.1  </i>
  <i name="subversion" type="string">24Jun15 (build Jul 19 2016 16:50:41) complex                          parallel </i>
  <i name="platform" type="string">IFC91_ompi </i>
  <i name="date" type="string">2019 10 17 </i>
  <i name="time" type="string">12:02:32 </i>
 </generator>
 <incar>
  <i type="string" name="SYSTEM"> Fe BCC</i>
  <i type="string" name="PREC">accurate</i>
  <i type="int" name="ISPIN">     2</i>
  <i name="EDIFF">      0.00000100</i>
  <i name="ENMAX">    400.00000000</i>
  <v name="MAGMOM">      4.00000000</v>
  <i type="int" name="ISMEAR">    -5</i>
  <i type="logical" name="LORBIT"> F  </i>
  <v type="int" name="KPOINT_BSE">    -1     0     0     0</v>
 </incar>
 <kpoints>
  <generation param="Monkhorst-Pack">
   <v type="int" name="divisions">       8        8        8 </v>
   <v name="usershift">      0.00000000       0.00000000       0.00000000 </v>
   <v name="genvec1">      0.12500000       0.00000000       0.00000000 </v>
   <v name="genvec2">      0.00000000       0.12500000       0.00000000 </v>
   <v name="genvec3">      0.00000000       0.00000000       0.12500000 </v>
   <v name="shift">      0.50000000       0.50000000       0.50000000 </v>
  </generation>
  <varray name="kpointlist" >
   <v>       0.06250000       0.06250000       0.06250000 </v>
   <v>       0.18750000       0.06250000       0.06250000 </v>
   <v>       0.31250000       0.06250000       0.06250000 </v>
   <v>       0.43750000       0.06250000       0.06250000 </v>
   <v>      -0.06250000       0.06250000       0.06250000 </v>
   <v>       0.18750000       0.18750000       0.06250000 </v>
   <v>       0.31250000       0.18750000       0.06250000 </v>
   <v>      -0.18750000       0.18750000       0.06250000 </v>
   <v>       0.31250000       0.31250000       0.06250000 </v>
   <v>      -0.31250000       0.31250000       0.06250000 </v>
   <v>      -0.18750000       0.31250000       0.06250000 </v>
   <v>      -0.43750000       0.43750000       0.06250000 </v>
   <v>      -0.31250000       0.43750000       0.06250000 </v>
   <v>      -0.43750000      -0.43750000       0.06250000 </v>
   <v>      -0.31250000      -0.43750000       0.06250000 </v>
   <v>       0.18750000       0.18750000       0.18750000 </v>
   <v>       0.31250000       0.18750000       0.18750000 </v>
   <v>      -0.18750000       0.18750000       0.18750000 </v>
   <v>      -0.31250000       0.31250000       0.18750000 </v>
   <v>      -0.43750000       0.43750000       0.18750000 </v>
   <v>      -0.31250000       0.43750000       0.18750000 </v>
   <v>      -0.43750000      -0.43750000       0.18750000 </v>
   <v>      -0.31250000       0.31250000       0.31250000 </v>
   <v>      -0.43750000       0.43750000       0.31250000 </v>
   <v>      -0.43750000      -0.43750000       0.31250000 </v>
   <v>      -0.43750000       0.43750000       0.43750000 </v>
  </varray>
  <varray name="weights" >
   <v>       0.01562500 </v>
   <v>       0.04687500 </v>
   <v>       0.04687500 </v>
   <v>       0.02343750 </v>
   <v>       0.01171875 </v>
   <v>       0.04687500 </v>
   <v>       0.09375000 </v>
   <v>       0.04687500 </v>
   <v>       0.01562500 </v>
   <v>       0.04687500 </v>
   <v>       0.04687500 </v>
   <v>       0.04687500 </v>
   <v>       0.09375000 </v>
   <v>       0.04687500 </v>
   <v>       0.04687500 </v>
   <v>       0.01562500 </v>
   <v>       0.02343750 </v>
   <v>       0.01171875 </v>
   <v>       0.04687500 </v>
   <v>       0.04687500 </v>
   <v>       0.04687500 </v>
   <v>       0.04687500 </v>
   <v>       0.01171875 </v>
   <v>       0.04687500 </v>
   <v>       0.01562500 </v>
   <v>       0.01171875 </v>
  </varray>
  <varray name="tetrahedronlist"  type="int" >
   <v type="int" >        4        1        2        2        6 </v>
   <v type="int" >        8        2        2        6        6 </v>
   <v type="int" >        4        2        6        6       16 </v>
   <v type="int" >        4        2        3        6        7 </v>
   <v type="int" >        4        2        6        6        7 </v>
   <v type="int" >       12        6        6        7       16 </v>
   <v type="int" >        8        3        6        7        7 </v>
   <v type="int" >        8        6        7        7       17 </v>
   <v type="int" >        8        6        7       16       17 </v>
   <v type="int" >        4        3        4        7        7 </v>
   <v type="int" >        4        3        7        7        7 </v>
   <v type="int" >       16        7        7        7       17 </v>
   <v type="int" >        8        4        7        7        7 </v>
   <v type="int" >        4        7        7        7       16 </v>
   <v type="int" >       20        7        7       16       17 </v>
   <v type="int" >        4        3        4        6        7 </v>
   <v type="int" >        4        4        6        7        7 </v>
   <v type="int" >       16        6        7        7       16 </v>
   <v type="int" >        8        3        6        6        7 </v>
   <v type="int" >        4        6        6        6        7 </v>
   <v type="int" >        4        2        2        3        6 </v>
   <v type="int" >        8        2        3        6        6 </v>
   <v type="int" >        4        2        6        6        6 </v>
   <v type="int" >        4        2        2        2        6 </v>
   <v type="int" >        8        2        2        6       11 </v>
   <v type="int" >        4        2        6        6       11 </v>
   <v type="int" >       16        1        2        2        8 </v>
   <v type="int" >        4        2        2        2        8 </v>
   <v type="int" >       12        2        2        8       11 </v>
   <v type="int" >       16        1        2        8        8 </v>
   <v type="int" >        4        2        8        8       18 </v>
   <v type="int" >        4        2        8       11       18 </v>
   <v type="int" >       20        1        5        8        8 </v>
   <v type="int" >        4        1        8        8        8 </v>
   <v type="int" >        4        8        8        8       18 </v>
   <v type="int" >        8        5        8        8        8 </v>
   <v type="int" >        4        8        8        8       11 </v>
   <v type="int" >        4        8        8       11       18 </v>
   <v type="int" >        8        1        2        5        8 </v>
   <v type="int" >        8        2        5        8        8 </v>
   <v type="int" >        8        2        8        8       11 </v>
   <v type="int" >        4        2        2        6        8 </v>
   <v type="int" >        4        2        6        8       11 </v>
   <v type="int" >        4        6        7        9       16 </v>
   <v type="int" >       16        7        9       16       17 </v>
   <v type="int" >       12        9       16       17       17 </v>
   <v type="int" >       20        7        7        9       17 </v>
   <v type="int" >       12        7        9       17       17 </v>
   <v type="int" >        8        7        7       17       17 </v>
   <v type="int" >       12        3        6        7       16 </v>
   <v type="int" >        8        3        7        7       16 </v>
   <v type="int" >        8        3        6        6       16 </v>
   <v type="int" >        4        3        6       13       16 </v>
   <v type="int" >        4        3        7       13       16 </v>
   <v type="int" >        4        2        6        6       10 </v>
   <v type="int" >        4        3        6        6       10 </v>
   <v type="int" >        8        3        6       10       13 </v>
   <v type="int" >       12        2        6       10       11 </v>
   <v type="int" >        4        6       10       11       19 </v>
   <v type="int" >        4        6       10       13       19 </v>
   <v type="int" >        4        2        8       11       11 </v>
   <v type="int" >        4        2       10       11       11 </v>
   <v type="int" >        4       10       11       11       19 </v>
   <v type="int" >        8        8       11       11       18 </v>
   <v type="int" >        8       11       11       18       19 </v>
   <v type="int" >        4       11       11       19       19 </v>
   <v type="int" >        4        8        8       10       18 </v>
   <v type="int" >       12        8       10       11       18 </v>
   <v type="int" >       12       10       11       18       19 </v>
   <v type="int" >        4       10       11       13       18 </v>
   <v type="int" >        4       10       13       18       19 </v>
   <v type="int" >        4        2        3        8       11 </v>
   <v type="int" >        4        3        8       10       11 </v>
   <v type="int" >        8        3       10       11       13 </v>
   <v type="int" >       16        2        3        6       11 </v>
   <v type="int" >        4        3        6        7       11 </v>
   <v type="int" >        4        3        7       11       13 </v>
   <v type="int" >        4        4        7        9       17 </v>
   <v type="int" >        8        4        7        7       17 </v>
   <v type="int" >        4        4        7       14       17 </v>
   <v type="int" >        4        3        7        7       12 </v>
   <v type="int" >        8        4        7        7       12 </v>
   <v type="int" >        8        4        7       12       14 </v>
   <v type="int" >        8        3        7       12       13 </v>
   <v type="int" >        4        7       12       13       20 </v>
   <v type="int" >        4        7       12       14       20 </v>
   <v type="int" >        4        3       10       13       13 </v>
   <v type="int" >        4        3       12       13       13 </v>
   <v type="int" >        4       12       13       13       20 </v>
   <v type="int" >        8       10       13       13       19 </v>
   <v type="int" >       12       13       13       19       21 </v>
   <v type="int" >        4       13       13       20       21 </v>
   <v type="int" >        8       10       11       13       19 </v>
   <v type="int" >        8       11       13       19       19 </v>
   <v type="int" >        4       13       19       19       20 </v>
   <v type="int" >        8       13       19       20       21 </v>
   <v type="int" >        4       10       11       12       19 </v>
   <v type="int" >        4       11       12       13       19 </v>
   <v type="int" >        8       12       13       19       20 </v>
   <v type="int" >        8       10       12       13       19 </v>
   <v type="int" >        4       12       13       14       19 </v>
   <v type="int" >        4       12       14       19       20 </v>
   <v type="int" >        4        3        4       10       13 </v>
   <v type="int" >        4        4       10       12       13 </v>
   <v type="int" >       12        4       12       13       14 </v>
   <v type="int" >       12        3        4        7       13 </v>
   <v type="int" >        8        4        7        7       13 </v>
   <v type="int" >       12        4        7       13       14 </v>
   <v type="int" >        4        4       12       14       14 </v>
   <v type="int" >        4       12       14       14       20 </v>
   <v type="int" >        4       14       14       20       22 </v>
   <v type="int" >        4       12       13       15       20 </v>
   <v type="int" >        4       12       14       15       20 </v>
   <v type="int" >        8       14       15       20       22 </v>
   <v type="int" >       12       13       15       20       21 </v>
   <v type="int" >       12       15       20       21       22 </v>
   <v type="int" >        4       15       20       22       22 </v>
   <v type="int" >        4       13       13       14       21 </v>
   <v type="int" >       12       13       14       15       21 </v>
   <v type="int" >       16       14       15       21       22 </v>
   <v type="int" >        8       13       14       20       21 </v>
   <v type="int" >        4       14       20       20       21 </v>
   <v type="int" >       12       14       20       21       22 </v>
   <v type="int" >        4       12       12       13       20 </v>
   <v type="int" >        8       12       13       14       20 </v>
   <v type="int" >        8       12       14       20       20 </v>
   <v type="int" >        8       12       12       14       20 </v>
   <v type="int" >        4       12       13       20       20 </v>
   <v type="int" >       16        3        4       12       14 </v>
   <v type="int" >        8        3       12       12       14 </v>
   <v type="int" >        8        3       12       13       14 </v>
   <v type="int" >       16        3        4        7       14 </v>
   <v type="int" >        4        3        6        7       14 </v>
   <v type="int" >        4        3        6       13       14 </v>
   <v type="int" >        8       14       15       15       22 </v>
   <v type="int" >        8       15       15       22       22 </v>
   <v type="int" >        8       15       21       22       22 </v>
   <v type="int" >       12       13       14       15       22 </v>
   <v type="int" >        4       13       15       15       22 </v>
   <v type="int" >        8       13       15       21       22 </v>
   <v type="int" >       12       13       14       20       22 </v>
   <v type="int" >        4       13       19       20       22 </v>
   <v type="int" >        4       13       19       21       22 </v>
   <v type="int" >        4       10       12       14       20 </v>
   <v type="int" >        4       10       13       14       20 </v>
   <v type="int" >        8       10       13       19       20 </v>
   <v type="int" >        8       10       12       13       20 </v>
   <v type="int" >        4       10       11       13       20 </v>
   <v type="int" >        4       10       11       19       20 </v>
   <v type="int" >        4        2        3       12       13 </v>
   <v type="int" >        4        2       10       12       13 </v>
   <v type="int" >        8        2       10       11       13 </v>
   <v type="int" >       12        2        3        6       13 </v>
   <v type="int" >        4        2        2        6       13 </v>
   <v type="int" >        4        2        2       11       13 </v>
   <v type="int" >        4       11       13       15       21 </v>
   <v type="int" >        8       11       13       19       21 </v>
   <v type="int" >        4       11       18       19       21 </v>
   <v type="int" >        4        8       10       13       19 </v>
   <v type="int" >        4        8       11       13       19 </v>
   <v type="int" >        8        8       11       18       19 </v>
   <v type="int" >        8        8       10       11       19 </v>
   <v type="int" >        4        8        8       11       19 </v>
   <v type="int" >        4        8        8       18       19 </v>
   <v type="int" >        4        1        2       10       11 </v>
   <v type="int" >        4        1        8       10       11 </v>
   <v type="int" >        8        1        8        8       11 </v>
   <v type="int" >        8        1        2        2       11 </v>
   <v type="int" >       12        1        2        8       11 </v>
   <v type="int" >        4        5        8       11       18 </v>
   <v type="int" >        4        5        8        8       18 </v>
   <v type="int" >        4        1        5        8       18 </v>
   <v type="int" >        4        5        5        8        8 </v>
   <v type="int" >       12        1        5        5        8 </v>
   <v type="int" >        6        1        1        5        5 </v>
   <v type="int" >        8        1        1        5        8 </v>
   <v type="int" >        4        1        1        2        8 </v>
   <v type="int" >        4        2        3        6       16 </v>
   <v type="int" >        4        3        7       16       17 </v>
   <v type="int" >       12        7       16       17       17 </v>
   <v type="int" >        8        7       17       17       17 </v>
   <v type="int" >       12        7        7        9       16 </v>
   <v type="int" >        4        6        6        7        7 </v>
   <v type="int" >       16        3        6        7       13 </v>
   <v type="int" >       12        6        7        7       13 </v>
   <v type="int" >        4        3        6        6       11 </v>
   <v type="int" >       12        3        6       11       13 </v>
   <v type="int" >       12        2        3       10       11 </v>
   <v type="int" >        4        3       10       11       19 </v>
   <v type="int" >        4        3       11       13       19 </v>
   <v type="int" >        4        2        8       10       18 </v>
   <v type="int" >        4        2       10       11       18 </v>
   <v type="int" >        4       10       18       19       19 </v>
   <v type="int" >        4        8        8       11       11 </v>
   <v type="int" >        4        8       10       11       11 </v>
   <v type="int" >        4       10       11       11       13 </v>
   <v type="int" >        4       11       11       13       19 </v>
   <v type="int" >        4        2        6        8       10 </v>
   <v type="int" >        4        6        8       10       11 </v>
   <v type="int" >       12        6       10       11       13 </v>
   <v type="int" >        8        2        3        6       10 </v>
   <v type="int" >        4        3        6        7       10 </v>
   <v type="int" >        4        6        7       10       13 </v>
   <v type="int" >        4       16       17       17       17 </v>
   <v type="int" >        4       17       17       17       17 </v>
   <v type="int" >        4        9       17       17       17 </v>
   <v type="int" >        8        7        7       15       17 </v>
   <v type="int" >        8        7        9       15       17 </v>
   <v type="int" >        4        6        7       13       16 </v>
   <v type="int" >        4        7        7       13       16 </v>
   <v type="int" >       12        7        7       13       15 </v>
   <v type="int" >        8        6        7       13       13 </v>
   <v type="int" >        4        7       13       13       21 </v>
   <v type="int" >        4        7       13       15       21 </v>
   <v type="int" >        4        6       11       13       19 </v>
   <v type="int" >        4        6       13       13       19 </v>
   <v type="int" >        4       13       19       19       23 </v>
   <v type="int" >        4       13       19       21       23 </v>
   <v type="int" >        4       11       18       19       19 </v>
   <v type="int" >        4       11       19       19       19 </v>
   <v type="int" >        4       19       19       19       23 </v>
   <v type="int" >        4       18       19       19       19 </v>
   <v type="int" >        4       19       19       19       21 </v>
   <v type="int" >        4       19       19       21       23 </v>
   <v type="int" >        4       11       13       18       19 </v>
   <v type="int" >        4       13       18       19       19 </v>
   <v type="int" >        8       13       19       19       21 </v>
   <v type="int" >       12       11       13       13       19 </v>
   <v type="int" >        4       13       13       15       19 </v>
   <v type="int" >        4       13       15       19       21 </v>
   <v type="int" >        4        6        7       11       13 </v>
   <v type="int" >        4        7       11       13       13 </v>
   <v type="int" >        8        7       13       13       15 </v>
   <v type="int" >        4        7        7        9       13 </v>
   <v type="int" >        4        7        9       13       15 </v>
   <v type="int" >        4        7        9       14       17 </v>
   <v type="int" >       12        7        9       14       15 </v>
   <v type="int" >        4        9       14       15       22 </v>
   <v type="int" >        4        7       13       15       20 </v>
   <v type="int" >        4        7       14       15       20 </v>
   <v type="int" >        4       15       20       21       24 </v>
   <v type="int" >        4       15       20       22       24 </v>
   <v type="int" >        4       13       19       21       21 </v>
   <v type="int" >        4       13       20       21       21 </v>
   <v type="int" >        4       20       21       21       24 </v>
   <v type="int" >        8       19       21       21       23 </v>
   <v type="int" >        8       21       21       23       24 </v>
   <v type="int" >        4       21       21       24       24 </v>
   <v type="int" >        4       19       19       20       23 </v>
   <v type="int" >       12       19       20       21       23 </v>
   <v type="int" >       12       20       21       23       24 </v>
   <v type="int" >        4       20       21       22       23 </v>
   <v type="int" >        4       20       22       23       24 </v>
   <v type="int" >        4       13       14       19       21 </v>
   <v type="int" >        4       14       19       20       21 </v>
   <v type="int" >        4       14       15       15       21 </v>
   <v type="int" >       16        7       13       14       15 </v>
   <v type="int" >        8        7       14       15       15 </v>
   <v type="int" >       16        7        7        9       15 </v>
   <v type="int" >        4        7        7       15       15 </v>
   <v type="int" >        4       14       20       22       22 </v>
   <v type="int" >        8       20       22       22       24 </v>
   <v type="int" >       16       22       22       24       25 </v>
   <v type="int" >       16       20       21       22       24 </v>
   <v type="int" >        8       21       22       24       24 </v>
   <v type="int" >        4       22       24       24       24 </v>
   <v type="int" >       16       22       24       24       25 </v>
   <v type="int" >        4       20       20       21       24 </v>
   <v type="int" >       12       20       22       24       24 </v>
   <v type="int" >        8       20       20       22       24 </v>
   <v type="int" >        4       20       21       24       24 </v>
   <v type="int" >        4       13       20       20       22 </v>
   <v type="int" >        8       13       20       21       22 </v>
   <v type="int" >        4       13       13       15       22 </v>
   <v type="int" >        4       13       13       21       22 </v>
   <v type="int" >        4        6        7       14       15 </v>
   <v type="int" >        4        6       13       14       15 </v>
   <v type="int" >        4        6       13       13       15 </v>
   <v type="int" >        4        6        7        7       15 </v>
   <v type="int" >        4        3        6        7       15 </v>
   <v type="int" >        4        3        6       13       15 </v>
   <v type="int" >        8       21       22       22       25 </v>
   <v type="int" >       12       21       22       24       25 </v>
   <v type="int" >        4       21       23       24       25 </v>
   <v type="int" >        4       19       20       22       24 </v>
   <v type="int" >        4       19       21       22       24 </v>
   <v type="int" >        8       19       21       23       24 </v>
   <v type="int" >        8       19       20       21       24 </v>
   <v type="int" >        4       19       19       21       24 </v>
   <v type="int" >        4       19       19       23       24 </v>
   <v type="int" >        4       11       13       20       21 </v>
   <v type="int" >        4       11       19       20       21 </v>
   <v type="int" >        4       11       19       19       21 </v>
   <v type="int" >        4       11       13       13       21 </v>
   <v type="int" >        4       10       11       13       21 </v>
   <v type="int" >        4       10       11       19       21 </v>
   <v type="int" >        4        2        6       13       13 </v>
   <v type="int" >        4        2       11       13       13 </v>
   <v type="int" >       12        2        3       10       13 </v>
   <v type="int" >        4        2       10       10       13 </v>
   <v type="int" >        4       18       19       21       23 </v>
   <v type="int" >        4       18       19       19       23 </v>
   <v type="int" >        4       11       18       19       23 </v>
   <v type="int" >        4        8       11       19       19 </v>
   <v type="int" >        4        8       18       19       19 </v>
   <v type="int" >        4        2        8       10       19 </v>
   <v type="int" >        4        2        8       11       19 </v>
   <v type="int" >       16        2        8       10       11 </v>
   <v type="int" >        4        8        8       10       11 </v>
   <v type="int" >       12        2        8        8       10 </v>
   <v type="int" >        8        2        8       10       10 </v>
   <v type="int" >        4        8       10       10       11 </v>
   <v type="int" >        4        1        8       11       18 </v>
   <v type="int" >        4        2        8        8        8 </v>
   <v type="int" >        8        2        2        8       10 </v>
   <v type="int" >        4        2        2        3       10 </v>
   <v type="int" >        4        3        4        7       17 </v>
   <v type="int" >        4        4        7       16       17 </v>
   <v type="int" >        4        7        7        7        9 </v>
   <v type="int" >        4        4        7        7       14 </v>
   <v type="int" >        4        7        7        7       14 </v>
   <v type="int" >       12        3        4       12       13 </v>
   <v type="int" >        4        4       12       13       20 </v>
   <v type="int" >        4        4       13       14       20 </v>
   <v type="int" >        4        3       10       12       19 </v>
   <v type="int" >        4        3       12       13       19 </v>
   <v type="int" >        4       12       13       19       21 </v>
   <v type="int" >        4       12       19       20       21 </v>
   <v type="int" >        4       10       13       19       19 </v>
   <v type="int" >        8       13       13       19       20 </v>
   <v type="int" >        4       10       11       13       13 </v>
   <v type="int" >        4       10       12       13       13 </v>
   <v type="int" >        4       12       13       13       14 </v>
   <v type="int" >        4       13       13       14       20 </v>
   <v type="int" >        4        3        7       10       12 </v>
   <v type="int" >        4        7       10       12       13 </v>
   <v type="int" >        8        7       12       13       14 </v>
   <v type="int" >        8        3        4        7       12 </v>
   <v type="int" >        4        7        7       12       14 </v>
   <v type="int" >        4        7        9       15       16 </v>
   <v type="int" >       12        7        9       15       15 </v>
   <v type="int" >        8        7        7       14       15 </v>
   <v type="int" >        4        7       14       15       22 </v>
   <v type="int" >        4        7       15       15       22 </v>
   <v type="int" >        4        7       13       14       21 </v>
   <v type="int" >        4        7       14       15       21 </v>
   <v type="int" >        4       14       20       21       24 </v>
   <v type="int" >        4       14       21       22       24 </v>
   <v type="int" >        4       13       19       20       23 </v>
   <v type="int" >        4       13       20       21       23 </v>
   <v type="int" >        4       20       23       24       24 </v>
   <v type="int" >        4       19       19       21       21 </v>
   <v type="int" >        4       19       20       21       21 </v>
   <v type="int" >        4       20       21       21       22 </v>
   <v type="int" >        4       21       21       22       24 </v>
   <v type="int" >        4       13       15       19       20 </v>
   <v type="int" >        4       15       19       20       21 </v>
   <v type="int" >        8       13       14       15       20 </v>
   <v type="int" >        4       14       15       15       20 </v>
   <v type="int" >        4       15       15       20       22 </v>
   <v type="int" >        4        7        9       13       14 </v>
   <v type="int" >        4        9       13       14       15 </v>
   <v type="int" >        8        9       14       15       15 </v>
   <v type="int" >        8        7        7        9       14 </v>
   <v type="int" >        4        9       15       15       22 </v>
   <v type="int" >        4       15       22       22       25 </v>
   <v type="int" >        4       15       21       22       24 </v>
   <v type="int" >        4       15       22       22       24 </v>
   <v type="int" >        8       22       24       24       26 </v>
   <v type="int" >        8       22       24       25       26 </v>
   <v type="int" >        4       21       23       24       24 </v>
   <v type="int" >        4       21       24       24       24 </v>
   <v type="int" >        8       24       24       24       26 </v>
   <v type="int" >        4       23       24       24       24 </v>
   <v type="int" >        4       24       24       24       25 </v>
   <v type="int" >       20       24       24       25       26 </v>
   <v type="int" >        4       21       22       23       24 </v>
   <v type="int" >        4       22       23       24       24 </v>
   <v type="int" >       12       21       22       22       24 </v>
   <v type="int" >        4       22       22       22       24 </v>
   <v type="int" >        4       15       15       21       22 </v>
   <v type="int" >        4       15       22       22       22 </v>
   <v type="int" >        4       15       15       15       22 </v>
   <v type="int" >        4       14       15       22       22 </v>
   <v type="int" >        4        7       15       15       15 </v>
   <v type="int" >        4        4        7        7       15 </v>
   <v type="int" >        4        4        7       14       15 </v>
   <v type="int" >        4       22       24       25       25 </v>
   <v type="int" >        8       24       25       25       26 </v>
   <v type="int" >        6       25       25       26       26 </v>
   <v type="int" >       12       24       25       26       26 </v>
   <v type="int" >        4       24       24       26       26 </v>
   <v type="int" >        8       21       24       24       25 </v>
   <v type="int" >        4       20       21       22       25 </v>
   <v type="int" >        4       20       21       24       25 </v>
   <v type="int" >        4       13       15       22       22 </v>
   <v type="int" >        4       13       21       22       22 </v>
   <v type="int" >        4       12       13       14       22 </v>
   <v type="int" >        4       12       13       20       22 </v>
   <v type="int" >        4        3        7       14       15 </v>
   <v type="int" >        4        3       13       14       15 </v>
   <v type="int" >        4       23       24       25       26 </v>
   <v type="int" >        4       23       24       24       26 </v>
   <v type="int" >        4       21       23       24       26 </v>
   <v type="int" >        4       19       21       24       24 </v>
   <v type="int" >        4       19       23       24       24 </v>
   <v type="int" >        4       13       19       20       24 </v>
   <v type="int" >        4       13       19       21       24 </v>
   <v type="int" >        4       10       13       20       21 </v>
   <v type="int" >        4       10       19       20       21 </v>
   <v type="int" >        4        3       10       12       20 </v>
   <v type="int" >        4        3       10       13       20 </v>
   <v type="int" >        8        3       10       12       13 </v>
   <v type="int" >        4       10       10       12       13 </v>
   <v type="int" >        8        3       10       10       12 </v>
   <v type="int" >        8        3       10       12       12 </v>
   <v type="int" >        4       10       12       12       13 </v>
   <v type="int" >        4       11       19       21       23 </v>
   <v type="int" >        4        6       11       13       21 </v>
   <v type="int" >        4        2       10       13       19 </v>
   <v type="int" >        4        2       11       13       19 </v>
   <v type="int" >        8        2        6       11       13 </v>
   <v type="int" >        4        2        6        6       13 </v>
   <v type="int" >        4        3       10       10       11 </v>
   <v type="int" >        4        3       11       13       13 </v>
   <v type="int" >        4        2        2        6       10 </v>
   <v type="int" >        4        6       10       12       13 </v>
   <v type="int" >        4        3        6       10       12 </v>
   <v type="int" >        4        2        3        3       10 </v>
   <v type="int" >        4        3        3       10       12 </v>
   <v type="int" >        4        3        3        4       12 </v>
   <v type="int" >        4        3        4        7       16 </v>
   <v type="int" >        4        6        7        7        7 </v>
   <v type="int" >        4        6        6        7       13 </v>
   <v type="int" >        8        3        7        7       14 </v>
   <v type="int" >        8        3        7       13       14 </v>
   <v type="int" >        4        3       12       14       20 </v>
   <v type="int" >        4        3       13       14       20 </v>
   <v type="int" >        4        4       12       12       20 </v>
   <v type="int" >        4        4       12       14       20 </v>
   <v type="int" >        4       12       14       20       22 </v>
   <v type="int" >        4       12       20       20       22 </v>
   <v type="int" >        4       12       13       14       21 </v>
   <v type="int" >        4       12       14       20       21 </v>
   <v type="int" >        4       14       21       22       22 </v>
   <v type="int" >        4       13       13       15       20 </v>
   <v type="int" >        4       14       15       20       20 </v>
   <v type="int" >        4       15       20       20       22 </v>
   <v type="int" >        4       12       13       14       14 </v>
   <v type="int" >        4       13       14       14       20 </v>
   <v type="int" >        2       14       14       20       20 </v>
   <v type="int" >        2       12       12       14       14 </v>
   <v type="int" >        8        4        7       12       12 </v>
   <v type="int" >        4        7       12       12       14 </v>
   <v type="int" >        4        3        6        7       12 </v>
   <v type="int" >        4        6        7       12       13 </v>
   <v type="int" >        4        6        7       15       16 </v>
   <v type="int" >        8        6        7       13       15 </v>
   <v type="int" >        4        6       13       15       21 </v>
   <v type="int" >        4        7       13       14       22 </v>
   <v type="int" >        4        7       13       15       22 </v>
   <v type="int" >        4       13       20       22       24 </v>
   <v type="int" >        4       13       21       22       24 </v>
   <v type="int" >        4       14       20       20       24 </v>
   <v type="int" >        4       14       20       22       24 </v>
   <v type="int" >        4       20       22       24       25 </v>
   <v type="int" >        4       20       24       24       25 </v>
   <v type="int" >        6       22       22       24       24 </v>
   <v type="int" >        4       20       21       22       22 </v>
   <v type="int" >        2       20       20       22       22 </v>
   <v type="int" >        4        7        7       13       14 </v>
   <v type="int" >        4        3        7       13       13 </v>
   <v type="int" >        4       15       21       22       25 </v>
   <v type="int" >        4       21       24       25       26 </v>
   <v type="int" >        4       24       26       26       26 </v>
   <v type="int" >        6       24       24       25       25 </v>
   <v type="int" >        4        4        7       13       15 </v>
   <v type="int" >        4        4       13       14       15 </v>
   <v type="int" >        8        4       12       12       13 </v>
   <v type="int" >        4       25       26       26       26 </v>
   <v type="int" >        2       26       26       26       26 </v>
   <v type="int" >        4        4       12       12       14 </v>
   <v type="int" >        4       12       12       12       14 </v>
   <v type="int" >        8        4       12       12       12 </v>
   <v type="int" >        4        3        4        4       12 </v>
   <v type="int" >        4        4        4       12       12 </v>
   <v type="int" >        4        1        5        8       11 </v>
   <v type="int" >        4        1        2        6       11 </v>
   <v type="int" >        4        2        8       10       13 </v>
   <v type="int" >        4        2        8       11       13 </v>
   <v type="int" >        4        2        3        7       13 </v>
   <v type="int" >        4        2        6        7       13 </v>
   <v type="int" >        4        3       10       12       14 </v>
   <v type="int" >        4        3       10       13       14 </v>
   <v type="int" >        4        3        4        6       13 </v>
   <v type="int" >        4        4        6        7       13 </v>
   <v type="int" >        4        3       10       11       12 </v>
   <v type="int" >        4        3       11       12       13 </v>
   <v type="int" >        4        2        2        3       11 </v>
   <v type="int" >        6        2        2        8        8 </v>
   <v type="int" >        6        1        1        8        8 </v>
   <v type="int" >        4        5        5        5        8 </v>
   <v type="int" >        4        6       11       13       15 </v>
   <v type="int" >        4        6        7        9       15 </v>
   <v type="int" >        4        7       13       15       15 </v>
   <v type="int" >        4        7        7        7       15 </v>
   <v type="int" >        4        7       13       13       14 </v>
   <v type="int" >        4        3        7        7       13 </v>
   <v type="int" >        4        6       10       13       13 </v>
   <v type="int" >        4        2        6       10       10 </v>
   <v type="int" >        4        3        6       10       10 </v>
   <v type="int" >        4        2        2       10       11 </v>
   <v type="int" >        2        2        2       10       10 </v>
   <v type="int" >        4        1        8        8       10 </v>
   <v type="int" >        4        1        2        8       10 </v>
   <v type="int" >        4        2        3        8       10 </v>
   <v type="int" >        4        3        8       10       10 </v>
   <v type="int" >        4        4        7        9       14 </v>
   <v type="int" >        4        7       12       13       15 </v>
   <v type="int" >        4        7       12       14       15 </v>
   <v type="int" >        4        3        7       12       12 </v>
   <v type="int" >        4        3        3       10       13 </v>
   <v type="int" >        4        3        3       12       13 </v>
   <v type="int" >        2        3        3       12       12 </v>
   <v type="int" >        2        3        3       10       10 </v>
   <v type="int" >        4        2       10       10       12 </v>
   <v type="int" >        4        2        3       10       12 </v>
   <v type="int" >        4        3        4       10       12 </v>
   <v type="int" >        4        4       10       12       12 </v>
   <v type="int" >        4        4        4       12       14 </v>
   <v type="int" >        4        3       12       12       12 </v>
   <v type="int" >        4        3        4       12       12 </v>
   <v type="int" >        4        1        5        5        5 </v>
   <v type="int" >        2        5        5        5        5 </v>
  </varray>
  <i name="volumeweight">      0.00032552 </i>
 </kpoints>
 <parameters>
  <separator name="general" >
   <i type="string" name="SYSTEM">Fe BCC</i>
   <i type="logical" name="LCOMPAT"> F  </i>
  </separator>
  <separator name="electronic" >
   <i type="string" name="PREC">accura</i>
   <i name="ENMAX">    400.00000000</i>
   <i name="ENAUG">    511.36800000</i>
   <i name="EDIFF">      0.00000100</i>
   <i type="int" name="IALGO">    38</i>
   <i type="int" name="IWAVPR">    10</i>
   <i type="int" name="NBANDS">    12</i>
   <i name="NELECT">      8.00000000</i>
   <i type="int" name="TURBO">     0</i>
   <i type="int" name="IRESTART">     0</i>
   <i type="int" name="NREBOOT">     0</i>
   <i type="int" name="NMIN">     0</i>
   <i name="EREF">      0.00000000</i>
   <separator name="electronic smearing" >
    <i type="int" name="ISMEAR">    -5</i>
    <i name="SIGMA">      0.20000000</i>
    <i name="KSPACING">      0.50000000</i>
    <i type="logical" name="KGAMMA"> T  </i>
   </separator>
   <separator name="electronic projectors" >
    <i type="logical" name="LREAL"> F  </i>
    <v name="ROPT">      0.00000000</v>
    <i type="int" name="LMAXPAW">  -100</i>
    <i type="int" name="LMAXMIX">     2</i>
    <i type="logical" name="NLSPLINE"> F  </i>
   </separator>
   <separator name="electronic startup" >
    <i type="int" name="ISTART">     0</i>
    <i type="int" name="ICHARG">     2</i>
    <i type="int" name="INIWAV">     1</i>
   </separator>
   <separator name="electronic spin" >
    <i type="int" name="ISPIN">     2</i>
    <i type="logical" name="LNONCOLLINEAR"> F  </i>
    <v name="MAGMOM">      4.00000000</v>
    <i name="NUPDOWN">     -1.00000000</i>
    <i type="logical" name="LSORBIT"> F  </i>
    <v name="SAXIS">      0.00000000      0.00000000      1.00000000</v>
    <i type="logical" name="LSPIRAL"> F  </i>
    <v name="QSPIRAL">      0.00000000      0.00000000      0.00000000</v>
    <i type="logical" name="LZEROZ"> F  </i>
   </separator>
   <separator name="electronic exchange-correlation" >
    <i type="logical" name="LASPH"> F  </i>
    <i type="logical" name="LMETAGGA"> F  </i>
   </separator>
   <separator name="electronic convergence" >
    <i type="int" name="NELM">    60</i>
    <i type="int" name="NELMDL">    -5</i>
    <i type="int" name="NELMIN">     2</i>
    <i name="ENINI">    400.00000000</i>
    <separator name="electronic convergence detail" >
     <i type="logical" name="LDIAG"> T  </i>
     <i type="logical" name="LSUBROT"> F  </i>
     <i name="WEIMIN">      0.00000000</i>
     <i name="EBREAK">      0.00000002</i>
     <i name="DEPER">      0.30000000</i>
     <i type="int" name="NRMM">     4</i>
     <i name="TIME">      0.40000000</i>
    </separator>
   </separator>
   <separator name="electronic mixer" >
    <i name="AMIX">      0.40000000</i>
    <i name="BMIX">      1.00000000</i>
    <i name="AMIN">      0.10000000</i>
    <i name="AMIX_MAG">      1.60000000</i>
    <i name="BMIX_MAG">      1.00000000</i>
    <separator name="electronic mixer details" >
     <i type="int" name="IMIX">     4</i>
     <i type="logical" name="MIXFIRST"> F  </i>
     <i type="int" name="MAXMIX">   -45</i>
     <i name="WC">    100.00000000</i>
     <i type="int" name="INIMIX">     1</i>
     <i type="int" name="MIXPRE">     1</i>
     <i type="int" name="MREMOVE">     5</i>
    </separator>
   </separator>
   <separator name="electronic dipolcorrection" >
    <i type="logical" name="LDIPOL"> F  </i>
    <i type="logical" name="LMONO"> F  </i>
    <i type="int" name="IDIPOL">     0</i>
    <i name="EPSILON">      1.00000000</i>
    <v name="DIPOL">   -100.00000000   -100.00000000   -100.00000000</v>
    <i name="EFIELD">      0.00000000</i>
   </separator>
  </separator>
  <separator name="grids" >
   <i type="int" name="NGX">    16</i>
   <i type="int" name="NGY">    16</i>
   <i type="int" name="NGZ">    16</i>
   <i type="int" name="NGXF">    32</i>
   <i type="int" name="NGYF">    32</i>
   <i type="int" name="NGZF">    32</i>
   <i type="logical" name="ADDGRID"> F  </i>
  </separator>
  <separator name="ionic" >
   <i type="int" name="NSW">     0</i>
   <i type="int" name="IBRION">    -1</i>
   <i type="int" name="ISIF">     2</i>
   <i name="PSTRESS">      0.00000000</i>
   <i name="EDIFFG">      0.00001000</i>
   <i type="int" name="NFREE">     0</i>
   <i name="POTIM">      0.50000000</i>
   <i name="SMASS">     -3.00000000</i>
   <i name="SCALEE">      1.00000000</i>
  </separator>
  <separator name="ionic md" >
   <i name="TEBEG">      0.00010000</i>
   <i name="TEEND">      0.00010000</i>
   <i type="int" name="NBLOCK">     1</i>
   <i type="int" name="KBLOCK">     1</i>
   <i type="int" name="NPACO">   256</i>
   <i name="APACO">     16.00000000</i>
  </separator>
  <separator name="symmetry" >
   <i type="int" name="ISYM">     2</i>
   <i name="SYMPREC">      0.00001000</i>
  </separator>
  <separator name="dos" >
   <i type="logical" name="LORBIT"> F  </i>
   <v name="RWIGS">     -1.00000000</v>
   <i type="int" name="NEDOS">   301</i>
   <i name="EMIN">     10.00000000</i>
   <i name="EMAX">    -10.00000000</i>
   <i name="EFERMI">      0.00000000</i>
  </separator>
  <separator name="writing" >
   <i type="int" name="NWRITE">     2</i>
   <i type="logical" name="LWAVE"> T  </i>
   <i type="logical" name="LCHARG"> T  </i>
   <i type="logical" name="LPARD"> F  </i>
   <i type="logical" name="LVTOT"> F  </i>
   <i type="logical" name="LVHAR"> F  </i>
   <i type="logical" name="LELF"> F  </i>
   <i type="logical" name="LOPTICS"> F  </i>
   <v name="STM">      0.00000000      0.00000000      0.00000000      0.00000000      0.00000000      0.00000000      0.00000000</v>
  </separator>
  <separator name="performance" >
   <i type="int" name="NPAR">     4</i>
   <i type="int" name="NSIM">     4</i>
   <i type="int" name="NBLK">    -1</i>
   <i type="logical" name="LPLANE"> T  </i>
   <i type="logical" name="LSCALAPACK"> F  </i>
   <i type="logical" name="LSCAAWARE"> F  </i>
   <i type="logical" name="LSCALU"> F  </i>
   <i type="logical" name="LASYNC"> F  </i>
   <i type="logical" name="LORBITALREAL"> F  </i>
  </separator>
  <separator name="miscellaneous" >
   <i type="int" name="IDIOT">     3</i>
   <i type="logical" name="LMUSIC"> F  </i>
   <v name="POMASS">     55.84700000</v>
   <v name="DARWINR">      0.00000000</v>
   <v name="DARWINV">      1.00000000</v>
   <i type="logical" name="LCORR"> T  </i>
  </separator>
  <i type="logical" name="GGA_COMPAT"> T  </i>
  <i type="logical" name="LBERRY"> F  </i>
  <i type="int" name="ICORELEVEL">     0</i>
  <i type="logical" name="LDAU"> F  </i>
  <i type="int" name="I_CONSTRAINED_M">     0</i>
  <separator name="electronic exchange-correlation" >
   <i type="string" name="GGA">--</i>
   <i type="int" name="VOSKOWN">     0</i>
   <i type="logical" name="LHFCALC"> F  </i>
   <i type="string" name="PRECFOCK"></i>
   <i type="logical" name="LSYMGRAD"> F  </i>
   <i type="logical" name="LHFONE"> F  </i>
   <i type="logical" name="LRHFCALC"> F  </i>
   <i type="logical" name="LTHOMAS"> F  </i>
   <i type="logical" name="LMODELHF"> F  </i>
   <i name="ENCUT4O">     -1.00000000</i>
   <i type="int" name="EXXOEP">     0</i>
   <i type="int" name="FOURORBIT">     0</i>
   <i name="AEXX">      0.00000000</i>
   <i name="HFALPHA">      0.00000000</i>
   <i name="MCALPHA">      0.00000000</i>
   <i name="ALDAX">      1.00000000</i>
   <i name="AGGAX">      1.00000000</i>
   <i name="ALDAC">      1.00000000</i>
   <i name="AGGAC">      1.00000000</i>
   <i type="int" name="NKREDX">     1</i>
   <i type="int" name="NKREDY">     1</i>
   <i type="int" name="NKREDZ">     1</i>
   <i type="logical" name="SHIFTRED"> F  </i>
   <i type="logical" name="ODDONLY"> F  </i>
   <i type="logical" name="EVENONLY"> F  </i>
   <i type="int" name="LMAXFOCK">     0</i>
   <i type="int" name="NMAXFOCKAE">     0</i>
   <i type="logical" name="LFOCKAEDFT"> F  </i>
   <i name="HFSCREEN">      0.00000000</i>
   <i name="HFSCREENC">      0.00000000</i>
   <i type="int" name="NBANDSGWLOW">     0</i>
  </separator>
  <separator name="vdW DFT" >
   <i type="logical" name="LUSE_VDW"> F  </i>
   <i name="Zab_VDW">     -0.84910000</i>
   <i name="PARAM1">      0.12340000</i>
   <i name="PARAM2">      1.00000000</i>
   <i name="PARAM3">      0.00000000</i>
  </separator>
  <separator name="model GW" >
   <i type="int" name="MODEL_GW">     0</i>
   <i name="MODEL_EPS0">      6.94473750</i>
   <i name="MODEL_ALPHA">      1.00000000</i>
  </separator>
  <separator name="linear response parameters" >
   <i type="logical" name="LEPSILON"> F  </i>
   <i type="logical" name="LRPA"> F  </i>
   <i type="logical" name="LNABLA"> F  </i>
   <i type="logical" name="LVEL"> F  </i>
   <i type="int" name="KINTER">     0</i>
   <i name="CSHIFT">      0.10000000</i>
   <i name="OMEGAMAX">     -1.00000000</i>
   <i name="DEG_THRESHOLD">      0.00200000</i>
  </separator>
  <separator name="orbital magnetization" >
   <i type="logical" name="NUCIND"> F  </i>
   <v name="MAGPOS">      0.00000000      0.00000000      0.00000000</v>
   <i type="logical" name="LNICSALL"> T  </i>
   <i type="logical" name="ORBITALMAG"> F  </i>
   <i type="logical" name="LMAGBLOCH"> F  </i>
   <i type="logical" name="LCHIMAG"> F  </i>
   <i type="logical" name="LGAUGE"> T  </i>
   <i type="int" name="MAGATOM">     0</i>
   <v name="MAGDIPOL">      0.00000000      0.00000000      0.00000000</v>
   <v name="AVECCONST">      0.00000000      0.00000000      0.00000000</v>
  </separator>
  <separator name="response functions" >
   <i type="logical" name="LADDER"> F  </i>
   <i type="logical" name="LFXC"> F  </i>
   <i type="logical" name="LHARTREE"> T  </i>
   <i type="int" name="IBSE">     0</i>
   <v type="int" name="KPOINT">    -1     0     0     0</v>
   <i type="logical" name="LTCTE"> F  </i>
   <i type="logical" name="LTETE"> F  </i>
   <i type="logical" name="LTRIPLET"> F  </i>
   <i type="logical" name="LFXCEPS"> F  </i>
   <i type="logical" name="LFXHEG"> F  </i>
   <i type="int" name="NATURALO">     0</i>
   <i type="logical" name="L2ORDER"> F  </i>
   <i type="logical" name="LUSEW"> F  </i>
   <i name="ENCUTGW">     -2.00000000</i>
   <i name="ENCUTGWSOFT">     -2.00000000</i>
   <i name="ENCUTLF">     -1.00000000</i>
   <i type="int" name="LMAXMP2">    -1</i>
   <i name="SCISSOR">      0.00000000</i>
   <i type="int" name="NOMEGA">     0</i>
   <i type="int" name="NOMEGAR">     0</i>
   <i type="int" name="NBANDSGW">    -1</i>
   <i type="int" name="NBANDSO">    -1</i>
   <i type="int" name="NBANDSV">    -1</i>
   <i type="int" name="NELM">     1</i>
   <i type="int" name="NELMHF">     1</i>
   <i type="int" name="DIM">     3</i>
   <i type="int" name="ANTIRES">     0</i>
   <i name="OMEGAMAX">    -30.00000000</i>
   <i name="OMEGAMIN">    -30.00000000</i>
   <i name="OMEGATL">   -200.00000000</i>
   <i type="int" name="OMEGAGRID">     0</i>
   <i name="CSHIFT">     -0.10000000</i>
   <i type="logical" name="SELFENERGY"> F  </i>
   <i type="logical" name="LSPECTRAL"> F  </i>
   <i type="logical" name="LSPECTRALGW"> F  </i>
   <i type="logical" name="LSINGLES"> F  </i>
   <i type="logical" name="LFERMIGW"> F  </i>
   <i type="logical" name="ODDONLYGW"> F  </i>
   <i type="logical" name="EVENONLYGW"> F  </i>
   <i type="int" name="NKREDLFX">     1</i>
   <i type="int" name="NKREDLFY">     1</i>
   <i type="int" name="NKREDLFZ">     1</i>
   <i type="int" name="MAXMEM">  1800</i>
   <i type="int" name="TELESCOPE">     0</i>
   <i type="int" name="TAUPAR">     1</i>
   <i type="int" name="OMEGAPAR">    -1</i>
   <i name="LAMBDA">      1.00000000</i>
  </separator>
  <separator name="External order field" >
   <i name="OFIELD_KAPPA">      0.00000000</i>
   <v name="OFIELD_K">      0.00000000      0.00000000      0.00000000</v>
   <i name="OFIELD_Q6_NEAR">      0.00000000</i>
   <i name="OFIELD_Q6_FAR">      0.00000000</i>
   <i name="OFIELD_A">      0.00000000</i>
  </separator>
 </parameters>
 <atominfo>
  <atoms>       1 </atoms>
  <types>       1 </types>
  <array name="atoms" >
   <dimension dim="1">ion</dimension>
   <field type="string">element</field>
   <field type="int">atomtype</field>
   <set>
    <rc><c>Fe</c><c>   1</c></rc>
   </set>
  </array>
  <array name="atomtypes" >
   <dimension dim="1">type</dimension>
   <field type="int">atomspertype</field>
   <field type="string">element</field>
   <field>mass</field>
   <field>valence</field>
   <field type="string">pseudopotential</field>
   <set>
    <rc><c>   1</c><c>Fe</c><c>     55.84700000</c><c>      8.00000000</c><c>  PAW_PBE Fe 06Sep2000                  </c></rc>
   </set>
  </array>
 </atominfo>
 <structure name="initialpos" >
  <crystal>
   <varray name="basis" >
    <v>      -1.42500000       1.42500000       1.42500000 </v>
    <v>       1.42500000      -1.42500000       1.42500000 </v>
    <v>       1.42500000       1.42500000      -1.42500000 </v>
   </varray>
   <i name="volume">     11.57456250 </i>
   <varray name="rec_basis" >
    <v>       0.00000000       0.35087719       0.35087719 </v>
    <v>       0.35087719       0.00000000       0.35087719 </v>
    <v>       0.35087719       0.35087719       0.00000000 </v>
   </varray>
  </crystal>
  <varray name="positions" >
   <v>       0.00000000       0.00000000       0.00000000 </v>
  </varray>
 </structure>
 <calculation>
  <scstep>
   <time name="dav">    0.77    0.42</time>
   <time name="total">    1.02    0.54</time>
   <energy>
    <i name="alphaZ">     59.71178263 </i>
    <i name="ewald">   -588.39789044 </i>
    <i name="hartreedc">   -112.96750494 </i>
    <i name="XCdc">      5.94992066 </i>
    <i name="pawpsdc">    552.89180568 </i>
    <i name="pawaedc">   -560.64780826 </i>
    <i name="eentropy">      0.00000000 </i>
    <i name="bandstr">     66.63099920 </i>
    <i name="atom">    594.30652615 </i>
    <i name="e_fr_energy">     17.47783068 </i>
    <i name="e_wo_entrp">     17.47783068 </i>
    <i name="e_0_energy">     17.47783068 </i>
   </energy>
  </scstep>
  <scstep>
   <time name="dav">    0.69    0.34</time>
   <time name="total">    0.80    0.40</time>
   <energy>
    <i name="e_fr_energy">     -8.09673866 </i>
    <i name="e_wo_entrp">     -8.09673866 </i>
    <i name="e_0_energy">     -8.09673866 </i>
   </energy>
  </scstep>
  <scstep>
   <time name="dav">    0.76    0.38</time>
   <time name="total">    0.86    0.43</time>
   <energy>
    <i name="e_fr_energy">     -8.69417395 </i>
    <i name="e_wo_entrp">     -8.69417395 </i>
    <i name="e_0_energy">     -8.69417395 </i>
   </energy>
  </scstep>
  <scstep>
   <time name="dav">    0.73    0.37</time>
   <time name="total">    0.84    0.42</time>
   <energy>
    <i name="e_fr_energy">     -8.69614034 </i>
    <i name="e_wo_entrp">     -8.69614034 </i>
    <i name="e_0_energy">     -8.69614034 </i>
   </energy>
  </scstep>
  <scstep>
   <time name="dav">    1.15    0.57</time>
   <time name="total">    1.29    0.64</time>
   <energy>
    <i name="e_fr_energy">     -8.69615203 </i>
    <i name="e_wo_entrp">     -8.69615203 </i>
    <i name="e_0_energy">     -8.69615203 </i>
   </energy>
  </scstep>
  <scstep>
   <time name="dav">    0.73    0.36</time>
   <time name="total">    0.94    0.47</time>
   <energy>
    <i name="e_fr_energy">     -8.29467270 </i>
    <i name="e_wo_entrp">     -8.29467270 </i>
    <i name="e_0_energy">     -8.29467270 </i>
   </energy>
  </scstep>
  <scstep>
   <time name="dav">    0.75    0.38</time>
   <time name="total">    0.96    0.48</time>
   <energy>
    <i name="e_fr_energy">     -8.24913967 </i>
    <i name="e_wo_entrp">     -8.24913967 </i>
    <i name="e_0_energy">     -8.24913967 </i>
   </energy>
  </scstep>
  <scstep>
   <time name="dav">    0.77    0.39</time>
   <time name="total">    0.99    0.49</time>
   <energy>
    <i name="e_fr_energy">     -8.24104682 </i>
    <i name="e_wo_entrp">     -8.24104682 </i>
    <i name="e_0_energy">     -8.24104682 </i>
   </energy>
  </scstep>
  <scstep>
   <time name="dav">    1.24    0.62</time>
   <time name="total">    1.45    0.73</time>
   <energy>
    <i name="e_fr_energy">     -8.23510720 </i>
    <i name="e_wo_entrp">     -8.23510720 </i>
    <i name="e_0_energy">     -8.23510720 </i>
   </energy>
  </scstep>
  <scstep>
   <time name="dav">    0.72    0.36</time>
   <time name="total">    0.93    0.47</time>
   <energy>
    <i name="e_fr_energy">     -8.23507873 </i>
    <i name="e_wo_entrp">     -8.23507873 </i>
    <i name="e_0_energy">     -8.23507873 </i>
   </energy>
  </scstep>
  <scstep>
   <time name="dav">    0.73    0.37</time>
   <time name="total">    0.95    0.48</time>
   <energy>
    <i name="e_fr_energy">     -8.23510502 </i>
    <i name="e_wo_entrp">     -8.23510502 </i>
    <i name="e_0_energy">     -8.23510502 </i>
   </energy>
  </scstep>
  <scstep>
   <time name="dav">    0.73    0.37</time>
   <time name="total">    0.94    0.47</time>
   <energy>
    <i name="e_fr_energy">     -8.23511165 </i>
    <i name="e_wo_entrp">     -8.23511165 </i>
    <i name="e_0_energy">     -8.23511165 </i>
   </energy>
  </scstep>
  <scstep>
   <time name="dav">    0.44    0.22</time>
   <time name="total">    0.65    0.32</time>
   <energy>
    <i name="e_fr_energy">     -8.23510986 </i>
    <i name="e_wo_entrp">     -8.23510986 </i>
    <i name="e_0_energy">     -8.23510986 </i>
   </energy>
  </scstep>
  <scstep>
   <time name="dav">    0.82    0.41</time>
   <time name="total">    1.00    0.50</time>
   <energy>
    <i name="alphaZ">     59.71178263 </i>
    <i name="ewald">   -588.39789044 </i>
    <i name="hartreedc">    -96.49306666 </i>
    <i name="XCdc">      4.29594145 </i>
    <i name="pawpsdc">    712.11794511 </i>
    <i name="pawaedc">   -721.13391718 </i>
    <i name="eentropy">      0.00000000 </i>
    <i name="bandstr">     27.35756902 </i>
    <i name="atom">    594.30652615 </i>
    <i name="e_fr_energy">     -8.23510993 </i>
    <i name="e_wo_entrp">     -8.23510993 </i>
    <i name="e_0_energy">     -8.23510993 </i>
   </energy>
  </scstep>
  <structure>
   <crystal>
    <varray name="basis" >
     <v>      -1.42500000       1.42500000       1.42500000 </v>
     <v>       1.42500000      -1.42500000       1.42500000 </v>
     <v>       1.42500000       1.42500000      -1.42500000 </v>
    </varray>
    <i name="volume">     11.57456250 </i>
    <varray name="rec_basis" >
     <v>       0.00000000       0.35087719       0.35087719 </v>
     <v>       0.35087719       0.00000000       0.35087719 </v>
     <v>       0.35087719       0.35087719       0.00000000 </v>
    </varray>
   </crystal>
   <varray name="positions" >
    <v>       0.00000000       0.00000000       0.00000000 </v>
   </varray>
  </structure>
  <varray name="forces" >
   <v>      -0.00000000       0.00000000       0.00000000 </v>
  </varray>
  <varray name="stress" >
   <v>     -41.26403469      -0.00000000      -0.00000000 </v>
   <v>       0.00000000     -41.26403469      -0.00000000 </v>
   <v>       0.00000000       0.00000000     -41.26403469 </v>
  </varray>
  <energy>
   <i name="e_fr_energy">     -8.23510993 </i>
   <i name="e_wo_entrp">     -8.23510993 </i>
   <i name="e_0_energy">      0.00000000 </i>
  </energy>
  <time name="totalsc">   14.32    7.25</time>
  <eigenvalues>
   <array>
    <dimension dim="1">band</dimension>
    <dimension dim="2">kpoint</dimension>
    <dimension dim="3">spin</dimension>
    <field>eigene</field>
    <field>occ</field>
    <set>
     <set comment="spin 1">
      <set comment="kpoint 1">
       <r>   -1.7335    1.0000 </r>
       <r>    3.1403    1.0000 </r>
       <r>    3.1403    1.0000 </r>
       <r>    3.9237    1.0000 </r>
       <r>    4.4989    1.0000 </r>
       <r>    4.4989    1.0034 </r>
       <r>   26.8372    0.0000 </r>
       <r>   26.8372    0.0000 </r>
       <r>   30.6245    0.0000 </r>
       <r>   31.3752    0.0000 </r>
       <r>   36.2689    0.0000 </r>
       <r>   36.2689    0.0000 </r>
      </set>
      <set comment="kpoint 2">
       <r>   -0.1558    1.0000 </r>
       <r>    2.7418    1.0000 </r>
       <r>    2.9491    1.0000 </r>
       <r>    4.4388    1.0000 </r>
       <r>    4.6187    1.0009 </r>
       <r>    4.9237    0.8830 </r>
       <r>   21.4145    0.0000 </r>
       <r>   24.4994    0.0000 </r>
       <r>   26.7856    0.0000 </r>
       <r>   31.6805    0.0000 </r>
       <r>   35.6951    0.0000 </r>
       <r>   36.9148    0.0000 </r>
      </set>
      <set comment="kpoint 3">
       <r>    0.9733    1.0000 </r>
       <r>    2.3999    1.0000 </r>
       <r>    3.7187    1.0000 </r>
       <r>    4.5777    1.0000 </r>
       <r>    4.7134    1.0332 </r>
       <r>    6.3302    0.0110 </r>
       <r>   15.9662    0.0000 </r>
       <r>   22.8075    0.0000 </r>
       <r>   24.4682    0.0000 </r>
       <r>   31.1389    0.0000 </r>
       <r>   35.0037    0.0000 </r>
       <r>   40.2204    0.0000 </r>
      </set>
      <set comment="kpoint 4">
       <r>    1.0281    1.0000 </r>
       <r>    2.2685    1.0000 </r>
       <r>    4.6394    1.0000 </r>
       <r>    4.6997    1.0000 </r>
       <r>    4.7518    1.0800 </r>
       <r>    7.7192   -0.0049 </r>
       <r>   12.8739    0.0000 </r>
       <r>   22.1880    0.0000 </r>
       <r>   23.6045    0.0000 </r>
       <r>   30.9034    0.0000 </r>
       <r>   34.8965    0.0000 </r>
       <r>   40.1708    0.0000 </r>
      </set>
      <set comment="kpoint 5">
       <r>   -2.3434    1.0000 </r>
       <r>    3.3383    1.0000 </r>
       <r>    3.3383    1.0000 </r>
       <r>    3.4241    1.0000 </r>
       <r>    4.4255    1.0000 </r>
       <r>    4.6191    1.0000 </r>
       <r>   28.7790    0.0000 </r>
       <r>   30.1050    0.0000 </r>
       <r>   30.1050    0.0000 </r>
       <r>   33.1554    0.0000 </r>
       <r>   35.2572    0.0000 </r>
       <r>   35.2572    0.0000 </r>
      </set>
      <set comment="kpoint 6">
       <r>    1.3055    1.0000 </r>
       <r>    2.4683    1.0000 </r>
       <r>    2.6658    1.0000 </r>
       <r>    4.5177    1.0000 </r>
       <r>    4.7455    1.0008 </r>
       <r>    6.5320   -0.0082 </r>
       <r>   18.9181    0.0000 </r>
       <r>   19.7122    0.0000 </r>
       <r>   23.5922    0.0000 </r>
       <r>   33.5990    0.0000 </r>
       <r>   37.2003    0.0000 </r>
       <r>   39.5928    0.0000 </r>
      </set>
      <set comment="kpoint 7">
       <r>    1.6430    1.0000 </r>
       <r>    2.3059    1.0000 </r>
       <r>    3.2957    1.0000 </r>
       <r>    4.6549    1.0000 </r>
       <r>    4.8398    1.0098 </r>
       <r>    8.9790   -0.0036 </r>
       <r>   14.2942    0.0000 </r>
       <r>   18.1479    0.0000 </r>
       <r>   22.3219    0.0000 </r>
       <r>   33.9445    0.0000 </r>
       <r>   38.2521    0.0000 </r>
       <r>   40.1952    0.0000 </r>
      </set>
      <set comment="kpoint 8">
       <r>   -1.1641    1.0000 </r>
       <r>    3.0785    1.0000 </r>
       <r>    3.2688    1.0000 </r>
       <r>    4.0270    1.0000 </r>
       <r>    4.1915    1.0000 </r>
       <r>    4.7162    1.0108 </r>
       <r>   24.2887    0.0000 </r>
       <r>   27.6725    0.0000 </r>
       <r>   28.5119    0.0000 </r>
       <r>   32.5404    0.0000 </r>
       <r>   32.6905    0.0000 </r>
       <r>   34.2573    0.0000 </r>
      </set>
      <set comment="kpoint 9">
       <r>    1.9557    1.0000 </r>
       <r>    2.6611    1.0000 </r>
       <r>    2.6611    1.0000 </r>
       <r>    4.7898    1.0000 </r>
       <r>    4.7898    1.0000 </r>
       <r>   12.4820    0.0000 </r>
       <r>   12.4820    0.0000 </r>
       <r>   14.9450    0.0000 </r>
       <r>   21.8535    0.0000 </r>
       <r>   36.3790    0.0000 </r>
       <r>   36.3790    0.0000 </r>
       <r>   43.4254    0.0000 </r>
      </set>
      <set comment="kpoint 10">
       <r>    0.4576    1.0000 </r>
       <r>    2.6915    1.0000 </r>
       <r>    3.3327    1.0000 </r>
       <r>    4.3925    1.0000 </r>
       <r>    4.8978    1.0174 </r>
       <r>    5.0166    0.7092 </r>
       <r>   18.5176    0.0000 </r>
       <r>   25.2797    0.0000 </r>
       <r>   26.3622    0.0000 </r>
       <r>   30.8490    0.0000 </r>
       <r>   32.7225    0.0000 </r>
       <r>   35.6301    0.0000 </r>
      </set>
      <set comment="kpoint 11">
       <r>    0.2716    1.0000 </r>
       <r>    2.8701    1.0000 </r>
       <r>    3.0695    1.0000 </r>
       <r>    4.0702    1.0000 </r>
       <r>    4.7461    1.0018 </r>
       <r>    5.0946    0.7601 </r>
       <r>   21.4967    0.0000 </r>
       <r>   22.4572    0.0000 </r>
       <r>   28.9743    0.0000 </r>
       <r>   29.1865    0.0000 </r>
       <r>   32.9340    0.0000 </r>
       <r>   37.5526    0.0000 </r>
      </set>
      <set comment="kpoint 12">
       <r>    0.9081    1.0000 </r>
       <r>    2.4288    1.0000 </r>
       <r>    4.0928    1.0000 </r>
       <r>    4.5552    1.0000 </r>
       <r>    5.8119    0.4888 </r>
       <r>    6.2636    0.0008 </r>
       <r>   13.7784    0.0000 </r>
       <r>   23.9161    0.0000 </r>
       <r>   24.7477    0.0000 </r>
       <r>   30.1396    0.0000 </r>
       <r>   32.9736    0.0000 </r>
       <r>   37.3324    0.0000 </r>
      </set>
      <set comment="kpoint 13">
       <r>    1.3118    1.0000 </r>
       <r>    2.5716    1.0000 </r>
       <r>    3.1376    1.0000 </r>
       <r>    4.3644    1.0000 </r>
       <r>    5.1291    1.0246 </r>
       <r>    6.8161   -0.0359 </r>
       <r>   16.3434    0.0000 </r>
       <r>   20.2417    0.0000 </r>
       <r>   26.7886    0.0000 </r>
       <r>   29.9568    0.0000 </r>
       <r>   33.5698    0.0000 </r>
       <r>   38.0711    0.0000 </r>
      </set>
      <set comment="kpoint 14">
       <r>    1.3459    1.0000 </r>
       <r>    2.5618    1.0000 </r>
       <r>    3.3085    1.0000 </r>
       <r>    4.4662    1.0000 </r>
       <r>    5.4741    0.8870 </r>
       <r>    8.8216   -0.0018 </r>
       <r>   12.9783    0.0000 </r>
       <r>   19.5503    0.0000 </r>
       <r>   25.9551    0.0000 </r>
       <r>   30.2879    0.0000 </r>
       <r>   34.5588    0.0000 </r>
       <r>   37.3752    0.0000 </r>
      </set>
      <set comment="kpoint 15">
       <r>    2.0239    1.0000 </r>
       <r>    2.2763    1.0000 </r>
       <r>    2.8062    1.0000 </r>
       <r>    4.6578    1.0000 </r>
       <r>    5.1037    1.0378 </r>
       <r>   10.0409   -0.0006 </r>
       <r>   14.4242    0.0000 </r>
       <r>   15.7529    0.0000 </r>
       <r>   27.1741    0.0000 </r>
       <r>   30.3755    0.0000 </r>
       <r>   32.5535    0.0000 </r>
       <r>   39.5825    0.0000 </r>
      </set>
      <set comment="kpoint 16">
       <r>    2.2906    1.0000 </r>
       <r>    2.2906    1.0000 </r>
       <r>    2.4603    1.0000 </r>
       <r>    4.7289    1.0000 </r>
       <r>    4.7289    1.0000 </r>
       <r>    8.9575   -0.0045 </r>
       <r>   17.2780    0.0000 </r>
       <r>   17.2780    0.0000 </r>
       <r>   18.5736    0.0000 </r>
       <r>   38.2838    0.0000 </r>
       <r>   40.9154    0.0000 </r>
       <r>   40.9154    0.0000 </r>
      </set>
      <set comment="kpoint 17">
       <r>    2.1780    1.0000 </r>
       <r>    2.2534    1.0000 </r>
       <r>    2.9013    1.0000 </r>
       <r>    4.7620    1.0000 </r>
       <r>    4.7760    1.0000 </r>
       <r>   11.7770    0.0000 </r>
       <r>   13.5932    0.0000 </r>
       <r>   16.7147    0.0000 </r>
       <r>   17.6586    0.0000 </r>
       <r>   39.3073    0.0000 </r>
       <r>   42.6778    0.0000 </r>
       <r>   43.0662    0.0000 </r>
      </set>
      <set comment="kpoint 18">
       <r>   -0.1311    1.0000 </r>
       <r>    3.4284    1.0000 </r>
       <r>    3.4896    1.0000 </r>
       <r>    3.4896    1.0000 </r>
       <r>    4.0408    1.0000 </r>
       <r>    5.0727    0.9057 </r>
       <r>   24.4371    0.0000 </r>
       <r>   25.3736    0.0000 </r>
       <r>   25.3736    0.0000 </r>
       <r>   27.3082    0.0000 </r>
       <r>   36.7184    0.0000 </r>
       <r>   36.7184    0.0000 </r>
      </set>
      <set comment="kpoint 19">
       <r>    1.1607    1.0000 </r>
       <r>    2.6805    1.0000 </r>
       <r>    3.3542    1.0000 </r>
       <r>    4.0020    1.0000 </r>
       <r>    4.9028    1.0329 </r>
       <r>    5.9268    0.1109 </r>
       <r>   19.3691    0.0000 </r>
       <r>   22.7736    0.0000 </r>
       <r>   23.9746    0.0000 </r>
       <r>   27.9039    0.0000 </r>
       <r>   35.7756    0.0000 </r>
       <r>   37.5020    0.0000 </r>
      </set>
      <set comment="kpoint 20">
       <r>    1.4428    1.0000 </r>
       <r>    2.6156    1.0000 </r>
       <r>    3.1607    1.0000 </r>
       <r>    4.2131    1.0000 </r>
       <r>    5.7323    0.3559 </r>
       <r>    8.4030   -0.0113 </r>
       <r>   14.2982    0.0000 </r>
       <r>   21.1665    0.0000 </r>
       <r>   23.1354    0.0000 </r>
       <r>   30.4259    0.0000 </r>
       <r>   34.8485    0.0000 </r>
       <r>   35.5011    0.0000 </r>
      </set>
      <set comment="kpoint 21">
       <r>    1.7563    1.0000 </r>
       <r>    2.0668    1.0000 </r>
       <r>    3.4334    1.0000 </r>
       <r>    4.3903    1.0000 </r>
       <r>    5.3178    1.0650 </r>
       <r>    8.2790   -0.0151 </r>
       <r>   17.2355    0.0000 </r>
       <r>   17.8436    0.0000 </r>
       <r>   25.3985    0.0000 </r>
       <r>   26.8977    0.0000 </r>
       <r>   34.4945    0.0000 </r>
       <r>   37.3895    0.0000 </r>
      </set>
      <set comment="kpoint 22">
       <r>    1.7094    1.0000 </r>
       <r>    2.0776    1.0000 </r>
       <r>    3.2435    1.0000 </r>
       <r>    4.6942    1.0000 </r>
       <r>    5.5443    0.7609 </r>
       <r>   11.2705    0.0000 </r>
       <r>   13.4530    0.0000 </r>
       <r>   16.8625    0.0000 </r>
       <r>   25.4060    0.0000 </r>
       <r>   28.5628    0.0000 </r>
       <r>   31.9761    0.0000 </r>
       <r>   36.3955    0.0000 </r>
      </set>
      <set comment="kpoint 23">
       <r>    1.5454    1.0000 </r>
       <r>    2.0221    1.0000 </r>
       <r>    4.2473    1.0000 </r>
       <r>    4.2473    1.0000 </r>
       <r>    4.9376    1.1679 </r>
       <r>    7.6514   -0.0220 </r>
       <r>   19.8510    0.0000 </r>
       <r>   19.8510    0.0000 </r>
       <r>   22.1151    0.0000 </r>
       <r>   24.1515    0.0000 </r>
       <r>   35.8342    0.0000 </r>
       <r>   40.6539    0.0000 </r>
      </set>
      <set comment="kpoint 24">
       <r>    1.4468    1.0000 </r>
       <r>    1.5764    1.0000 </r>
       <r>    4.3825    1.0000 </r>
       <r>    4.6591    1.0000 </r>
       <r>    5.6223    0.2939 </r>
       <r>   10.7563    0.0000 </r>
       <r>   15.4863    0.0000 </r>
       <r>   18.0476    0.0000 </r>
       <r>   22.2831    0.0000 </r>
       <r>   25.1591    0.0000 </r>
       <r>   31.1823    0.0000 </r>
       <r>   40.1401    0.0000 </r>
      </set>
      <set comment="kpoint 25">
       <r>    1.3097    1.0000 </r>
       <r>    1.3097    1.0000 </r>
       <r>    4.4872    1.0000 </r>
       <r>    5.4707    1.0000 </r>
       <r>    5.4707    1.0707 </r>
       <r>   14.1391    0.0000 </r>
       <r>   14.1391    0.0000 </r>
       <r>   15.2574    0.0000 </r>
       <r>   23.7556    0.0000 </r>
       <r>   23.7556    0.0000 </r>
       <r>   28.6473    0.0000 </r>
       <r>   40.6830    0.0000 </r>
      </set>
      <set comment="kpoint 26">
       <r>    1.0522    1.0000 </r>
       <r>    1.0531    1.0000 </r>
       <r>    5.4306    1.0000 </r>
       <r>    5.4306    1.0000 </r>
       <r>    5.5878    0.2372 </r>
       <r>   13.5377    0.0000 </r>
       <r>   16.0484    0.0000 </r>
       <r>   16.0484    0.0000 </r>
       <r>   21.2329    0.0000 </r>
       <r>   22.3992    0.0000 </r>
       <r>   27.1362    0.0000 </r>
       <r>   43.8878    0.0000 </r>
      </set>
     </set>
     <set comment="spin 2">
      <set comment="kpoint 1">
       <r>   -1.6173    1.0000 </r>
       <r>    5.0738    1.0000 </r>
       <r>    5.0738    1.0000 </r>
       <r>    5.9564   -0.0238 </r>
       <r>    7.1923    0.0000 </r>
       <r>    7.1923    0.0000 </r>
       <r>   26.9871    0.0000 </r>
       <r>   26.9871    0.0000 </r>
       <r>   31.0430    0.0000 </r>
       <r>   31.4570    0.0000 </r>
       <r>   36.5523    0.0000 </r>
       <r>   36.5523    0.0000 </r>
      </set>
      <set comment="kpoint 2">
       <r>    0.0524    1.0000 </r>
       <r>    4.5869    1.0000 </r>
       <r>    4.7519    1.0000 </r>
       <r>    6.9985   -0.0010 </r>
       <r>    7.0481    0.0000 </r>
       <r>    7.3477    0.0000 </r>
       <r>   21.9800    0.0000 </r>
       <r>   24.7736    0.0000 </r>
       <r>   27.4984    0.0000 </r>
       <r>   31.5807    0.0000 </r>
       <r>   36.2418    0.0000 </r>
       <r>   37.1297    0.0000 </r>
      </set>
      <set comment="kpoint 3">
       <r>    1.8481    1.0000 </r>
       <r>    4.1675    1.0000 </r>
       <r>    4.8697    1.0078 </r>
       <r>    7.1416    0.0000 </r>
       <r>    7.4859    0.0000 </r>
       <r>    8.2793    0.0000 </r>
       <r>   16.9007    0.0000 </r>
       <r>   23.0695    0.0000 </r>
       <r>   25.0883    0.0000 </r>
       <r>   31.2928    0.0000 </r>
       <r>   35.5353    0.0000 </r>
       <r>   40.3742    0.0000 </r>
      </set>
      <set comment="kpoint 4">
       <r>    2.3244    1.0000 </r>
       <r>    4.0070    1.0000 </r>
       <r>    5.6349    0.8902 </r>
       <r>    7.2130    0.0000 </r>
       <r>    7.5454    0.0000 </r>
       <r>    9.1359    0.0000 </r>
       <r>   14.2116    0.0000 </r>
       <r>   22.4283    0.0000 </r>
       <r>   24.1756    0.0000 </r>
       <r>   31.1338    0.0000 </r>
       <r>   35.4526    0.0000 </r>
       <r>   40.1429    0.0000 </r>
      </set>
      <set comment="kpoint 5">
       <r>   -2.2350    1.0000 </r>
       <r>    5.3100    1.0000 </r>
       <r>    5.3100    1.0000 </r>
       <r>    5.4179    0.3783 </r>
       <r>    7.1080    0.0000 </r>
       <r>    7.3580    0.0000 </r>
       <r>   28.6314    0.0000 </r>
       <r>   29.9528    0.0000 </r>
       <r>   29.9528    0.0000 </r>
       <r>   33.5024    0.0000 </r>
       <r>   36.0031    0.0000 </r>
       <r>   36.0032    0.0000 </r>
      </set>
      <set comment="kpoint 6">
       <r>    1.8319    1.0000 </r>
       <r>    4.1932    1.0000 </r>
       <r>    4.3005    1.0001 </r>
       <r>    7.1245    0.0000 </r>
       <r>    7.4797    0.0000 </r>
       <r>    8.4707    0.0000 </r>
       <r>   19.5883    0.0000 </r>
       <r>   20.3290    0.0000 </r>
       <r>   24.1510    0.0000 </r>
       <r>   33.4931    0.0000 </r>
       <r>   37.4752    0.0000 </r>
       <r>   39.8577    0.0000 </r>
      </set>
      <set comment="kpoint 7">
       <r>    2.9364    1.0000 </r>
       <r>    3.9598    1.0000 </r>
       <r>    4.5433    1.0027 </r>
       <r>    7.2644    0.0000 </r>
       <r>    7.5506    0.0000 </r>
       <r>   10.3942    0.0000 </r>
       <r>   15.3089    0.0000 </r>
       <r>   18.7813    0.0000 </r>
       <r>   22.8389    0.0000 </r>
       <r>   33.9790    0.0000 </r>
       <r>   38.3255    0.0000 </r>
       <r>   40.5764    0.0000 </r>
      </set>
      <set comment="kpoint 8">
       <r>   -1.0287    1.0000 </r>
       <r>    4.9921    1.0000 </r>
       <r>    5.1868    1.0000 </r>
       <r>    6.0817   -0.0122 </r>
       <r>    6.7568    0.0000 </r>
       <r>    7.4644    0.0000 </r>
       <r>   24.6700    0.0000 </r>
       <r>   27.7518    0.0000 </r>
       <r>   28.8426    0.0000 </r>
       <r>   32.9169    0.0000 </r>
       <r>   33.2168    0.0000 </r>
       <r>   34.6231    0.0000 </r>
      </set>
      <set comment="kpoint 9">
       <r>    3.4941    1.0000 </r>
       <r>    4.0895    1.0000 </r>
       <r>    4.0895    1.0001 </r>
       <r>    7.4389    0.0000 </r>
       <r>    7.4389    0.0000 </r>
       <r>   13.5041    0.0000 </r>
       <r>   13.5041    0.0000 </r>
       <r>   15.8350    0.0000 </r>
       <r>   22.3906    0.0000 </r>
       <r>   36.3688    0.0000 </r>
       <r>   36.3688    0.0000 </r>
       <r>   44.1086    0.0000 </r>
      </set>
      <set comment="kpoint 10">
       <r>    0.9087    1.0000 </r>
       <r>    4.5260    1.0000 </r>
       <r>    4.9197    1.0019 </r>
       <r>    6.8219    0.0000 </r>
       <r>    7.1924    0.0000 </r>
       <r>    7.5831    0.0000 </r>
       <r>   19.2888    0.0000 </r>
       <r>   25.3653    0.0000 </r>
       <r>   26.9418    0.0000 </r>
       <r>   31.2795    0.0000 </r>
       <r>   33.2027    0.0000 </r>
       <r>   35.8694    0.0000 </r>
      </set>
      <set comment="kpoint 11">
       <r>    0.5471    1.0000 </r>
       <r>    4.7738    1.0000 </r>
       <r>    4.8838    1.0018 </r>
       <r>    6.4825   -0.0005 </r>
       <r>    6.9308    0.0000 </r>
       <r>    7.6939    0.0000 </r>
       <r>   22.0661    0.0000 </r>
       <r>   23.0017    0.0000 </r>
       <r>   29.1597    0.0000 </r>
       <r>   29.6516    0.0000 </r>
       <r>   33.2960    0.0000 </r>
       <r>   37.8449    0.0000 </r>
      </set>
      <set comment="kpoint 12">
       <r>    2.1105    1.0000 </r>
       <r>    4.2131    1.0000 </r>
       <r>    5.5001    0.9845 </r>
       <r>    7.0333    0.0000 </r>
       <r>    7.9558    0.0000 </r>
       <r>    8.1069    0.0000 </r>
       <r>   14.9823    0.0000 </r>
       <r>   23.9712    0.0000 </r>
       <r>   25.3007    0.0000 </r>
       <r>   30.6079    0.0000 </r>
       <r>   33.5299    0.0000 </r>
       <r>   37.4064    0.0000 </r>
      </set>
      <set comment="kpoint 13">
       <r>    2.2556    1.0000 </r>
       <r>    4.3340    1.0000 </r>
       <r>    4.7301    1.0057 </r>
       <r>    6.7349    0.0000 </r>
       <r>    7.5877    0.0000 </r>
       <r>    8.6870    0.0000 </r>
       <r>   17.2336    0.0000 </r>
       <r>   20.8196    0.0000 </r>
       <r>   27.1014    0.0000 </r>
       <r>   30.2998    0.0000 </r>
       <r>   33.8534    0.0000 </r>
       <r>   38.4638    0.0000 </r>
      </set>
      <set comment="kpoint 14">
       <r>    2.7385    1.0000 </r>
       <r>    4.3269    1.0000 </r>
       <r>    4.8194    1.0097 </r>
       <r>    6.8901    0.0000 </r>
       <r>    7.8163    0.0000 </r>
       <r>   10.0691    0.0000 </r>
       <r>   14.2471    0.0000 </r>
       <r>   20.1160    0.0000 </r>
       <r>   26.2344    0.0000 </r>
       <r>   30.7185    0.0000 </r>
       <r>   34.6180    0.0000 </r>
       <r>   37.8660    0.0000 </r>
      </set>
      <set comment="kpoint 15">
       <r>    3.4401    1.0000 </r>
       <r>    3.9432    1.0000 </r>
       <r>    4.4393    1.0058 </r>
       <r>    7.0252    0.0000 </r>
       <r>    7.5053    0.0000 </r>
       <r>   11.3370    0.0000 </r>
       <r>   15.3868    0.0000 </r>
       <r>   16.5579    0.0000 </r>
       <r>   27.6195    0.0000 </r>
       <r>   30.5316    0.0000 </r>
       <r>   32.7249    0.0000 </r>
       <r>   40.4100    0.0000 </r>
      </set>
      <set comment="kpoint 16">
       <r>    3.3381    1.0000 </r>
       <r>    3.8857    1.0000 </r>
[...]
       </set>
       <set comment="band 5">
        <r>  0.0063  0.0011  0.0011  0.0096  0.0923  0.3239  0.1131  0.0923  0.3392 </r>
       </set>
       <set comment="band 6">
        <r>  0.0582  0.0420  0.0420  0.2063  0.0920  0.1427  0.0518  0.0920  0.1553 </r>
       </set>
       <set comment="band 7">
        <r>  0.0000  0.1949  0.1949  0.0000  0.1337  0.0000  0.1420  0.1337  0.0473 </r>
       </set>
       <set comment="band 8">
        <r>  0.4530  0.0414  0.0414  0.0268  0.0775  0.0876  0.0014  0.0775  0.0043 </r>
       </set>
       <set comment="band 9">
        <r>  0.0259  0.1826  0.1826  0.0886  0.0508  0.0831  0.0004  0.0508  0.0013 </r>
       </set>
       <set comment="band 10">
        <r>  0.0000  0.0441  0.0441  0.0000  0.0500  0.0000  0.2938  0.0500  0.0979 </r>
       </set>
       <set comment="band 11">
        <r>  0.0268  0.0099  0.0099  0.0281  0.0214  0.1379  0.0903  0.0214  0.2709 </r>
       </set>
       <set comment="band 12">
        <r>  0.1141  0.0364  0.0364  0.1741  0.2167  0.2298  0.0186  0.2167  0.0559 </r>
       </set>
      </set>
      <set comment="kpoint 16">
       <set comment="band 1">
        <r>  0.1503  0.0855  0.0855  0.0855  0.1312  0.1312  0.0000  0.1312  0.0000 </r>
       </set>
       <set comment="band 2">
        <r>  0.0000  0.0341  0.0005  0.0405  0.0049  0.4281  0.0004  0.3600  0.0431 </r>
       </set>
       <set comment="band 3">
        <r>  0.0000  0.0160  0.0496  0.0095  0.5238  0.1006  0.0431  0.1687  0.0004 </r>
       </set>
       <set comment="band 4">
        <r>  0.0000  0.0000  0.0000  0.0000  0.0125  0.0186  0.3049  0.0259  0.6211 </r>
       </set>
       <set comment="band 5">
        <r>  0.0000  0.0000  0.0000  0.0000  0.0255  0.0194  0.6211  0.0121  0.3049 </r>
       </set>
       <set comment="band 6">
        <r>  0.0696  0.0568  0.0568  0.0568  0.2223  0.2223  0.0000  0.2223  0.0000 </r>
       </set>
       <set comment="band 7">
        <r>  0.0000  0.1048  0.0843  0.1407  0.1032  0.1722  0.0151  0.1283  0.0243 </r>
       </set>
       <set comment="band 8">
        <r>  0.0000  0.1151  0.1356  0.0792  0.1659  0.0969  0.0243  0.1408  0.0151 </r>
       </set>
       <set comment="band 9">
        <r>  0.5619  0.0771  0.0771  0.0771  0.0012  0.0012  0.0000  0.0012  0.0000 </r>
       </set>
       <set comment="band 10">
        <r>  0.0000  0.0000  0.0000  0.0000  0.0000  0.0000  0.0000  0.0000  0.0000 </r>
       </set>
       <set comment="band 11">
        <r>  0.0000  0.0014  0.0042  0.0021  0.2899  0.1465  0.0581  0.0961  0.0130 </r>
       </set>
       <set comment="band 12">
        <r>  0.0000  0.0038  0.0009  0.0030  0.0651  0.2085  0.0130  0.2589  0.0581 </r>
       </set>
      </set>
      <set comment="kpoint 17">
       <set comment="band 1">
        <r>  0.0331  0.0000  0.0000  0.1244  0.0000  0.6741  0.0119  0.0000  0.0358 </r>
       </set>
       <set comment="band 2">
        <r>  0.0000  0.0424  0.0424  0.0000  0.4131  0.0000  0.0000  0.4131  0.0000 </r>
       </set>
       <set comment="band 3">
        <r>  0.0000  0.1154  0.1154  0.0000  0.3138  0.0000  0.0000  0.3138  0.0000 </r>
       </set>
       <set comment="band 4">
        <r>  0.0003  0.0000  0.0000  0.0002  0.0000  0.0665  0.2294  0.0000  0.6883 </r>
       </set>
       <set comment="band 5">
        <r>  0.0000  0.0000  0.0000  0.0000  0.0000  0.0000  0.7400  0.0000  0.2467 </r>
       </set>
       <set comment="band 6">
        <r>  0.0000  0.1729  0.1729  0.0000  0.2432  0.0000  0.0000  0.2432  0.0000 </r>
       </set>
       <set comment="band 7">
        <r>  0.2363  0.0000  0.0000  0.1773  0.0000  0.4011  0.0070  0.0000  0.0209 </r>
       </set>
       <set comment="band 8">
        <r>  0.0000  0.1683  0.1683  0.0000  0.2168  0.0000  0.0000  0.2168  0.0000 </r>
       </set>
       <set comment="band 9">
        <r>  0.5246  0.0000  0.0000  0.2074  0.0000  0.0491  0.0019  0.0000  0.0058 </r>
       </set>
       <set comment="band 10">
        <r>  0.0000  0.0002  0.0002  0.0000  0.1194  0.0000  0.0000  0.1194  0.0000 </r>
       </set>
       <set comment="band 11">
        <r>  0.0000  0.0254  0.0254  0.0000  0.0599  0.0000  0.0000  0.0599  0.0000 </r>
       </set>
       <set comment="band 12">
        <r>  0.0123  0.0000  0.0000  0.0949  0.0000  0.1189  0.1062  0.0000  0.3189 </r>
       </set>
      </set>
      <set comment="kpoint 18">
       <set comment="band 1">
        <r>  0.5076  0.0000  0.0000  0.1696  0.0000  0.0000  0.0106  0.0000  0.0319 </r>
       </set>
       <set comment="band 2">
        <r>  0.0000  0.0116  0.0116  0.0000  0.4682  0.0000  0.0000  0.4682  0.0000 </r>
       </set>
       <set comment="band 3">
        <r>  0.0000  0.0116  0.0116  0.0000  0.4682  0.0000  0.0000  0.4682  0.0000 </r>
       </set>
       <set comment="band 4">
        <r>  0.0000  0.0000  0.0000  0.0000  0.0000  0.0000  0.6804  0.0000  0.2268 </r>
       </set>
       <set comment="band 5">
        <r>  0.0000  0.0000  0.0000  0.0000  0.0000  0.9747  0.0000  0.0000  0.0000 </r>
       </set>
       <set comment="band 6">
        <r>  0.0263  0.0000  0.0000  0.0069  0.0000  0.0000  0.2369  0.0000  0.7106 </r>
       </set>
       <set comment="band 7">
        <r>  0.0000  0.0000  0.0000  0.0000  0.0000  0.0000  0.4326  0.0000  0.1442 </r>
       </set>
       <set comment="band 8">
        <r>  0.0000  0.1763  0.1763  0.0000  0.2686  0.0000  0.0000  0.2686  0.0000 </r>
       </set>
       <set comment="band 9">
        <r>  0.0000  0.1763  0.1762  0.0000  0.2686  0.0000  0.0000  0.2686  0.0000 </r>
       </set>
       <set comment="band 10">
        <r>  0.1639  0.0000  0.0000  0.2826  0.0000  0.0000  0.0000  0.0000  0.0000 </r>
       </set>
       <set comment="band 11">
        <r>  0.0000  0.1606  0.1616  0.0000  0.0049  0.0000  0.0000  0.0049  0.0000 </r>
       </set>
       <set comment="band 12">
        <r>  0.0000  0.1616  0.1606  0.0000  0.0049  0.0000  0.0000  0.0049  0.0000 </r>
       </set>
      </set>
      <set comment="kpoint 19">
       <set comment="band 1">
        <r>  0.3159  0.0077  0.0000  0.2155  0.0476  0.0000  0.0626  0.0000  0.0962 </r>
       </set>
       <set comment="band 2">
        <r>  0.0016  0.0295  0.0000  0.0113  0.2157  0.0000  0.4050  0.0000  0.2185 </r>
       </set>
       <set comment="band 3">
        <r>  0.0000  0.0000  0.0234  0.0000  0.0000  0.2742  0.0000  0.6563  0.0000 </r>
       </set>
       <set comment="band 4">
        <r>  0.0000  0.0218  0.0000  0.0074  0.6322  0.0000  0.2694  0.0000  0.0153 </r>
       </set>
       <set comment="band 5">
        <r>  0.0000  0.0000  0.0087  0.0000  0.0000  0.7003  0.0000  0.2675  0.0000 </r>
       </set>
       <set comment="band 6">
        <r>  0.0835  0.0071  0.0000  0.0476  0.0086  0.0000  0.1724  0.0000  0.6401 </r>
       </set>
       <set comment="band 7">
        <r>  0.0913  0.2652  0.0000  0.0340  0.2688  0.0000  0.1160  0.0000  0.0502 </r>
       </set>
       <set comment="band 8">
        <r>  0.0000  0.0000  0.4846  0.0000  0.0000  0.0100  0.0000  0.3933  0.0000 </r>
       </set>
       <set comment="band 9">
        <r>  0.0933  0.0012  0.0000  0.0747  0.0256  0.0000  0.3456  0.0000  0.0462 </r>
       </set>
       <set comment="band 10">
        <r>  0.0643  0.2000  0.0000  0.0689  0.1136  0.0000  0.0373  0.0000  0.1215 </r>
       </set>
       <set comment="band 11">
        <r>  0.0000  0.0000  0.1720  0.0000  0.0000  0.5621  0.0000  0.1354  0.0000 </r>
       </set>
       <set comment="band 12">
        <r>  0.0673  0.1730  0.0000  0.0111  0.0938  0.0000  0.1695  0.0000  0.0853 </r>
       </set>
      </set>
      <set comment="kpoint 20">
       <set comment="band 1">
        <r>  0.1176  0.0003  0.0000  0.0871  0.2582  0.0000  0.3315  0.0000  0.0354 </r>
       </set>
       <set comment="band 2">
        <r>  0.0039  0.0939  0.0000  0.0905  0.0322  0.0000  0.0968  0.0000  0.5069 </r>
       </set>
       <set comment="band 3">
        <r>  0.0000  0.0000  0.0230  0.0000  0.0000  0.4132  0.0000  0.5140  0.0000 </r>
       </set>
       <set comment="band 4">
        <r>  0.0191  0.0106  0.0000  0.0007  0.4982  0.0000  0.4158  0.0000  0.0035 </r>
       </set>
       <set comment="band 5">
        <r>  0.0000  0.0000  0.0025  0.0000  0.0000  0.5575  0.0000  0.4291  0.0000 </r>
       </set>
       <set comment="band 6">
        <r>  0.0673  0.0990  0.0000  0.2040  0.0389  0.0000  0.0342  0.0000  0.4413 </r>
       </set>
       <set comment="band 7">
        <r>  0.2643  0.1846  0.0000  0.0022  0.2945  0.0000  0.1002  0.0000  0.0278 </r>
       </set>
       <set comment="band 8">
        <r>  0.0000  0.0000  0.5741  0.0000  0.0000  0.0632  0.0000  0.2044  0.0000 </r>
       </set>
       <set comment="band 9">
        <r>  0.1073  0.0223  0.0000  0.0530  0.0070  0.0000  0.3771  0.0000  0.0051 </r>
       </set>
       <set comment="band 10">
        <r>  0.0115  0.1543  0.0000  0.0007  0.0257  0.0000  0.0324  0.0000  0.3638 </r>
       </set>
       <set comment="band 11">
        <r>  0.0000  0.0000  0.1458  0.0000  0.0000  0.4882  0.0000  0.3194  0.0000 </r>
       </set>
       <set comment="band 12">
        <r>  0.0025  0.1439  0.0000  0.2163  0.0041  0.0000  0.3445  0.0000  0.0981 </r>
       </set>
      </set>
      <set comment="kpoint 21">
       <set comment="band 1">
        <r>  0.1231  0.0050  0.0050  0.1818  0.0458  0.0001  0.0967  0.0458  0.2901 </r>
       </set>
       <set comment="band 2">
        <r>  0.0000  0.0202  0.0202  0.0000  0.0653  0.0000  0.5193  0.0653  0.1731 </r>
       </set>
       <set comment="band 3">
        <r>  0.0063  0.0157  0.0157  0.0091  0.2498  0.3230  0.0171  0.2498  0.0513 </r>
       </set>
       <set comment="band 4">
        <r>  0.0000  0.0153  0.0153  0.0000  0.3798  0.0000  0.1246  0.3798  0.0415 </r>
       </set>
       <set comment="band 5">
        <r>  0.0117  0.0004  0.0004  0.0051  0.1166  0.6079  0.0299  0.1166  0.0898 </r>
       </set>
       <set comment="band 6">
        <r>  0.1266  0.0176  0.0176  0.1816  0.0459  0.0413  0.1064  0.0459  0.3191 </r>
       </set>
       <set comment="band 7">
        <r>  0.0000  0.2072  0.2072  0.0000  0.1085  0.0000  0.1663  0.1085  0.0554 </r>
       </set>
       <set comment="band 8">
        <r>  0.2356  0.1435  0.1435  0.0306  0.1042  0.0271  0.0037  0.1042  0.0112 </r>
       </set>
       <set comment="band 9">
        <r>  0.0000  0.0612  0.0612  0.0000  0.0443  0.0000  0.3851  0.0443  0.1284 </r>
       </set>
       <set comment="band 10">
        <r>  0.0893  0.1176  0.1176  0.0343  0.0108  0.0019  0.0492  0.0108  0.1475 </r>
       </set>
       <set comment="band 11">
        <r>  0.0011  0.0681  0.0681  0.1299  0.0495  0.2191  0.0564  0.0495  0.1691 </r>
       </set>
       <set comment="band 12">
        <r>  0.1640  0.0000  0.0000  0.1734  0.1128  0.2147  0.0361  0.1128  0.1082 </r>
       </set>
      </set>
      <set comment="kpoint 22">
       <set comment="band 1">
        <r>  0.0280  0.0237  0.0210  0.0237  0.1596  0.0000  0.5914  0.0000  0.0000 </r>
       </set>
       <set comment="band 2">
        <r>  0.0000  0.0727  0.0000  0.0727  0.0000  0.0179  0.0000  0.0179  0.6481 </r>
       </set>
       <set comment="band 3">
        <r>  0.0315  0.0009  0.0216  0.0009  0.1529  0.3408  0.0440  0.3408  0.0000 </r>
       </set>
       <set comment="band 4">
        <r>  0.0098  0.0064  0.0117  0.0064  0.5095  0.1092  0.1975  0.1092  0.0000 </r>
       </set>
       <set comment="band 5">
        <r>  0.0000  0.0093  0.0000  0.0093  0.0000  0.4374  0.0000  0.4374  0.0881 </r>
       </set>
       <set comment="band 6">
        <r>  0.0000  0.2318  0.0000  0.2318  0.0000  0.0472  0.0000  0.0472  0.2922 </r>
       </set>
       <set comment="band 7">
        <r>  0.2577  0.0887  0.0400  0.0887  0.2548  0.0003  0.1355  0.0003  0.0000 </r>
       </set>
       <set comment="band 8">
        <r>  0.1670  0.0026  0.3692  0.0026  0.0024  0.0928  0.0802  0.0928  0.0000 </r>
       </set>
       <set comment="band 9">
        <r>  0.0303  0.0023  0.1474  0.0023  0.0144  0.0132  0.4532  0.0132  0.0000 </r>
       </set>
       <set comment="band 10">
        <r>  0.0000  0.0477  0.0000  0.0477  0.0000  0.0054  0.0000  0.0054  0.5327 </r>
       </set>
       <set comment="band 11">
        <r>  0.0415  0.2161  0.0863  0.2161  0.0000  0.0370  0.1008  0.0370  0.0000 </r>
       </set>
       <set comment="band 12">
        <r>  0.2112  0.0203  0.0082  0.0203  0.1867  0.2706  0.0073  0.2706  0.0000 </r>
       </set>
      </set>
      <set comment="kpoint 23">
       <set comment="band 1">
        <r>  0.1324  0.0000  0.0000  0.2077  0.0000  0.0000  0.1098  0.0000  0.3293 </r>
       </set>
       <set comment="band 2">
        <r>  0.0000  0.0000  0.0000  0.0000  0.0000  0.0000  0.6471  0.0000  0.2157 </r>
       </set>
       <set comment="band 3">
        <r>  0.0000  0.0241  0.0241  0.0000  0.4518  0.0000  0.0000  0.4518  0.0000 </r>
       </set>
       <set comment="band 4">
        <r>  0.0000  0.0241  0.0241  0.0000  0.4518  0.0000  0.0000  0.4518  0.0000 </r>
       </set>
       <set comment="band 5">
        <r>  0.0000  0.0000  0.0000  0.0000  0.0000  0.9772  0.0000  0.0000  0.0000 </r>
       </set>
       <set comment="band 6">
        <r>  0.1792  0.0000  0.0000  0.1674  0.0000  0.0000  0.1392  0.0000  0.4175 </r>
       </set>
       <set comment="band 7">
        <r>  0.0000  0.2799  0.2799  0.0000  0.1442  0.0000  0.0000  0.1442  0.0000 </r>
       </set>
       <set comment="band 8">
        <r>  0.0000  0.2799  0.2799  0.0000  0.1442  0.0000  0.0000  0.1442  0.0000 </r>
       </set>
       <set comment="band 9">
        <r>  0.0000  0.0000  0.0000  0.0000  0.0000  0.0000  0.5903  0.0000  0.1968 </r>
       </set>
       <set comment="band 10">
        <r>  0.2893  0.0000  0.0000  0.0748  0.0000  0.0000  0.0528  0.0000  0.1583 </r>
       </set>
       <set comment="band 11">
        <r>  0.1264  0.0000  0.0000  0.3093  0.0000  0.0000  0.1024  0.0000  0.3072 </r>
       </set>
       <set comment="band 12">
        <r>  0.0000  0.0000  0.0000  0.0000  0.0000  0.9789  0.0000  0.0000  0.0000 </r>
       </set>
      </set>
      <set comment="kpoint 24">
       <set comment="band 1">
        <r>  0.0230  0.0013  0.0000  0.0956  0.0203  0.0000  0.3507  0.0000  0.3367 </r>
       </set>
       <set comment="band 2">
        <r>  0.0000  0.0245  0.0000  0.0065  0.0146  0.0000  0.4149  0.0000  0.3876 </r>
       </set>
       <set comment="band 3">
        <r>  0.0000  0.0000  0.0388  0.0000  0.0000  0.3299  0.0000  0.5863  0.0000 </r>
       </set>
       <set comment="band 4">
        <r>  0.0189  0.0329  0.0000  0.0059  0.8310  0.0000  0.0602  0.0000  0.0017 </r>
       </set>
       <set comment="band 5">
        <r>  0.0000  0.0000  0.0024  0.0000  0.0000  0.6425  0.0000  0.3417  0.0000 </r>
       </set>
       <set comment="band 6">
        <r>  0.1275  0.0391  0.0000  0.3567  0.0301  0.0000  0.0489  0.0000  0.2374 </r>
       </set>
       <set comment="band 7">
        <r>  0.1233  0.4263  0.0000  0.0000  0.1700  0.0000  0.0559  0.0000  0.0502 </r>
       </set>
       <set comment="band 8">
        <r>  0.0000  0.0000  0.6257  0.0000  0.0000  0.0290  0.0000  0.1471  0.0000 </r>
       </set>
       <set comment="band 9">
        <r>  0.0808  0.0028  0.0000  0.0044  0.0075  0.0000  0.6677  0.0000  0.0180 </r>
       </set>
       <set comment="band 10">
        <r>  0.0831  0.1043  0.0000  0.0001  0.0084  0.0000  0.0000  0.0000  0.5104 </r>
       </set>
       <set comment="band 11">
        <r>  0.2792  0.0616  0.0000  0.2773  0.0127  0.0000  0.0815  0.0000  0.1016 </r>
       </set>
       <set comment="band 12">
        <r>  0.0000  0.0000  0.0713  0.0000  0.0000  0.4801  0.0000  0.2365  0.0000 </r>
       </set>
      </set>
      <set comment="kpoint 25">
       <set comment="band 1">
        <r>  0.0000  0.0193  0.0000  0.0193  0.0000  0.0041  0.0000  0.0041  0.7960 </r>
       </set>
       <set comment="band 2">
        <r>  0.0000  0.0064  0.0258  0.0064  0.0054  0.0014  0.7960  0.0014  0.0000 </r>
       </set>
       <set comment="band 3">
        <r>  0.0173  0.0129  0.0129  0.0129  0.2976  0.2976  0.0000  0.2976  0.0000 </r>
       </set>
       <set comment="band 4">
        <r>  0.0000  0.0033  0.0130  0.0033  0.6271  0.1568  0.0178  0.1568  0.0000 </r>
       </set>
       <set comment="band 5">
        <r>  0.0000  0.0098  0.0000  0.0098  0.0000  0.4703  0.0000  0.4703  0.0178 </r>
       </set>
       <set comment="band 6">
        <r>  0.0000  0.2881  0.0000  0.2881  0.0000  0.0286  0.0000  0.0286  0.1771 </r>
       </set>
       <set comment="band 7">
        <r>  0.0000  0.0960  0.3841  0.0960  0.0382  0.0095  0.1771  0.0095  0.0000 </r>
       </set>
       <set comment="band 8">
        <r>  0.2555  0.1254  0.1254  0.1254  0.0519  0.0519  0.0000  0.0519  0.0000 </r>
       </set>
       <set comment="band 9">
        <r>  0.0000  0.0419  0.0000  0.0419  0.0000  0.0036  0.0000  0.0036  0.6989 </r>
       </set>
       <set comment="band 10">
        <r>  0.0000  0.0140  0.0558  0.0140  0.0048  0.0012  0.6989  0.0012  0.0000 </r>
       </set>
       <set comment="band 11">
        <r>  0.4782  0.0991  0.0991  0.0991  0.0034  0.0034  0.0000  0.0034  0.0000 </r>
       </set>
       <set comment="band 12">
        <r>  0.0353  0.0185  0.0185  0.0185  0.2048  0.2048  0.0000  0.2048  0.0000 </r>
       </set>
      </set>
      <set comment="kpoint 26">
       <set comment="band 1">
        <r>  0.0014  0.0000  0.0000  0.0262  0.0000  0.0000  0.2035  0.0000  0.6105 </r>
       </set>
       <set comment="band 2">
        <r>  0.0000  0.0000  0.0000  0.0000  0.0000  0.0000  0.6356  0.0000  0.2119 </r>
       </set>
       <set comment="band 3">
        <r>  0.0000  0.0104  0.0104  0.0000  0.4778  0.0000  0.0000  0.4778  0.0000 </r>
       </set>
       <set comment="band 4">
        <r>  0.0000  0.0104  0.0104  0.0000  0.4778  0.0000  0.0000  0.4778  0.0000 </r>
       </set>
       <set comment="band 5">
        <r>  0.0000  0.0000  0.0000  0.0000  0.0000  0.9869  0.0000  0.0000  0.0000 </r>
       </set>
       <set comment="band 6">
        <r>  0.0828  0.0000  0.0000  0.5686  0.0000  0.0000  0.0308  0.0000  0.0923 </r>
       </set>
       <set comment="band 7">
        <r>  0.0000  0.3474  0.3474  0.0000  0.0283  0.0000  0.0000  0.0283  0.0000 </r>
       </set>
       <set comment="band 8">
        <r>  0.0000  0.3474  0.3474  0.0000  0.0283  0.0000  0.0000  0.0283  0.0000 </r>
       </set>
       <set comment="band 9">
        <r>  0.0000  0.0000  0.0000  0.0000  0.0000  0.0000  0.6688  0.0000  0.2229 </r>
       </set>
       <set comment="band 10">
        <r>  0.0657  0.0000  0.0000  0.0197  0.0000  0.0000  0.1861  0.0000  0.5584 </r>
       </set>
       <set comment="band 11">
        <r>  0.6290  0.0000  0.0000  0.1222  0.0000  0.0000  0.0103  0.0000  0.0309 </r>
       </set>
       <set comment="band 12">
        <r>  0.0000  0.0000  0.0000  0.0000  0.0000  0.2657  0.0000  0.0000  0.0000 </r>
       </set>
      </set>
     </set>
    </set>
   </array>
  </projected>
 </calculation>
 <structure name="finalpos" >
  <crystal>
   <varray name="basis" >
    <v>      -1.42500000       1.42500000       1.42500000 </v>
    <v>       1.42500000      -1.42500000       1.42500000 </v>
    <v>       1.42500000       1.42500000      -1.42500000 </v>
   </varray>
   <i name="volume">     11.57456250 </i>
   <varray name="rec_basis" >
    <v>       0.00000000       0.35087719       0.35087719 </v>
    <v>       0.35087719       0.00000000       0.35087719 </v>
    <v>       0.35087719       0.35087719       0.00000000 </v>
   </varray>
  </crystal>
  <varray name="positions" >
   <v>       0.00000000       0.00000000       0.00000000 </v>
  </varray>
 </structure>
</modeling>
