    1    1    1    2
  0.1157456E+02  0.2468172E-09  0.2468172E-09  0.2468172E-09  0.5000000E-15
  1.000000000000000E-004
  CAR 
 Fe BCC                                  
      8     26     12
 
  0.6250000E-01  0.6250000E-01  0.6250000E-01  0.1562500E-01
    1       -1.733282     -1.619109   1.000000   1.000000
    2        3.144816      5.078272   1.000000   1.000000
    3        3.144816      5.078272   1.000000   1.000000
    4        3.928589      5.961276   1.000000  -0.023725
    5        4.504198      7.197666   1.000000   0.000000
    6        4.504198      7.197666   1.003389   0.000000
    7       26.847538     26.993451   0.000000   0.000000
    8       26.847538     26.993451   0.000000   0.000000
    9       30.630451     31.041272   0.000000   0.000000
   10       31.375872     31.461407   0.000000   0.000000
   11       36.272636     36.556562   0.000000   0.000000
   12       36.272636     36.556562   0.000000   0.000000
 
  0.1875000E+00  0.6250000E-01  0.6250000E-01  0.4687500E-01
    1       -0.155245      0.050875   1.000000   1.000000
    2        2.745668      4.590408   1.000000   1.000000
    3        2.953028      4.755242   1.000000   1.000000
    4        4.443967      7.003630   1.000000  -0.000956
    5        4.623905      7.053304   1.000911   0.000000
    6        4.928843      7.353060   0.883169   0.000000
    7       21.425302     21.987462   0.000000   0.000000
    8       24.506530     24.778005   0.000000   0.000000
    9       26.792391     27.502312   0.000000   0.000000
   10       31.687830     31.583872   0.000000   0.000000
   11       35.719986     36.261373   0.000000   0.000000
   12       36.922415     37.134181   0.000000   0.000000
 
  0.3125000E+00  0.6250000E-01  0.6250000E-01  0.4687500E-01
    1        0.975879      1.848316   1.000000   1.000000
    2        2.403614      4.170675   1.000000   1.000000
    3        3.721548      4.871579   1.000000   1.007238
    4        4.582708      7.146738   1.000000   0.000000
    5        4.718705      7.491307   1.033170   0.000000
    6        6.334573      8.284116   0.011054   0.000000
    7       15.970888     16.903304   0.000000   0.000000
    8       22.813917     23.072655   0.000000   0.000000
    9       24.470461     25.088444   0.000000   0.000000
   10       31.158267     31.307075   0.000000   0.000000
   11       35.026987     35.553473   0.000000   0.000000
   12       40.236943     40.400957   0.000000   0.000000
 
  0.4375000E+00  0.6250000E-01  0.6250000E-01  0.2343750E-01
    1        1.031764      2.326692   1.000000   1.000000
    2        2.272187      4.010042   1.000000   1.000000
    3        4.644410      5.635232   1.000000   0.901059
    4        4.703125      7.218224   1.000000   0.000000
    5        4.757178      7.550952   1.079969   0.000000
    6        7.722465      9.140338  -0.004867   0.000000
    7       12.877788     14.214075   0.000000   0.000000
    8       22.194790     22.431530   0.000000   0.000000
    9       23.605171     24.174319   0.000000   0.000000
   10       30.925370     31.150113   0.000000   0.000000
   11       34.920595     35.471809   0.000000   0.000000
   12       40.171579     40.141539   0.000000   0.000000
 
 -0.6250000E-01  0.6250000E-01  0.6250000E-01  0.1171875E-01
    1       -2.343238     -2.236825   1.000000   1.000000
    2        3.342943      5.314645   1.000000   1.000000
    3        3.342947      5.314648   1.000000   1.000000
    4        3.428773      5.422707   1.000000   0.379290
    5        4.430656      7.113223   1.000000   0.000000
    6        4.624342      7.363438   1.000000   0.000000
    7       28.786267     28.634554   0.000000   0.000000
    8       30.109223     29.953384   0.000000   0.000000
    9       30.109230     29.953385   0.000000   0.000000
   10       33.167502     33.512410   0.000000   0.000000
   11       35.266571     36.011805   0.000000   0.000000
   12       35.266574     36.011811   0.000000   0.000000
 
  0.1875000E+00  0.1875000E+00  0.6250000E-01  0.4687500E-01
    1        1.307167      1.831248   1.000000   1.000000
    2        2.472340      4.196506   1.000000   1.000000
    3        2.669423      4.303615   1.000000   1.000069
    4        4.523053      7.130024   1.000000   0.000000
    5        4.750851      7.485321   1.000752   0.000000
    6        6.536457      8.475405  -0.008073   0.000000
    7       18.926787     19.594101   0.000000   0.000000
    8       19.716818     20.331442   0.000000   0.000000
    9       23.595088     24.151685   0.000000   0.000000
   10       33.609679     33.498664   0.000000   0.000000
   11       37.223818     37.492760   0.000000   0.000000
   12       39.615103     39.875184   0.000000   0.000000
 
  0.3125000E+00  0.1875000E+00  0.6250000E-01  0.9375000E-01
    1        1.646530      2.938320   1.000000   1.000000
    2        2.309804      3.962871   1.000000   1.000000
    3        3.299218      4.545324   1.000000   1.002339
    4        4.660332      7.269966   1.000000   0.000000
    5        4.845195      7.556150   1.009759   0.000000
    6        8.983384     10.398281  -0.003579   0.000000
    7       14.298534     15.311457   0.000000   0.000000
    8       18.152453     18.783646   0.000000   0.000000
    9       22.325836     22.840243   0.000000   0.000000
   10       33.962688     33.991419   0.000000   0.000000
   11       38.270170     38.337496   0.000000   0.000000
   12       40.226406     40.601039   0.000000   0.000000
 
 -0.1875000E+00  0.1875000E+00  0.6250000E-01  0.4687500E-01
    1       -1.163861     -1.030505   1.000000   1.000000
    2        3.082858      4.996219   1.000000   1.000000
    3        3.273167      5.190839   1.000000   1.000000
    4        4.031923      6.086762   1.000000  -0.012204
    5        4.196657      6.761837   1.000000   0.000000
    6        4.721578      7.469908   1.010814   0.000000
    7       24.296397     24.674974   0.000000   0.000000
    8       27.678980     27.754874   0.000000   0.000000
    9       28.521167     28.848149   0.000000   0.000000
   10       32.549178     32.922025   0.000000   0.000000
   11       32.698385     33.221444   0.000000   0.000000
   12       34.261077     34.625216   0.000000   0.000000
 
  0.3125000E+00  0.3125000E+00  0.6250000E-01  0.1562500E-01
    1        1.959380      3.496831   1.000000   1.000000
    2        2.665157      4.092364   1.000000   1.000000
    3        2.665161      4.092365   1.000000   1.000083
    4        4.795044      7.444429   1.000000   0.000000
    5        4.795044      7.444431   1.000000   0.000000
    6       12.485464     13.506425   0.000000   0.000000
    7       12.485470     13.506427   0.000000   0.000000
    8       14.946962     15.835298   0.000000   0.000000
    9       21.856760     22.391395   0.000000   0.000000
   10       36.387900     36.373917   0.000000   0.000000
   11       36.387909     36.373921   0.000000   0.000000
   12       43.453153     44.131669   0.000000   0.000000
 
 -0.3125000E+00  0.3125000E+00  0.6250000E-01  0.4687500E-01
    1        0.458855      0.907661   1.000000   1.000000
    2        2.695471      4.529615   1.000000   1.000000
    3        3.336174      4.922254   1.000000   1.001677
    4        4.397519      6.826913   1.000000   0.000000
    5        4.902761      7.197821   1.017411   0.000000
    6        5.022080      7.588312   0.709511   0.000000
    7       18.526743     19.294957   0.000000   0.000000
    8       25.284528     25.367540   0.000000   0.000000
    9       26.370919     26.947474   0.000000   0.000000
   10       30.863887     31.289463   0.000000   0.000000
   11       32.747159     33.221724   0.000000   0.000000
   12       35.645641     35.880049   0.000000   0.000000
 
 -0.1875000E+00  0.3125000E+00  0.6250000E-01  0.4687500E-01
    1        0.272349      0.545724   1.000000   1.000000
    2        2.874337      4.777439   1.000000   1.000000
    3        3.073544      4.887529   1.000000   1.001789
    4        4.075207      6.487458   1.000000  -0.000536
    5        4.751204      6.935910   1.001797   0.000000
    6        5.099519      7.699116   0.760493   0.000000
    7       21.507573     22.073764   0.000000   0.000000
    8       22.463238     23.005106   0.000000   0.000000
    9       28.987328     29.167822   0.000000   0.000000
   10       29.188740     29.651632   0.000000   0.000000
   11       32.949893     33.306580   0.000000   0.000000
   12       37.560569     37.849719   0.000000   0.000000
 
 -0.4375000E+00  0.4375000E+00  0.6250000E-01  0.4687500E-01
    1        0.911519      2.112148   1.000000   1.000000
    2        2.432463      4.216262   1.000000   1.000000
    3        4.096904      5.500515   1.000000   0.987703
    4        4.560293      7.038279   1.000000   0.000000
    5        5.817408      7.960227   0.488535   0.000000
    6        6.265905      8.112493   0.000924   0.000000
    7       13.782524     14.984713   0.000000   0.000000
    8       23.918837     23.971526   0.000000   0.000000
    9       24.751333     25.301765   0.000000   0.000000
   10       30.158122     30.621809   0.000000   0.000000
   11       33.004017     33.555717   0.000000   0.000000
   12       37.346601     37.415775   0.000000   0.000000
 
 -0.3125000E+00  0.4375000E+00  0.6250000E-01  0.9375000E-01
    1        1.314624      2.256038   1.000000   1.000000
    2        2.575618      4.337242   1.000000   1.000000
    3        3.141504      4.733155   1.000000   1.005381
    4        4.369391      6.739922   1.000000   0.000000
    5        5.134265      7.593266   1.024637   0.000000
    6        6.819878      8.691310  -0.035901   0.000000
    7       16.349487     17.237356   0.000000   0.000000
    8       20.247930     20.823056   0.000000   0.000000
    9       26.791351     27.101930   0.000000   0.000000
   10       29.972418     30.310392   0.000000   0.000000
   11       33.586075     33.864910   0.000000   0.000000
   12       38.095661     38.482808   0.000000   0.000000
 
 -0.4375000E+00 -0.4375000E+00  0.6250000E-01  0.4687500E-01
    1        1.349682      2.741031   1.000000   1.000000
    2        2.566004      4.330694   1.000000   1.000000
    3        3.312445      4.821183   1.000000   1.009056
    4        4.471407      6.895256   1.000000   0.000000
    5        5.479494      7.821944   0.886696   0.000000
    6        8.824430     10.072181  -0.001822   0.000000
    7       12.982071     14.249428   0.000000   0.000000
    8       19.554888     20.118056   0.000000   0.000000
    9       25.957193     26.234264   0.000000   0.000000
   10       30.304074     30.730382   0.000000   0.000000
   11       34.572502     34.627069   0.000000   0.000000
   12       37.406233     37.889965   0.000000   0.000000
 
 -0.3125000E+00 -0.4375000E+00  0.6250000E-01  0.4687500E-01
    1        2.027678      3.442457   1.000000   1.000000
    2        2.280696      3.946563   1.000000   1.000000
    3        2.810466      4.442531   1.000000   1.005811
    4        4.663158      7.030563   1.000000   0.000000
    5        5.109030      7.510756   1.037853   0.000000
    6       10.044579     11.340223  -0.000594   0.000000
    7       14.428809     15.389686   0.000000   0.000000
    8       15.756177     16.559054   0.000000   0.000000
    9       27.178754     27.621738   0.000000   0.000000
   10       30.390711     30.541901   0.000000   0.000000
   11       32.567440     32.734340   0.000000   0.000000
   12       39.614386     40.436753   0.000000   0.000000
 
  0.1875000E+00  0.1875000E+00  0.1875000E+00  0.1562500E-01
    1        2.294645      3.339014   1.000000   1.000000
    2        2.294645      3.888921   1.000000   1.000000
    3        2.463150      3.888921   1.000000   1.000097
    4        4.734129      7.482798   1.000000   0.000000
    5        4.734129      7.482798   1.000000   0.000000
    6        8.962269     10.482175  -0.004531   0.000000
    7       17.282456     17.987751   0.000000   0.000000
    8       17.282456     17.987751   0.000000   0.000000
    9       18.572824     19.234406   0.000000   0.000000
   10       38.284459     37.961703   0.000000   0.000000
   11       40.933607     41.051796   0.000000   0.000000
   12       40.933607     41.051796   0.000000   0.000000
 
  0.3125000E+00  0.1875000E+00  0.1875000E+00  0.2343750E-01
    1        2.182078      3.582341   1.000000   1.000000
    2        2.257447      3.802208   1.000000   1.000000
    3        2.905247      4.204831   1.000000   1.000147
    4        4.767248      7.515748   1.000000   0.000000
    5        4.781542      7.583634   1.000000   0.000000
    6       11.780356     12.808840   0.000000   0.000000
    7       13.596750     14.613619   0.000000   0.000000
    8       16.719773     17.432697   0.000000   0.000000
    9       17.658595     18.310349   0.000000   0.000000
   10       39.316927     39.164750   0.000000   0.000000
   11       42.683255     42.677595   0.000000   0.000000
   12       43.085003     43.376244   0.000000   0.000000
 
 -0.1875000E+00  0.1875000E+00  0.1875000E+00  0.1171875E-01
    1       -0.130659      0.070609   1.000000   1.000000
    2        3.432985      5.411404   1.000000   1.000000
    3        3.494133      5.411407   1.000000   0.982775
    4        3.494136      5.822971   1.000000   0.000938
    5        4.045840      6.113000   1.000000   0.000000
    6        5.078108      7.778904   0.905839   0.000000
    7       24.450381     24.730560   0.000000   0.000000
    8       25.386027     25.935556   0.000000   0.000000
    9       25.386038     25.935557   0.000000   0.000000
   10       27.308266     27.669828   0.000000   0.000000
   11       36.719555     36.967949   0.000000   0.000000
   12       36.719559     36.967955   0.000000   0.000000
 
 -0.3125000E+00  0.3125000E+00  0.1875000E+00  0.4687500E-01
    1        1.162469      1.769600   1.000000   1.000000
    2        2.684914      4.692424   1.000000   1.000000
    3        3.358703      5.244780   1.000000   0.963497
    4        4.006770      6.096087   1.000000   0.000000
    5        4.908217      7.067649   1.032905   0.000000
    6        5.931207      8.198208   0.111241   0.000000
    7       19.378498     20.095524   0.000000   0.000000
    8       22.782507     23.375439   0.000000   0.000000
    9       23.990170     24.367974   0.000000   0.000000
   10       27.912596     28.283952   0.000000   0.000000
   11       35.795735     36.196942   0.000000   0.000000
   12       37.519783     37.864576   0.000000   0.000000
 
 -0.4375000E+00  0.4375000E+00  0.1875000E+00  0.4687500E-01
    1        1.446558      2.845408   1.000000   1.000000
    2        2.619416      4.287843   1.000000   1.000000
    3        3.165162      5.016220   1.000000   0.979730
    4        4.218200      6.433506   1.000000   0.000000
    5        5.737950      8.021251   0.355201   0.000000
    6        8.405318      9.753102  -0.011344   0.000000
    7       14.302600     15.349753   0.000000   0.000000
    8       21.171265     21.714681   0.000000   0.000000
    9       23.149105     23.551682   0.000000   0.000000
   10       30.437706     30.673185   0.000000   0.000000
   11       34.872884     35.295912   0.000000   0.000000
   12       35.524185     36.082063   0.000000   0.000000
 
 -0.3125000E+00  0.4375000E+00  0.1875000E+00  0.4687500E-01
    1        1.759641      2.977464   1.000000   1.000000
    2        2.071155      3.977595   1.000000   1.000000
    3        3.438007      5.316266   1.000000   0.848150
    4        4.395119      6.490407   1.000000   0.000000
    5        5.323136      7.573966   1.064977   0.000000
    6        8.281584      9.776950  -0.015122   0.000000
    7       17.242112     18.050553   0.000000   0.000000
    8       17.846329     18.508766   0.000000   0.000000
    9       25.415321     25.810550   0.000000   0.000000
   10       26.901775     27.284917   0.000000   0.000000
   11       34.508720     34.965653   0.000000   0.000000
   12       37.410614     38.071423   0.000000   0.000000
 
 -0.4375000E+00 -0.4375000E+00  0.1875000E+00  0.4687500E-01
    1        1.713487      3.410549   1.000000   1.000000
    2        2.081583      3.769521   1.000000   1.000000
    3        3.247921      5.053574   1.000000   0.898885
    4        4.699089      6.851631   1.000000   0.000000
    5        5.549711      7.809487   0.759278   0.000000
    6       11.272864     12.277806   0.000000   0.000000
    7       13.456108     14.489650   0.000000   0.000000
    8       16.865512     17.548948   0.000000   0.000000
    9       25.418423     25.808396   0.000000   0.000000
   10       28.574298     28.811870   0.000000   0.000000
   11       31.980628     32.654086   0.000000   0.000000
   12       36.420527     37.044938   0.000000   0.000000
 
 -0.3125000E+00  0.3125000E+00  0.3125000E+00  0.1171875E-01
    1        1.548503      2.711774   1.000000   1.000000
    2        2.026279      4.059081   1.000000   1.000000
    3        4.251984      6.208981   1.000000   0.015026
    4        4.251986      6.208985   1.000000   0.000000
    5        4.942892      7.124025   1.168210   0.000000
    6        7.653922      9.225546  -0.021995   0.000000
    7       19.855637     20.417519   0.000000   0.000000
    8       19.855648     20.417522   0.000000   0.000000
    9       22.145954     22.823711   0.000000   0.000000
   10       24.155518     24.658002   0.000000   0.000000
   11       35.852936     36.541617   0.000000   0.000000
   12       40.692252     41.077373   0.000000   0.000000
 
 -0.4375000E+00  0.4375000E+00  0.3125000E+00  0.4687500E-01
    1        1.450913      3.119361   1.000000   1.000000
    2        1.580610      3.407562   1.000000   1.000000
    3        4.387367      6.387285   1.000000  -0.020313
    4        4.664138      6.688363   1.000000   0.000000
    5        5.628148      7.895852   0.291333   0.000000
    6       10.757949     11.713546   0.000000   0.000000
    7       15.489924     16.208466   0.000000   0.000000
    8       18.049508     18.517424   0.000000   0.000000
    9       22.304586     22.993488   0.000000   0.000000
   10       25.168149     25.636640   0.000000   0.000000
   11       31.190031     32.031378   0.000000   0.000000
   12       40.168547     40.520552   0.000000   0.000000
 
 -0.4375000E+00 -0.4375000E+00  0.3125000E+00  0.1562500E-01
    1        1.314014      3.103487   1.000000   1.000000
    2        1.314014      3.103487   1.000000   1.000000
    3        4.492423      6.470314   1.000000  -0.027863
    4        5.476583      7.690987   1.000000   0.000000
    5        5.476585      7.690995   1.064540   0.000000
    6       14.142324     14.805007   0.000000   0.000000
    7       14.142335     14.805012   0.000000   0.000000
    8       15.258878     15.827248   0.000000   0.000000
    9       23.776023     24.328382   0.000000   0.000000
   10       23.776027     24.328384   0.000000   0.000000
   11       28.647370     29.632813   0.000000   0.000000
   12       40.713756     41.058499   0.000000   0.000000
 
 -0.4375000E+00  0.4375000E+00  0.4375000E+00  0.1171875E-01
    1        1.056691      2.823524   1.000000   1.000000
    2        1.057321      2.882373   1.000000   1.000000
    3        5.436667      7.634389   1.000000  -0.010728
    4        5.436669      7.634395   1.000000   0.000000
    5        5.594316      7.863309   0.228302   0.000000
    6       13.538996     14.045417   0.000000   0.000000
    7       16.049140     16.353739   0.000000   0.000000
    8       16.049151     16.353744   0.000000   0.000000
    9       21.265217     22.167519   0.000000   0.000000
   10       22.415820     23.150054   0.000000   0.000000
   11       27.137745     28.151028   0.000000   0.000000
   12       43.909312     44.120659   0.000000   0.000000
