 vasp.5.4.1 24Jun15 (build Jul 19 2016 16:50:41) complex                        
  
 executed on           IFC91_ompi date 2019.10.17  11:15:29
 running on    4 total cores
 distrk:  each k-point on    4 cores,    1 groups
 distr:  one band on NCORES_PER_BAND=   1 cores,    4 groups


--------------------------------------------------------------------------------------------------------


 INCAR:
 POTCAR:    PAW_PBE Fe 06Sep2000                  
 POTCAR:    PAW_PBE Fe 06Sep2000                  
   VRHFIN =Fe:  d7 s1                                                           
   LEXCH  = PE                                                                  
   EATOM  =   594.3153 eV,   43.6809 Ry                                         
                                                                                
   TITEL  = PAW_PBE Fe 06Sep2000                                                
   LULTRA =        F    use ultrasoft PP ?                                      
   IUNSCR =        1    unscreen: 0-lin 1-nonlin 2-no                           
   RPACOR =    2.000    partial core radius                                     
   POMASS =   55.847; ZVAL   =    8.000    mass and valenz                      
   RCORE  =    2.300    outmost cutoff radius                                   
   RWIGS  =    2.460; RWIGS  =    1.302    wigner-seitz radius (au A)           
   ENMAX  =  267.882; ENMIN  =  200.911 eV                                      
   RCLOC  =    1.701    cutoff for local pot                                    
   LCOR   =        T    correct aug charges                                     
   LPAW   =        T    paw PP                                                  
   EAUG   =  511.368                                                            
   DEXC   =    0.000                                                            
   RMAX   =    2.356    core radius for proj-oper                               
   RAUG   =    1.300    factor for augmentation sphere                          
   RDEP   =    2.442    radius for radial grids                                 
   RDEPT  =    1.890    core radius for aug-charge                              
                                                                                
   Atomic configuration                                                         
    9 entries                                                                   
     n  l   j            E        occ.                                          
     1  0  0.50     -6993.8440   2.0000                                         
     2  0  0.50      -814.6047   2.0000                                         
     2  1  1.50      -693.3689   6.0000                                         
     3  0  0.50       -89.4732   2.0000                                         
     3  1  1.50       -55.6373   6.0000                                         
     3  2  2.50        -3.8151   7.0000                                         
     4  0  0.50        -4.2551   1.0000                                         
     4  1  1.50        -3.4015   0.0000                                         
     4  3  2.50        -1.3606   0.0000                                         
   Description                                                                  
     l       E           TYP  RCUT    TYP  RCUT                                 
     2     -3.8151135     23  2.300                                             
     2     -5.1756961     23  2.300                                             
     0     -4.2550963     23  2.300                                             
     0      7.2035603     23  2.300                                             
     1     -2.7211652     23  2.300                                             
     1     18.4316424     23  2.300                                             
  local pseudopotential read in
  partial core-charges read in
  partial kinetic energy density read in
  atomic valenz-charges read in
  non local Contribution for L=           2  read in
    real space projection operators read in
  non local Contribution for L=           2  read in
    real space projection operators read in
  non local Contribution for L=           0  read in
    real space projection operators read in
  non local Contribution for L=           0  read in
    real space projection operators read in
  non local Contribution for L=           1  read in
    real space projection operators read in
  non local Contribution for L=           1  read in
    real space projection operators read in
    PAW grid and wavefunctions read in
 
   number of l-projection  operators is LMAX  =           6
   number of lm-projection operators is LMMAX =          18
 
  PAW_PBE Fe 06Sep2000                  :
 energy of atom  1       EATOM= -594.3153
 kinetic energy error for atom=    0.0269 (will be added to EATOM!!)
 
 
 POSCAR: Fe BCC                                  
  positions in direct lattice
  No initial velocities read in
 exchange correlation table for  LEXCH =        8
   RHO(1)=    0.500       N(1)  =     2000
   RHO(2)=  100.500       N(2)  =     4000
 


--------------------------------------------------------------------------------------------------------


 ion  position               nearest neighbor table
   1  0.000  0.000  0.000-
 
  LATTYP: Found a body centered cubic cell.
 ALAT       =     2.8500000000
  
  Lattice vectors:
  
 A1 = (  -1.4250000000,   1.4250000000,   1.4250000000)
 A2 = (   1.4250000000,  -1.4250000000,   1.4250000000)
 A3 = (   1.4250000000,   1.4250000000,  -1.4250000000)


Analysis of symmetry for initial positions (statically):
=====================================================================
 Subroutine PRICEL returns:
 Original cell was already a primitive cell.
 

 Routine SETGRP: Setting up the symmetry group for a 
 body centered cubic supercell.


 Subroutine GETGRP returns: Found 48 space group operations
 (whereof 48 operations were pure point group operations)
 out of a pool of 48 trial point group operations.


The static configuration has the point symmetry O_h .


Analysis of symmetry for dynamics (positions and initial velocities):
=====================================================================
 Subroutine PRICEL returns:
 Original cell was already a primitive cell.
 

 Routine SETGRP: Setting up the symmetry group for a 
 body centered cubic supercell.


 Subroutine GETGRP returns: Found 48 space group operations
 (whereof 48 operations were pure point group operations)
 out of a pool of 48 trial point group operations.


The dynamic configuration has the point symmetry O_h .


Analysis of structural, dynamic, and magnetic symmetry:
=====================================================================
 Subroutine PRICEL returns:
 Original cell was already a primitive cell.
 

 Routine SETGRP: Setting up the symmetry group for a 
 body centered cubic supercell.


 Subroutine GETGRP returns: Found 48 space group operations
 (whereof 48 operations were pure point group operations)
 out of a pool of 48 trial point group operations.


The magnetic configuration has the point symmetry O_h .


 Subroutine INISYM returns: Found 48 space group operations
 (whereof 48 operations are pure point group operations),
 and found     1 'primitive' translations

 
 
 KPOINTS: K-Points                                

Automatic generation of k-mesh.
Space group operators:
 irot       det(A)        alpha          n_x          n_y          n_z        tau_x        tau_y        tau_z
    1     1.000000     0.000000     1.000000     0.000000     0.000000     0.000000     0.000000     0.000000
    2    -1.000000     0.000000     1.000000     0.000000     0.000000     0.000000     0.000000     0.000000
    3     1.000000   120.000000    -0.577350    -0.577350    -0.577350     0.000000     0.000000     0.000000
    4    -1.000000   120.000000    -0.577350    -0.577350    -0.577350     0.000000     0.000000     0.000000
    5     1.000000   120.000000     0.577350     0.577350     0.577350     0.000000     0.000000     0.000000
    6    -1.000000   120.000000     0.577350     0.577350     0.577350     0.000000     0.000000     0.000000
    7     1.000000    90.000000     0.000000     0.000000    -1.000000     0.000000     0.000000     0.000000
    8    -1.000000    90.000000     0.000000     0.000000    -1.000000     0.000000     0.000000     0.000000
    9     1.000000   180.000000     0.000000     0.707107     0.707107     0.000000     0.000000     0.000000
   10    -1.000000   180.000000     0.000000     0.707107     0.707107     0.000000     0.000000     0.000000
   11     1.000000    90.000000     0.000000     1.000000     0.000000     0.000000     0.000000     0.000000
   12    -1.000000    90.000000     0.000000     1.000000     0.000000     0.000000     0.000000     0.000000
   13     1.000000   179.999999     0.000000     0.000000     1.000000     0.000000     0.000000     0.000000
   14    -1.000000   179.999999     0.000000     0.000000     1.000000     0.000000     0.000000     0.000000
   15     1.000000   120.000000    -0.577350     0.577350     0.577350     0.000000     0.000000     0.000000
   16    -1.000000   120.000000    -0.577350     0.577350     0.577350     0.000000     0.000000     0.000000
   17     1.000000   120.000000    -0.577350     0.577350    -0.577350     0.000000     0.000000     0.000000
   18    -1.000000   120.000000    -0.577350     0.577350    -0.577350     0.000000     0.000000     0.000000
   19     1.000000    90.000000     0.000000     0.000000     1.000000     0.000000     0.000000     0.000000
   20    -1.000000    90.000000     0.000000     0.000000     1.000000     0.000000     0.000000     0.000000
   21     1.000000    90.000000    -1.000000     0.000000     0.000000     0.000000     0.000000     0.000000
   22    -1.000000    90.000000    -1.000000     0.000000     0.000000     0.000000     0.000000     0.000000
   23     1.000000   180.000000     0.707107     0.000000     0.707107     0.000000     0.000000     0.000000
   24    -1.000000   180.000000     0.707107     0.000000     0.707107     0.000000     0.000000     0.000000
   25     1.000000   120.000000     0.577350    -0.577350     0.577350     0.000000     0.000000     0.000000
   26    -1.000000   120.000000     0.577350    -0.577350     0.577350     0.000000     0.000000     0.000000
   27     1.000000   120.000000    -0.577350    -0.577350     0.577350     0.000000     0.000000     0.000000
   28    -1.000000   120.000000    -0.577350    -0.577350     0.577350     0.000000     0.000000     0.000000
   29     1.000000   180.000000     1.000000     0.000000     0.000000     0.000000     0.000000     0.000000
   30    -1.000000   180.000000     1.000000     0.000000     0.000000     0.000000     0.000000     0.000000
   31     1.000000    90.000000     0.000000    -1.000000     0.000000     0.000000     0.000000     0.000000
   32    -1.000000    90.000000     0.000000    -1.000000     0.000000     0.000000     0.000000     0.000000
   33     1.000000   180.000000     0.707107     0.707107     0.000000     0.000000     0.000000     0.000000
   34    -1.000000   180.000000     0.707107     0.707107     0.000000     0.000000     0.000000     0.000000
   35     1.000000    90.000000     1.000000     0.000000     0.000000     0.000000     0.000000     0.000000
   36    -1.000000    90.000000     1.000000     0.000000     0.000000     0.000000     0.000000     0.000000
   37     1.000000   120.000000     0.577350    -0.577350    -0.577350     0.000000     0.000000     0.000000
   38    -1.000000   120.000000     0.577350    -0.577350    -0.577350     0.000000     0.000000     0.000000
   39     1.000000   180.000000     0.000000     1.000000     0.000000     0.000000     0.000000     0.000000
   40    -1.000000   180.000000     0.000000     1.000000     0.000000     0.000000     0.000000     0.000000
   41     1.000000   120.000000     0.577350     0.577350    -0.577350     0.000000     0.000000     0.000000
   42    -1.000000   120.000000     0.577350     0.577350    -0.577350     0.000000     0.000000     0.000000
   43     1.000000   180.000000     0.000000    -0.707107     0.707107     0.000000     0.000000     0.000000
   44    -1.000000   180.000000     0.000000    -0.707107     0.707107     0.000000     0.000000     0.000000
   45     1.000000   180.000000     0.707107    -0.707107     0.000000     0.000000     0.000000     0.000000
   46    -1.000000   180.000000     0.707107    -0.707107     0.000000     0.000000     0.000000     0.000000
   47     1.000000   180.000000     0.707107     0.000000    -0.707107     0.000000     0.000000     0.000000
   48    -1.000000   180.000000     0.707107     0.000000    -0.707107     0.000000     0.000000     0.000000
 
 Subroutine IBZKPT returns following result:
 ===========================================
 
 Found     26 irreducible k-points:
 
 Following reciprocal coordinates:
            Coordinates               Weight
  0.062500  0.062500  0.062500      8.000000
  0.187500  0.062500  0.062500     24.000000
  0.312500  0.062500  0.062500     24.000000
  0.437500  0.062500  0.062500     12.000000
 -0.062500  0.062500  0.062500      6.000000
  0.187500  0.187500  0.062500     24.000000
  0.312500  0.187500  0.062500     48.000000
 -0.187500  0.187500  0.062500     24.000000
  0.312500  0.312500  0.062500      8.000000
 -0.312500  0.312500  0.062500     24.000000
 -0.187500  0.312500  0.062500     24.000000
 -0.437500  0.437500  0.062500     24.000000
 -0.312500  0.437500  0.062500     48.000000
 -0.437500 -0.437500  0.062500     24.000000
 -0.312500 -0.437500  0.062500     24.000000
  0.187500  0.187500  0.187500      8.000000
  0.312500  0.187500  0.187500     12.000000
 -0.187500  0.187500  0.187500      6.000000
 -0.312500  0.312500  0.187500     24.000000
 -0.437500  0.437500  0.187500     24.000000
 -0.312500  0.437500  0.187500     24.000000
 -0.437500 -0.437500  0.187500     24.000000
 -0.312500  0.312500  0.312500      6.000000
 -0.437500  0.437500  0.312500     24.000000
 -0.437500 -0.437500  0.312500      8.000000
 -0.437500  0.437500  0.437500      6.000000
 
 Following cartesian coordinates:
            Coordinates               Weight
  0.125000  0.125000  0.125000      8.000000
  0.125000  0.250000  0.250000     24.000000
  0.125000  0.375000  0.375000     24.000000
  0.125000  0.500000  0.500000     12.000000
  0.125000  0.000000  0.000000      6.000000
  0.250000  0.250000  0.375000     24.000000
  0.250000  0.375000  0.500000     48.000000
  0.250000 -0.125000  0.000000     24.000000
  0.375000  0.375000  0.625000      8.000000
  0.375000 -0.250000  0.000000     24.000000
  0.375000 -0.125000  0.125000     24.000000
  0.500000 -0.375000  0.000000     24.000000
  0.500000 -0.250000  0.125000     48.000000
 -0.375000 -0.375000 -0.875000     24.000000
 -0.375000 -0.250000 -0.750000     24.000000
  0.375000  0.375000  0.375000      8.000000
  0.375000  0.500000  0.500000     12.000000
  0.375000  0.000000  0.000000      6.000000
  0.500000 -0.125000  0.000000     24.000000
  0.625000 -0.250000  0.000000     24.000000
  0.625000 -0.125000  0.125000     24.000000
 -0.250000 -0.250000 -0.875000     24.000000
  0.625000  0.000000  0.000000      6.000000
  0.750000 -0.125000  0.000000     24.000000
 -0.125000 -0.125000 -0.875000      8.000000
  0.875000  0.000000  0.000000      6.000000
 
 TETIRR: Found    534 inequivalent tetrahedra from     3072


--------------------------------------------------------------------------------------------------------




 Dimension of arrays:
   k-points           NKPTS =     26   k-points in BZ     NKDIM =     26   number of bands    NBANDS=     12
   number of dos      NEDOS =    301   number of ions     NIONS =      1
   non local maximal  LDIM  =      6   non local SUM 2l+1 LMDIM =     18
   total plane-waves  NPLWV =   2744
   max r-space proj   IRMAX =      1   max aug-charges    IRDMAX=   8643
   dimension x,y,z NGX =    14 NGY =   14 NGZ =   14
   dimension x,y,z NGXF=    28 NGYF=   28 NGZF=   28
   support grid    NGXF=    28 NGYF=   28 NGZF=   28
   ions per type =               1
 NGX,Y,Z   is equivalent  to a cutoff of   9.43,  9.43,  9.43 a.u.
 NGXF,Y,Z  is equivalent  to a cutoff of  18.86, 18.86, 18.86 a.u.


 I would recommend the setting:
   dimension x,y,z NGX =    14 NGY =   14 NGZ =   14
 SYSTEM =  Fe BCC                                  
 POSCAR =  Fe BCC                                  

 Startparameter for this run:
   NWRITE =      2    write-flag & timer
   PREC   = accura    normal or accurate (medium, high low for compatibility)
   ISTART =      0    job   : 0-new  1-cont  2-samecut
   ICHARG =      2    charge: 1-file 2-atom 10-const
   ISPIN  =      2    spin polarized calculation?
   LNONCOLLINEAR =      F non collinear calculations
   LSORBIT =      F    spin-orbit coupling
   INIWAV =      1    electr: 0-lowe 1-rand  2-diag
   LASPH  =      F    aspherical Exc in radial PAW
   METAGGA=      F    non-selfconsistent MetaGGA calc.

 Electronic Relaxation 1
   ENCUT  =  300.0 eV  22.05 Ry    4.70 a.u.   3.49  3.49  3.49*2*pi/ulx,y,z
   ENINI  =  300.0     initial cutoff
   ENAUG  =  511.4 eV  augmentation charge cutoff
   NELM   =     60;   NELMIN=  2; NELMDL= -5     # of ELM steps 
   EDIFF  = 0.1E-05   stopping-criterion for ELM
   LREAL  =      F    real-space projection
   NLSPLINE    = F    spline interpolate recip. space projectors
   LCOMPAT=      F    compatible to vasp.4.4
   GGA_COMPAT  = T    GGA compatible to vasp.4.4-vasp.4.6
   LMAXPAW     = -100 max onsite density
   LMAXMIX     =    2 max onsite mixed and CHGCAR
   VOSKOWN=      0    Vosko Wilk Nusair interpolation
   ROPT   =    0.00000
 Ionic relaxation
   EDIFFG = 0.1E-04   stopping-criterion for IOM
   NSW    =      0    number of steps for IOM
   NBLOCK =      1;   KBLOCK =      1    inner block; outer block 
   IBRION =     -1    ionic relax: 0-MD 1-quasi-New 2-CG
   NFREE  =      0    steps in history (QN), initial steepest desc. (CG)
   ISIF   =      2    stress and relaxation
   IWAVPR =     10    prediction:  0-non 1-charg 2-wave 3-comb
   ISYM   =      2    0-nonsym 1-usesym 2-fastsym
   LCORR  =      T    Harris-Foulkes like correction to forces

   POTIM  = 0.5000    time-step for ionic-motion
   TEIN   =    0.0    initial temperature
   TEBEG  =    0.0;   TEEND  =   0.0 temperature during run
   SMASS  =  -3.00    Nose mass-parameter (am)
   estimated Nose-frequenzy (Omega)   =  0.10E-29 period in steps =****** mass=  -0.139E-27a.u.
   SCALEE = 1.0000    scale energy and forces
   NPACO  =    256;   APACO  = 16.0  distance and # of slots for P.C.
   PSTRESS=    0.0 pullay stress

  Mass of Ions in am
   POMASS =  55.85
  Ionic Valenz
   ZVAL   =   8.00
  Atomic Wigner-Seitz radii
   RWIGS  =  -1.00
  virtual crystal weights 
   VCA    =   1.00
   NELECT =       8.0000    total number of electrons
   NUPDOWN=      -1.0000    fix difference up-down

 DOS related values:
   EMIN   =  10.00;   EMAX   =-10.00  energy-range for DOS
   EFERMI =   0.00
   ISMEAR =    -5;   SIGMA  =   0.20  broadening in eV -4-tet -1-fermi 0-gaus

 Electronic relaxation 2 (details)
   IALGO  =     38    algorithm
   LDIAG  =      T    sub-space diagonalisation (order eigenvalues)
   LSUBROT=      F    optimize rotation matrix (better conditioning)
   TURBO    =      0    0=normal 1=particle mesh
   IRESTART =      0    0=no restart 2=restart with 2 vectors
   NREBOOT  =      0    no. of reboots
   NMIN     =      0    reboot dimension
   EREF     =   0.00    reference energy to select bands
   IMIX   =      4    mixing-type and parameters
     AMIX     =   0.40;   BMIX     =  1.00
     AMIX_MAG =   1.60;   BMIX_MAG =  1.00
     AMIN     =   0.10
     WC   =   100.;   INIMIX=   1;  MIXPRE=   1;  MAXMIX= -45

 Intra band minimization:
   WEIMIN = 0.0000     energy-eigenvalue tresh-hold
   EBREAK =  0.21E-07  absolut break condition
   DEPER  =   0.30     relativ break condition  

   TIME   =   0.40     timestep for ELM

  volume/ion in A,a.u.               =      11.57        78.11
  Fermi-wavevector in a.u.,A,eV,Ry     =   1.447449  2.735282 28.505687  2.095109
  Thomas-Fermi vector in A             =   2.565403
 
 Write flags
   LWAVE  =      T    write WAVECAR
   LCHARG =      T    write CHGCAR
   LVTOT  =      F    write LOCPOT, total local potential
   LVHAR  =      F    write LOCPOT, Hartree potential only
   LELF   =      F    write electronic localiz. function (ELF)
   LORBIT =     11    0 simple, 1 ext, 2 COOP (PROOUT)


 Dipole corrections
   LMONO  =      F    monopole corrections only (constant potential shift)
   LDIPOL =      F    correct potential (dipole corrections)
   IDIPOL =      0    1-x, 2-y, 3-z, 4-all directions 
   EPSILON=  1.0000000 bulk dielectric constant

 Exchange correlation treatment:
   GGA     =    --    GGA type
   LEXCH   =     8    internal setting for exchange type
   VOSKOWN=      0    Vosko Wilk Nusair interpolation
   LHFCALC =     F    Hartree Fock is set to
   LHFONE  =     F    Hartree Fock one center treatment
   AEXX    =    0.0000 exact exchange contribution

 Linear response parameters
   LEPSILON=     F    determine dielectric tensor
   LRPA    =     F    only Hartree local field effects (RPA)
   LNABLA  =     F    use nabla operator in PAW spheres
   LVEL    =     F    velocity operator in full k-point grid
   LINTERFAST=   F  fast interpolation
   KINTER  =     0    interpolate to denser k-point grid
   CSHIFT  =0.1000    complex shift for real part using Kramers Kronig
   OMEGAMAX=  -1.0    maximum frequency
   DEG_THRESHOLD= 0.2000000E-02 threshold for treating states as degnerate
   RTIME   =    0.100 relaxation time in fs

 Orbital magnetization related:
   ORBITALMAG=     F  switch on orbital magnetization
   LCHIMAG   =     F  perturbation theory with respect to B field
   DQ        =  0.001000  dq finite difference perturbation B field



--------------------------------------------------------------------------------------------------------


 Static calculation
 charge density and potential will be updated during run
 spin polarized calculation
 Variant of blocked Davidson
 Davidson routine will perform the subspace rotation
 perform sub-space diagonalisation
    after iterative eigenvector-optimisation
 modified Broyden-mixing scheme, WC =      100.0
 initial mixing is a Kerker type mixing with AMIX =  0.4000 and BMIX =      1.0000
 Hartree-type preconditioning will be used
 using additional bands            8
 reciprocal scheme for non local part
 use partial core corrections
 calculate Harris-corrections to forces 
   (improved forces if not selfconsistent)
 use gradient corrections 
 use of overlap-Matrix (Vanderbilt PP)
 Fermi weights with tetrahedron method with Bloechl corrections


--------------------------------------------------------------------------------------------------------


  energy-cutoff  :      300.00
  volume of cell :       11.57
      direct lattice vectors                 reciprocal lattice vectors
    -1.425000000  1.425000000  1.425000000     0.000000000  0.350877193  0.350877193
     1.425000000 -1.425000000  1.425000000     0.350877193  0.000000000  0.350877193
     1.425000000  1.425000000 -1.425000000     0.350877193  0.350877193  0.000000000

  length of vectors
     2.468172401  2.468172401  2.468172401     0.496215285  0.496215285  0.496215285


 
 k-points in units of 2pi/SCALE and weight: K-Points                                
   0.12500000  0.12500000  0.12500000       0.016
   0.12500000  0.25000000  0.25000000       0.047
   0.12500000  0.37500000  0.37500000       0.047
   0.12500000  0.50000000  0.50000000       0.023
   0.12500000  0.00000000  0.00000000       0.012
   0.25000000  0.25000000  0.37500000       0.047
   0.25000000  0.37500000  0.50000000       0.094
   0.25000000 -0.12500000  0.00000000       0.047
   0.37500000  0.37500000  0.62500000       0.016
   0.37500000 -0.25000000  0.00000000       0.047
   0.37500000 -0.12500000  0.12500000       0.047
   0.50000000 -0.37500000  0.00000000       0.047
   0.50000000 -0.25000000  0.12500000       0.094
  -0.37500000 -0.37500000 -0.87500000       0.047
  -0.37500000 -0.25000000 -0.75000000       0.047
   0.37500000  0.37500000  0.37500000       0.016
   0.37500000  0.50000000  0.50000000       0.023
   0.37500000  0.00000000  0.00000000       0.012
   0.50000000 -0.12500000  0.00000000       0.047
   0.62500000 -0.25000000  0.00000000       0.047
   0.62500000 -0.12500000  0.12500000       0.047
  -0.25000000 -0.25000000 -0.87500000       0.047
   0.62500000  0.00000000  0.00000000       0.012
   0.75000000 -0.12500000  0.00000000       0.047
  -0.12500000 -0.12500000 -0.87500000       0.016
   0.87500000  0.00000000  0.00000000       0.012
 
 k-points in reciprocal lattice and weights: K-Points                                
   0.06250000  0.06250000  0.06250000       0.016
   0.18750000  0.06250000  0.06250000       0.047
   0.31250000  0.06250000  0.06250000       0.047
   0.43750000  0.06250000  0.06250000       0.023
  -0.06250000  0.06250000  0.06250000       0.012
   0.18750000  0.18750000  0.06250000       0.047
   0.31250000  0.18750000  0.06250000       0.094
  -0.18750000  0.18750000  0.06250000       0.047
   0.31250000  0.31250000  0.06250000       0.016
  -0.31250000  0.31250000  0.06250000       0.047
  -0.18750000  0.31250000  0.06250000       0.047
  -0.43750000  0.43750000  0.06250000       0.047
  -0.31250000  0.43750000  0.06250000       0.094
  -0.43750000 -0.43750000  0.06250000       0.047
  -0.31250000 -0.43750000  0.06250000       0.047
   0.18750000  0.18750000  0.18750000       0.016
   0.31250000  0.18750000  0.18750000       0.023
  -0.18750000  0.18750000  0.18750000       0.012
  -0.31250000  0.31250000  0.18750000       0.047
  -0.43750000  0.43750000  0.18750000       0.047
  -0.31250000  0.43750000  0.18750000       0.047
  -0.43750000 -0.43750000  0.18750000       0.047
  -0.31250000  0.31250000  0.31250000       0.012
  -0.43750000  0.43750000  0.31250000       0.047
  -0.43750000 -0.43750000  0.31250000       0.016
  -0.43750000  0.43750000  0.43750000       0.012
 
 position of ions in fractional coordinates (direct lattice) 
   0.00000000  0.00000000  0.00000000
 
 position of ions in cartesian coordinates  (Angst):
   0.00000000  0.00000000  0.00000000
 


--------------------------------------------------------------------------------------------------------


 k-point  1 :   0.0625 0.0625 0.0625  plane waves:     138
 k-point  2 :   0.1875 0.0625 0.0625  plane waves:     138
 k-point  3 :   0.3125 0.0625 0.0625  plane waves:     138
 k-point  4 :   0.4375 0.0625 0.0625  plane waves:     138
 k-point  5 :  -0.0625 0.0625 0.0625  plane waves:     140
 k-point  6 :   0.1875 0.1875 0.0625  plane waves:     138
 k-point  7 :   0.3125 0.1875 0.0625  plane waves:     136
 k-point  8 :  -0.1875 0.1875 0.0625  plane waves:     142
 k-point  9 :   0.3125 0.3125 0.0625  plane waves:     143
 k-point 10 :  -0.3125 0.3125 0.0625  plane waves:     136
 k-point 11 :  -0.1875 0.3125 0.0625  plane waves:     140
 k-point 12 :  -0.4375 0.4375 0.0625  plane waves:     136
 k-point 13 :  -0.3125 0.4375 0.0625  plane waves:     137
 k-point 14 :  -0.4375-0.4375 0.0625  plane waves:     136
 k-point 15 :  -0.3125-0.4375 0.0625  plane waves:     136
 k-point 16 :   0.1875 0.1875 0.1875  plane waves:     143
 k-point 17 :   0.3125 0.1875 0.1875  plane waves:     142
 k-point 18 :  -0.1875 0.1875 0.1875  plane waves:     140
 k-point 19 :  -0.3125 0.3125 0.1875  plane waves:     134
 k-point 20 :  -0.4375 0.4375 0.1875  plane waves:     132
 k-point 21 :  -0.3125 0.4375 0.1875  plane waves:     136
 k-point 22 :  -0.4375-0.4375 0.1875  plane waves:     135
 k-point 23 :  -0.3125 0.3125 0.3125  plane waves:     132
 k-point 24 :  -0.4375 0.4375 0.3125  plane waves:     131
 k-point 25 :  -0.4375-0.4375 0.3125  plane waves:     125
 k-point 26 :  -0.4375 0.4375 0.4375  plane waves:     120

 maximum and minimum number of plane-waves per node :       143      120

 maximum number of plane-waves:       143
 maximum index in each direction: 
   IXMAX=    3   IYMAX=    3   IZMAX=    3
   IXMIN=   -3   IYMIN=   -3   IZMIN=   -3

 NGX is ok and might be reduce to  14
 NGY is ok and might be reduce to  14
 NGZ is ok and might be reduce to  14

 serial   3D FFT for wavefunctions
 parallel 3D FFT for charge:
    minimum data exchange during FFTs selected (reduces bandwidth)


 total amount of memory used by VASP on root node    31827. kBytes
========================================================================

   base      :      30000. kBytes
   nonl-proj :        541. kBytes
   fftplans  :        204. kBytes
   grid      :        642. kBytes
   one-center:         31. kBytes
   wavefun   :        409. kBytes
 
     INWAV:  cpu time    0.0000: real time    0.0000
 Broyden mixing: mesh for mixing (old mesh)
   NGX =  7   NGY =  7   NGZ =  7
  (NGX  = 28   NGY  = 28   NGZ  = 28)
  gives a total of    343 points

 initial charge density was supplied:
 charge density of overlapping atoms calculated
 number of electron       8.0000000 magnetization       4.0000000
 keeping initial charge density in first step


--------------------------------------------------------------------------------------------------------


 Maximum index for augmentation-charges         2051 (set IRDMAX)


--------------------------------------------------------------------------------------------------------


 First call to EWALD:  gamma=   0.784
 Maximum number of real-space cells 3x 3x 3
 Maximum number of reciprocal cells 3x 3x 3

 FEWALD executed in parallel
    FEWALD:  cpu time    0.0030: real time    0.0010


----------------------------------------- Iteration    1(   1)  ---------------------------------------


    POTLOK:  cpu time    0.0210: real time    0.0090
    SETDIJ:  cpu time    0.0110: real time    0.0055
     EDDAV:  cpu time    1.0068: real time    0.5043
 BZINTS: Fermi energy: 12.790004;  8.000000 electrons
         Band energy:  62.932153;  BLOECHL correction: -0.465058
       DOS:  cpu time    0.0620: real time    0.0278
    --------------------------------------------
      LOOP:  cpu time    1.2748: real time    0.6625

 eigenvalue-minimisations  :  1388
 total energy-change (2. order) : 0.1376083E+02  (-0.3011353E+03)
 number of electron       8.0000000 magnetization       4.0000000
 augmentation part        8.0000000 magnetization       4.0000000

 Free energy of the ion-electron system (eV)
  ---------------------------------------------------
  alpha Z        PSCENC =        59.71178263
  Ewald energy   TEWEN  =      -588.39789044
  -Hartree energ DENC   =      -112.96750494
  -exchange      EXHF   =         0.00000000
  -V(xc)+E(xc)   XCENC  =         5.94991612
  PAW double counting   =       552.89180568     -560.64780826
  entropy T*S    EENTRO =         0.00000000
  eigenvalues    EBANDS =        62.93215264
  atomic energy  EATOM  =       594.28837649
  Solvation  Ediel_sol  =         0.00000000
  ---------------------------------------------------
  free energy    TOTEN  =        13.76082993 eV

  energy without entropy =       13.76082993  energy(sigma->0) =       13.76082993


--------------------------------------------------------------------------------------------------------




----------------------------------------- Iteration    1(   2)  ---------------------------------------


     EDDAV:  cpu time    0.9709: real time    0.4873
 BZINTS: Fermi energy:  7.853930;  8.000000 electrons
         Band energy:  40.902485;  BLOECHL correction: -0.063305
       DOS:  cpu time    0.0600: real time    0.0285
    --------------------------------------------
      LOOP:  cpu time    1.0448: real time    0.5249

 eigenvalue-minimisations  :  1312
 total energy-change (2. order) :-0.2202967E+02  (-0.2039451E+02)
 number of electron       8.0000000 magnetization       4.0000000
 augmentation part        8.0000000 magnetization       4.0000000

 Free energy of the ion-electron system (eV)
  ---------------------------------------------------
  alpha Z        PSCENC =        59.71178263
  Ewald energy   TEWEN  =      -588.39789044
  -Hartree energ DENC   =      -112.96750494
  -exchange      EXHF   =         0.00000000
  -V(xc)+E(xc)   XCENC  =         5.94991612
  PAW double counting   =       552.89180568     -560.64780826
  entropy T*S    EENTRO =         0.00000000
  eigenvalues    EBANDS =        40.90248461
  atomic energy  EATOM  =       594.28837649
  Solvation  Ediel_sol  =         0.00000000
  ---------------------------------------------------
  free energy    TOTEN  =        -8.26883810 eV

  energy without entropy =       -8.26883810  energy(sigma->0) =       -8.26883810


--------------------------------------------------------------------------------------------------------




----------------------------------------- Iteration    1(   3)  ---------------------------------------


     EDDAV:  cpu time    1.1128: real time    0.6027
 BZINTS: Fermi energy:  7.794688;  8.000000 electrons
         Band energy:  40.476774;  BLOECHL correction: -0.063795
       DOS:  cpu time    0.0580: real time    0.0260
    --------------------------------------------
      LOOP:  cpu time    1.1778: real time    0.6325

 eigenvalue-minimisations  :  1460
 total energy-change (2. order) :-0.4257110E+00  (-0.4247884E+00)
 number of electron       8.0000000 magnetization       4.0000000
 augmentation part        8.0000000 magnetization       4.0000000

 Free energy of the ion-electron system (eV)
  ---------------------------------------------------
  alpha Z        PSCENC =        59.71178263
  Ewald energy   TEWEN  =      -588.39789044
  -Hartree energ DENC   =      -112.96750494
  -exchange      EXHF   =         0.00000000
  -V(xc)+E(xc)   XCENC  =         5.94991612
  PAW double counting   =       552.89180568     -560.64780826
  entropy T*S    EENTRO =         0.00000000
  eigenvalues    EBANDS =        40.47677361
  atomic energy  EATOM  =       594.28837649
  Solvation  Ediel_sol  =         0.00000000
  ---------------------------------------------------
  free energy    TOTEN  =        -8.69454910 eV

  energy without entropy =       -8.69454910  energy(sigma->0) =       -8.69454910


--------------------------------------------------------------------------------------------------------




----------------------------------------- Iteration    1(   4)  ---------------------------------------


     EDDAV:  cpu time    1.4168: real time    0.7113
 BZINTS: Fermi energy:  7.794525;  8.000000 electrons
         Band energy:  40.475387;  BLOECHL correction: -0.063795
       DOS:  cpu time    0.0540: real time    0.0241
    --------------------------------------------
      LOOP:  cpu time    1.4818: real time    0.7426

 eigenvalue-minimisations  :  1372
 total energy-change (2. order) :-0.1386986E-02  (-0.1387964E-02)
 number of electron       8.0000000 magnetization       4.0000000
 augmentation part        8.0000000 magnetization       4.0000000

 Free energy of the ion-electron system (eV)
  ---------------------------------------------------
  alpha Z        PSCENC =        59.71178263
  Ewald energy   TEWEN  =      -588.39789044
  -Hartree energ DENC   =      -112.96750494
  -exchange      EXHF   =         0.00000000
  -V(xc)+E(xc)   XCENC  =         5.94991612
  PAW double counting   =       552.89180568     -560.64780826
  entropy T*S    EENTRO =         0.00000000
  eigenvalues    EBANDS =        40.47538663
  atomic energy  EATOM  =       594.28837649
  Solvation  Ediel_sol  =         0.00000000
  ---------------------------------------------------
  free energy    TOTEN  =        -8.69593608 eV

  energy without entropy =       -8.69593608  energy(sigma->0) =       -8.69593608


--------------------------------------------------------------------------------------------------------




----------------------------------------- Iteration    1(   5)  ---------------------------------------


     EDDAV:  cpu time    1.0618: real time    0.5332
 BZINTS: Fermi energy:  7.794524;  8.000000 electrons
         Band energy:  40.475379;  BLOECHL correction: -0.063795
       DOS:  cpu time    0.0610: real time    0.0285
    CHARGE:  cpu time    0.0210: real time    0.0111
    MIXING:  cpu time    0.0010: real time    0.0004
    --------------------------------------------
      LOOP:  cpu time    1.1558: real time    0.5801

 eigenvalue-minimisations  :  1436
 total energy-change (2. order) :-0.7874748E-05  (-0.7880363E-05)
 number of electron       8.0000012 magnetization       1.8395243
 augmentation part        3.6594804 magnetization       1.1274558

 Broyden mixing:
  rms(total) = 0.12122E+01    rms(broyden)= 0.12120E+01
  rms(prec ) = 0.33034E+01
  weight for this iteration     100.00

 Free energy of the ion-electron system (eV)
  ---------------------------------------------------
  alpha Z        PSCENC =        59.71178263
  Ewald energy   TEWEN  =      -588.39789044
  -Hartree energ DENC   =      -112.96750494
  -exchange      EXHF   =         0.00000000
  -V(xc)+E(xc)   XCENC  =         5.94991612
  PAW double counting   =       552.89180568     -560.64780826
  entropy T*S    EENTRO =         0.00000000
  eigenvalues    EBANDS =        40.47537875
  atomic energy  EATOM  =       594.28837649
  Solvation  Ediel_sol  =         0.00000000
  ---------------------------------------------------
  free energy    TOTEN  =        -8.69594396 eV

  energy without entropy =       -8.69594396  energy(sigma->0) =       -8.69594396


--------------------------------------------------------------------------------------------------------




----------------------------------------- Iteration    1(   6)  ---------------------------------------


    POTLOK:  cpu time    0.0190: real time    0.0093
    SETDIJ:  cpu time    0.0140: real time    0.0087
     EDDAV:  cpu time    1.0268: real time    0.5146
 BZINTS: Fermi energy:  5.189906;  8.000000 electrons
         Band energy:  24.939375;  BLOECHL correction: -0.064075
       DOS:  cpu time    0.0630: real time    0.0291
    CHARGE:  cpu time    0.0180: real time    0.0095
    MIXING:  cpu time    0.0010: real time    0.0006
    --------------------------------------------
      LOOP:  cpu time    1.1468: real time    0.5746

 eigenvalue-minimisations  :  1400
 total energy-change (2. order) : 0.3953639E+00  (-0.9530116E+00)
 number of electron       8.0000014 magnetization       2.2502635
 augmentation part        4.2613414 magnetization       1.9059775

 Broyden mixing:
  rms(total) = 0.49541E+00    rms(broyden)= 0.49513E+00
  rms(prec ) = 0.64837E+00
  weight for this iteration     100.00

 eigenvalues of (default mixing * dielectric matrix)
  average eigenvalue GAMMA=   0.7650
  0.7650

 Free energy of the ion-electron system (eV)
  ---------------------------------------------------
  alpha Z        PSCENC =        59.71178263
  Ewald energy   TEWEN  =      -588.39789044
  -Hartree energ DENC   =       -96.91229957
  -exchange      EXHF   =         0.00000000
  -V(xc)+E(xc)   XCENC  =         3.98028204
  PAW double counting   =       606.74741252     -612.65761878
  entropy T*S    EENTRO =         0.00000000
  eigenvalues    EBANDS =        24.93937508
  atomic energy  EATOM  =       594.28837649
  Solvation  Ediel_sol  =         0.00000000
  ---------------------------------------------------
  free energy    TOTEN  =        -8.30058003 eV

  energy without entropy =       -8.30058003  energy(sigma->0) =       -8.30058003


--------------------------------------------------------------------------------------------------------




----------------------------------------- Iteration    1(   7)  ---------------------------------------


    POTLOK:  cpu time    0.0190: real time    0.0092
    SETDIJ:  cpu time    0.0140: real time    0.0085
     EDDAV:  cpu time    1.4578: real time    0.7306
 BZINTS: Fermi energy:  5.667450;  8.000000 electrons
         Band energy:  27.952269;  BLOECHL correction: -0.063296
       DOS:  cpu time    0.0640: real time    0.0295
    CHARGE:  cpu time    0.0190: real time    0.0099
    MIXING:  cpu time    0.0010: real time    0.0006
    --------------------------------------------
      LOOP:  cpu time    1.5798: real time    0.7913

 eigenvalue-minimisations  :  1448
 total energy-change (2. order) : 0.4315306E-01  (-0.4373519E-01)
 number of electron       8.0000014 magnetization       2.2157273
 augmentation part        4.1301988 magnetization       1.8510561

 Broyden mixing:
  rms(total) = 0.30727E+00    rms(broyden)= 0.30726E+00
  rms(prec ) = 0.40707E+00
  weight for this iteration     100.00

 eigenvalues of (default mixing * dielectric matrix)
  average eigenvalue GAMMA=   0.7673
  0.9727  0.5619

 Free energy of the ion-electron system (eV)
  ---------------------------------------------------
  alpha Z        PSCENC =        59.71178263
  Ewald energy   TEWEN  =      -588.39789044
  -Hartree energ DENC   =       -98.65755867
  -exchange      EXHF   =         0.00000000
  -V(xc)+E(xc)   XCENC  =         4.40283659
  PAW double counting   =       644.10187305     -651.65911571
  entropy T*S    EENTRO =         0.00000000
  eigenvalues    EBANDS =        27.95226909
  atomic energy  EATOM  =       594.28837649
  Solvation  Ediel_sol  =         0.00000000
  ---------------------------------------------------
  free energy    TOTEN  =        -8.25742697 eV

  energy without entropy =       -8.25742697  energy(sigma->0) =       -8.25742697


--------------------------------------------------------------------------------------------------------




----------------------------------------- Iteration    1(   8)  ---------------------------------------


    POTLOK:  cpu time    0.0190: real time    0.0092
    SETDIJ:  cpu time    0.0140: real time    0.0087
     EDDAV:  cpu time    1.0568: real time    0.5295
 BZINTS: Fermi energy:  5.620914;  8.000000 electrons
         Band energy:  27.700917;  BLOECHL correction: -0.063432
       DOS:  cpu time    0.0620: real time    0.0291
    CHARGE:  cpu time    0.0190: real time    0.0094
    MIXING:  cpu time    0.0010: real time    0.0007
    --------------------------------------------
      LOOP:  cpu time    1.1758: real time    0.5893

 eigenvalue-minimisations  :  1484
 total energy-change (2. order) : 0.8379845E-02  (-0.6011483E-03)
 number of electron       8.0000014 magnetization       2.1947593
 augmentation part        4.1399434 magnetization       1.8332122

 Broyden mixing:
  rms(total) = 0.12478E+00    rms(broyden)= 0.12478E+00
  rms(prec ) = 0.20643E+00
  weight for this iteration     100.00

 eigenvalues of (default mixing * dielectric matrix)
  average eigenvalue GAMMA=   1.1433
  2.0281  0.7853  0.6166

 Free energy of the ion-electron system (eV)
  ---------------------------------------------------
  alpha Z        PSCENC =        59.71178263
  Ewald energy   TEWEN  =      -588.39789044
  -Hartree energ DENC   =       -97.82147604
  -exchange      EXHF   =         0.00000000
  -V(xc)+E(xc)   XCENC  =         4.33823039
  PAW double counting   =       666.30159954     -674.37058681
  entropy T*S    EENTRO =         0.00000000
  eigenvalues    EBANDS =        27.70091710
  atomic energy  EATOM  =       594.28837649
  Solvation  Ediel_sol  =         0.00000000
  ---------------------------------------------------
  free energy    TOTEN  =        -8.24904712 eV

  energy without entropy =       -8.24904712  energy(sigma->0) =       -8.24904712


--------------------------------------------------------------------------------------------------------




----------------------------------------- Iteration    1(   9)  ---------------------------------------


    POTLOK:  cpu time    0.0200: real time    0.0087
    SETDIJ:  cpu time    0.0110: real time    0.0055
     EDDAV:  cpu time    1.1788: real time    0.5903
 BZINTS: Fermi energy:  5.554156;  8.000000 electrons
         Band energy:  27.312967;  BLOECHL correction: -0.064225
       DOS:  cpu time    0.0450: real time    0.0196
    CHARGE:  cpu time    0.0270: real time    0.0147
    MIXING:  cpu time    0.0010: real time    0.0007
    --------------------------------------------
      LOOP:  cpu time    1.3428: real time    0.6792

 eigenvalue-minimisations  :  1660
 total energy-change (2. order) : 0.5890340E-02  (-0.8012856E-03)
 number of electron       8.0000014 magnetization       2.1989200
 augmentation part        4.1564382 magnetization       1.8400305

 Broyden mixing:
  rms(total) = 0.19043E-01    rms(broyden)= 0.19036E-01
  rms(prec ) = 0.25415E-01
  weight for this iteration     100.00

 eigenvalues of (default mixing * dielectric matrix)
  average eigenvalue GAMMA=   1.2111
  2.4199  1.0167  0.7770  0.6306

 Free energy of the ion-electron system (eV)
  ---------------------------------------------------
  alpha Z        PSCENC =        59.71178263
  Ewald energy   TEWEN  =      -588.39789044
  -Hartree energ DENC   =       -96.54301782
  -exchange      EXHF   =         0.00000000
  -V(xc)+E(xc)   XCENC  =         4.29669155
  PAW double counting   =       703.35721485     -712.26928144
  entropy T*S    EENTRO =         0.00000000
  eigenvalues    EBANDS =        27.31296740
  atomic energy  EATOM  =       594.28837649
  Solvation  Ediel_sol  =         0.00000000
  ---------------------------------------------------
  free energy    TOTEN  =        -8.24315678 eV

  energy without entropy =       -8.24315678  energy(sigma->0) =       -8.24315678


--------------------------------------------------------------------------------------------------------




----------------------------------------- Iteration    1(  10)  ---------------------------------------


    POTLOK:  cpu time    0.0190: real time    0.0092
    SETDIJ:  cpu time    0.0150: real time    0.0089
     EDDAV:  cpu time    1.0238: real time    0.5132
 BZINTS: Fermi energy:  5.570961;  8.000000 electrons
         Band energy:  27.414664;  BLOECHL correction: -0.064291
       DOS:  cpu time    0.0630: real time    0.0290
    CHARGE:  cpu time    0.0180: real time    0.0095
    MIXING:  cpu time    0.0010: real time    0.0008
    --------------------------------------------
      LOOP:  cpu time    1.1438: real time    0.5732

 eigenvalue-minimisations  :  1376
 total energy-change (2. order) : 0.2054349E-04  (-0.6846753E-04)
 number of electron       8.0000014 magnetization       2.2007951
 augmentation part        4.1519921 magnetization       1.8403772

 Broyden mixing:
  rms(total) = 0.50846E-02    rms(broyden)= 0.50831E-02
  rms(prec ) = 0.67772E-02
  weight for this iteration     100.00

 eigenvalues of (default mixing * dielectric matrix)
  average eigenvalue GAMMA=   1.1479
  2.4515  1.1003  0.6727  0.6727  0.8421

 Free energy of the ion-electron system (eV)
  ---------------------------------------------------
  alpha Z        PSCENC =        59.71178263
  Ewald energy   TEWEN  =      -588.39789044
  -Hartree energ DENC   =       -96.46685584
  -exchange      EXHF   =         0.00000000
  -V(xc)+E(xc)   XCENC  =         4.29775985
  PAW double counting   =       711.19049868     -720.28147182
  entropy T*S    EENTRO =         0.00000000
  eigenvalues    EBANDS =        27.41466421
  atomic energy  EATOM  =       594.28837649
  Solvation  Ediel_sol  =         0.00000000
  ---------------------------------------------------
  free energy    TOTEN  =        -8.24313624 eV

  energy without entropy =       -8.24313624  energy(sigma->0) =       -8.24313624


--------------------------------------------------------------------------------------------------------




----------------------------------------- Iteration    1(  11)  ---------------------------------------


    POTLOK:  cpu time    0.0190: real time    0.0091
    SETDIJ:  cpu time    0.0140: real time    0.0087
     EDDAV:  cpu time    1.4218: real time    0.7124
 BZINTS: Fermi energy:  5.568333;  8.000000 electrons
         Band energy:  27.395290;  BLOECHL correction: -0.064314
       DOS:  cpu time    0.0590: real time    0.0270
    CHARGE:  cpu time    0.0220: real time    0.0115
    MIXING:  cpu time    0.0010: real time    0.0007
    --------------------------------------------
      LOOP:  cpu time    1.5418: real time    0.7723

 eigenvalue-minimisations  :  1388
 total energy-change (2. order) :-0.2332919E-04  (-0.3712270E-05)
 number of electron       8.0000014 magnetization       2.1970721
 augmentation part        4.1527650 magnetization       1.8364644

 Broyden mixing:
  rms(total) = 0.37418E-02    rms(broyden)= 0.37413E-02
  rms(prec ) = 0.40712E-02
  weight for this iteration     100.00

 eigenvalues of (default mixing * dielectric matrix)
  average eigenvalue GAMMA=   1.2853
  2.2910  2.2910  1.0027  0.6528  0.7370  0.7370

 Free energy of the ion-electron system (eV)
  ---------------------------------------------------
  alpha Z        PSCENC =        59.71178263
  Ewald energy   TEWEN  =      -588.39789044
  -Hartree energ DENC   =       -96.45765601
  -exchange      EXHF   =         0.00000000
  -V(xc)+E(xc)   XCENC  =         4.29840423
  PAW double counting   =       711.60396685     -720.68543313
  entropy T*S    EENTRO =         0.00000000
  eigenvalues    EBANDS =        27.39528980
  atomic energy  EATOM  =       594.28837649
  Solvation  Ediel_sol  =         0.00000000
  ---------------------------------------------------
  free energy    TOTEN  =        -8.24315957 eV

  energy without entropy =       -8.24315957  energy(sigma->0) =       -8.24315957


--------------------------------------------------------------------------------------------------------




----------------------------------------- Iteration    1(  12)  ---------------------------------------


    POTLOK:  cpu time    0.0190: real time    0.0093
    SETDIJ:  cpu time    0.0140: real time    0.0086
     EDDAV:  cpu time    1.1108: real time    0.5576
 BZINTS: Fermi energy:  5.567498;  8.000000 electrons
         Band energy:  27.388776;  BLOECHL correction: -0.064328
       DOS:  cpu time    0.0620: real time    0.0290
    CHARGE:  cpu time    0.0180: real time    0.0096
    MIXING:  cpu time    0.0020: real time    0.0009
    --------------------------------------------
      LOOP:  cpu time    1.2308: real time    0.6178

 eigenvalue-minimisations  :  1332
 total energy-change (2. order) :-0.5485127E-05  (-0.2557982E-06)
 number of electron       8.0000014 magnetization       2.1977490
 augmentation part        4.1529056 magnetization       1.8372628

 Broyden mixing:
  rms(total) = 0.21354E-02    rms(broyden)= 0.21351E-02
  rms(prec ) = 0.22894E-02
  weight for this iteration     100.00

 eigenvalues of (default mixing * dielectric matrix)
  average eigenvalue GAMMA=   1.2683
  2.5604  2.5604  1.0830  0.8408  0.6698  0.6698  0.4937

 Free energy of the ion-electron system (eV)
  ---------------------------------------------------
  alpha Z        PSCENC =        59.71178263
  Ewald energy   TEWEN  =      -588.39789044
  -Hartree energ DENC   =       -96.47805834
  -exchange      EXHF   =         0.00000000
  -V(xc)+E(xc)   XCENC  =         4.29572453
  PAW double counting   =       711.66514630     -720.71702188
  entropy T*S    EENTRO =         0.00000000
  eigenvalues    EBANDS =        27.38877566
  atomic energy  EATOM  =       594.28837649
  Solvation  Ediel_sol  =         0.00000000
  ---------------------------------------------------
  free energy    TOTEN  =        -8.24316505 eV

  energy without entropy =       -8.24316505  energy(sigma->0) =       -8.24316505


--------------------------------------------------------------------------------------------------------




----------------------------------------- Iteration    1(  13)  ---------------------------------------


    POTLOK:  cpu time    0.0190: real time    0.0092
    SETDIJ:  cpu time    0.0140: real time    0.0088
     EDDAV:  cpu time    0.6019: real time    0.3011
 BZINTS: Fermi energy:  5.566964;  8.000000 electrons
         Band energy:  27.385718;  BLOECHL correction: -0.064330
       DOS:  cpu time    0.0600: real time    0.0280
    CHARGE:  cpu time    0.0200: real time    0.0105
    MIXING:  cpu time    0.0020: real time    0.0008
    --------------------------------------------
      LOOP:  cpu time    0.7209: real time    0.3610

 eigenvalue-minimisations  :   672
 total energy-change (2. order) : 0.1917494E-05  (-0.4736402E-07)
 number of electron       8.0000014 magnetization       2.1990044
 augmentation part        4.1530371 magnetization       1.8385760

 Broyden mixing:
  rms(total) = 0.13478E-02    rms(broyden)= 0.13478E-02
  rms(prec ) = 0.13741E-02
  weight for this iteration     100.00

 eigenvalues of (default mixing * dielectric matrix)
  average eigenvalue GAMMA=   1.2519
  2.6613  2.4786  1.1737  1.0121  0.7279  0.7279  0.6342  0.5997

 Free energy of the ion-electron system (eV)
  ---------------------------------------------------
  alpha Z        PSCENC =        59.71178263
  Ewald energy   TEWEN  =      -588.39789044
  -Hartree energ DENC   =       -96.47725785
  -exchange      EXHF   =         0.00000000
  -V(xc)+E(xc)   XCENC  =         4.29692589
  PAW double counting   =       711.66791936     -720.71873745
  entropy T*S    EENTRO =         0.00000000
  eigenvalues    EBANDS =        27.38571823
  atomic energy  EATOM  =       594.28837649
  Solvation  Ediel_sol  =         0.00000000
  ---------------------------------------------------
  free energy    TOTEN  =        -8.24316314 eV

  energy without entropy =       -8.24316314  energy(sigma->0) =       -8.24316314


--------------------------------------------------------------------------------------------------------




----------------------------------------- Iteration    1(  14)  ---------------------------------------


    POTLOK:  cpu time    0.0190: real time    0.0092
    SETDIJ:  cpu time    0.0140: real time    0.0090
     EDDAV:  cpu time    0.6169: real time    0.3088
 BZINTS: Fermi energy:  5.566990;  8.000000 electrons
         Band energy:  27.386346;  BLOECHL correction: -0.064331
       DOS:  cpu time    0.0620: real time    0.0290
    --------------------------------------------
      LOOP:  cpu time    0.7159: real time    0.3585

 eigenvalue-minimisations  :   688
 total energy-change (2. order) :-0.2581620E-06  (-0.2258938E-07)
 number of electron       8.0000014 magnetization       2.1990044
 augmentation part        4.1530371 magnetization       1.8385760

 Free energy of the ion-electron system (eV)
  ---------------------------------------------------
  alpha Z        PSCENC =        59.71178263
  Ewald energy   TEWEN  =      -588.39789044
  -Hartree energ DENC   =       -96.47275164
  -exchange      EXHF   =         0.00000000
  -V(xc)+E(xc)   XCENC  =         4.29809866
  PAW double counting   =       711.77760563     -720.83473043
  entropy T*S    EENTRO =         0.00000000
  eigenvalues    EBANDS =        27.38634570
  atomic energy  EATOM  =       594.28837649
  Solvation  Ediel_sol  =         0.00000000
  ---------------------------------------------------
  free energy    TOTEN  =        -8.24316339 eV

  energy without entropy =       -8.24316339  energy(sigma->0) =       -8.24316339


--------------------------------------------------------------------------------------------------------




 average (electrostatic) potential at core
  the test charge radii are     1.0103
  (the norm of the test charge is              1.0000)
       1 -43.4879
 
 
 
 E-fermi :   5.5670     XC(G=0): -13.0134     alpha+bet :-13.3918


 spin component 1

 k-point     1 :       0.0625    0.0625    0.0625
  band No.  band energies     occupation 
      1      -1.7333      1.00000
      2       3.1448      1.00000
      3       3.1448      1.00000
      4       3.9286      1.00000
      5       4.5042      1.00000
      6       4.5042      1.00339
      7      26.8475      0.00000
      8      26.8475      0.00000
      9      30.6305      0.00000
     10      31.3759      0.00000
     11      36.2726      0.00000
     12      36.2726      0.00000

 k-point     2 :       0.1875    0.0625    0.0625
  band No.  band energies     occupation 
      1      -0.1552      1.00000
      2       2.7457      1.00000
      3       2.9530      1.00000
      4       4.4440      1.00000
      5       4.6239      1.00091
      6       4.9288      0.88317
      7      21.4253      0.00000
      8      24.5065      0.00000
      9      26.7924      0.00000
     10      31.6878      0.00000
     11      35.7200      0.00000
     12      36.9224      0.00000

 k-point     3 :       0.3125    0.0625    0.0625
  band No.  band energies     occupation 
      1       0.9759      1.00000
      2       2.4036      1.00000
      3       3.7215      1.00000
      4       4.5827      1.00000
      5       4.7187      1.03317
      6       6.3346      0.01105
      7      15.9709      0.00000
      8      22.8139      0.00000
      9      24.4705      0.00000
     10      31.1583      0.00000
     11      35.0270      0.00000
     12      40.2369      0.00000

 k-point     4 :       0.4375    0.0625    0.0625
  band No.  band energies     occupation 
      1       1.0318      1.00000
      2       2.2722      1.00000
      3       4.6444      1.00000
      4       4.7031      1.00000
      5       4.7572      1.07997
      6       7.7225     -0.00487
      7      12.8778      0.00000
      8      22.1948      0.00000
      9      23.6052      0.00000
     10      30.9254      0.00000
     11      34.9206      0.00000
     12      40.1716      0.00000

 k-point     5 :      -0.0625    0.0625    0.0625
  band No.  band energies     occupation 
      1      -2.3432      1.00000
      2       3.3429      1.00000
      3       3.3429      1.00000
      4       3.4288      1.00000
      5       4.4307      1.00000
      6       4.6243      1.00000
      7      28.7863      0.00000
      8      30.1092      0.00000
      9      30.1092      0.00000
     10      33.1675      0.00000
     11      35.2666      0.00000
     12      35.2666      0.00000

 k-point     6 :       0.1875    0.1875    0.0625
  band No.  band energies     occupation 
      1       1.3072      1.00000
      2       2.4723      1.00000
      3       2.6694      1.00000
      4       4.5231      1.00000
      5       4.7509      1.00075
      6       6.5365     -0.00807
      7      18.9268      0.00000
      8      19.7168      0.00000
      9      23.5951      0.00000
     10      33.6097      0.00000
     11      37.2238      0.00000
     12      39.6151      0.00000

 k-point     7 :       0.3125    0.1875    0.0625
  band No.  band energies     occupation 
      1       1.6465      1.00000
      2       2.3098      1.00000
      3       3.2992      1.00000
      4       4.6603      1.00000
      5       4.8452      1.00976
      6       8.9834     -0.00358
      7      14.2985      0.00000
      8      18.1525      0.00000
      9      22.3258      0.00000
     10      33.9627      0.00000
     11      38.2702      0.00000
     12      40.2264      0.00000

 k-point     8 :      -0.1875    0.1875    0.0625
  band No.  band energies     occupation 
      1      -1.1639      1.00000
      2       3.0829      1.00000
      3       3.2732      1.00000
      4       4.0319      1.00000
      5       4.1967      1.00000
      6       4.7216      1.01081
      7      24.2964      0.00000
      8      27.6790      0.00000
      9      28.5212      0.00000
     10      32.5492      0.00000
     11      32.6984      0.00000
     12      34.2611      0.00000

 k-point     9 :       0.3125    0.3125    0.0625
  band No.  band energies     occupation 
      1       1.9594      1.00000
      2       2.6652      1.00000
      3       2.6652      1.00000
      4       4.7950      1.00000
      5       4.7950      1.00000
      6      12.4855      0.00000
      7      12.4855      0.00000
      8      14.9470      0.00000
      9      21.8568      0.00000
     10      36.3879      0.00000
     11      36.3879      0.00000
     12      43.4532      0.00000

 k-point    10 :      -0.3125    0.3125    0.0625
  band No.  band energies     occupation 
      1       0.4589      1.00000
      2       2.6955      1.00000
      3       3.3362      1.00000
      4       4.3975      1.00000
      5       4.9028      1.01741
      6       5.0221      0.70951
      7      18.5267      0.00000
      8      25.2845      0.00000
      9      26.3709      0.00000
     10      30.8639      0.00000
     11      32.7472      0.00000
     12      35.6456      0.00000

 k-point    11 :      -0.1875    0.3125    0.0625
  band No.  band energies     occupation 
      1       0.2723      1.00000
      2       2.8743      1.00000
      3       3.0735      1.00000
      4       4.0752      1.00000
      5       4.7512      1.00180
      6       5.0995      0.76049
      7      21.5076      0.00000
      8      22.4632      0.00000
      9      28.9873      0.00000
     10      29.1887      0.00000
     11      32.9499      0.00000
     12      37.5606      0.00000

 k-point    12 :      -0.4375    0.4375    0.0625
  band No.  band energies     occupation 
      1       0.9115      1.00000
      2       2.4325      1.00000
      3       4.0969      1.00000
      4       4.5603      1.00000
      5       5.8174      0.48854
      6       6.2659      0.00092
      7      13.7825      0.00000
      8      23.9188      0.00000
      9      24.7513      0.00000
     10      30.1581      0.00000
     11      33.0040      0.00000
     12      37.3466      0.00000

 k-point    13 :      -0.3125    0.4375    0.0625
  band No.  band energies     occupation 
      1       1.3146      1.00000
      2       2.5756      1.00000
      3       3.1415      1.00000
      4       4.3694      1.00000
      5       5.1343      1.02464
      6       6.8199     -0.03590
      7      16.3495      0.00000
      8      20.2479      0.00000
      9      26.7914      0.00000
     10      29.9724      0.00000
     11      33.5861      0.00000
     12      38.0957      0.00000

 k-point    14 :      -0.4375   -0.4375    0.0625
  band No.  band energies     occupation 
      1       1.3497      1.00000
      2       2.5660      1.00000
      3       3.3124      1.00000
      4       4.4714      1.00000
      5       5.4795      0.88670
      6       8.8244     -0.00182
      7      12.9821      0.00000
      8      19.5549      0.00000
      9      25.9572      0.00000
     10      30.3041      0.00000
     11      34.5725      0.00000
     12      37.4062      0.00000

 k-point    15 :      -0.3125   -0.4375    0.0625
  band No.  band energies     occupation 
      1       2.0277      1.00000
      2       2.2807      1.00000
      3       2.8105      1.00000
      4       4.6632      1.00000
      5       5.1090      1.03785
      6      10.0446     -0.00059
      7      14.4288      0.00000
      8      15.7562      0.00000
      9      27.1788      0.00000
     10      30.3907      0.00000
     11      32.5674      0.00000
     12      39.6144      0.00000

 k-point    16 :       0.1875    0.1875    0.1875
  band No.  band energies     occupation 
      1       2.2946      1.00000
      2       2.2946      1.00000
      3       2.4631      1.00000
      4       4.7341      1.00000
      5       4.7341      1.00000
      6       8.9623     -0.00453
      7      17.2825      0.00000
      8      17.2825      0.00000
      9      18.5728      0.00000
     10      38.2845      0.00000
     11      40.9336      0.00000
     12      40.9336      0.00000

 k-point    17 :       0.3125    0.1875    0.1875
  band No.  band energies     occupation 
      1       2.1821      1.00000
      2       2.2574      1.00000
      3       2.9052      1.00000
      4       4.7672      1.00000
      5       4.7815      1.00000
      6      11.7804      0.00000
      7      13.5967      0.00000
      8      16.7198      0.00000
      9      17.6586      0.00000
     10      39.3169      0.00000
     11      42.6833      0.00000
     12      43.0850      0.00000

 k-point    18 :      -0.1875    0.1875    0.1875
  band No.  band energies     occupation 
      1      -0.1307      1.00000
      2       3.4330      1.00000
      3       3.4941      1.00000
      4       3.4941      1.00000
      5       4.0458      1.00000
      6       5.0781      0.90584
      7      24.4504      0.00000
      8      25.3860      0.00000
      9      25.3860      0.00000
     10      27.3083      0.00000
     11      36.7196      0.00000
     12      36.7196      0.00000

 k-point    19 :      -0.3125    0.3125    0.1875
  band No.  band energies     occupation 
      1       1.1625      1.00000
      2       2.6849      1.00000
      3       3.3587      1.00000
      4       4.0068      1.00000
      5       4.9082      1.03291
      6       5.9312      0.11124
      7      19.3785      0.00000
      8      22.7825      0.00000
      9      23.9902      0.00000
     10      27.9126      0.00000
     11      35.7957      0.00000
     12      37.5198      0.00000

 k-point    20 :      -0.4375    0.4375    0.1875
  band No.  band energies     occupation 
      1       1.4466      1.00000
      2       2.6194      1.00000
      3       3.1652      1.00000
      4       4.2182      1.00000
      5       5.7379      0.35520
      6       8.4053     -0.01134
      7      14.3026      0.00000
      8      21.1713      0.00000
      9      23.1491      0.00000
     10      30.4377      0.00000
     11      34.8729      0.00000
     12      35.5242      0.00000

 k-point    21 :      -0.3125    0.4375    0.1875
  band No.  band energies     occupation 
      1       1.7596      1.00000
      2       2.0712      1.00000
      3       3.4380      1.00000
      4       4.3951      1.00000
      5       5.3231      1.06498
      6       8.2816     -0.01512
      7      17.2421      0.00000
      8      17.8463      0.00000
      9      25.4153      0.00000
     10      26.9018      0.00000
     11      34.5087      0.00000
     12      37.4106      0.00000

 k-point    22 :      -0.4375   -0.4375    0.1875
  band No.  band energies     occupation 
      1       1.7135      1.00000
      2       2.0816      1.00000
      3       3.2479      1.00000
      4       4.6991      1.00000
      5       5.5497      0.75928
      6      11.2729      0.00000
      7      13.4561      0.00000
      8      16.8655      0.00000
      9      25.4184      0.00000
     10      28.5743      0.00000
     11      31.9806      0.00000
     12      36.4205      0.00000

 k-point    23 :      -0.3125    0.3125    0.3125
  band No.  band energies     occupation 
      1       1.5485      1.00000
      2       2.0263      1.00000
      3       4.2520      1.00000
      4       4.2520      1.00000
      5       4.9429      1.16821
      6       7.6539     -0.02199
      7      19.8556      0.00000
      8      19.8556      0.00000
      9      22.1460      0.00000
     10      24.1555      0.00000
     11      35.8529      0.00000
     12      40.6923      0.00000

 k-point    24 :      -0.4375    0.4375    0.3125
  band No.  band energies     occupation 
      1       1.4509      1.00000
      2       1.5806      1.00000
      3       4.3874      1.00000
      4       4.6641      1.00000
      5       5.6281      0.29133
      6      10.7579      0.00000
      7      15.4899      0.00000
      8      18.0495      0.00000
      9      22.3046      0.00000
     10      25.1681      0.00000
     11      31.1900      0.00000
     12      40.1685      0.00000

 k-point    25 :      -0.4375   -0.4375    0.3125
  band No.  band energies     occupation 
      1       1.3140      1.00000
      2       1.3140      1.00000
      3       4.4924      1.00000
      4       5.4766      1.00000
      5       5.4766      1.06454
      6      14.1423      0.00000
      7      14.1423      0.00000
      8      15.2589      0.00000
      9      23.7760      0.00000
     10      23.7760      0.00000
     11      28.6474      0.00000
     12      40.7138      0.00000

 k-point    26 :      -0.4375    0.4375    0.4375
  band No.  band energies     occupation 
      1       1.0567      1.00000
      2       1.0573      1.00000
      3       5.4367      1.00000
      4       5.4367      1.00000
      5       5.5943      0.22830
      6      13.5390      0.00000
      7      16.0491      0.00000
      8      16.0492      0.00000
      9      21.2652      0.00000
     10      22.4158      0.00000
     11      27.1377      0.00000
     12      43.9093      0.00000

 spin component 2

 k-point     1 :       0.0625    0.0625    0.0625
  band No.  band energies     occupation 
      1      -1.6191      1.00000
      2       5.0783      1.00000
      3       5.0783      1.00000
      4       5.9613     -0.02372
      5       7.1977      0.00000
      6       7.1977      0.00000
      7      26.9935      0.00000
      8      26.9935      0.00000
      9      31.0413      0.00000
     10      31.4614      0.00000
     11      36.5566      0.00000
     12      36.5566      0.00000

 k-point     2 :       0.1875    0.0625    0.0625
  band No.  band energies     occupation 
      1       0.0509      1.00000
      2       4.5904      1.00000
      3       4.7552      1.00000
      4       7.0036     -0.00096
      5       7.0533      0.00000
      6       7.3531      0.00000
      7      21.9875      0.00000
      8      24.7780      0.00000
      9      27.5023      0.00000
     10      31.5839      0.00000
     11      36.2614      0.00000
     12      37.1342      0.00000

 k-point     3 :       0.3125    0.0625    0.0625
  band No.  band energies     occupation 
      1       1.8483      1.00000
      2       4.1707      1.00000
      3       4.8716      1.00724
      4       7.1467      0.00000
      5       7.4913      0.00000
      6       8.2841      0.00000
      7      16.9033      0.00000
      8      23.0727      0.00000
      9      25.0884      0.00000
     10      31.3071      0.00000
     11      35.5535      0.00000
     12      40.4010      0.00000

 k-point     4 :       0.4375    0.0625    0.0625
  band No.  band energies     occupation 
      1       2.3267      1.00000
      2       4.0100      1.00000
      3       5.6352      0.90106
      4       7.2182      0.00000
      5       7.5510      0.00000
      6       9.1403      0.00000
      7      14.2141      0.00000
      8      22.4315      0.00000
      9      24.1743      0.00000
     10      31.1501      0.00000
     11      35.4718      0.00000
     12      40.1415      0.00000

 k-point     5 :      -0.0625    0.0625    0.0625
  band No.  band energies     occupation 
      1      -2.2368      1.00000
      2       5.3146      1.00000
      3       5.3146      1.00000
      4       5.4227      0.37929
      5       7.1132      0.00000
      6       7.3634      0.00000
      7      28.6346      0.00000
      8      29.9534      0.00000
      9      29.9534      0.00000
     10      33.5124      0.00000
     11      36.0118      0.00000
     12      36.0118      0.00000

 k-point     6 :       0.1875    0.1875    0.0625
  band No.  band energies     occupation 
      1       1.8312      1.00000
      2       4.1965      1.00000
      3       4.3036      1.00007
      4       7.1300      0.00000
      5       7.4853      0.00000
      6       8.4754      0.00000
      7      19.5941      0.00000
      8      20.3314      0.00000
      9      24.1517      0.00000
     10      33.4987      0.00000
     11      37.4928      0.00000
     12      39.8752      0.00000

 k-point     7 :       0.3125    0.1875    0.0625
  band No.  band energies     occupation 
      1       2.9383      1.00000
      2       3.9629      1.00000
      3       4.5453      1.00234
      4       7.2700      0.00000
      5       7.5562      0.00000
      6      10.3983      0.00000
      7      15.3115      0.00000
      8      18.7836      0.00000
      9      22.8402      0.00000
     10      33.9914      0.00000
     11      38.3375      0.00000
     12      40.6010      0.00000

 k-point     8 :      -0.1875    0.1875    0.0625
  band No.  band energies     occupation 
      1      -1.0305      1.00000
      2       4.9962      1.00000
      3       5.1908      1.00000
      4       6.0868     -0.01220
      5       6.7618      0.00000
      6       7.4699      0.00000
      7      24.6750      0.00000
      8      27.7549      0.00000
      9      28.8481      0.00000
     10      32.9220      0.00000
     11      33.2214      0.00000
     12      34.6252      0.00000

 k-point     9 :       0.3125    0.3125    0.0625
  band No.  band energies     occupation 
      1       3.4968      1.00000
      2       4.0924      1.00000
      3       4.0924      1.00008
      4       7.4444      0.00000
      5       7.4444      0.00000
      6      13.5064      0.00000
      7      13.5064      0.00000
      8      15.8353      0.00000
      9      22.3914      0.00000
     10      36.3739      0.00000
     11      36.3739      0.00000
     12      44.1317      0.00000

 k-point    10 :      -0.3125    0.3125    0.0625
  band No.  band energies     occupation 
      1       0.9077      1.00000
      2       4.5296      1.00000
      3       4.9223      1.00168
      4       6.8269      0.00000
      5       7.1978      0.00000
      6       7.5883      0.00000
      7      19.2950      0.00000
      8      25.3675      0.00000
      9      26.9475      0.00000
     10      31.2895      0.00000
     11      33.2217      0.00000
     12      35.8800      0.00000

 k-point    11 :      -0.1875    0.3125    0.0625
  band No.  band energies     occupation 
      1       0.5457      1.00000
      2       4.7774      1.00000
      3       4.8875      1.00179
      4       6.4875     -0.00054
      5       6.9359      0.00000
      6       7.6991      0.00000
      7      22.0738      0.00000
      8      23.0051      0.00000
      9      29.1678      0.00000
     10      29.6516      0.00000
     11      33.3066      0.00000
     12      37.8497      0.00000

 k-point    12 :      -0.4375    0.4375    0.0625
  band No.  band energies     occupation 
      1       2.1121      1.00000
      2       4.2163      1.00000
      3       5.5005      0.98770
      4       7.0383      0.00000
      5       7.9602      0.00000
      6       8.1125      0.00000
      7      14.9847      0.00000
      8      23.9715      0.00000
      9      25.3018      0.00000
     10      30.6218      0.00000
     11      33.5557      0.00000
     12      37.4158      0.00000

 k-point    13 :      -0.3125    0.4375    0.0625
  band No.  band energies     occupation 
      1       2.2560      1.00000
      2       4.3372      1.00000
      3       4.7332      1.00538
      4       6.7399      0.00000
      5       7.5933      0.00000
      6       8.6913      0.00000
      7      17.2374      0.00000
      8      20.8231      0.00000
      9      27.1019      0.00000
     10      30.3104      0.00000
     11      33.8649      0.00000
     12      38.4828      0.00000

 k-point    14 :      -0.4375   -0.4375    0.0625
  band No.  band energies     occupation 
      1       2.7410      1.00000
      2       4.3307      1.00000
      3       4.8212      1.00906
      4       6.8953      0.00000
      5       7.8219      0.00000
      6      10.0722      0.00000
      7      14.2494      0.00000
      8      20.1181      0.00000
      9      26.2343      0.00000
     10      30.7304      0.00000
     11      34.6271      0.00000
     12      37.8900      0.00000

 k-point    15 :      -0.3125   -0.4375    0.0625
  band No.  band energies     occupation 
      1       3.4425      1.00000
      2       3.9466      1.00000
      3       4.4425      1.00581
      4       7.0306      0.00000
      5       7.5108      0.00000
      6      11.3402      0.00000
      7      15.3897      0.00000
      8      16.5591      0.00000
      9      27.6217      0.00000
     10      30.5419      0.00000
     11      32.7343      0.00000
     12      40.4368      0.00000

 k-point    16 :       0.1875    0.1875    0.1875
  band No.  band energies     occupation 
      1       3.3390      1.00000
      2       3.8889      1.00000
      3       3.8889      1.00010
      4       7.4828      0.00000
      5       7.4828      0.00000
      6      10.4822      0.00000
      7      17.9878      0.00000
      8      17.9878      0.00000
      9      19.2344      0.00000
     10      37.9617      0.00000
     11      41.0518      0.00000
     12      41.0518      0.00000

 k-point    17 :       0.3125    0.1875    0.1875
  band No.  band energies     occupation 
      1       3.5823      1.00000
      2       3.8022      1.00000
      3       4.2048      1.00015
      4       7.5157      0.00000
      5       7.5836      0.00000
      6      12.8088      0.00000
      7      14.6136      0.00000
      8      17.4327      0.00000
      9      18.3103      0.00000
     10      39.1647      0.00000
     11      42.6776      0.00000
     12      43.3762      0.00000

 k-point    18 :      -0.1875    0.1875    0.1875
  band No.  band energies     occupation 
      1       0.0706      1.00000
      2       5.4114      1.00000
      3       5.4114      0.98278
      4       5.8230      0.00094
      5       6.1130      0.00000
      6       7.7789      0.00000
      7      24.7306      0.00000
      8      25.9356      0.00000
      9      25.9356      0.00000
     10      27.6698      0.00000
     11      36.9679      0.00000
     12      36.9680      0.00000

 k-point    19 :      -0.3125    0.3125    0.1875
  band No.  band energies     occupation 
      1       1.7696      1.00000
      2       4.6924      1.00000
      3       5.2448      0.96350
      4       6.0961      0.00000
      5       7.0676      0.00000
      6       8.1982      0.00000
      7      20.0955      0.00000
      8      23.3754      0.00000
      9      24.3680      0.00000
     10      28.2840      0.00000
     11      36.1969      0.00000
     12      37.8646      0.00000

 k-point    20 :      -0.4375    0.4375    0.1875
  band No.  band energies     occupation 
      1       2.8454      1.00000
      2       4.2878      1.00000
      3       5.0162      0.97973
      4       6.4335      0.00000
      5       8.0213      0.00000
      6       9.7531      0.00000
      7      15.3498      0.00000
      8      21.7147      0.00000
      9      23.5517      0.00000
     10      30.6732      0.00000
     11      35.2959      0.00000
     12      36.0821      0.00000

 k-point    21 :      -0.3125    0.4375    0.1875
  band No.  band energies     occupation 
      1       2.9775      1.00000
      2       3.9776      1.00000
      3       5.3163      0.84815
      4       6.4904      0.00000
      5       7.5740      0.00000
      6       9.7769      0.00000
      7      18.0506      0.00000
      8      18.5088      0.00000
      9      25.8105      0.00000
     10      27.2849      0.00000
     11      34.9657      0.00000
     12      38.0714      0.00000

 k-point    22 :      -0.4375   -0.4375    0.1875
  band No.  band energies     occupation 
      1       3.4105      1.00000
      2       3.7695      1.00000
      3       5.0536      0.89889
      4       6.8516      0.00000
      5       7.8095      0.00000
      6      12.2778      0.00000
      7      14.4896      0.00000
      8      17.5489      0.00000
      9      25.8084      0.00000
     10      28.8119      0.00000
     11      32.6541      0.00000
     12      37.0449      0.00000

 k-point    23 :      -0.3125    0.3125    0.3125
  band No.  band energies     occupation 
      1       2.7118      1.00000
      2       4.0591      1.00000
      3       6.2090      0.01503
      4       6.2090      0.00000
      5       7.1240      0.00000
      6       9.2255      0.00000
      7      20.4175      0.00000
      8      20.4175      0.00000
      9      22.8237      0.00000
     10      24.6580      0.00000
     11      36.5416      0.00000
     12      41.0774      0.00000

 k-point    24 :      -0.4375    0.4375    0.3125
  band No.  band energies     occupation 
      1       3.1194      1.00000
      2       3.4076      1.00000
      3       6.3873     -0.02031
      4       6.6884      0.00000
      5       7.8959      0.00000
      6      11.7135      0.00000
      7      16.2085      0.00000
      8      18.5174      0.00000
      9      22.9935      0.00000
     10      25.6366      0.00000
     11      32.0314      0.00000
     12      40.5206      0.00000

 k-point    25 :      -0.4375   -0.4375    0.3125
  band No.  band energies     occupation 
      1       3.1035      1.00000
      2       3.1035      1.00000
      3       6.4703     -0.02786
      4       7.6910      0.00000
      5       7.6910      0.00000
      6      14.8050      0.00000
      7      14.8050      0.00000
      8      15.8272      0.00000
      9      24.3284      0.00000
     10      24.3284      0.00000
     11      29.6328      0.00000
     12      41.0585      0.00000

 k-point    26 :      -0.4375    0.4375    0.4375
  band No.  band energies     occupation 
      1       2.8235      1.00000
      2       2.8824      1.00000
      3       7.6344     -0.01073
      4       7.6344      0.00000
      5       7.8633      0.00000
      6      14.0454      0.00000
      7      16.3537      0.00000
      8      16.3537      0.00000
      9      22.1675      0.00000
     10      23.1501      0.00000
     11      28.1510      0.00000
     12      44.1207      0.00000


--------------------------------------------------------------------------------------------------------


 soft charge-density along one line, spin component           1
         0         1         2         3         4         5         6         7         8         9
 total charge-density along one line
 
 soft charge-density along one line, spin component           2
         0         1         2         3         4         5         6         7         8         9
 total charge-density along one line
 
 pseudopotential strength for first ion, spin component:           1
 -5.734  -0.000  -0.000  -0.000   0.000  -6.260  -0.000  -0.000
 -0.000  -5.734   0.000  -0.000  -0.000  -0.000  -6.260   0.000
 -0.000   0.000  -5.896   0.000  -0.000  -0.000   0.000  -6.418
 -0.000  -0.000   0.000  -5.734   0.000  -0.000  -0.000   0.000
  0.000  -0.000  -0.000   0.000  -5.896   0.000  -0.000  -0.000
 -6.260  -0.000  -0.000  -0.000   0.000  -6.745  -0.000  -0.000
 -0.000  -6.260   0.000  -0.000  -0.000  -0.000  -6.745   0.000
 -0.000   0.000  -6.418   0.000  -0.000  -0.000   0.000  -6.898
 -0.000  -0.000   0.000  -6.260   0.000  -0.000  -0.000   0.000
  0.000  -0.000  -0.000   0.000  -6.418   0.000  -0.000  -0.000
  0.000   0.000   0.000   0.000  -0.000   0.000   0.000   0.000
  0.000   0.000   0.000   0.000  -0.000   0.000   0.000   0.000
  0.000  -0.000  -0.000  -0.000  -0.000   0.000  -0.000  -0.000
 -0.000   0.000  -0.000   0.000   0.000  -0.000   0.000   0.000
  0.000  -0.000  -0.000  -0.000   0.000   0.000  -0.000  -0.000
  0.000  -0.000  -0.000  -0.000  -0.000   0.000  -0.000  -0.000
 -0.000   0.000  -0.000   0.000   0.000  -0.000   0.000  -0.000
  0.000  -0.000  -0.000  -0.000   0.000   0.000  -0.000  -0.000
 pseudopotential strength for first ion, spin component:           2
 -4.225  -0.000   0.000  -0.000   0.000  -4.800  -0.000   0.000
 -0.000  -4.225  -0.000  -0.000   0.000  -0.000  -4.800  -0.000
  0.000  -0.000  -4.015  -0.000  -0.000   0.000  -0.000  -4.594
 -0.000  -0.000  -0.000  -4.225  -0.000  -0.000  -0.000  -0.000
  0.000   0.000  -0.000  -0.000  -4.015   0.000   0.000  -0.000
 -4.800  -0.000   0.000  -0.000   0.000  -5.331  -0.000   0.000
 -0.000  -4.800  -0.000  -0.000   0.000  -0.000  -5.331  -0.000
  0.000  -0.000  -4.594  -0.000  -0.000   0.000  -0.000  -5.129
 -0.000  -0.000  -0.000  -4.800  -0.000  -0.000  -0.000  -0.000
  0.000   0.000  -0.000  -0.000  -4.594   0.000   0.000  -0.000
  0.000   0.000   0.000   0.000  -0.000   0.000   0.000   0.000
  0.000   0.000   0.000   0.000  -0.000   0.000   0.000   0.000
  0.000  -0.000  -0.000   0.000  -0.000   0.000  -0.000  -0.000
  0.000   0.000  -0.000   0.000   0.000   0.000   0.000  -0.000
  0.000   0.000  -0.000  -0.000   0.000   0.000   0.000  -0.000
  0.000  -0.000  -0.000   0.000  -0.000   0.000  -0.000  -0.000
  0.000   0.000  -0.000   0.000   0.000   0.000   0.000  -0.000
  0.000   0.000  -0.000  -0.000   0.000   0.000   0.000  -0.000
 total augmentation occupancy for first ion, spin component:           1
  2.350  -0.000  -0.000   0.000  -0.000  -1.282   0.000  -0.000   0.000  -0.000   0.000  -0.000   0.000   0.000   0.000   0.000
 -0.000   2.350   0.000   0.000   0.000  -0.000  -1.282   0.000  -0.000   0.000   0.000   0.000   0.000   0.000   0.000   0.000
  0.000  -0.000   3.506   0.000   0.000  -0.000   0.000  -2.218   0.000   0.000  -0.000   0.000   0.000   0.000   0.000   0.000
  0.000   0.000   0.000   2.350   0.000   0.000  -0.000   0.000  -1.282  -0.000  -0.000  -0.000   0.000   0.000   0.000   0.000
 -0.000   0.000   0.000   0.000   3.506   0.000  -0.000   0.000   0.000  -2.218   0.000  -0.000   0.000   0.000   0.000   0.000
 -1.282   0.000  -0.000   0.000  -0.000   1.609  -0.000   0.000   0.000   0.000   0.000   0.000   0.000   0.000   0.000   0.000
  0.000  -1.282   0.000   0.000  -0.000  -0.000   1.609   0.000   0.000   0.000  -0.000   0.000   0.000   0.000   0.000   0.000
 -0.000   0.000  -2.218   0.000   0.000   0.000  -0.000   2.186  -0.000   0.000   0.000   0.000   0.000   0.000   0.000   0.000
  0.000   0.000   0.000  -1.282   0.000   0.000  -0.000   0.000   1.609  -0.000   0.000   0.000   0.000   0.000   0.000   0.000
 -0.000   0.000   0.000  -0.000  -2.218   0.000   0.000   0.000   0.000   2.186   0.000   0.000   0.000   0.000   0.000   0.000
 -0.000   0.000  -0.000   0.000   0.000   0.000  -0.000   0.000   0.000   0.000   2.377  -0.278   0.000   0.000   0.000   0.000
  0.000   0.000   0.000  -0.000  -0.000   0.000   0.000   0.000  -0.000   0.000  -0.278   0.038   0.000   0.000   0.000   0.000
  0.000   0.000   0.000   0.000   0.000   0.000   0.000   0.000   0.000   0.000   0.000   0.000   0.287   0.000   0.000  -0.025
  0.000   0.000   0.000   0.000   0.000   0.000   0.000   0.000   0.000   0.000   0.000   0.000   0.000   0.287   0.000   0.000
  0.000   0.000   0.000   0.000   0.000   0.000   0.000   0.000   0.000   0.000   0.000   0.000   0.000   0.000   0.287   0.000
  0.000   0.000   0.000   0.000   0.000   0.000   0.000   0.000   0.000   0.000   0.000   0.000  -0.025  -0.000  -0.000   0.002
  0.000   0.000   0.000   0.000   0.000   0.000   0.000   0.000   0.000   0.000   0.000   0.000   0.000  -0.025   0.000   0.000
  0.000   0.000   0.000   0.000   0.000   0.000   0.000   0.000   0.000   0.000   0.000   0.000   0.000   0.000  -0.025   0.000
 total augmentation occupancy for first ion, spin component:           2
  2.000   0.000   0.000   0.000  -0.000  -0.847  -0.000  -0.000   0.000  -0.000  -0.000   0.000   0.000   0.000   0.000   0.000
  0.000   2.000   0.000  -0.000   0.000  -0.000  -0.847  -0.000   0.000   0.000   0.000  -0.000   0.000   0.000   0.000   0.000
  0.000  -0.000   3.008   0.000   0.000  -0.000  -0.000  -1.322  -0.000   0.000   0.000   0.000   0.000   0.000   0.000   0.000
  0.000  -0.000  -0.000   2.000   0.000  -0.000   0.000   0.000  -0.847  -0.000  -0.000   0.000   0.000   0.000   0.000   0.000
  0.000   0.000   0.000   0.000   3.008   0.000  -0.000   0.000   0.000  -1.322   0.000  -0.000   0.000   0.000   0.000   0.000
 -0.847  -0.000   0.000  -0.000  -0.000   0.111  -0.000   0.000   0.000  -0.000   0.000  -0.000   0.000   0.000   0.000   0.000
 -0.000  -0.847   0.000   0.000  -0.000   0.000   0.111   0.000   0.000  -0.000   0.000  -0.000   0.000   0.000   0.000   0.000
 -0.000  -0.000  -1.322   0.000   0.000   0.000  -0.000   0.346   0.000   0.000  -0.000   0.000   0.000   0.000   0.000   0.000
  0.000   0.000   0.000  -0.847   0.000  -0.000   0.000  -0.000   0.111  -0.000   0.000   0.000   0.000   0.000   0.000   0.000
 -0.000   0.000   0.000  -0.000  -1.322  -0.000  -0.000   0.000  -0.000   0.346  -0.000   0.000   0.000   0.000   0.000   0.000
 -0.000   0.000   0.000   0.000   0.000  -0.000   0.000  -0.000  -0.000  -0.000  -0.348   0.102   0.000   0.000   0.000   0.000
  0.000   0.000   0.000   0.000  -0.000  -0.000   0.000   0.000  -0.000   0.000   0.102  -0.018   0.000   0.000   0.000   0.000
  0.000   0.000   0.000   0.000   0.000   0.000   0.000   0.000   0.000   0.000   0.000   0.000  -0.046   0.000   0.000   0.006
  0.000   0.000   0.000   0.000   0.000   0.000   0.000   0.000   0.000   0.000   0.000   0.000   0.000  -0.046   0.000   0.000
  0.000   0.000   0.000   0.000   0.000   0.000   0.000   0.000   0.000   0.000   0.000   0.000   0.000   0.000  -0.046   0.000
  0.000   0.000   0.000   0.000   0.000   0.000   0.000   0.000   0.000   0.000   0.000   0.000   0.006   0.000   0.000  -0.001
  0.000   0.000   0.000   0.000   0.000   0.000   0.000   0.000   0.000   0.000   0.000   0.000   0.000   0.006  -0.000  -0.000
  0.000   0.000   0.000   0.000   0.000   0.000   0.000   0.000   0.000   0.000   0.000   0.000   0.000   0.000   0.006  -0.000


------------------------ aborting loop because EDIFF is reached ----------------------------------------


 


 total charge     
 
# of ion     s       p       d       tot
----------------------------------------
  1        0.477   0.528   6.218   7.223
 


 magnetization (x)
 
# of ion     s       p       d       tot
----------------------------------------
  1       -0.017  -0.074   2.301   2.210
 
    CHARGE:  cpu time    0.0150: real time    0.0068
    FORLOC:  cpu time    0.0010: real time    0.0002
    FORNL :  cpu time    0.0290: real time    0.0150
    STRESS:  cpu time    0.1080: real time    0.0537
    FORCOR:  cpu time    0.0210: real time    0.0105
    FORHAR:  cpu time    0.0020: real time    0.0011
    MIXING:  cpu time    0.0020: real time    0.0010
    OFIELD:  cpu time    0.0000: real time    0.0000

  FORCE on cell =-STRESS in cart. coord.  units (eV):
  Direction    XX          YY          ZZ          XY          YZ          ZX
  --------------------------------------------------------------------------------------
  Alpha Z    59.71178    59.71178    59.71178
  Ewald    -196.13262  -196.13262  -196.13262    -0.00000     0.00000     0.00000
  Hartree    32.15776    32.15776    32.15776    -0.00000    -0.00000    -0.00000
  E(xc)     -39.67240   -39.67240   -39.67240     0.00000     0.00000     0.00000
  Local      58.46237    58.46237    58.46237    -0.00005    -0.00005    -0.00005
  n-local   -27.18295   -25.92324   -25.08460     1.04626    -0.68668    -1.36032
  augment    38.77735    38.77735    38.77735     0.00004     0.00004     0.00004
  Kinetic    73.02369    72.32888    72.07456    -2.26515     1.88857     1.18640
  Fock        0.00000     0.00000     0.00000     0.00000     0.00000     0.00000
  -------------------------------------------------------------------------------------
  Total      -0.28365    -0.28365    -0.28365     0.00000    -0.00000    -0.00000
  in kB     -39.26376   -39.26376   -39.26376     0.00000    -0.00000    -0.00000
  external pressure =      -39.26 kB  Pullay stress =        0.00 kB


 VOLUME and BASIS-vectors are now :
 -----------------------------------------------------------------------------
  energy-cutoff  :      300.00
  volume of cell :       11.57
      direct lattice vectors                 reciprocal lattice vectors
    -1.425000000  1.425000000  1.425000000     0.000000000  0.350877193  0.350877193
     1.425000000 -1.425000000  1.425000000     0.350877193  0.000000000  0.350877193
     1.425000000  1.425000000 -1.425000000     0.350877193  0.350877193  0.000000000

  length of vectors
     2.468172401  2.468172401  2.468172401     0.496215285  0.496215285  0.496215285


 FORCES acting on ions
    electron-ion (+dipol)            ewald-force                    non-local-force                 convergence-correction
 -----------------------------------------------------------------------------------------------
   -.738E-14 -.945E-14 0.821E-14   0.131E-16 0.134E-14 -.680E-15   0.465E-24 0.465E-24 -.465E-24   -.863E-14 -.161E-13 0.780E-14
 -----------------------------------------------------------------------------------------------
   -.738E-14 -.945E-14 0.821E-14   0.131E-16 0.134E-14 -.680E-15   0.465E-24 0.465E-24 -.465E-24   -.863E-14 -.161E-13 0.780E-14
 
 
 POSITION                                       TOTAL-FORCE (eV/Angst)
 -----------------------------------------------------------------------------------
      0.00000      0.00000      0.00000         0.000000     -0.000000     -0.000000
 -----------------------------------------------------------------------------------
    total drift:                               -0.000000     -0.000000      0.000000


--------------------------------------------------------------------------------------------------------



  FREE ENERGIE OF THE ION-ELECTRON SYSTEM (eV)
  ---------------------------------------------------
  free  energy   TOTEN  =        -8.24316339 eV

  energy  without entropy=       -8.24316339  energy(sigma->0) =       -8.24316339
 


--------------------------------------------------------------------------------------------------------


    POTLOK:  cpu time    0.0510: real time    0.0294


--------------------------------------------------------------------------------------------------------


 writing wavefunctions
     LOOP+:  cpu time   17.2094: real time    8.7077
    4ORBIT:  cpu time    0.0000: real time    0.0000
 


 total charge     
 
# of ion     s       p       d       tot
----------------------------------------
  1        0.477   0.528   6.218   7.223
 


 magnetization (x)
 
# of ion     s       p       d       tot
----------------------------------------
  1       -0.017  -0.074   2.301   2.210
 
 BZINTS: Fermi energy:  5.566990;  8.000000 electrons
         Band energy:  27.386346;  BLOECHL correction: -0.064331

 total amount of memory used by VASP on root node    31827. kBytes
========================================================================

   base      :      30000. kBytes
   nonl-proj :        541. kBytes
   fftplans  :        204. kBytes
   grid      :        642. kBytes
   one-center:         31. kBytes
   wavefun   :        409. kBytes
 
  
  
 General timing and accounting informations for this job:
 ========================================================
  
                  Total CPU time used (sec):       18.031
                            User time (sec):       17.352
                          System time (sec):        0.679
                         Elapsed time (sec):       10.278
  
                   Maximum memory used (kb):       30852.
                   Average memory used (kb):           0.
  
                          Minor page faults:        14979
                          Major page faults:           10
                 Voluntary context switches:          495
