Si beta-tin                             
   3.00000000000000     
     1.004177    0.000000    0.000000
    -0.502088    0.869643   -0.000000
     0.000000   -0.000000    1.619434
    S
     2
Direct
  0.000000  0.000000  0.000000
  0.333333  0.666667  0.500000
 
   48   48   72
 -5.9910     -5.5690     -4.3435     -2.4303     -.66213E-02  2.7113      5.4934      8.1211      10.409      12.222    
  13.479      14.162      14.305      13.989      13.329      12.458      11.511      10.591      9.7405      8.9866    
  8.3502      7.8456      7.4813      7.2614      7.1880      7.2614      7.4813      7.8456      8.3502      8.9866    
  9.7406      10.591      11.511      12.458      13.329      13.989      14.305      14.162      13.479      12.222    
  10.409      8.1211      5.4934      2.7113     -.66213E-02 -2.4303     -4.3435     -5.5690     -5.5690     -5.5690    
 -4.7454     -3.1768     -1.0107      1.5552      4.2968      6.9892      9.4302      11.459      12.970      13.913    
  14.299      14.186      13.673      12.886      11.959      11.019      10.132      9.3289      8.6336      8.0637    
  7.6300      7.3386      7.1924      7.1924      7.3386      7.6300      8.0637      8.6336      9.3289      10.132    
  11.019      11.959      12.886      13.673      14.186      14.299      13.913      12.970      11.459      9.4302    
  6.9892      4.2968      1.5552     -1.0107     -3.1769     -4.7454     -4.3435     -4.7453     -4.3435     -3.1768    
 -1.3570     0.94601      3.5243      6.1572      8.6352      10.781      12.465      13.612      14.205      14.281    
  13.919      13.233      12.352      11.407      10.494      9.6514      8.9058      8.2772      7.7793      7.4200    
  7.2034      7.1310      7.2034      7.4200      7.7793      8.2772      8.9058      9.6514      10.494      11.407    
  12.352      13.233      13.919      14.281      14.205      13.612      12.465      10.781      8.6352      6.1572    
  3.5243     0.94600     -1.3570     -3.1769     -2.4303     -3.1765     -3.1765     -2.4303     -1.0107     0.94601    
  3.2574      5.7167      8.1171      10.273      12.038      13.317      14.067      14.302      14.080      13.499    
  12.679      11.747      10.819      9.9471      9.1601      8.4809      7.9253      7.5032      7.2200      7.0780    
  7.0780      7.2200      7.5032      7.9253      8.4809      9.1601      9.9471      10.819      11.747      12.679    
  13.499      14.080      14.302      14.067      13.317      12.038      10.273      8.1171      5.7167      3.2574    
 0.94600     -1.0107     -.66213E-02 -1.0101     -1.3561     -1.0101     -.66130E-02  1.5552      3.5243      5.7167    
  7.9372      10.002      11.755      13.084      13.929      14.280      14.174      13.691      12.937      12.035    
  11.102      10.210      9.3909      8.6696      8.0638      7.5854      7.2408      7.0333      6.9641      7.0333    
  7.2408      7.5854      8.0638      8.6696      9.3909      10.210      11.102      12.035      12.937      13.691    
  14.174      14.280      13.929      13.084      11.755      10.002      7.9372      5.7167      3.5243      1.5552    
  2.7113      1.5561     0.94735     0.94735      1.5561      2.7113      4.2968      6.1572      8.1171      10.002    
  11.655      12.957      13.830      14.245      14.222      13.820      13.130      12.264      11.337      10.434    
  9.5931      8.8387      8.1911      7.6635      7.2640      6.9966      6.8626      6.8626      6.9966      7.2640    
  7.6635      8.1911      8.8387      9.5931      10.434      11.337      12.264      13.130      13.820      14.222    
  14.245      13.830      12.957      11.655      10.002      8.1171      6.1572      4.2968      5.4934      4.2978    
  3.5261      3.2594      3.5261      4.2978      5.4934      6.9892      8.6352      10.273      11.755      12.957    
  13.793      14.221      14.242      13.897      13.261      12.434      11.521      10.617      9.7628      8.9845    
  8.3037      7.7350      7.2879      6.9669      6.7741      6.7098      6.7741      6.9669      7.2879      7.7350    
  8.3037      8.9845      9.7628      10.617      11.521      12.434      13.261      13.897      14.242      14.221    
  13.793      12.957      11.755      10.273      8.6352      6.9892      8.1211      6.9903      6.1592      5.7192    
  5.7192      6.1592      6.9903      8.1211      9.4302      10.781      12.038      13.084      13.830      14.221    
  14.247      13.932      13.337      12.545      11.654      10.756      9.8971      9.1040      8.3988      7.7976    
  7.3106      6.9435      6.6984      6.5759      6.5759      6.6984      6.9435      7.3106      7.7976      8.3988    
  9.1040      9.8971      10.756      11.654      12.545      13.337      13.932      14.247      14.221      13.830    
  13.084      12.038      10.781      9.4302      10.409      9.4313      8.6373      8.1198      7.9403      8.1198    
  8.6373      9.4313      10.409      11.459      12.465      13.317      13.929      14.245      14.242      13.932    
  13.362      12.600      11.734      10.849      9.9941      9.1950      8.4745      7.8494      7.3308      6.9252    
  6.6353      6.4615      6.4037      6.4615      6.6353      6.9252      7.3308      7.8494      8.4745      9.1950    
  9.9941      10.849      11.734      12.600      13.362      13.932      14.242      14.245      13.929      13.317    
  12.465      11.459      12.222      11.460      10.783      10.276      10.005      10.005      10.276      10.783    
  11.460      12.222      12.970      13.612      14.067      14.280      14.222      13.897      13.337      12.600    
  11.761      10.896      10.053      9.2563      8.5293      7.8891      7.3474      6.9115      6.5844      6.3668    
  6.2583      6.2583      6.3668      6.5844      6.9115      7.3474      7.8891      8.5293      9.2563      10.053    
  10.896      11.761      12.600      13.337      13.897      14.222      14.280      14.067      13.612      12.970    
  13.479      12.971      12.467      12.041      11.758      11.659      11.758      12.041      12.467      12.971    
  13.479      13.913      14.205      14.302      14.174      13.820      13.261      12.545      11.734      10.896    
  10.072      9.2871      8.5625      7.9159      7.3597      6.9016      6.5453      6.2916      6.1400      6.0896    
  6.1400      6.2916      6.5453      6.9016      7.3597      7.9159      8.5625      9.2871      10.072      10.896    
  11.734      12.545      13.261      13.820      14.174      14.302      14.205      13.913      14.162      13.914    
  13.614      13.320      13.088      12.961      12.961      13.088      13.320      13.614      13.914      14.162    
  14.299      14.281      14.080      13.691      13.130      12.434      11.654      10.849      10.053      9.2871    
  8.5736      7.9294      7.3672      6.8952      6.5176      6.2356      6.0486      5.9556      5.9556      6.0487    
  6.2356      6.5176      6.8952      7.3672      7.9294      8.5736      9.2871      10.053      10.849      11.654    
  12.434      13.130      13.691      14.080      14.281      14.299      14.305      14.300      14.207      14.070    
  13.933      13.834      13.798      13.834      13.933      14.070      14.207      14.300      14.305      14.186    
  13.919      13.499      12.937      12.264      11.521      10.756      9.9941      9.2563      8.5625      7.9294    
  7.3697      6.8921      6.5011      6.1985      5.9839      5.8559      5.8134      5.8559      5.9839      6.1985    
  6.5011      6.8921      7.3697      7.9294      8.5625      9.2563      9.9941      10.756      11.521      12.264    
  12.937      13.499      13.919      14.186      13.989      14.186      14.283      14.304      14.283      14.249    
  14.226      14.226      14.249      14.283      14.304      14.283      14.186      13.989      13.673      13.233    
  12.679      12.035      11.337      10.617      9.8971      9.1950      8.5293      7.9159      7.3672      6.8921    
  6.4956      6.1800      5.9452      5.7899      5.7127      5.7127      5.7899      5.9452      6.1800      6.4956    
  6.8921      7.3672      7.9159      8.5293      9.1950      9.8971      10.617      11.337      12.035      12.679    
  13.233      13.673      13.329      13.674      13.921      14.083      14.177      14.226      14.246      14.251    
  14.246      14.226      14.177      14.083      13.921      13.674      13.329      12.886      12.352      11.747    
  11.102      10.434      9.7628      9.1040      8.4745      7.8891      7.3597      6.8952      6.5011      6.1800    
  5.9323      5.7570      5.6527      5.6180      5.6527      5.7570      5.9323      6.1800      6.5011      6.8952    
  7.3597      7.8891      8.4745      9.1040      9.7628      10.434      11.102      11.747      12.352      12.886    
  12.458      12.886      13.234      13.501      13.694      13.823      13.900      13.936      13.936      13.900    
  13.823      13.694      13.501      13.234      12.886      12.458      11.959      11.407      10.819      10.210    
  9.5931      8.9845      8.3988      7.8494      7.3474      6.9016      6.5176      6.1985      5.9452      5.7570    
  5.6328      5.5710      5.5710      5.6328      5.7570      5.9452      6.1985      6.5176      6.9016      7.3474    
  7.8494      8.3988      8.9845      9.5931      10.210      10.819      11.407      11.959      11.511      11.959    
  12.352      12.680      12.939      13.132      13.264      13.340      13.365      13.340      13.264      13.132    
  12.939      12.680      12.352      11.959      11.511      11.019      10.494      9.9471      9.3909      8.8387    
  8.3037      7.7976      7.3308      6.9115      6.5453      6.2356      5.9839      5.7899      5.6527      5.5710    
  5.5439      5.5710      5.6527      5.7899      5.9839      6.2356      6.5453      6.9115      7.3308      7.7976    
  8.3037      8.8387      9.3909      9.9471      10.494      11.019      10.591      11.019      11.407      11.747    
  12.035      12.264      12.435      12.547      12.602      12.602      12.547      12.435      12.264      12.035    
  11.747      11.407      11.019      10.591      10.132      9.6514      9.1601      8.6696      8.1911      7.7350    
  7.3106      6.9252      6.5844      6.2916      6.0487      5.8559      5.7127      5.6181      5.5710      5.5710    
  5.6180      5.7127      5.8559      6.0487      6.2916      6.5844      6.9252      7.3106      7.7350      8.1911    
  8.6696      9.1601      9.6514      10.132      9.7406      10.131      10.493      10.818      11.100      11.336    
  11.521      11.654      11.734      11.761      11.734      11.654      11.521      11.336      11.100      10.818    
  10.493      10.131      9.7406      9.3289      8.9058      8.4809      8.0638      7.6635      7.2879      6.9435    
  6.6353      6.3668      6.1400      5.9556      5.8134      5.7127      5.6527      5.6328      5.6527      5.7127    
  5.8134      5.9556      6.1400      6.3668      6.6353      6.9435      7.2879      7.6635      8.0638      8.4809    
  8.9058      9.3289      8.9866      9.3278      9.6497      9.9449      10.207      10.432      10.615      10.754    
  10.847      10.894      10.894      10.847      10.754      10.615      10.432      10.207      9.9449      9.6497    
  9.3278      8.9866      8.6337      8.2772      7.9253      7.5854      7.2640      6.9669      6.6984      6.4615    
  6.2583      6.0896      5.9556      5.8559      5.7899      5.7570      5.7570      5.7899      5.8559      5.9556    
  6.0896      6.2583      6.4615      6.6984      6.9669      7.2640      7.5854      7.9253      8.2772      8.6336    
  8.3502      8.6323      8.9033      9.1569      9.3870      9.5888      9.7582      9.8924      9.9894      10.048    
  10.068      10.048      9.9894      9.8924      9.7582      9.5888      9.3870      9.1569      8.9034      8.6323    
  8.3502      8.0637      7.7793      7.5032      7.2408      6.9966      6.7741      6.5759      6.4037      6.2583    
  6.1400      6.0487      5.9839      5.9452      5.9323      5.9452      5.9839      6.0486      6.1400      6.2583    
  6.4037      6.5759      6.7741      6.9966      7.2408      7.5032      7.7793      8.0637      7.8456      8.0622    
  8.2743      8.4768      8.6644      8.8328      8.9779      9.0970      9.1877      9.2489      9.2796      9.2796    
  9.2489      9.1877      9.0970      8.9779      8.8328      8.6645      8.4768      8.2743      8.0622      7.8456    
  7.6300      7.4200      7.2200      7.0333      6.8626      6.7098      6.5759      6.4615      6.3668      6.2916    
  6.2356      6.1985      6.1800      6.1800      6.1985      6.2356      6.2916      6.3668      6.4615      6.5759    
  6.7098      6.8626      7.0333      7.2200      7.4200      7.6300      7.4813      7.6283      7.7760      7.9205    
  8.0577      8.1837      8.2953      8.3896      8.4647      8.5191      8.5521      8.5631      8.5521      8.5191    
  8.4647      8.3896      8.2953      8.1837      8.0577      7.9205      7.7760      7.6283      7.4813      7.3386    
  7.2034      7.0780      6.9641      6.8626      6.7741      6.6984      6.6353      6.5844      6.5453      6.5176    
  6.5011      6.4956      6.5011      6.5176      6.5453      6.5844      6.6353      6.6984      6.7741      6.8626    
  6.9641      7.0780      7.2034      7.3386      7.2614      7.3368      7.4164      7.4979      7.5784      7.6550    
  7.7252      7.7865      7.8373      7.8763      7.9027      7.9160      7.9160      7.9027      7.8763      7.8373    
  7.7865      7.7252      7.6550      7.5784      7.4979      7.4164      7.3368      7.2614      7.1924      7.1310    
  7.0780      7.0333      6.9966      6.9669      6.9435      6.9252      6.9115      6.9016      6.8952      6.8921    
  6.8921      6.8952      6.9016      6.9115      6.9252      6.9435      6.9669      6.9966      7.0333      7.0780    
  7.1310      7.1924      7.1880      7.1905      7.1996      7.2144      7.2333      7.2547      7.2768      7.2980    
  7.3169      7.3325      7.3440      7.3510      7.3534      7.3510      7.3440      7.3325      7.3169      7.2980    
  7.2768      7.2547      7.2333      7.2144      7.1996      7.1905      7.1880      7.1924      7.2034      7.2200    
  7.2408      7.2640      7.2879      7.3106      7.3308      7.3474      7.3597      7.3672      7.3697      7.3672    
  7.3597      7.3474      7.3308      7.3106      7.2879      7.2640      7.2408      7.2200      7.2034      7.1924    
  7.2614      7.1905      7.1272      7.0722      7.0255      6.9867      6.9551      6.9298      6.9099      6.8947    
  6.8838      6.8767      6.8731      6.8731      6.8766      6.8838      6.8947      6.9099      6.9298      6.9551    
  6.9867      7.0255      7.0722      7.1272      7.1905      7.2614      7.3386      7.4200      7.5032      7.5854    
  7.6635      7.7350      7.7976      7.8494      7.8891      7.9159      7.9294      7.9294      7.9159      7.8891    
  7.8494      7.7976      7.7350      7.6635      7.5854      7.5032      7.4200      7.3386      7.4813      7.3368    
  7.1996      7.0722      6.9561      6.8525      6.7618      6.6840      6.6189      6.5663      6.5258      6.4971    
  6.4800      6.4743      6.4800      6.4971      6.5258      6.5663      6.6189      6.6840      6.7618      6.8525    
  6.9561      7.0722      7.1996      7.3368      7.4813      7.6300      7.7793      7.9253      8.0638      8.1911    
  8.3037      8.3988      8.4745      8.5293      8.5625      8.5736      8.5625      8.5293      8.4745      8.3988    
  8.3037      8.1911      8.0638      7.9253      7.7793      7.6300      7.8456      7.6283      7.4164      7.2144    
  7.0255      6.8525      6.6973      6.5611      6.4446      6.3479      6.2710      6.2136      6.1756      6.1567    
  6.1567      6.1756      6.2136      6.2710      6.3479      6.4446      6.5611      6.6973      6.8525      7.0255    
  7.2144      7.4164      7.6283      7.8456      8.0637      8.2772      8.4809      8.6696      8.8387      8.9845    
  9.1040      9.1950      9.2563      9.2871      9.2871      9.2563      9.1950      9.1040      8.9845      8.8387    
  8.6696      8.4809      8.2772      8.0637      8.3502      8.0622      7.7760      7.4979      7.2333      6.9867    
  6.7618      6.5611      6.3865      6.2389      6.1187      6.0257      5.9597      5.9203      5.9072      5.9203    
  5.9597      6.0257      6.1187      6.2389      6.3865      6.5611      6.7618      6.9867      7.2333      7.4979    
  7.7760      8.0622      8.3502      8.6337      8.9058      9.1601      9.3909      9.5931      9.7628      9.8971    
  9.9941      10.053      10.072      10.053      9.9941      9.8971      9.7628      9.5931      9.3909      9.1601    
  8.9058      8.6336      8.9866      8.6323      8.2743      7.9205      7.5784      7.2547      6.9551      6.6840    
  6.4446      6.2389      6.0680      5.9321      5.8310      5.7640      5.7306      5.7306      5.7640      5.8310    
  5.9321      6.0680      6.2389      6.4446      6.6840      6.9551      7.2547      7.5784      7.9205      8.2743    
  8.6323      8.9866      9.3289      9.6514      9.9471      10.210      10.434      10.617      10.756      10.849    
  10.896      10.896      10.849      10.756      10.617      10.434      10.210      9.9471      9.6514      9.3289    
  9.7405      9.3278      8.9033      8.4768      8.0577      7.6550      7.2768      6.9298      6.6189      6.3479    
  6.1187      5.9321      5.7882      5.6863      5.6255      5.6053      5.6255      5.6863      5.7882      5.9321    
  6.1187      6.3479      6.6189      6.9298      7.2768      7.6550      8.0577      8.4768      8.9034      9.3278    
  9.7406      10.132      10.494      10.819      11.102      11.337      11.521      11.654      11.734      11.761    
  11.734      11.654      11.521      11.337      11.102      10.819      10.494      10.132      10.591      10.131    
  9.6497      9.1569      8.6644      8.1837      7.7252      7.2980      6.9099      6.5663      6.2710      6.0257    
  5.8310      5.6863      5.5906      5.5431      5.5431      5.5906      5.6863      5.8310      6.0257      6.2710    
  6.5663      6.9099      7.2980      7.7252      8.1837      8.6645      9.1569      9.6497      10.131      10.591    
  11.019      11.407      11.747      12.035      12.264      12.434      12.545      12.600      12.600      12.545    
  12.434      12.264      12.035      11.747      11.407      11.019      11.511      11.019      10.493      9.9449    
  9.3870      8.8328      8.2953      7.7865      7.3169      6.8947      6.5258      6.2136      5.9597      5.7640    
  5.6255      5.5431      5.5157      5.5431      5.6255      5.7640      5.9597      6.2136      6.5258      6.8947    
  7.3169      7.7865      8.2953      8.8328      9.3870      9.9449      10.493      11.019      11.511      11.959    
  12.352      12.679      12.937      13.130      13.261      13.337      13.362      13.337      13.261      13.130    
  12.937      12.679      12.352      11.959      12.458      11.959      11.407      10.818      10.207      9.5888    
  8.9779      8.3896      7.8373      7.3325      6.8838      6.4971      6.1756      5.9203      5.7306      5.6053    
  5.5431      5.5431      5.6053      5.7306      5.9203      6.1756      6.4971      6.8838      7.3325      7.8373    
  8.3896      8.9779      9.5888      10.207      10.818      11.407      11.959      12.458      12.886      13.233    
  13.499      13.691      13.820      13.897      13.932      13.932      13.897      13.820      13.691      13.499    
  13.233      12.886      13.329      12.886      12.352      11.747      11.100      10.432      9.7582      9.0970    
  8.4647      7.8763      7.3440      6.8767      6.4800      6.1567      5.9072      5.7306      5.6255      5.5906    
  5.6255      5.7306      5.9072      6.1567      6.4800      6.8766      7.3440      7.8763      8.4647      9.0970    
  9.7582      10.432      11.100      11.747      12.352      12.886      13.329      13.673      13.919      14.080    
  14.174      14.222      14.242      14.247      14.242      14.222      14.174      14.080      13.919      13.673    
  13.989      13.674      13.234      12.680      12.035      11.336      10.615      9.8924      9.1877      8.5191    
  7.9027      7.3510      6.8731      6.4743      6.1567      5.9203      5.7640      5.6863      5.6863      5.7640    
  5.9203      6.1567      6.4743      6.8731      7.3510      7.9027      8.5191      9.1877      9.8924      10.615    
  11.336      12.035      12.680      13.234      13.674      13.989      14.186      14.281      14.302      14.280    
  14.245      14.221      14.221      14.245      14.280      14.302      14.281      14.186      14.305      14.186    
  13.921      13.501      12.939      12.264      11.521      10.754      9.9894      9.2489      8.5521      7.9159    
  7.3534      6.8731      6.4800      6.1756      5.9597      5.8310      5.7882      5.8310      5.9597      6.1756    
  6.4800      6.8731      7.3534      7.9160      8.5521      9.2489      9.9894      10.754      11.521      12.264    
  12.939      13.501      13.921      14.186      14.305      14.299      14.205      14.067      13.929      13.830    
  13.793      13.830      13.929      14.067      14.205      14.299      14.162      14.300      14.283      14.083    
  13.694      13.132      12.435      11.654      10.847      10.048      9.2796      8.5631      7.9159      7.3510    
  6.8767      6.4971      6.2136      6.0257      5.9321      5.9321      6.0257      6.2136      6.4971      6.8767    
  7.3510      7.9160      8.5631      9.2796      10.048      10.847      11.654      12.435      13.132      13.694    
  14.083      14.283      14.300      14.162      13.913      13.612      13.317      13.084      12.957      12.957    
  13.084      13.317      13.612      13.913      13.479      13.914      14.207      14.304      14.177      13.823    
  13.264      12.547      11.734      10.894      10.068      9.2796      8.5521      7.9027      7.3440      6.8838    
  6.5258      6.2710      6.1187      6.0680      6.1187      6.2710      6.5258      6.8838      7.3440      7.9027    
  8.5521      9.2796      10.068      10.894      11.734      12.547      13.264      13.823      14.177      14.304    
  14.207      13.914      13.479      12.970      12.465      12.038      11.755      11.655      11.755      12.038    
  12.465      12.970      12.222      12.971      13.614      14.070      14.283      14.226      13.900      13.340    
  12.602      11.761      10.894      10.048      9.2489      8.5191      7.8763      7.3325      6.8947      6.5663    
  6.3479      6.2389      6.2389      6.3479      6.5663      6.8947      7.3325      7.8763      8.5191      9.2489    
  10.048      10.894      11.761      12.602      13.340      13.900      14.226      14.283      14.070      13.614    
  12.971      12.222      11.459      10.781      10.273      10.002      10.002      10.273      10.781      11.459    
  10.409      11.460      12.467      13.320      13.933      14.249      14.246      13.936      13.365      12.602    
  11.734      10.847      9.9894      9.1877      8.4647      7.8373      7.3169      6.9099      6.6189      6.4446    
  6.3865      6.4446      6.6189      6.9099      7.3169      7.8373      8.4647      9.1877      9.9894      10.847    
  11.734      12.602      13.365      13.936      14.246      14.249      13.933      13.320      12.467      11.460    
  10.409      9.4302      8.6352      8.1171      7.9372      8.1171      8.6352      9.4302      8.1211      9.4313    
  10.783      12.041      13.088      13.834      14.226      14.251      13.936      13.340      12.547      11.654    
  10.754      9.8924      9.0970      8.3896      7.7865      7.2980      6.9298      6.6840      6.5611      6.5611    
  6.6840      6.9298      7.2980      7.7865      8.3896      9.0970      9.8924      10.754      11.654      12.547    
  13.340      13.936      14.251      14.226      13.834      13.088      12.041      10.783      9.4313      8.1211    
  6.9892      6.1572      5.7167      5.7167      6.1572      6.9892      5.4934      6.9903      8.6373      10.276    
  11.758      12.961      13.798      14.226      14.246      13.900      13.264      12.435      11.521      10.615    
  9.7582      8.9779      8.2953      7.7252      7.2768      6.9551      6.7618      6.6973      6.7618      6.9551    
  7.2768      7.7252      8.2953      8.9779      9.7582      10.615      11.521      12.435      13.264      13.900    
  14.246      14.226      13.798      12.961      11.758      10.276      8.6373      6.9903      5.4934      4.2968    
  3.5243      3.2574      3.5243      4.2968      2.7113      4.2978      6.1592      8.1198      10.005      11.659    
  12.961      13.834      14.249      14.226      13.823      13.132      12.264      11.336      10.432      9.5888    
  8.8328      8.1837      7.6550      7.2547      6.9867      6.8525      6.8525      6.9867      7.2547      7.6550    
  8.1837      8.8328      9.5888      10.432      11.336      12.264      13.132      13.823      14.226      14.249    
  13.834      12.961      11.659      10.005      8.1198      6.1592      4.2978      2.7113      1.5552     0.94601    
 0.94601      1.5552     -.66213E-02  1.5561      3.5261      5.7192      7.9402      10.005      11.758      13.088    
  13.933      14.283      14.177      13.694      12.939      12.035      11.100      10.207      9.3870      8.6644    
  8.0577      7.5784      7.2333      7.0255      6.9561      7.0255      7.2333      7.5784      8.0577      8.6644    
  9.3870      10.207      11.100      12.035      12.939      13.694      14.177      14.283      13.933      13.088    
  11.758      10.005      7.9403      5.7192      3.5261      1.5561     -.66130E-02 -1.0107     -1.3570     -1.0107    
 -2.4303     -1.0101     0.94734      3.2594      5.7192      8.1198      10.276      12.041      13.320      14.070    
  14.304      14.083      13.501      12.680      11.747      10.818      9.9449      9.1569      8.4768      7.9205    
  7.4979      7.2144      7.0722      7.0722      7.2144      7.4979      7.9205      8.4768      9.1569      9.9449    
  10.818      11.747      12.680      13.501      14.083      14.304      14.070      13.320      12.041      10.276    
  8.1198      5.7192      3.2594     0.94735     -1.0101     -2.4303     -3.1768     -3.1768     -4.3435     -3.1765    
 -1.3561     0.94734      3.5261      6.1592      8.6373      10.783      12.467      13.614      14.207      14.283    
  13.921      13.234      12.352      11.407      10.493      9.6497      8.9033      8.2743      7.7760      7.4164    
  7.1996      7.1272      7.1996      7.4164      7.7760      8.2743      8.9033      9.6497      10.493      11.407    
  12.352      13.234      13.921      14.283      14.207      13.614      12.467      10.783      8.6373      6.1592    
  3.5261     0.94735     -1.3561     -3.1765     -4.3435     -4.7454     -5.5690     -4.7453     -3.1765     -1.0101    
  1.5561      4.2978      6.9903      9.4313      11.460      12.971      13.914      14.300      14.186      13.674    
  12.886      11.959      11.019      10.131      9.3278      8.6323      8.0622      7.6283      7.3368      7.1905    
  7.1905      7.3368      7.6283      8.0622      8.6323      9.3278      10.131      11.019      11.959      12.886    
  13.674      14.186      14.300      13.914      12.971      11.460      9.4313      6.9903      4.2978      1.5561    
 -1.0101     -3.1765     -4.7453     -5.5690     -5.4876     -5.0739     -3.8725     -1.9975     0.37680      3.0377    
  5.7590      8.3259      10.556      12.317      13.530      14.176      14.292      13.958      13.288      12.412    
  11.466      10.549      9.7013      8.9505      8.3173      7.8153      7.4529      7.2344      7.1613      7.2344    
  7.4529      7.8153      8.3173      8.9505      9.7013      10.549      11.466      12.412      13.288      13.958    
  14.292      14.176      13.530      12.317      10.556      8.3259      5.7590      3.0377     0.37680     -1.9975    
 -3.8725     -5.0739     -5.0739     -5.0739     -4.2665     -2.7292     -.60700      1.9057      4.5884      7.2200    
  9.6019      11.577      13.039      13.943      14.297      14.161      13.635      12.840      11.913      10.975    
  10.091      9.2906      8.5986      8.0315      7.6001      7.3104      7.1650      7.1650      7.3104      7.6001    
  8.0315      8.5986      9.2906      10.091      10.975      11.913      12.840      13.635      14.161      14.297    
  13.943      13.039      11.577      9.6019      7.2200      4.5884      1.9057     -.60701     -2.7292     -4.2665    
 -3.8725     -4.2663     -3.8725     -2.7292     -.94629      1.3090      3.8324      6.4067      8.8261      10.916    
  12.550      13.655      14.214      14.264      13.885      13.189      12.304      11.361      10.451      9.6111    
  8.8687      8.2432      7.7480      7.3907      7.1753      7.1033      7.1753      7.3907      7.7480      8.2432    
  8.8687      9.6111      10.451      11.361      12.304      13.189      13.885      14.264      14.214      13.655    
  12.550      10.916      8.8261      6.4067      3.8324      1.3090     -.94630     -2.7292     -1.9975     -2.7286    