Si beta-tin                             
   3.00000000000000     
     1.015755    0.000000    0.000000
    -0.507877    0.879669   -0.000000
     0.000000   -0.000000    1.582727
    S
     2
Direct
  0.000000  0.000000  0.000000
  0.333333  0.666667  0.500000
 
   48   48   72
 -.59884942855E+01 -.55536113884E+01 -.42921930747E+01 -.23281810579E+01 0.15004564167E+00
 0.29137288092E+01 0.57215929042E+01 0.83471292272E+01 0.10601484411E+02 0.12349449853E+02
 0.13517634752E+02 0.14095210719E+02 0.14128344794E+02 0.13709646613E+02 0.12963946053E+02
 0.12031802111E+02 0.11051415994E+02 0.10112410495E+02 0.92510564419E+01 0.84937492879E+01
 0.78592523323E+01 0.73592958855E+01 0.70000660657E+01 0.67841028209E+01 0.67120889545E+01
 0.67841028471E+01 0.70000661058E+01 0.73592959206E+01 0.78592523466E+01 0.84937492765E+01
 0.92510564142E+01 0.10112410470E+02 0.11051415993E+02 0.12031802144E+02 0.12963946111E+02
 0.13709646670E+02 0.14128344814E+02 0.14095210668E+02 0.13517634616E+02 0.12349449642E+02
 0.10601484159E+02 0.83471289850E+01 0.57215927199E+01 0.29137287130E+01 0.15004563543E+00
 -.23281810006E+01 -.42921929978E+01 -.55536113362E+01 -.55536113362E+01 -.55536113675E+01
 -.47062787746E+01 -.30956351622E+01 -.87860968924E+00 0.17353165724E+01 0.45103048215E+01
 0.72119515337E+01 0.96325187807E+01 0.11610408105E+02 0.13042180084E+02 0.13886899157E+02
 0.14163606001E+02 0.13943159799E+02 0.13335757882E+02 0.12475466962E+02 0.11503278762E+02
 0.10539765254E+02 0.96383140457E+01 0.88287601516E+01 0.81334603089E+01 0.75673391526E+01
 0.71389916997E+01 0.68524427893E+01 0.67090469216E+01 0.67090470687E+01 0.68524431634E+01
 0.71389921274E+01 0.75673394269E+01 0.81334602775E+01 0.88287597832E+01 0.96383134491E+01
 0.10539764640E+02 0.11503278363E+02 0.12475466943E+02 0.13335758276E+02 0.13943160493E+02
 0.14163606775E+02 0.13886899766E+02 0.13042180348E+02 0.11610407963E+02 0.96325183075E+01
 0.72119508992E+01 0.45103042195E+01 0.17353161470E+01 -.87860988893E+00 -.30956351833E+01
 -.47062787204E+01 -.42921929978E+01 -.47048414626E+01 -.42921930055E+01 -.30956350999E+01
 -.12338186686E+01 0.11129403470E+01 0.37257177187E+01 0.63736877309E+01 0.88403003181E+01
 0.10945287495E+02 0.12560100786E+02 0.13615867346E+02 0.14104179510E+02 0.14071728800E+02
 0.13610020379E+02 0.12841442946E+02 0.11903091126E+02 0.10928225502E+02 0.99977880287E+01
 0.91458928381E+01 0.83980567176E+01 0.77722772958E+01 0.72796718581E+01 0.69259789086E+01
 0.67134451821E+01 0.66425917025E+01 0.67134456055E+01 0.69259795604E+01 0.72796724307E+01
 0.77722774995E+01 0.83980564062E+01 0.91458920788E+01 0.99977870857E+01 0.10928224741E+02
 0.11903090874E+02 0.12841443365E+02 0.13610021401E+02 0.14071730148E+02 0.14104180794E+02
 0.13615868201E+02 0.12560101000E+02 0.10945287061E+02 0.88402994251E+01 0.63736866731E+01
 0.37257167807E+01 0.11129397062E+01 -.12338189836E+01 -.30956351833E+01 -.23281810006E+01
 -.30915840074E+01 -.30915839653E+01 -.23281808241E+01 -.87860945906E+00 0.11129404978E+01
 0.34541314966E+01 0.59286509860E+01 0.83218459584E+01 0.10444019572E+02 0.12148481038E+02
 0.13342775359E+02 0.13992822633E+02 0.14120599986E+02 0.13796420075E+02 0.13126987953E+02
 0.12240525667E+02 0.11270456312E+02 0.10321789374E+02 0.94377979444E+01 0.86465541353E+01
 0.79688227627E+01 0.74182009667E+01 0.70022696226E+01 0.67243505297E+01 0.65853694360E+01
 0.65853696686E+01 0.67243511215E+01 0.70022703006E+01 0.74182014083E+01 0.79688227370E+01
 0.86465536095E+01 0.94377971106E+01 0.10321788585E+02 0.11270455947E+02 0.12240525985E+02
 0.13126988985E+02 0.13796421603E+02 0.14120601611E+02 0.13992823914E+02 0.13342775958E+02
 0.12148480829E+02 0.10444018663E+02 0.83218446376E+01 0.59286496010E+01 0.34541303353E+01
 0.11129397062E+01 -.87860988893E+00 0.15004563543E+00 -.87121404611E+00 -.12238086032E+01
 -.87121380276E+00 0.15004617320E+00 0.17353170375E+01 0.37257180242E+01 0.59286510865E+01
 0.81415149468E+01 0.10174942738E+02 0.11872388694E+02 0.13123961008E+02 0.13873643764E+02
 0.14120065270E+02 0.13911570857E+02 0.13336617125E+02 0.12510649984E+02 0.11560847118E+02
 0.10604007605E+02 0.96980455240E+01 0.88729597478E+01 0.81518249003E+01 0.75505276364E+01
 0.70785089914E+01 0.67402923180E+01 0.65373328216E+01 0.64697165160E+01 0.65373331908E+01
 0.67402928942E+01 0.70785095201E+01 0.75505278820E+01 0.81518247522E+01 0.88729592770E+01
 0.96980449666E+01 0.10604007275E+02 0.11560847288E+02 0.12510650768E+02 0.13336618429E+02
 0.13911572394E+02 0.14120066656E+02 0.13873644637E+02 0.13123961147E+02 0.11872388078E+02
 0.10174941537E+02 0.81415134510E+01 0.59286496010E+01 0.37257167807E+01 0.17353161470E+01
 0.29137287130E+01 0.17462770593E+01 0.11298632676E+01 0.11298634579E+01 0.17462776211E+01
 0.29137296119E+01 0.45103053800E+01 0.63736879660E+01 0.83218458832E+01 0.10174942533E+02
 0.11775270892E+02 0.13002776758E+02 0.13784809303E+02 0.14099756577E+02 0.13974948487E+02
 0.13479598666E+02 0.12713777537E+02 0.11794638728E+02 0.10839642828E+02 0.99213734034E+01
 0.90720822436E+01 0.83165886413E+01 0.76727528424E+01 0.71517851977E+01 0.67594702899E+01
 0.64979022432E+01 0.63672672829E+01 0.63672674273E+01 0.64979026208E+01 0.67594707562E+01
 0.71517855784E+01 0.76727530049E+01 0.83165885513E+01 0.90720819833E+01 0.99213731442E+01
 0.10839642767E+02 0.11794639012E+02 0.12713778203E+02 0.13479599621E+02 0.13974949528E+02
 0.14099757453E+02 0.13784809792E+02 0.13002776725E+02 0.11775270326E+02 0.10174941537E+02
 0.83218446376E+01 0.63736866731E+01 0.45103042195E+01 0.57215927199E+01 0.45245964355E+01
 0.37495476473E+01 0.34813154340E+01 0.37495480792E+01 0.45245971929E+01 0.57215936197E+01
 0.72119517317E+01 0.88403000102E+01 0.10444018896E+02 0.11872387950E+02 0.13002776319E+02
 0.13752154281E+02 0.14083135240E+02 0.14004524028E+02 0.13566838124E+02 0.12853577218E+02
 0.11969276886E+02 0.11025357735E+02 0.10103787127E+02 0.92397300650E+01 0.84591255974E+01
 0.77813976885E+01 0.72193396144E+01 0.67799881295E+01 0.64661609431E+01 0.62782247438E+01
 0.62156774043E+01 0.62782248981E+01 0.64661612138E+01 0.67799884494E+01 0.72193399016E+01
 0.77813978664E+01 0.84591256149E+01 0.92397299133E+01 0.10103786846E+02 0.11025357409E+02
 0.11969276622E+02 0.12853577118E+02 0.13566838252E+02 0.14004524385E+02 0.14083135754E+02
 0.13752154821E+02 0.13002776725E+02 0.11872388078E+02 0.10444018663E+02 0.88402994251E+01
 0.72119508992E+01 0.83471289850E+01 0.72290243356E+01 0.64036545419E+01 0.59655695558E+01
 0.59655697366E+01 0.64036549900E+01 0.72290248067E+01 0.83471291837E+01 0.96325180095E+01
 0.10945286210E+02 0.12148479570E+02 0.13123959786E+02 0.13784808692E+02 0.14083135215E+02
 0.14012878738E+02 0.13607752940E+02 0.12934848643E+02 0.12084719153E+02 0.11159068886E+02
 0.10242503633E+02 0.93727724717E+01 0.85762960185E+01 0.78735934274E+01 0.72787788540E+01
 0.68000683748E+01 0.64410577743E+01 0.62023885434E+01 0.60833954073E+01 0.60833953822E+01
 0.62023884971E+01 0.64410577748E+01 0.68000684818E+01 0.72787790673E+01 0.78735936602E+01
 0.85762961131E+01 0.93727722563E+01 0.10242503000E+02 0.11159067859E+02 0.12084717907E+02
 0.12934847468E+02 0.13607752156E+02 0.14012878582E+02 0.14083135754E+02 0.13784809792E+02
 0.13123961147E+02 0.12148480829E+02 0.10945287061E+02 0.96325183075E+01 0.10601484159E+02
 0.96516702154E+01 0.88751703870E+01 0.83670730354E+01 0.81903610242E+01 0.83670731004E+01
 0.88751703209E+01 0.96516697236E+01 0.10601483004E+02 0.11610406107E+02 0.12560098672E+02
 0.13342773620E+02 0.13873642837E+02 0.14099756646E+02 0.14004524769E+02 0.13607753599E+02
 0.12961452273E+02 0.12142003405E+02 0.11239636363E+02 0.10335768394E+02 0.94690679225E+01
 0.86658265240E+01 0.79471655007E+01 0.73282045106E+01 0.68182111655E+01 0.64215812286E+01
 0.61393307895E+01 0.59707215447E+01 0.59146750814E+01 0.59707212080E+01 0.61393302859E+01
 0.64215808129E+01 0.68182110471E+01 0.73282047361E+01 0.79471659053E+01 0.86658267793E+01
 0.94690676661E+01 0.10335767390E+02 0.11239634627E+02 0.12142001239E+02 0.12961450188E+02
 0.13607752156E+02 0.14004524385E+02 0.14099757453E+02 0.13873644637E+02 0.13342775958E+02
 0.12560101000E+02 0.11610407963E+02 0.12349449642E+02 0.11630923924E+02 0.10983665316E+02
 0.10495665291E+02 0.10233671811E+02 0.10233671649E+02 0.10495664737E+02 0.10983664209E+02
 0.11630922133E+02 0.12349447194E+02 0.13042177514E+02 0.13615865472E+02 0.13992821872E+02
 0.14120065791E+02 0.13974950054E+02 0.13566840013E+02 0.12934849970E+02 0.12142003803E+02
 0.11266539948E+02 0.10382609410E+02 0.95272991037E+01 0.87262212031E+01 0.80006114150E+01
 0.73662474610E+01 0.68332755150E+01 0.64068792459E+01 0.60885453416E+01 0.58775897028E+01
 0.57726119828E+01 0.57726116440E+01 0.58775888334E+01 0.60885443183E+01 0.64068785091E+01
 0.68332753713E+01 0.73662479365E+01 0.80006122243E+01 0.87262218493E+01 0.95272990736E+01
 0.10382608387E+02 0.11266537959E+02 0.12142001239E+02 0.12934847468E+02 0.13566838252E+02
 0.13974949528E+02 0.14120066656E+02 0.13992823914E+02 0.13615868201E+02 0.13042180348E+02
 0.13517634616E+02 0.13063426497E+02 0.12600657976E+02 0.12204574910E+02 0.11938585353E+02
 0.11844974523E+02 0.11938584608E+02 0.12204573450E+02 0.12600655898E+02 0.13063424007E+02
 0.13517632055E+02 0.13886897570E+02 0.14104179406E+02 0.14120601349E+02 0.13911573329E+02
 0.13479601523E+02 0.12853579495E+02 0.12084720135E+02 0.11239636141E+02 0.10382608860E+02
 0.95467789208E+01 0.87566123264E+01 0.80330009117E+01 0.73920194044E+01 0.68444830612E+01
 0.63963153895E+01 0.60495550665E+01 0.58037208215E+01 0.56572282202E+01 0.56085928715E+01
 0.56572274485E+01 0.58037195888E+01 0.60495538719E+01 0.63963147243E+01 0.68444832128E+01
 0.73920203370E+01 0.80330022690E+01 0.87566135557E+01 0.95467794724E+01 0.10382608387E+02
 0.11239634627E+02 0.12084717907E+02 0.12853577118E+02 0.13479599621E+02 0.13911572394E+02
 0.14120601611E+02 0.14104180794E+02 0.13886899766E+02 0.14095210668E+02 0.13908363882E+02
 0.13657472220E+02 0.13401524974E+02 0.13195241827E+02 0.13080682959E+02 0.13080682472E+02
 0.13195240479E+02 0.13401523077E+02 0.13657470216E+02 0.13908362244E+02 0.14095209788E+02
 0.14163606872E+02 0.14071731212E+02 0.13796423392E+02 0.13336620525E+02 0.12713780111E+02
 0.11969277895E+02 0.11159068211E+02 0.10335766767E+02 0.95272976691E+01 0.87566117529E+01
 0.80438469308E+01 0.74050159383E+01 0.68513644914E+01 0.63894688114E+01 0.60219736679E+01
 0.57487513011E+01 0.55682135813E+01 0.54785259775E+01 0.54785256718E+01 0.55682127772E+01
 0.57487503009E+01 0.60219728657E+01 0.63894685654E+01 0.68513650054E+01 0.74050171895E+01
 0.80438486663E+01 0.87566135557E+01 0.95272990736E+01 0.10335767390E+02 0.11159067859E+02
 0.11969276622E+02 0.12713778203E+02 0.13336618429E+02 0.13796421603E+02 0.14071730148E+02
 0.14163606775E+02 0.14128344814E+02 0.14184901358E+02 0.14145939214E+02 0.14052738392E+02
 0.13947900930E+02 0.13868277153E+02 0.13838799506E+02 0.13868276386E+02 0.13947899737E+02
 0.14052737334E+02 0.14145938863E+02 0.14184902088E+02 0.14128346660E+02 0.13943163127E+02
 0.13610024232E+02 0.13126991343E+02 0.12510652111E+02 0.11794639078E+02 0.11025356272E+02
 0.10242501017E+02 0.94690653405E+01 0.87262196736E+01 0.80330005913E+01 0.74050161515E+01
 0.68536821906E+01 0.63860985691E+01 0.60055294454E+01 0.57123313072E+01 0.55051084134E+01
 0.53818696120E+01 0.53409945895E+01 0.53818695185E+01 0.55051082335E+01 0.57123310782E+01
 0.60055292643E+01 0.63860986011E+01 0.68536826396E+01 0.74050171895E+01 0.80330022690E+01
 0.87262218493E+01 0.94690676661E+01 0.10242503000E+02 0.11025357409E+02 0.11794639012E+02
 0.12510650768E+02 0.13126988985E+02 0.13610021401E+02 0.13943160493E+02 0.13709646670E+02
 0.13964005629E+02 0.14112975217E+02 0.14180517546E+02 0.14195564663E+02 0.14186481455E+02
 0.14175743264E+02 0.14175743149E+02 0.14186481277E+02 0.14195564848E+02 0.14180518569E+02
 0.14112977360E+02 0.13964008797E+02 0.13709650361E+02 0.13335761707E+02 0.12841445724E+02
 0.12240526708E+02 0.11560846253E+02 0.10839640336E+02 0.10103783728E+02 0.93727692630E+01
 0.86658245548E+01 0.80006110535E+01 0.73920201019E+01 0.68513652949E+01 0.63860989191E+01
 0.60000651571E+01 0.56941931547E+01 0.54674614792E+01 0.53179423642E+01 0.52437495298E+01
 0.52437497813E+01 0.53179429961E+01 0.54674621859E+01 0.56941936050E+01 0.60000651749E+01
 0.63860986011E+01 0.68513650054E+01 0.73920203370E+01 0.80006122243E+01 0.86658267793E+01
 0.93727722563E+01 0.10103786846E+02 0.10839642767E+02 0.11560847288E+02 0.12240525985E+02
 0.12841443365E+02 0.13335758276E+02 0.12963946111E+02 0.13355959093E+02 0.13650271899E+02
 0.13855465900E+02 0.13986951900E+02 0.14063030236E+02 0.14100675606E+02 0.14111799061E+02
 0.14100676206E+02 0.14063031558E+02 0.13986954086E+02 0.13855468954E+02 0.13650275558E+02
 0.13355962803E+02 0.12963949137E+02 0.12475468589E+02 0.11903090722E+02 0.11270454033E+02
 0.10604004115E+02 0.99213695897E+01 0.92397268848E+01 0.85762942997E+01 0.79471655493E+01
 0.73662487798E+01 0.68444846254E+01 0.63894698053E+01 0.60055297661E+01 0.56941931844E+01
 0.54549511497E+01 0.52861495281E+01 0.51858624043E+01 0.51526158351E+01 0.51858632153E+01
 0.52861507766E+01 0.54549522520E+01 0.56941936050E+01 0.60055292643E+01 0.63894685654E+01
 0.68444832128E+01 0.73662479365E+01 0.79471659053E+01 0.85762961131E+01 0.92397299133E+01
 0.99213731442E+01 0.10604007275E+02 0.11270455947E+02 0.11903090874E+02 0.12475466943E+02
 0.12031802144E+02 0.12494894461E+02 0.12880364894E+02 0.13184526875E+02 0.13410845888E+02
 0.13567527047E+02 0.13664517358E+02 0.13710504988E+02 0.13710505612E+02 0.13664519151E+02
 0.13567529775E+02 0.13410849157E+02 0.13184530160E+02 0.12880367602E+02 0.12494896047E+02
 0.12031802246E+02 0.11503276922E+02 0.10928222058E+02 0.10321785277E+02 0.96980418230E+01
 0.90720797527E+01 0.84591247905E+01 0.78735943333E+01 0.73282065734E+01 0.68332777281E+01
 0.63963168595E+01 0.60219741861E+01 0.57123313262E+01 0.54674615053E+01 0.52861496328E+01
 0.51666500038E+01 0.51073674444E+01 0.51073678442E+01 0.51666510176E+01 0.52861507766E+01
 0.54674621859E+01 0.57123310782E+01 0.60219728657E+01 0.63963147243E+01 0.68332753713E+01
 0.73282047361E+01 0.78735936602E+01 0.84591256149E+01 0.90720819833E+01 0.96980449666E+01
 0.10321788585E+02 0.10928224741E+02 0.11503278363E+02 0.11051415993E+02 0.11521856939E+02
 0.11940466177E+02 0.12296114494E+02 0.12582963997E+02 0.12800384870E+02 0.12951154667E+02
 0.13039335438E+02 0.13068299214E+02 0.13039336784E+02 0.12951156981E+02 0.12800387494E+02
 0.12582966181E+02 0.12296115589E+02 0.11940465816E+02 0.11521855123E+02 0.11051413090E+02
 0.10539761285E+02 0.99977840126E+01 0.94377949679E+01 0.88729584776E+01 0.83165891875E+01
 0.77813997122E+01 0.72787816580E+01 0.68182138119E+01 0.64068809172E+01 0.60495555546E+01
 0.57487511216E+01 0.55051082909E+01 0.53179425668E+01 0.51858626538E+01 0.51073674698E+01
 0.50813392923E+01 0.51073678442E+01 0.51858632153E+01 0.53179429961E+01 0.55051082335E+01
 0.57487503009E+01 0.60495538719E+01 0.64068785091E+01 0.68182110471E+01 0.72787790673E+01
 0.77813978664E+01 0.83165885513E+01 0.88729592770E+01 0.94377971106E+01 0.99977870857E+01
 0.10539764640E+02 0.10112410470E+02 0.10557465354E+02 0.10963936275E+02 0.11323812915E+02
 0.11630712462E+02 0.11879052806E+02 0.12065472638E+02 0.12189218962E+02 0.12250797846E+02
 0.12250798291E+02 0.12189220075E+02 0.12065473836E+02 0.11879053363E+02 0.11630711787E+02
 0.11323810781E+02 0.10963932923E+02 0.10557461433E+02 0.10112406837E+02 0.96383109089E+01
 0.91458911445E+01 0.86465543728E+01 0.81518268942E+01 0.76727559330E+01 0.72193429532E+01
 0.68000711187E+01 0.64215827415E+01 0.60885455073E+01 0.58037201976E+01 0.55682130392E+01
 0.53818696338E+01 0.52437498592E+01 0.51526158973E+01 0.51073674698E+01 0.51073674444E+01
 0.51526158351E+01 0.52437497813E+01 0.53818695185E+01 0.55682127772E+01 0.58037195888E+01
 0.60885443183E+01 0.64215808129E+01 0.68000684818E+01 0.72193399016E+01 0.76727530049E+01
 0.81518247522E+01 0.86465536095E+01 0.91458920788E+01 0.96383134491E+01 0.92510564142E+01
 0.96551507625E+01 0.10031808360E+02 0.10372776153E+02 0.10671093409E+02 0.10921254760E+02
 0.11119209761E+02 0.11262215854E+02 0.11348596130E+02 0.11377478272E+02 0.11348596039E+02
 0.11262215410E+02 0.11119208577E+02 0.10921252535E+02 0.10671090131E+02 0.10372772190E+02
 0.10031804409E+02 0.96551476513E+01 0.92510548423E+01 0.88287600853E+01 0.83980584386E+01
 0.79688259245E+01 0.75505314094E+01 0.71517886533E+01 0.67799905393E+01 0.64410587344E+01
 0.61393303365E+01 0.58775884159E+01 0.56572270175E+01 0.54785255178E+01 0.53409947580E+01
 0.52437498592E+01 0.51858626538E+01 0.51666500038E+01 0.51858624043E+01 0.52437495298E+01
 0.53409945895E+01 0.54785256718E+01 0.56572274485E+01 0.58775888334E+01 0.61393302859E+01
 0.64410577748E+01 0.67799884494E+01 0.71517855784E+01 0.75505278820E+01 0.79688227370E+01
 0.83980564062E+01 0.88287597832E+01 0.84937492765E+01 0.88447884588E+01 0.91782820047E+01
 0.94864128097E+01 0.97622107658E+01 0.99998204039E+01 0.10194632826E+02 0.10343274277E+02
 0.10443477168E+02 0.10493888843E+02 0.10493888361E+02 0.10443475728E+02 0.10343271916E+02
 0.10194629686E+02 0.99998167962E+01 0.97622071860E+01 0.94864098706E+01 0.91782802952E+01
 0.88447883691E+01 0.84937508543E+01 0.81334631762E+01 0.77722810483E+01 0.74182047916E+01
 0.70785120084E+01 0.67594719120E+01 0.64661609995E+01 0.62023872491E+01 0.59707194903E+01
 0.57726100372E+01 0.56085917789E+01 0.54785255178E+01 0.53818696338E+01 0.53179425668E+01
 0.52861496328E+01 0.52861495281E+01 0.53179423642E+01 0.53818696120E+01 0.54785259775E+01
 0.56085928715E+01 0.57726116440E+01 0.59707212080E+01 0.62023884971E+01 0.64661612138E+01
 0.67594707562E+01 0.70785095201E+01 0.74182014083E+01 0.77722774995E+01 0.81334602775E+01
 0.78592523466E+01 0.81487704678E+01 0.84289514907E+01 0.86929209565E+01 0.89342427518E+01
 0.91472366978E+01 0.93271961947E+01 0.94704794663E+01 0.95744779539E+01 0.96374963521E+01
 0.96586005966E+01 0.96374950174E+01 0.95744755386E+01 0.94704764370E+01 0.93271931516E+01
 0.91472342655E+01 0.89342414560E+01 0.86929211095E+01 0.84289531123E+01 0.81487732649E+01
 0.78592557657E+01 0.75673427729E+01 0.72796750261E+01 0.70022716460E+01 0.67402927845E+01
 0.64979011827E+01 0.62782225383E+01 0.60833926608E+01 0.59146725495E+01 0.57726100372E+01
 0.56572270175E+01 0.55682130392E+01 0.55051082909E+01 0.54674615053E+01 0.54549511497E+01
 0.54674614792E+01 0.55051084134E+01 0.55682135813E+01 0.56572282202E+01 0.57726119828E+01
 0.59146750814E+01 0.60833953822E+01 0.62782248981E+01 0.64979026208E+01 0.67402928942E+01
 0.70022703006E+01 0.72796724307E+01 0.75673394269E+01 0.73592959206E+01 0.75820494541E+01
 0.78018793991E+01 0.80131757960E+01 0.82104268909E+01 0.83885426933E+01 0.85431157658E+01
 0.86705808567E+01 0.87682595622E+01 0.88343056287E+01 0.88675917163E+01 0.88675911692E+01
 0.88343041651E+01 0.87682576650E+01 0.86705791757E+01 0.85431149327E+01 0.83885431425E+01
 0.82104287357E+01 0.80131787940E+01 0.78018830128E+01 0.75820529868E+01 0.73592986877E+01
 0.71389936165E+01 0.69259795386E+01 0.67243496675E+01 0.65373306496E+01 0.63672643066E+01
 0.62156742447E+01 0.60833926608E+01 0.59707194903E+01 0.58775884159E+01 0.58037201976E+01
 0.57487511216E+01 0.57123313262E+01 0.56941931844E+01 0.56941931547E+01 0.57123313072E+01
 0.57487513011E+01 0.58037208215E+01 0.58775897028E+01 0.59707215447E+01 0.60833954073E+01
 0.62156774043E+01 0.63672674273E+01 0.65373331908E+01 0.67243511215E+01 0.69259795604E+01
 0.71389921274E+01 0.70000661058E+01 0.71532400008E+01 0.73082316403E+01 0.74608623392E+01
 0.76067865131E+01 0.77417914003E+01 0.78620676851E+01 0.79644071811E+01 0.80463021007E+01
 0.81059460756E+01 0.81421624819E+01 0.81543028885E+01 0.81421621568E+01 0.81059456928E+01
 0.80463020940E+01 0.79644079845E+01 0.78620695588E+01 0.77417943097E+01 0.76067901016E+01
 0.74608660061E+01 0.73082346961E+01 0.71532418515E+01 0.70000664075E+01 0.68524419025E+01
 0.67134430855E+01 0.65853664148E+01 0.64697131321E+01 0.63672643066E+01 0.62782225383E+01
 0.62023872491E+01 0.61393303365E+01 0.60885455073E+01 0.60495555546E+01 0.60219741861E+01
 0.60055297661E+01 0.60000651571E+01 0.60055294454E+01 0.60219736679E+01 0.60495550665E+01
 0.60885453416E+01 0.61393307895E+01 0.62023885434E+01 0.62782247438E+01 0.63672672829E+01
 0.64697165160E+01 0.65853696686E+01 0.67134456055E+01 0.68524431634E+01 0.67841028471E+01
 0.68663785927E+01 0.69537783144E+01 0.70436232066E+01 0.71328654966E+01 0.72183470691E+01
 0.72970571426E+01 0.73663446349E+01 0.74240534028E+01 0.74685692719E+01 0.74987908502E+01
 0.75140547946E+01 0.75140549828E+01 0.74987914739E+01 0.74685704727E+01 0.74240553124E+01
 0.73663472657E+01 0.72970603081E+01 0.72183503722E+01 0.71328683988E+01 0.70436251590E+01
 0.69537789101E+01 0.68663776886E+01 0.67841006149E+01 0.67090439568E+01 0.66425883237E+01
 0.65853664148E+01 0.65373306496E+01 0.64979011827E+01 0.64661609995E+01 0.64410587344E+01
 0.64215827415E+01 0.64068809172E+01 0.63963168595E+01 0.63894698053E+01 0.63860989191E+01
 0.63860985691E+01 0.63894688114E+01 0.63963153895E+01 0.64068792459E+01 0.64215812286E+01
 0.64410577743E+01 0.64661609431E+01 0.64979022432E+01 0.65373328216E+01 0.65853694360E+01
 0.66425917025E+01 0.67090470687E+01 0.67120889545E+01 0.67228254225E+01 0.67407834273E+01
 0.67648174655E+01 0.67932548738E+01 0.68241034367E+01 0.68552812712E+01 0.68848271681E+01
 0.69110574077E+01 0.69326507703E+01 0.69486627407E+01 0.69584874320E+01 0.69617967664E+01
 0.69584881576E+01 0.69486641655E+01 0.69326528111E+01 0.69110598829E+01 0.68848297725E+01
 0.68552835939E+01 0.68241050301E+01 0.67932553608E+01 0.67648166524E+01 0.67407813831E+01
 0.67228224906E+01 0.67120856882E+01 0.67090439568E+01 0.67134430855E+01 0.67243496675E+01
 0.67402927845E+01 0.67594719120E+01 0.67799905393E+01 0.68000711187E+01 0.68182138119E+01
 0.68332777281E+01 0.68444846254E+01 0.68513652949E+01 0.68536821906E+01 0.68513644914E+01
 0.68444830612E+01 0.68332755150E+01 0.68182111655E+01 0.68000683748E+01 0.67799881295E+01
 0.67594702899E+01 0.67402923180E+01 0.67243505297E+01 0.67134451821E+01 0.67090469216E+01
 0.67841028209E+01 0.67228255441E+01 0.66697755571E+01 0.66253895270E+01 0.65894477522E+01
 0.65612218206E+01 0.65396648213E+01 0.65236065115E+01 0.65119201536E+01 0.65036389232E+01
 0.64980146482E+01 0.64945262490E+01 0.64928560065E+01 0.64928563118E+01 0.64945271227E+01
 0.64980159588E+01 0.65036404437E+01 0.65119215678E+01 0.65236074512E+01 0.65396649381E+01
 0.65612208805E+01 0.65894457264E+01 0.66253866419E+01 0.66697722794E+01 0.67228224906E+01
 0.67841006149E+01 0.68524419025E+01 0.69259795386E+01 0.70022716460E+01 0.70785120084E+01
 0.71517886533E+01 0.72193429532E+01 0.72787816580E+01 0.73282065734E+01 0.73662487798E+01
 0.73920201019E+01 0.74050161515E+01 0.74050159383E+01 0.73920194044E+01 0.73662474610E+01
 0.73282045106E+01 0.72787788540E+01 0.72193396144E+01 0.71517851977E+01 0.70785089914E+01
 0.70022696226E+01 0.69259789086E+01 0.68524427893E+01 0.70000660657E+01 0.68663789025E+01
 0.67407838171E+01 0.66253897535E+01 0.65215473567E+01 0.64299232428E+01 0.63506360193E+01
 0.62834219808E+01 0.62277998890E+01 0.61832114897E+01 0.61491248129E+01 0.61250979674E+01
 0.61108097278E+01 0.61060682292E+01 0.61108099746E+01 0.61250983676E+01 0.61491251874E+01
 0.61832115957E+01 0.62277994628E+01 0.62834208046E+01 0.63506339995E+01 0.64299204776E+01
 0.65215441647E+01 0.66253866419E+01 0.67407813831E+01 0.68663776886E+01 0.70000664075E+01
 0.71389936165E+01 0.72796750261E+01 0.74182047916E+01 0.75505314094E+01 0.76727559330E+01
 0.77813997122E+01 0.78735943333E+01 0.79471655493E+01 0.80006110535E+01 0.80330005913E+01
 0.80438469308E+01 0.80330009117E+01 0.80006114150E+01 0.79471655007E+01 0.78735934274E+01
 0.77813976885E+01 0.76727528424E+01 0.75505276364E+01 0.74182009667E+01 0.72796718581E+01
 0.71389916997E+01 0.73592958855E+01 0.71532403560E+01 0.69537789153E+01 0.67648180423E+01
 0.65894481367E+01 0.64299234080E+01 0.62877217818E+01 0.61636605479E+01 0.60580419437E+01
 0.59708062565E+01 0.59016759223E+01 0.58502802899E+01 0.58162558287E+01 0.57993201309E+01
 0.57993201355E+01 0.58162557865E+01 0.58502800486E+01 0.59016752790E+01 0.59708050244E+01
 0.60580400256E+01 0.61636579985E+01 0.62877188389E+01 0.64299204776E+01 0.65894457264E+01
 0.67648166524E+01 0.69537789101E+01 0.71532418515E+01 0.73592986877E+01 0.75673427729E+01
 0.77722810483E+01 0.79688259245E+01 0.81518268942E+01 0.83165891875E+01 0.84591247905E+01
 0.85762942997E+01 0.86658245548E+01 0.87262196736E+01 0.87566117529E+01 0.87566123264E+01
 0.87262212031E+01 0.86658265240E+01 0.85762960185E+01 0.84591255974E+01 0.83165886413E+01
 0.81518249003E+01 0.79688227627E+01 0.77722772958E+01 0.75673391526E+01 0.78592523323E+01
 0.75820496817E+01 0.73082321695E+01 0.70436238690E+01 0.67932554744E+01 0.65612222510E+01
 0.63506362261E+01 0.61636605500E+01 0.60016086723E+01 0.58650896992E+01 0.57541820210E+01
 0.56686183617E+01 0.56079661382E+01 0.55717877110E+01 0.55597665167E+01 0.55717877249E+01
 0.56079660086E+01 0.56686178428E+01 0.57541808926E+01 0.58650878830E+01 0.60016063076E+01
 0.61636579985E+01 0.63506339995E+01 0.65612208805E+01 0.67932553608E+01 0.70436251590E+01
 0.73082346961E+01 0.75820529868E+01 0.78592557657E+01 0.81334631762E+01 0.83980584386E+01
 0.86465543728E+01 0.88729584776E+01 0.90720797527E+01 0.92397268848E+01 0.93727692630E+01
 0.94690653405E+01 0.95272976691E+01 0.95467789208E+01 0.95272991037E+01 0.94690679225E+01
 0.93727724717E+01 0.92397300650E+01 0.90720822436E+01 0.88729597478E+01 0.86465541353E+01
 0.83980567176E+01 0.81334603089E+01 0.84937492879E+01 0.81487704358E+01 0.78018795883E+01
 0.74608627744E+01 0.71328660497E+01 0.68241039643E+01 0.65396651720E+01 0.62834220022E+01
 0.60580416424E+01 0.58650893678E+01 0.57052080505E+01 0.55783525084E+01 0.54840523398E+01
 0.54216735924E+01 0.53906489663E+01 0.53906490802E+01 0.54216738255E+01 0.54840524198E+01
 0.55783521383E+01 0.57052070730E+01 0.58650878830E+01 0.60580400256E+01 0.62834208046E+01
 0.65396649381E+01 0.68241050301E+01 0.71328683988E+01 0.74608660061E+01 0.78018830128E+01
 0.81487732649E+01 0.84937508543E+01 0.88287600853E+01 0.91458911445E+01 0.94377949679E+01
 0.96980418230E+01 0.99213695897E+01 0.10103783728E+02 0.10242501017E+02 0.10335766767E+02
 0.10382608860E+02 0.10382609410E+02 0.10335768394E+02 0.10242503633E+02 0.10103787127E+02
 0.99213734034E+01 0.96980455240E+01 0.94377979444E+01 0.91458928381E+01 0.88287601516E+01
 0.92510564419E+01 0.88447881323E+01 0.84289512012E+01 0.80131757799E+01 0.76067867762E+01
 0.72183474934E+01 0.68552816604E+01 0.65236065851E+01 0.62277994355E+01 0.59708054034E+01
 0.57541812432E+01 0.55783521940E+01 0.54429470031E+01 0.53471666365E+01 0.52901384212E+01
 0.52712092077E+01 0.52901387090E+01 0.53471670372E+01 0.54429472650E+01 0.55783521383E+01
 0.57541808926E+01 0.59708050244E+01 0.62277994628E+01 0.65236074512E+01 0.68552835939E+01
 0.72183503722E+01 0.76067901016E+01 0.80131787940E+01 0.84289531123E+01 0.88447883691E+01
 0.92510548423E+01 0.96383109089E+01 0.99977840126E+01 0.10321785277E+02 0.10604004115E+02
 0.10839640336E+02 0.11025356272E+02 0.11159068211E+02 0.11239636141E+02 0.11266539948E+02
 0.11239636363E+02 0.11159068886E+02 0.11025357735E+02 0.10839642828E+02 0.10604007605E+02
 0.10321789374E+02 0.99977880287E+01 0.96383140457E+01 0.10112410495E+02 0.96551502223E+01
 0.91782812924E+01 0.86929204568E+01 0.82104267522E+01 0.77417915734E+01 0.72970574561E+01
 0.68848273141E+01 0.65119197714E+01 0.61832104773E+01 0.59016746775E+01 0.56686175363E+01
 0.54840522295E+01 0.53471668800E+01 0.52568121304E+01 0.52119410750E+01 0.52119411223E+01
 0.52568122519E+01 0.53471670372E+01 0.54840524198E+01 0.56686178428E+01 0.59016752790E+01
 0.61832115957E+01 0.65119215678E+01 0.68848297725E+01 0.72970603081E+01 0.77417943097E+01
 0.82104287357E+01 0.86929211095E+01 0.91782802952E+01 0.96551476513E+01 0.10112406837E+02
 0.10539761285E+02 0.10928222058E+02 0.11270454033E+02 0.11560846253E+02 0.11794639078E+02
 0.11969277895E+02 0.12084720135E+02 0.12142003803E+02 0.12142003405E+02 0.12084719153E+02
 0.11969276886E+02 0.11794638728E+02 0.11560847118E+02 0.11270456312E+02 0.10928225502E+02
 0.10539765254E+02 0.11051415994E+02 0.10557464772E+02 0.10031807464E+02 0.94864120116E+01
 0.89342422881E+01 0.83885425846E+01 0.78620678365E+01 0.73663448296E+01 0.69110572796E+01
 0.65036381758E+01 0.61491236000E+01 0.58502792669E+01 0.56079659383E+01 0.54216742087E+01
 0.52901392178E+01 0.52119414627E+01 0.51860075300E+01 0.52119411223E+01 0.52901387090E+01
 0.54216738255E+01 0.56079660086E+01 0.58502800486E+01 0.61491251874E+01 0.65036404437E+01
 0.69110598829E+01 0.73663472657E+01 0.78620695588E+01 0.83885431425E+01 0.89342414560E+01
 0.94864098706E+01 0.10031804409E+02 0.10557461433E+02 0.11051413090E+02 0.11503276922E+02
 0.11903090722E+02 0.12240526708E+02 0.12510652111E+02 0.12713780111E+02 0.12853579495E+02
 0.12934849970E+02 0.12961452273E+02 0.12934848643E+02 0.12853577218E+02 0.12713777537E+02
 0.12510649984E+02 0.12240525667E+02 0.11903091126E+02 0.11503278762E+02 0.12031802111E+02
 0.11521856517E+02 0.10963935531E+02 0.10372775397E+02 0.97622102219E+01 0.91472364113E+01
 0.85431157233E+01 0.79644073432E+01 0.74240535680E+01 0.69326505846E+01 0.64980139573E+01
 0.61250971522E+01 0.58162555957E+01 0.55717884148E+01 0.53906502020E+01 0.52712101936E+01
 0.52119414627E+01 0.52119410750E+01 0.52712092077E+01 0.53906490802E+01 0.55717877249E+01
 0.58162557865E+01 0.61250983676E+01 0.64980159588E+01 0.69326528111E+01 0.74240553124E+01
 0.79644079845E+01 0.85431149327E+01 0.91472342655E+01 0.97622071860E+01 0.10372772190E+02
 0.10963932923E+02 0.11521855123E+02 0.12031802246E+02 0.12475468589E+02 0.12841445724E+02
 0.13126991343E+02 0.13336620525E+02 0.13479601523E+02 0.13566840013E+02 0.13607753599E+02
 0.13607752940E+02 0.13566838124E+02 0.13479598666E+02 0.13336617125E+02 0.13126987953E+02