   2   2   0   0
  0.1909185E+02  0.3000000E-09  0.3000000E-09  0.4898970E-09  0.5000000E-15
  1.000000000000000E-004
  CAR 
 Si beta-tin                             
     16.03909241     -6.07821772  301      6.86088723      1.00000000
     -6.078  0.0000E+00  0.0000E+00
     -6.004  0.0000E+00  0.0000E+00
     -5.931  0.0000E+00  0.0000E+00
     -5.857  0.0000E+00  0.0000E+00
     -5.783  0.0000E+00  0.0000E+00
     -5.710  0.0000E+00  0.0000E+00
     -5.636  0.4183E-17  0.3084E-18
     -5.562  0.1140E-13  0.8411E-15
     -5.488  0.1051E-10  0.7756E-12
     -5.415  0.3351E-08  0.2479E-09
     -5.341  0.3730E-06  0.2775E-07
     -5.267  0.1465E-04  0.1108E-05
     -5.194  0.2060E-03  0.1629E-04
     -5.120  0.1053E-02  0.9389E-04
     -5.046  0.1981E-02  0.2399E-03
     -4.972  0.1404E-02  0.3435E-03
     -4.899  0.6596E-03  0.3921E-03
     -4.825  0.1566E-02  0.5075E-03
     -4.751  0.3283E-02  0.7496E-03
     -4.677  0.3202E-02  0.9856E-03
     -4.604  0.1458E-02  0.1093E-02
     -4.530  0.6711E-03  0.1143E-02
     -4.456  0.1489E-02  0.1252E-02
     -4.383  0.2071E-02  0.1405E-02
     -4.309  0.1970E-02  0.1550E-02
     -4.235  0.3384E-02  0.1800E-02
     -4.161  0.3883E-02  0.2086E-02
     -4.088  0.2385E-02  0.2262E-02
     -4.014  0.2875E-02  0.2474E-02
     -3.940  0.4990E-02  0.2842E-02
     -3.866  0.6171E-02  0.3297E-02
     -3.793  0.4989E-02  0.3665E-02
     -3.719  0.3338E-02  0.3911E-02
     -3.645  0.2696E-02  0.4110E-02
     -3.572  0.2496E-02  0.4294E-02
     -3.498  0.2043E-02  0.4444E-02
     -3.424  0.2673E-02  0.4641E-02
     -3.350  0.4077E-02  0.4942E-02
     -3.277  0.3210E-02  0.5178E-02
     -3.203  0.3192E-02  0.5414E-02
     -3.129  0.4835E-02  0.5770E-02
     -3.056  0.5649E-02  0.6187E-02
     -2.982  0.6354E-02  0.6655E-02
     -2.908  0.5543E-02  0.7064E-02
     -2.834  0.3385E-02  0.7313E-02
     -2.761  0.1724E-02  0.7441E-02
     -2.687  0.2091E-02  0.7595E-02
     -2.613  0.3416E-02  0.7847E-02
     -2.539  0.4499E-02  0.8178E-02
     -2.466  0.3730E-02  0.8453E-02
     -2.392  0.3323E-02  0.8698E-02
     -2.318  0.6754E-02  0.9196E-02
     -2.245  0.9738E-02  0.9914E-02
     -2.171  0.9490E-02  0.1061E-01
     -2.097  0.7401E-02  0.1116E-01
     -2.023  0.4477E-02  0.1149E-01
     -1.950  0.4186E-02  0.1180E-01
     -1.876  0.5415E-02  0.1220E-01
     -1.802  0.4784E-02  0.1255E-01
     -1.728  0.3493E-02  0.1281E-01
     -1.655  0.2533E-02  0.1299E-01
     -1.581  0.3707E-02  0.1327E-01
     -1.507  0.6810E-02  0.1377E-01
     -1.434  0.7958E-02  0.1436E-01
     -1.360  0.7554E-02  0.1491E-01
     -1.286  0.9440E-02  0.1561E-01
     -1.212  0.9589E-02  0.1632E-01
     -1.139  0.6019E-02  0.1676E-01
     -1.065  0.4426E-02  0.1709E-01
     -0.991  0.4798E-02  0.1744E-01
     -0.918  0.3512E-02  0.1770E-01
     -0.844  0.2087E-02  0.1785E-01
     -0.770  0.4664E-02  0.1820E-01
     -0.696  0.8478E-02  0.1882E-01
     -0.623  0.7664E-02  0.1939E-01
     -0.549  0.5372E-02  0.1978E-01
     -0.475  0.7157E-02  0.2031E-01
     -0.401  0.7604E-02  0.2087E-01
     -0.328  0.5292E-02  0.2126E-01
     -0.254  0.6835E-02  0.2176E-01
     -0.180  0.9048E-02  0.2243E-01
     -0.107  0.6472E-02  0.2291E-01
     -0.033  0.5979E-02  0.2335E-01
      0.041  0.1114E-01  0.2417E-01
      0.115  0.1287E-01  0.2512E-01
      0.188  0.8562E-02  0.2575E-01
      0.262  0.5019E-02  0.2612E-01
      0.336  0.4157E-02  0.2643E-01
      0.410  0.2564E-02  0.2662E-01
      0.483  0.1263E-02  0.2671E-01
      0.557  0.2001E-02  0.2686E-01
      0.631  0.3170E-02  0.2709E-01
      0.704  0.4634E-02  0.2743E-01
      0.778  0.8796E-02  0.2808E-01
      0.852  0.1453E-01  0.2915E-01
      0.926  0.1566E-01  0.3031E-01
      0.999  0.1208E-01  0.3120E-01
      1.073  0.1033E-01  0.3196E-01
      1.147  0.9997E-02  0.3270E-01
      1.220  0.8004E-02  0.3329E-01
      1.294  0.5733E-02  0.3371E-01
      1.368  0.4596E-02  0.3405E-01
      1.442  0.4222E-02  0.3436E-01
      1.515  0.5353E-02  0.3475E-01
      1.589  0.9893E-02  0.3548E-01
      1.663  0.1254E-01  0.3641E-01
      1.737  0.1033E-01  0.3717E-01
      1.810  0.7793E-02  0.3774E-01
      1.884  0.4301E-02  0.3806E-01
      1.958  0.1072E-02  0.3814E-01
      2.031  0.1037E-03  0.3815E-01
      2.105  0.6415E-04  0.3815E-01
      2.179  0.8672E-03  0.3822E-01
      2.253  0.4908E-02  0.3858E-01
      2.326  0.1158E-01  0.3943E-01
      2.400  0.1255E-01  0.4036E-01
      2.474  0.8398E-02  0.4098E-01
      2.548  0.5687E-02  0.4140E-01
      2.621  0.5482E-02  0.4180E-01
      2.695  0.7031E-02  0.4232E-01
      2.769  0.5851E-02  0.4275E-01
      2.842  0.2742E-02  0.4295E-01
      2.916  0.2346E-02  0.4312E-01
      2.990  0.5273E-02  0.4351E-01
      3.064  0.7349E-02  0.4405E-01
      3.137  0.6171E-02  0.4451E-01
      3.211  0.7508E-02  0.4506E-01
      3.285  0.1171E-01  0.4593E-01
      3.359  0.1308E-01  0.4689E-01
      3.432  0.1200E-01  0.4778E-01
      3.506  0.1044E-01  0.4854E-01
      3.580  0.7239E-02  0.4908E-01
      3.653  0.4350E-02  0.4940E-01
      3.727  0.5158E-02  0.4978E-01
      3.801  0.8209E-02  0.5038E-01
      3.875  0.9529E-02  0.5109E-01
      3.948  0.1010E-01  0.5183E-01
      4.022  0.1000E-01  0.5257E-01
      4.096  0.8368E-02  0.5319E-01
      4.169  0.1157E-01  0.5404E-01
      4.243  0.1484E-01  0.5513E-01
      4.317  0.1070E-01  0.5592E-01
      4.391  0.6246E-02  0.5638E-01
      4.464  0.8248E-02  0.5699E-01
      4.538  0.9900E-02  0.5772E-01
      4.612  0.5596E-02  0.5813E-01
      4.686  0.3820E-02  0.5842E-01
      4.759  0.5299E-02  0.5881E-01
      4.833  0.5703E-02  0.5923E-01
      4.907  0.8167E-02  0.5983E-01
      4.980  0.1294E-01  0.6078E-01
      5.054  0.1500E-01  0.6189E-01
      5.128  0.1832E-01  0.6324E-01
      5.202  0.2284E-01  0.6492E-01
      5.275  0.1871E-01  0.6630E-01
      5.349  0.8550E-02  0.6693E-01
      5.423  0.3793E-02  0.6721E-01
      5.497  0.4548E-02  0.6755E-01
      5.570  0.5221E-02  0.6793E-01
      5.644  0.6263E-02  0.6839E-01
      5.718  0.6666E-02  0.6889E-01
      5.791  0.6791E-02  0.6939E-01
      5.865  0.9516E-02  0.7009E-01
      5.939  0.1391E-01  0.7111E-01
      6.013  0.1447E-01  0.7218E-01
      6.086  0.1127E-01  0.7301E-01
      6.160  0.1062E-01  0.7379E-01
      6.234  0.1189E-01  0.7467E-01
      6.307  0.1014E-01  0.7542E-01
      6.381  0.9864E-02  0.7614E-01
      6.455  0.1113E-01  0.7696E-01
      6.529  0.1007E-01  0.7771E-01
      6.602  0.8810E-02  0.7836E-01
      6.676  0.8973E-02  0.7902E-01
      6.750  0.7420E-02  0.7957E-01
      6.824  0.4342E-02  0.7989E-01
      6.897  0.3334E-02  0.8013E-01
      6.971  0.6536E-02  0.8061E-01
      7.045  0.1150E-01  0.8146E-01
      7.118  0.1431E-01  0.8252E-01
      7.192  0.1338E-01  0.8350E-01
      7.266  0.1105E-01  0.8432E-01
      7.340  0.1040E-01  0.8508E-01
      7.413  0.1151E-01  0.8593E-01
      7.487  0.1222E-01  0.8683E-01
      7.561  0.1114E-01  0.8765E-01
      7.635  0.9106E-02  0.8833E-01
      7.708  0.1340E-01  0.8931E-01
      7.782  0.1905E-01  0.9072E-01
      7.856  0.1456E-01  0.9179E-01
      7.929  0.6964E-02  0.9230E-01
      8.003  0.4465E-02  0.9263E-01
      8.077  0.6464E-02  0.9311E-01
      8.151  0.1115E-01  0.9393E-01
      8.224  0.1425E-01  0.9498E-01
      8.298  0.1452E-01  0.9605E-01
      8.372  0.1428E-01  0.9711E-01
      8.445  0.1223E-01  0.9801E-01
      8.519  0.1280E-01  0.9895E-01
      8.593  0.1425E-01  0.1000E+00
      8.667  0.1451E-01  0.1011E+00
      8.740  0.1427E-01  0.1021E+00
      8.814  0.1150E-01  0.1030E+00
      8.888  0.7903E-02  0.1036E+00
      8.962  0.6379E-02  0.1040E+00
      9.035  0.9318E-02  0.1047E+00
      9.109  0.1716E-01  0.1060E+00
      9.183  0.1900E-01  0.1074E+00
      9.256  0.1267E-01  0.1083E+00
      9.330  0.9826E-02  0.1090E+00
      9.404  0.1584E-01  0.1102E+00
      9.478  0.2246E-01  0.1119E+00
      9.551  0.1872E-01  0.1132E+00
      9.625  0.8916E-02  0.1139E+00
      9.699  0.2293E-02  0.1141E+00
      9.773  0.1547E-02  0.1142E+00
      9.846  0.5504E-02  0.1146E+00
      9.920  0.1046E-01  0.1154E+00
      9.994  0.1304E-01  0.1163E+00
     10.067  0.1605E-01  0.1175E+00
     10.141  0.1750E-01  0.1188E+00
     10.215  0.1610E-01  0.1200E+00
     10.289  0.1342E-01  0.1210E+00
     10.362  0.1236E-01  0.1219E+00
     10.436  0.1181E-01  0.1227E+00
     10.510  0.1064E-01  0.1235E+00
     10.583  0.1175E-01  0.1244E+00
     10.657  0.1142E-01  0.1252E+00
     10.731  0.8396E-02  0.1259E+00
     10.805  0.7124E-02  0.1264E+00
     10.878  0.1042E-01  0.1272E+00
     10.952  0.1547E-01  0.1283E+00
     11.026  0.1954E-01  0.1297E+00
     11.100  0.1826E-01  0.1311E+00
     11.173  0.1297E-01  0.1320E+00
     11.247  0.9431E-02  0.1327E+00
     11.321  0.6941E-02  0.1332E+00
     11.394  0.6804E-02  0.1337E+00
     11.468  0.8598E-02  0.1344E+00
     11.542  0.7187E-02  0.1349E+00
     11.616  0.5715E-02  0.1353E+00
     11.689  0.9024E-02  0.1360E+00
     11.763  0.1632E-01  0.1372E+00
     11.837  0.2113E-01  0.1388E+00
     11.911  0.1652E-01  0.1400E+00
     11.984  0.1053E-01  0.1408E+00
     12.058  0.1307E-01  0.1417E+00
     12.132  0.1451E-01  0.1428E+00
     12.205  0.1575E-01  0.1439E+00
     12.279  0.2029E-01  0.1454E+00
     12.353  0.1821E-01  0.1468E+00
     12.427  0.1098E-01  0.1476E+00
     12.500  0.7282E-02  0.1481E+00
     12.574  0.5876E-02  0.1486E+00
     12.648  0.5745E-02  0.1490E+00
     12.721  0.8229E-02  0.1496E+00
     12.795  0.1378E-01  0.1506E+00
     12.869  0.1412E-01  0.1517E+00
     12.943  0.9889E-02  0.1524E+00
     13.016  0.7617E-02  0.1529E+00
     13.090  0.4635E-02  0.1533E+00
     13.164  0.3831E-02  0.1536E+00
     13.238  0.7078E-02  0.1541E+00
     13.311  0.1056E-01  0.1549E+00
     13.385  0.1267E-01  0.1558E+00
     13.459  0.1007E-01  0.1565E+00
     13.532  0.6918E-02  0.1571E+00
     13.606  0.7167E-02  0.1576E+00
     13.680  0.5471E-02  0.1580E+00
     13.754  0.1916E-02  0.1581E+00
     13.827  0.3552E-03  0.1582E+00
     13.901  0.6689E-03  0.1582E+00
     13.975  0.2088E-02  0.1584E+00
     14.049  0.3170E-02  0.1586E+00
     14.122  0.2668E-02  0.1588E+00
     14.196  0.1155E-02  0.1589E+00
     14.270  0.2362E-03  0.1589E+00
     14.343  0.3391E-03  0.1589E+00
     14.417  0.1727E-02  0.1590E+00
     14.491  0.3648E-02  0.1593E+00
     14.565  0.3109E-02  0.1595E+00
     14.638  0.1065E-02  0.1596E+00
     14.712  0.1433E-03  0.1596E+00
     14.786  0.8470E-05  0.1596E+00
     14.860  0.3348E-04  0.1596E+00
     14.933  0.3551E-03  0.1597E+00
     15.007  0.1380E-02  0.1598E+00
     15.081  0.1980E-02  0.1599E+00
     15.154  0.1053E-02  0.1600E+00
     15.228  0.2060E-03  0.1600E+00
     15.302  0.1465E-04  0.1600E+00
     15.376  0.3730E-06  0.1600E+00
     15.449  0.3351E-08  0.1600E+00
     15.523  0.1051E-10  0.1600E+00
     15.597  0.1140E-13  0.1600E+00
     15.670  0.4462E-17  0.1600E+00
     15.744  0.0000E+00  0.1600E+00
     15.818  0.0000E+00  0.1600E+00
     15.892  0.0000E+00  0.1600E+00
     15.965  0.0000E+00  0.1600E+00
     16.039  0.0000E+00  0.1600E+00
