    2    2  100    1
  0.1909185E+02  0.3000000E-09  0.3000000E-09  0.4898970E-09  0.5000000E-15
  1.000000000000000E-004
  CAR 
 Si beta-tin                             
      8     36      8
 
  0.8333333E-01  0.8333333E-01  0.8333333E-01  0.1851852E-01
    1       -4.788730   1.000000
    2        0.326942   1.000000
    3        2.742531   1.000000
    4        9.561356   0.000000
    5       10.410784   0.000000
    6       13.403610   0.000000
    7       13.977298   0.000000
    8       14.499825   0.000000
 
  0.2500000E+00  0.8333333E-01  0.8333333E-01  0.3703704E-01
    1       -3.380898   1.000000
    2        1.650675   1.000000
    3        3.999718   1.000000
    4        5.220511   1.000000
    5        8.318090   0.000000
    6        9.865584   0.000000
    7       11.790494   0.000000
    8       12.792088   0.000000
 
  0.4166667E+00  0.8333333E-01  0.8333333E-01  0.3703704E-01
    1       -1.002317   1.000000
    2        0.983628   1.000000
    3        4.188183   1.000000
    4        5.934009   1.000000
    5        6.332052   1.000000
    6        7.727081   0.000000
    7        8.490637   0.000000
    8       12.069380   0.000000
 
 -0.4166667E+00  0.8333333E-01  0.8333333E-01  0.3703704E-01
    1       -2.278781   1.000000
    2        2.289207   1.000000
    3        3.400170   1.000000
    4        5.161108   1.000000
    5        7.498414   0.000000
    6        8.195639   0.000000
    7       10.044773   0.000000
    8       12.310696   0.000000
 
 -0.2500000E+00  0.8333333E-01  0.8333333E-01  0.3703704E-01
    1       -4.222758   1.000000
    2        0.868970   1.000000
    3        3.269628   1.000000
    4        7.410113   0.000000
    5        9.167771   0.000000
    6       11.839214   0.000000
    7       13.211036   0.000000
    8       13.589720   0.000000
 
 -0.8333333E-01  0.8333333E-01  0.8333333E-01  0.1851852E-01
    1       -5.072885   1.000000
    2        0.052602   1.000000
    3        2.475395   1.000000
    4       10.989543   0.000000
    5       11.823198   0.000000
    6       13.626942   0.000000
    7       14.455917   0.000000
    8       15.033760   0.000000
 
  0.2500000E+00  0.2500000E+00  0.8333333E-01  0.1851852E-01
    1       -1.460828   1.000000
    2        2.627711   1.000000
    3        4.125508   1.000000
    4        4.483103   1.000000
    5        5.961766   1.000000
    6        8.183568   0.000000
    7        9.136692   0.000000
    8       10.106198   0.000000
 
  0.4166667E+00  0.2500000E+00  0.8333333E-01  0.3703704E-01
    1       -0.194804   1.000000
    2        1.551248   1.000000
    3        3.777684   1.000000
    4        5.141918   1.000000
    5        6.684876   0.993598
    6        7.182259   0.000003
    7        8.367441   0.000000
    8        9.097347   0.000000
 
 -0.4166667E+00  0.2500000E+00  0.8333333E-01  0.3703704E-01
    1       -2.548476   1.000000
    2        2.346852   1.000000
    3        4.180261   1.000000
    4        5.028545   1.000000
    5        6.196941   1.000000
    6        9.061487   0.000000
    7       10.614956   0.000000
    8       11.226553   0.000000
 
 -0.2500000E+00  0.2500000E+00  0.8333333E-01  0.1851852E-01
    1       -3.941231   1.000000
    2        1.134261   1.000000
    3        3.524888   1.000000
    4        6.216189   1.000000
    5       10.049819   0.000000
    6       10.565759   0.000000
    7       12.432704   0.000000
    8       13.512262   0.000000
 
  0.4166667E+00  0.4166667E+00  0.8333333E-01  0.1851852E-01
    1       -0.295218   1.000000
    2        0.797221   1.000000
    3        4.699037   1.000000
    4        5.751085   1.000000
    5        5.810311   1.000000
    6        7.096988   0.000420
    7        8.237334   0.000000
    8       10.356033   0.000000
 
 -0.4166667E+00  0.4166667E+00  0.8333333E-01  0.1851852E-01
    1       -1.749533   1.000000
    2        1.653532   1.000000
    3        3.531845   1.000000
    4        5.609229   1.000000
    5        6.785935   0.855424
    6        9.066145   0.000000
    7        9.115597   0.000000
    8       11.818967   0.000000
 
  0.8333333E-01  0.8333333E-01  0.2500000E+00  0.1851852E-01
    1       -4.434824   1.000000
    2       -1.299500   1.000000
    3        4.988915   1.000000
    4        9.875223   0.000000
    5       10.691601   0.000000
    6       12.297058   0.000000
    7       13.245650   0.000000
    8       13.316272   0.000000
 
  0.2500000E+00  0.8333333E-01  0.2500000E+00  0.3703704E-01
    1       -3.030243   1.000000
    2        0.066653   1.000000
    3        5.262681   1.000000
    4        6.455041   1.000000
    5        8.156863   0.000000
    6        8.905446   0.000000
    7       11.455911   0.000000
    8       13.000819   0.000000
 
  0.4166667E+00  0.8333333E-01  0.2500000E+00  0.3703704E-01
    1       -0.663150   1.000000
    2        1.218604   1.000000
    3        2.678668   1.000000
    4        4.496801   1.000000
    5        7.767582   0.000000
    6        8.707879   0.000000
    7       10.175619   0.000000
    8       11.148141   0.000000
 
 -0.4166667E+00  0.8333333E-01  0.2500000E+00  0.3703704E-01
    1       -1.931780   1.000000
    2        1.084456   1.000000
    3        3.332284   1.000000
    4        6.191170   1.000000
    5        7.336209   0.000000
    6        8.327710   0.000000
    7       10.875868   0.000000
    8       12.030633   0.000000
 
 -0.2500000E+00  0.8333333E-01  0.2500000E+00  0.3703704E-01
    1       -3.870044   1.000000
    2       -0.747405   1.000000
    3        5.470866   1.000000
    4        7.761438   0.000000
    5        9.435012   0.000000
    6       10.537174   0.000000
    7       12.219936   0.000000
    8       13.375571   0.000000
 
 -0.8333333E-01  0.8333333E-01  0.2500000E+00  0.1851852E-01
    1       -4.718402   1.000000
    2       -1.577488   1.000000
    3        4.733420   1.000000
    4       11.281017   0.000000
    5       12.103695   0.000000
    6       12.943865   0.000000
    7       13.343479   0.000000
    8       14.075650   0.000000
 
  0.2500000E+00  0.2500000E+00  0.2500000E+00  0.1851852E-01
    1       -1.117345   1.000000
    2        1.794242   1.000000
    3        3.677266   1.000000
    4        4.795387   1.000000
    5        6.595817   0.999911
    6        7.490306   0.000000
    7        8.550903   0.000000
    8       12.059940   0.000000
 
  0.4166667E+00  0.2500000E+00  0.2500000E+00  0.3703704E-01
    1        0.137579   1.000000
    2        1.777132   1.000000
    3        3.462356   1.000000
    4        4.247687   1.000000
    5        5.200503   1.000000
    6        7.098172   0.000396
    7        9.423102   0.000000
    8       11.033435   0.000000
 
 -0.4166667E+00  0.2500000E+00  0.2500000E+00  0.3703704E-01
    1       -2.200337   1.000000
    2        0.855850   1.000000
    3        4.477098   1.000000
    4        6.404060   1.000000
    5        7.067767   0.001718
    6        7.689153   0.000000
    7        9.512760   0.000000
    8       12.788575   0.000000
 
 -0.2500000E+00  0.2500000E+00  0.2500000E+00  0.1851852E-01
    1       -3.589190   1.000000
    2       -0.474144   1.000000
    3        5.625370   1.000000
    4        6.660332   0.997718
    5        9.292244   0.000000
    6       10.355783   0.000000
    7       12.505899   0.000000
    8       12.914522   0.000000
 
  0.4166667E+00  0.4166667E+00  0.2500000E+00  0.1851852E-01
    1        0.036729   1.000000
    2        1.087802   1.000000
    3        3.287492   1.000000
    4        4.319458   1.000000
    5        5.931235   1.000000
    6        8.659719   0.000000
    7        9.259472   0.000000
    8       10.652335   0.000000
 
 -0.4166667E+00  0.4166667E+00  0.2500000E+00  0.1851852E-01
    1       -1.405216   1.000000
    2        1.404316   1.000000
    3        2.500940   1.000000
    4        5.214706   1.000000
    5        7.855289   0.000000
    6        9.377629   0.000000
    7       10.864127   0.000000
    8       12.028803   0.000000
 
  0.8333333E-01  0.8333333E-01  0.4166667E+00  0.1851852E-01
    1       -3.729612   1.000000
    2       -2.679384   1.000000
    3        7.572987   0.000000
    4       10.255504   0.000000
    5       10.486014   0.000000
    6       11.086071   0.000000
    7       11.857264   0.000000
    8       12.296676   0.000000
 
  0.2500000E+00  0.8333333E-01  0.4166667E+00  0.3703704E-01
    1       -2.331976   1.000000
    2       -1.293448   1.000000
    3        5.997984   1.000000
    4        6.967671   0.065503
    5        8.796624   0.000000
    6        9.457306   0.000000
    7       10.374663   0.000000
    8       11.736174   0.000000
 
  0.4166667E+00  0.8333333E-01  0.4166667E+00  0.3703704E-01
    1        0.001988   1.000000
    2        0.907193   1.000000
    3        2.319298   1.000000
    4        3.206571   1.000000
    5        8.500883   0.000000
    6        9.416326   0.000000
    7       10.982196   0.000000
    8       12.233645   0.000000
 
 -0.4166667E+00  0.8333333E-01  0.4166667E+00  0.3703704E-01
    1       -1.242067   1.000000
    2       -0.221842   1.000000
    3        3.955280   1.000000
    4        4.935622   1.000000
    5        8.726858   0.000000
    6        9.523743   0.000000
    7       10.240027   0.000000
    8       12.216955   0.000000
 
 -0.2500000E+00  0.8333333E-01  0.4166667E+00  0.3703704E-01
    1       -3.167334   1.000000
    2       -2.121143   1.000000
    3        7.780396   0.000000
    4        8.608751   0.000000
    5        9.151739   0.000000
    6       10.068715   0.000000
    7       11.032812   0.000000
    8       11.413422   0.000000
 
 -0.8333333E-01  0.8333333E-01  0.4166667E+00  0.1851852E-01
    1       -4.012033   1.000000
    2       -2.959993   1.000000
    3        7.347780   0.000000
    4       10.159947   0.000000
    5       11.861336   0.000000
    6       12.626377   0.000000
    7       12.642048   0.000000
    8       13.366198   0.000000
 
  0.2500000E+00  0.2500000E+00  0.4166667E+00  0.1851852E-01
    1       -0.436266   1.000000
    2        0.563239   1.000000
    3        4.219889   1.000000
    4        5.055908   1.000000
    5        5.679044   1.000000
    6        6.495975   1.000000
    7       10.771738   0.000000
    8       12.820169   0.000000
 
  0.4166667E+00  0.2500000E+00  0.4166667E+00  0.3703704E-01
    1        0.782201   1.000000
    2        1.604529   1.000000
    3        3.029033   1.000000
    4        3.823827   1.000000
    5        4.934559   1.000000
    6        5.877732   1.000000
    7       11.717688   0.000000
    8       12.783198   0.000000
 
 -0.4166667E+00  0.2500000E+00  0.4166667E+00  0.3703704E-01
    1       -1.507686   1.000000
    2       -0.480007   1.000000
    3        5.131976   1.000000
    4        6.074218   1.000000
    5        7.224955   0.000000
    6        8.076735   0.000000
    7        9.931435   0.000000
    8       12.323307   0.000000
 
 -0.2500000E+00  0.2500000E+00  0.4166667E+00  0.1851852E-01
    1       -2.887846   1.000000
    2       -1.843977   1.000000
    3        7.000571   0.024110
    4        7.945335   0.000000
    5        8.599350   0.000000
    6       10.959625   0.000000
    7       11.071519   0.000000
    8       11.837214   0.000000
 
  0.4166667E+00  0.4166667E+00  0.4166667E+00  0.1851852E-01
    1        0.673370   1.000000
    2        1.340400   1.000000
    3        2.388528   1.000000
    4        3.048610   1.000000
    5        6.569308   0.999981
    6        7.521754   0.000000
    7       11.549310   0.000000
    8       12.478427   0.000000
 
 -0.4166667E+00  0.4166667E+00  0.4166667E+00  0.1851852E-01
    1       -0.722899   1.000000
    2        0.273586   1.000000
    3        2.952660   1.000000
    4        3.922046   1.000000
    5        9.994515   0.000000
    6       10.157715   0.000000
    7       10.898257   0.000000
    8       11.644770   0.000000
