 vasp.5.4.1 24Jun15 (build Jul 19 2016 16:50:41) complex                        
  
 executed on           IFC91_ompi date 2019.10.10  11:17:10
 running on    4 total cores
 distrk:  each k-point on    4 cores,    1 groups
 distr:  one band on NCORES_PER_BAND=   1 cores,    4 groups


--------------------------------------------------------------------------------------------------------


 INCAR:
 POTCAR:    PAW_PBE Si 05Jan2001                  
 POTCAR:    PAW_PBE Si 05Jan2001                  
   VRHFIN = Si: s2p2                                                            
   LEXCH  = PE                                                                  
   EATOM  =   103.0669 eV,    7.5752 Ry                                         
                                                                                
   TITEL  = PAW_PBE Si 05Jan2001                                                
   LULTRA =        F    use ultrasoft PP ?                                      
   IUNSCR =        1    unscreen: 0-lin 1-nonlin 2-no                           
   RPACOR =    1.500    partial core radius                                     
   POMASS =   28.085; ZVAL   =    4.000    mass and valenz                      
   RCORE  =    1.900    outmost cutoff radius                                   
   RWIGS  =    2.480; RWIGS  =    1.312    wigner-seitz radius (au A)           
   ENMAX  =  245.345; ENMIN  =  184.009 eV                                      
   ICORE  =        2    local potential                                         
   LCOR   =        T    correct aug charges                                     
   LPAW   =        T    paw PP                                                  
   EAUG   =  322.069                                                            
   DEXC   =    0.000                                                            
   RMAX   =    1.950    core radius for proj-oper                               
   RAUG   =    1.300    factor for augmentation sphere                          
   RDEP   =    1.993    radius for radial grids                                 
   RDEPT  =    1.837    core radius for aug-charge                              
                                                                                
   Atomic configuration                                                         
    6 entries                                                                   
     n  l   j            E        occ.                                          
     1  0  0.50     -1785.8828   2.0000                                         
     2  0  0.50      -139.4969   2.0000                                         
     2  1  1.50       -95.5546   6.0000                                         
     3  0  0.50       -10.8127   2.0000                                         
     3  1  0.50        -4.0811   2.0000                                         
     3  2  1.50        -4.0817   0.0000                                         
   Description                                                                  
     l       E           TYP  RCUT    TYP  RCUT                                 
     0    -10.8127223     23  1.900                                             
     0     -7.6451159     23  1.900                                             
     1     -4.0811372     23  1.900                                             
     1      2.4879257     23  1.900                                             
     2     -4.0817478      7  1.900                                             
  local pseudopotential read in
  partial core-charges read in
  partial kinetic energy density read in
  atomic valenz-charges read in
  non local Contribution for L=           0  read in
    real space projection operators read in
  non local Contribution for L=           0  read in
    real space projection operators read in
  non local Contribution for L=           1  read in
    real space projection operators read in
  non local Contribution for L=           1  read in
    real space projection operators read in
    PAW grid and wavefunctions read in
 
   number of l-projection  operators is LMAX  =           4
   number of lm-projection operators is LMMAX =           8
 
  PAW_PBE Si 05Jan2001                  :
 energy of atom  1       EATOM= -103.0669
 kinetic energy error for atom=    0.0009 (will be added to EATOM!!)
 
 
 POSCAR: Si HCP                                  
  positions in direct lattice
  No initial velocities read in
 exchange correlation table for  LEXCH =        8
   RHO(1)=    0.500       N(1)  =     2000
   RHO(2)=  100.500       N(2)  =     4000
 


--------------------------------------------------------------------------------------------------------


 ion  position               nearest neighbor table
   1  0.000  0.000  0.000-   2 3.00   2 3.00   2 3.00   2 3.00   2 3.00   2 3.00
   2  0.333  0.667  0.500-   1 3.00   1 3.00   1 3.00   1 3.00   1 3.00   1 3.00
 
  LATTYP: Found a hexagonal cell.
 ALAT       =     3.0000000000
 C/A-ratio  =     1.6329900000
  
  Lattice vectors:
  
 A1 = (   3.0000000000,   0.0000000000,   0.0000000000)
 A2 = (  -1.5000000000,   2.5980762114,   0.0000000000)
 A3 = (   0.0000000000,   0.0000000000,   4.8989700000)


Analysis of symmetry for initial positions (statically):
=====================================================================
 Subroutine PRICEL returns:
 Original cell was already a primitive cell.
 

 Routine SETGRP: Setting up the symmetry group for a 
 hexagonal supercell.


 Subroutine GETGRP returns: Found 24 space group operations
 (whereof 12 operations were pure point group operations)
 out of a pool of 24 trial point group operations.


The static configuration has the point symmetry D_3h.
 The point group associated with its full space group is D_6h.


Analysis of symmetry for dynamics (positions and initial velocities):
=====================================================================
 Subroutine PRICEL returns:
 Original cell was already a primitive cell.
 

 Routine SETGRP: Setting up the symmetry group for a 
 hexagonal supercell.


 Subroutine GETGRP returns: Found 24 space group operations
 (whereof 12 operations were pure point group operations)
 out of a pool of 24 trial point group operations.


The dynamic configuration has the point symmetry D_3h.
 The point group associated with its full space group is D_6h.


 Subroutine INISYM returns: Found 24 space group operations
 (whereof 12 operations are pure point group operations),
 and found     1 'primitive' translations

 
 
 KPOINTS: K-Points                                

Automatic generation of k-mesh.
Space group operators:
 irot       det(A)        alpha          n_x          n_y          n_z        tau_x        tau_y        tau_z
    1     1.000000     0.000000     1.000000     0.000000     0.000000     0.000000     0.000000     0.000000
    2    -1.000000    60.000000     0.000000     0.000000    -1.000000     0.000000     0.000000     0.000000
    3     1.000000   120.000000     0.000000     0.000000    -1.000000     0.000000     0.000000     0.000000
    4    -1.000000   180.000000     0.000000     0.000000     1.000000     0.000000     0.000000     0.000000
    5     1.000000   120.000000     0.000000     0.000000     1.000000     0.000000     0.000000     0.000000
    6    -1.000000    60.000000     0.000000     0.000000     1.000000     0.000000     0.000000     0.000000
    7    -1.000000   180.000000     1.000000     0.000000     0.000000     0.000000     0.000000     0.000000
    8     1.000000   180.000000     0.866025    -0.500000     0.000000     0.000000     0.000000     0.000000
    9    -1.000000   180.000000     0.500000    -0.866025     0.000000     0.000000     0.000000     0.000000
   10     1.000000   180.000000     0.000000     1.000000     0.000000     0.000000     0.000000     0.000000
   11    -1.000000   180.000000    -0.500000    -0.866025     0.000000     0.000000     0.000000     0.000000
   12     1.000000   180.000000     0.866025     0.500000     0.000000     0.000000     0.000000     0.000000
   13    -1.000000     0.000000     1.000000     0.000000     0.000000     0.333333     0.666667     0.500000
   14     1.000000    60.000000     0.000000     0.000000    -1.000000     0.333333     0.666667     0.500000
   15    -1.000000   120.000000     0.000000     0.000000    -1.000000     0.333333     0.666667     0.500000
   16     1.000000   180.000000     0.000000     0.000000     1.000000     0.333333     0.666667     0.500000
   17    -1.000000   120.000000     0.000000     0.000000     1.000000     0.333333     0.666667     0.500000
   18     1.000000    60.000000     0.000000     0.000000     1.000000     0.333333     0.666667     0.500000
   19     1.000000   180.000000     1.000000     0.000000     0.000000     0.333333     0.666667     0.500000
   20    -1.000000   180.000000     0.866025    -0.500000     0.000000     0.333333     0.666667     0.500000
   21     1.000000   180.000000     0.500000    -0.866025     0.000000     0.333333     0.666667     0.500000
   22    -1.000000   180.000000     0.000000     1.000000     0.000000     0.333333     0.666667     0.500000
   23     1.000000   180.000000    -0.500000    -0.866025     0.000000     0.333333     0.666667     0.500000
   24    -1.000000   180.000000     0.866025     0.500000     0.000000     0.333333     0.666667     0.500000
 
 Subroutine IBZKPT returns following result:
 ===========================================
 
 Found     36 irreducible k-points:
 
 Following reciprocal coordinates:
            Coordinates               Weight
  0.083333  0.083333  0.083333     96.000000
  0.250000  0.083333  0.083333    192.000000
  0.416667  0.083333  0.083333    192.000000
 -0.416667  0.083333  0.083333    192.000000
 -0.250000  0.083333  0.083333    192.000000
 -0.083333  0.083333  0.083333     96.000000
  0.250000  0.250000  0.083333     96.000000
  0.416667  0.250000  0.083333    192.000000
 -0.416667  0.250000  0.083333    192.000000
 -0.250000  0.250000  0.083333     96.000000
  0.416667  0.416667  0.083333     96.000000
 -0.416667  0.416667  0.083333     96.000000
  0.083333  0.083333  0.250000     96.000000
  0.250000  0.083333  0.250000    192.000000
  0.416667  0.083333  0.250000    192.000000
 -0.416667  0.083333  0.250000    192.000000
 -0.250000  0.083333  0.250000    192.000000
 -0.083333  0.083333  0.250000     96.000000
  0.250000  0.250000  0.250000     96.000000
  0.416667  0.250000  0.250000    192.000000
 -0.416667  0.250000  0.250000    192.000000
 -0.250000  0.250000  0.250000     96.000000
  0.416667  0.416667  0.250000     96.000000
 -0.416667  0.416667  0.250000     96.000000
  0.083333  0.083333  0.416667     96.000000
  0.250000  0.083333  0.416667    192.000000
  0.416667  0.083333  0.416667    192.000000
 -0.416667  0.083333  0.416667    192.000000
 -0.250000  0.083333  0.416667    192.000000
 -0.083333  0.083333  0.416667     96.000000
  0.250000  0.250000  0.416667     96.000000
  0.416667  0.250000  0.416667    192.000000
 -0.416667  0.250000  0.416667    192.000000
 -0.250000  0.250000  0.416667     96.000000
  0.416667  0.416667  0.416667     96.000000
 -0.416667  0.416667  0.416667     96.000000
 
 Following cartesian coordinates:
            Coordinates               Weight
  0.083333  0.144338  0.051031     96.000000
  0.250000  0.240563  0.051031    192.000000
  0.416667  0.336788  0.051031    192.000000
 -0.416667 -0.144338  0.051031    192.000000
 -0.250000 -0.048113  0.051031    192.000000
 -0.083333  0.048113  0.051031     96.000000
  0.250000  0.433013  0.051031     96.000000
  0.416667  0.529238  0.051031    192.000000
 -0.416667  0.048113  0.051031    192.000000
 -0.250000  0.144338  0.051031     96.000000
  0.416667  0.721688  0.051031     96.000000
 -0.416667  0.240563  0.051031     96.000000
  0.083333  0.144338  0.153093     96.000000
  0.250000  0.240563  0.153093    192.000000
  0.416667  0.336788  0.153093    192.000000
 -0.416667 -0.144338  0.153093    192.000000
 -0.250000 -0.048113  0.153093    192.000000
 -0.083333  0.048113  0.153093     96.000000
  0.250000  0.433013  0.153093     96.000000
  0.416667  0.529238  0.153093    192.000000
 -0.416667  0.048113  0.153093    192.000000
 -0.250000  0.144338  0.153093     96.000000
  0.416667  0.721688  0.153093     96.000000
 -0.416667  0.240563  0.153093     96.000000
  0.083333  0.144338  0.255156     96.000000
  0.250000  0.240563  0.255156    192.000000
  0.416667  0.336788  0.255156    192.000000
 -0.416667 -0.144338  0.255156    192.000000
 -0.250000 -0.048113  0.255156    192.000000
 -0.083333  0.048113  0.255156     96.000000
  0.250000  0.433013  0.255156     96.000000
  0.416667  0.529238  0.255156    192.000000
 -0.416667  0.048113  0.255156    192.000000
 -0.250000  0.144338  0.255156     96.000000
  0.416667  0.721688  0.255156     96.000000
 -0.416667  0.240563  0.255156     96.000000
 


--------------------------------------------------------------------------------------------------------




 Dimension of arrays:
   k-points           NKPTS =     36   k-points in BZ     NKDIM =     36   number of bands    NBANDS=      8
   number of dos      NEDOS =    301   number of ions     NIONS =      2
   non local maximal  LDIM  =      4   non local SUM 2l+1 LMDIM =      8
   total plane-waves  NPLWV =  20736
   max r-space proj   IRMAX =      1   max aug-charges    IRDMAX=  18355
   dimension x,y,z NGX =    24 NGY =   24 NGZ =   36
   dimension x,y,z NGXF=    48 NGYF=   48 NGZF=   72
   support grid    NGXF=    48 NGYF=   48 NGZF=   72
   ions per type =               2
 NGX,Y,Z   is equivalent  to a cutoff of  13.30, 13.30, 12.22 a.u.
 NGXF,Y,Z  is equivalent  to a cutoff of  26.60, 26.60, 24.43 a.u.


 I would recommend the setting:
   dimension x,y,z NGX =    21 NGY =   21 NGZ =   34
 SYSTEM =  Si beta-tin                             
 POSCAR =  Si HCP                                  

 Startparameter for this run:
   NWRITE =      2    write-flag & timer
   PREC   = accura    normal or accurate (medium, high low for compatibility)
   ISTART =      0    job   : 0-new  1-cont  2-samecut
   ICHARG =      2    charge: 1-file 2-atom 10-const
   ISPIN  =      1    spin polarized calculation?
   LNONCOLLINEAR =      F non collinear calculations
   LSORBIT =      F    spin-orbit coupling
   INIWAV =      1    electr: 0-lowe 1-rand  2-diag
   LASPH  =      F    aspherical Exc in radial PAW
   METAGGA=      F    non-selfconsistent MetaGGA calc.

 Electronic Relaxation 1
   ENCUT  =  450.0 eV  33.07 Ry    5.75 a.u.   5.19  5.19  8.47*2*pi/ulx,y,z
   ENINI  =  450.0     initial cutoff
   ENAUG  =  322.1 eV  augmentation charge cutoff
   NELM   =     60;   NELMIN=  2; NELMDL= -5     # of ELM steps 
   EDIFF  = 0.1E-04   stopping-criterion for ELM
   LREAL  =      F    real-space projection
   NLSPLINE    = F    spline interpolate recip. space projectors
   LCOMPAT=      F    compatible to vasp.4.4
   GGA_COMPAT  = T    GGA compatible to vasp.4.4-vasp.4.6
   LMAXPAW     = -100 max onsite density
   LMAXMIX     =    2 max onsite mixed and CHGCAR
   VOSKOWN=      0    Vosko Wilk Nusair interpolation
   ROPT   =    0.00000
 Ionic relaxation
   EDIFFG = -.1E-01   stopping-criterion for IOM
   NSW    =    100    number of steps for IOM
   NBLOCK =      1;   KBLOCK =    100    inner block; outer block 
   IBRION =      2    ionic relax: 0-MD 1-quasi-New 2-CG
   NFREE  =      1    steps in history (QN), initial steepest desc. (CG)
   ISIF   =      4    stress and relaxation
   IWAVPR =     11    prediction:  0-non 1-charg 2-wave 3-comb
   ISYM   =      2    0-nonsym 1-usesym 2-fastsym
   LCORR  =      T    Harris-Foulkes like correction to forces

   POTIM  = 0.5000    time-step for ionic-motion
   TEIN   =    0.0    initial temperature
   TEBEG  =    0.0;   TEEND  =   0.0 temperature during run
   SMASS  =  -3.00    Nose mass-parameter (am)
   estimated Nose-frequenzy (Omega)   =  0.10E-29 period in steps =****** mass=  -0.206E-27a.u.
   SCALEE = 1.0000    scale energy and forces
   NPACO  =    256;   APACO  = 16.0  distance and # of slots for P.C.
   PSTRESS=    0.0 pullay stress

  Mass of Ions in am
   POMASS =  28.09
  Ionic Valenz
   ZVAL   =   4.00
  Atomic Wigner-Seitz radii
   RWIGS  =  -1.00
  virtual crystal weights 
   VCA    =   1.00
   NELECT =       8.0000    total number of electrons
   NUPDOWN=      -1.0000    fix difference up-down

 DOS related values:
   EMIN   =  10.00;   EMAX   =-10.00  energy-range for DOS
   EFERMI =   0.00
   ISMEAR =     0;   SIGMA  =   0.10  broadening in eV -4-tet -1-fermi 0-gaus

 Electronic relaxation 2 (details)
   IALGO  =     38    algorithm
   LDIAG  =      T    sub-space diagonalisation (order eigenvalues)
   LSUBROT=      F    optimize rotation matrix (better conditioning)
   TURBO    =      0    0=normal 1=particle mesh
   IRESTART =      0    0=no restart 2=restart with 2 vectors
   NREBOOT  =      0    no. of reboots
   NMIN     =      0    reboot dimension
   EREF     =   0.00    reference energy to select bands
   IMIX   =      4    mixing-type and parameters
     AMIX     =   0.40;   BMIX     =  1.00
     AMIX_MAG =   1.60;   BMIX_MAG =  1.00
     AMIN     =   0.10
     WC   =   100.;   INIMIX=   1;  MIXPRE=   1;  MAXMIX= -45

 Intra band minimization:
   WEIMIN = 0.0010     energy-eigenvalue tresh-hold
   EBREAK =  0.31E-06  absolut break condition
   DEPER  =   0.30     relativ break condition  

   TIME   =   0.40     timestep for ELM

  volume/ion in A,a.u.               =      19.09       128.84
  Fermi-wavevector in a.u.,A,eV,Ry     =   0.972327  1.837431 12.863208  0.945419
  Thomas-Fermi vector in A             =   2.102616
 
 Write flags
   LWAVE  =      T    write WAVECAR
   LCHARG =      T    write CHGCAR
   LVTOT  =      F    write LOCPOT, total local potential
   LVHAR  =      F    write LOCPOT, Hartree potential only
   LELF   =      F    write electronic localiz. function (ELF)
   LORBIT =      0    0 simple, 1 ext, 2 COOP (PROOUT)


 Dipole corrections
   LMONO  =      F    monopole corrections only (constant potential shift)
   LDIPOL =      F    correct potential (dipole corrections)
   IDIPOL =      0    1-x, 2-y, 3-z, 4-all directions 
   EPSILON=  1.0000000 bulk dielectric constant

 Exchange correlation treatment:
   GGA     =    --    GGA type
   LEXCH   =     8    internal setting for exchange type
   VOSKOWN=      0    Vosko Wilk Nusair interpolation
   LHFCALC =     F    Hartree Fock is set to
   LHFONE  =     F    Hartree Fock one center treatment
   AEXX    =    0.0000 exact exchange contribution

 Linear response parameters
   LEPSILON=     F    determine dielectric tensor
   LRPA    =     F    only Hartree local field effects (RPA)
   LNABLA  =     F    use nabla operator in PAW spheres
   LVEL    =     F    velocity operator in full k-point grid
   LINTERFAST=   F  fast interpolation
   KINTER  =     0    interpolate to denser k-point grid
   CSHIFT  =0.1000    complex shift for real part using Kramers Kronig
   OMEGAMAX=  -1.0    maximum frequency
   DEG_THRESHOLD= 0.2000000E-02 threshold for treating states as degnerate
   RTIME   =    0.100 relaxation time in fs

 Orbital magnetization related:
   ORBITALMAG=     F  switch on orbital magnetization
   LCHIMAG   =     F  perturbation theory with respect to B field
   DQ        =  0.001000  dq finite difference perturbation B field



--------------------------------------------------------------------------------------------------------


 conjugate gradient relaxation of ions
 charge density and potential will be updated during run
 non-spin polarized calculation
 Variant of blocked Davidson
 Davidson routine will perform the subspace rotation
 perform sub-space diagonalisation
    after iterative eigenvector-optimisation
 modified Broyden-mixing scheme, WC =      100.0
 initial mixing is a Kerker type mixing with AMIX =  0.4000 and BMIX =      1.0000
 Hartree-type preconditioning will be used
 using additional bands            4
 reciprocal scheme for non local part
 use partial core corrections
 calculate Harris-corrections to forces 
   (improved forces if not selfconsistent)
 use gradient corrections 
 use of overlap-Matrix (Vanderbilt PP)
 Gauss-broadening in eV      SIGMA  =   0.10


--------------------------------------------------------------------------------------------------------


  energy-cutoff  :      450.00
  volume of cell :       38.18
      direct lattice vectors                 reciprocal lattice vectors
     3.000000000  0.000000000  0.000000000     0.333333333  0.192450090  0.000000000
    -1.500000000  2.598076211  0.000000000     0.000000000  0.384900179  0.000000000
     0.000000000  0.000000000  4.898970000     0.000000000  0.000000000  0.204124540

  length of vectors
     3.000000000  3.000000000  4.898970000     0.384900179  0.384900179  0.204124540


 
 k-points in units of 2pi/SCALE and weight: K-Points                                
   0.08333333  0.14433757  0.05103114       0.019
   0.25000000  0.24056261  0.05103114       0.037
   0.41666667  0.33678766  0.05103114       0.037
  -0.41666667 -0.14433757  0.05103114       0.037
  -0.25000000 -0.04811252  0.05103114       0.037
  -0.08333333  0.04811252  0.05103114       0.019
   0.25000000  0.43301270  0.05103114       0.019
   0.41666667  0.52923775  0.05103114       0.037
  -0.41666667  0.04811252  0.05103114       0.037
  -0.25000000  0.14433757  0.05103114       0.019
   0.41666667  0.72168784  0.05103114       0.019
  -0.41666667  0.24056261  0.05103114       0.019
   0.08333333  0.14433757  0.15309341       0.019
   0.25000000  0.24056261  0.15309341       0.037
   0.41666667  0.33678766  0.15309341       0.037
  -0.41666667 -0.14433757  0.15309341       0.037
  -0.25000000 -0.04811252  0.15309341       0.037
  -0.08333333  0.04811252  0.15309341       0.019
   0.25000000  0.43301270  0.15309341       0.019
   0.41666667  0.52923775  0.15309341       0.037
  -0.41666667  0.04811252  0.15309341       0.037
  -0.25000000  0.14433757  0.15309341       0.019
   0.41666667  0.72168784  0.15309341       0.019
  -0.41666667  0.24056261  0.15309341       0.019
   0.08333333  0.14433757  0.25515568       0.019
   0.25000000  0.24056261  0.25515568       0.037
   0.41666667  0.33678766  0.25515568       0.037
  -0.41666667 -0.14433757  0.25515568       0.037
  -0.25000000 -0.04811252  0.25515568       0.037
  -0.08333333  0.04811252  0.25515568       0.019
   0.25000000  0.43301270  0.25515568       0.019
   0.41666667  0.52923775  0.25515568       0.037
  -0.41666667  0.04811252  0.25515568       0.037
  -0.25000000  0.14433757  0.25515568       0.019
   0.41666667  0.72168784  0.25515568       0.019
  -0.41666667  0.24056261  0.25515568       0.019
 
 k-points in reciprocal lattice and weights: K-Points                                
   0.08333333  0.08333333  0.08333333       0.019
   0.25000000  0.08333333  0.08333333       0.037
   0.41666667  0.08333333  0.08333333       0.037
  -0.41666667  0.08333333  0.08333333       0.037
  -0.25000000  0.08333333  0.08333333       0.037
  -0.08333333  0.08333333  0.08333333       0.019
   0.25000000  0.25000000  0.08333333       0.019
   0.41666667  0.25000000  0.08333333       0.037
  -0.41666667  0.25000000  0.08333333       0.037
  -0.25000000  0.25000000  0.08333333       0.019
   0.41666667  0.41666667  0.08333333       0.019
  -0.41666667  0.41666667  0.08333333       0.019
   0.08333333  0.08333333  0.25000000       0.019
   0.25000000  0.08333333  0.25000000       0.037
   0.41666667  0.08333333  0.25000000       0.037
  -0.41666667  0.08333333  0.25000000       0.037
  -0.25000000  0.08333333  0.25000000       0.037
  -0.08333333  0.08333333  0.25000000       0.019
   0.25000000  0.25000000  0.25000000       0.019
   0.41666667  0.25000000  0.25000000       0.037
  -0.41666667  0.25000000  0.25000000       0.037
  -0.25000000  0.25000000  0.25000000       0.019
   0.41666667  0.41666667  0.25000000       0.019
  -0.41666667  0.41666667  0.25000000       0.019
   0.08333333  0.08333333  0.41666667       0.019
   0.25000000  0.08333333  0.41666667       0.037
   0.41666667  0.08333333  0.41666667       0.037
  -0.41666667  0.08333333  0.41666667       0.037
  -0.25000000  0.08333333  0.41666667       0.037
  -0.08333333  0.08333333  0.41666667       0.019
   0.25000000  0.25000000  0.41666667       0.019
   0.41666667  0.25000000  0.41666667       0.037
  -0.41666667  0.25000000  0.41666667       0.037
  -0.25000000  0.25000000  0.41666667       0.019
   0.41666667  0.41666667  0.41666667       0.019
  -0.41666667  0.41666667  0.41666667       0.019
 
 position of ions in fractional coordinates (direct lattice) 
   0.00000000  0.00000000  0.00000000
   0.33333333  0.66666667  0.50000000
 
 position of ions in cartesian coordinates  (Angst):
   0.00000000  0.00000000  0.00000000
  -0.00000000  1.73205081  2.44948500
 


--------------------------------------------------------------------------------------------------------


 k-point  1 :   0.0833 0.0833 0.0833  plane waves:     823
 k-point  2 :   0.2500 0.0833 0.0833  plane waves:     831
 k-point  3 :   0.4167 0.0833 0.0833  plane waves:     836
 k-point  4 :  -0.4167 0.0833 0.0833  plane waves:     828
 k-point  5 :  -0.2500 0.0833 0.0833  plane waves:     823
 k-point  6 :  -0.0833 0.0833 0.0833  plane waves:     821
 k-point  7 :   0.2500 0.2500 0.0833  plane waves:     829
 k-point  8 :   0.4167 0.2500 0.0833  plane waves:     830
 k-point  9 :  -0.4167 0.2500 0.0833  plane waves:     825
 k-point 10 :  -0.2500 0.2500 0.0833  plane waves:     827
 k-point 11 :   0.4167 0.4167 0.0833  plane waves:     835
 k-point 12 :  -0.4167 0.4167 0.0833  plane waves:     838
 k-point 13 :   0.0833 0.0833 0.2500  plane waves:     825
 k-point 14 :   0.2500 0.0833 0.2500  plane waves:     829
 k-point 15 :   0.4167 0.0833 0.2500  plane waves:     828
 k-point 16 :  -0.4167 0.0833 0.2500  plane waves:     832
 k-point 17 :  -0.2500 0.0833 0.2500  plane waves:     825
 k-point 18 :  -0.0833 0.0833 0.2500  plane waves:     822
 k-point 19 :   0.2500 0.2500 0.2500  plane waves:     827
 k-point 20 :   0.4167 0.2500 0.2500  plane waves:     831
 k-point 21 :  -0.4167 0.2500 0.2500  plane waves:     828
 k-point 22 :  -0.2500 0.2500 0.2500  plane waves:     829
 k-point 23 :   0.4167 0.4167 0.2500  plane waves:     829
 k-point 24 :  -0.4167 0.4167 0.2500  plane waves:     834
 k-point 25 :   0.0833 0.0833 0.4167  plane waves:     823
 k-point 26 :   0.2500 0.0833 0.4167  plane waves:     830
 k-point 27 :   0.4167 0.0833 0.4167  plane waves:     825
 k-point 28 :  -0.4167 0.0833 0.4167  plane waves:     834
 k-point 29 :  -0.2500 0.0833 0.4167  plane waves:     827
 k-point 30 :  -0.0833 0.0833 0.4167  plane waves:     818
 k-point 31 :   0.2500 0.2500 0.4167  plane waves:     824
 k-point 32 :   0.4167 0.2500 0.4167  plane waves:     820
 k-point 33 :  -0.4167 0.2500 0.4167  plane waves:     830
 k-point 34 :  -0.2500 0.2500 0.4167  plane waves:     823
 k-point 35 :   0.4167 0.4167 0.4167  plane waves:     820
 k-point 36 :  -0.4167 0.4167 0.4167  plane waves:     829

 maximum and minimum number of plane-waves per node :       838      818

 maximum number of plane-waves:       838
 maximum index in each direction: 
   IXMAX=    5   IYMAX=    5   IZMAX=    8
   IXMIN=   -5   IYMIN=   -5   IZMIN=   -8

 NGX is ok and might be reduce to  22
 NGY is ok and might be reduce to  22
 NGZ is ok and might be reduce to  34

 serial   3D FFT for wavefunctions
 parallel 3D FFT for charge:
    minimum data exchange during FFTs selected (reduces bandwidth)


 total amount of memory used by VASP on root node    37333. kBytes
========================================================================

   base      :      30000. kBytes
   nonl-proj :       1962. kBytes
   fftplans  :       1513. kBytes
   grid      :       2866. kBytes
   one-center:          6. kBytes
   wavefun   :        986. kBytes
 
     INWAV:  cpu time    0.0000: real time    0.0000
 Broyden mixing: mesh for mixing (old mesh)
   NGX = 11   NGY = 11   NGZ = 17
  (NGX  = 48   NGY  = 48   NGZ  = 72)
  gives a total of   2057 points

 initial charge density was supplied:
 charge density of overlapping atoms calculated
 number of electron       8.0000000 magnetization 
 keeping initial charge density in first step


--------------------------------------------------------------------------------------------------------


 Maximum index for augmentation-charges         4415 (set IRDMAX)


--------------------------------------------------------------------------------------------------------


 First call to EWALD:  gamma=   0.526
 Maximum number of real-space cells 3x 3x 2
 Maximum number of reciprocal cells 3x 3x 4

 FEWALD executed in parallel
    FEWALD:  cpu time    0.0020: real time    0.0010


----------------------------------------- Iteration    1(   1)  ---------------------------------------


    POTLOK:  cpu time    0.0940: real time    0.0558
    SETDIJ:  cpu time    0.0080: real time    0.0055
     EDDAV:  cpu time    1.8067: real time    1.1019
       DOS:  cpu time    0.0030: real time    0.0012
    --------------------------------------------
      LOOP:  cpu time    1.9157: real time    1.1664

 eigenvalue-minimisations  :   576
 total energy-change (2. order) : 0.2304134E+01  (-0.3006917E+03)
 number of electron       8.0000000 magnetization 
 augmentation part        8.0000000 magnetization 

 Free energy of the ion-electron system (eV)
  ---------------------------------------------------
  alpha Z        PSCENC =         3.52644062
  Ewald energy   TEWEN  =      -248.97122806
  -Hartree energ DENC   =        -2.92696563
  -exchange      EXHF   =         0.00000000
  -V(xc)+E(xc)   XCENC  =       -18.95220955
  PAW double counting   =       176.24759923     -141.06103558
  entropy T*S    EENTRO =        -0.00592374
  eigenvalues    EBANDS =        28.31552921
  atomic energy  EATOM  =       206.13192747
  Solvation  Ediel_sol  =         0.00000000
  ---------------------------------------------------
  free energy    TOTEN  =         2.30413396 eV

  energy without entropy =        2.31005770  energy(sigma->0) =        2.30709583


--------------------------------------------------------------------------------------------------------




----------------------------------------- Iteration    1(   2)  ---------------------------------------


     EDDAV:  cpu time    2.7876: real time    1.7565
       DOS:  cpu time    0.0010: real time    0.0012
    --------------------------------------------
      LOOP:  cpu time    2.7926: real time    1.7601

 eigenvalue-minimisations  :   856
 total energy-change (2. order) :-0.1151254E+02  (-0.1118023E+02)
 number of electron       8.0000000 magnetization 
 augmentation part        8.0000000 magnetization 

 Free energy of the ion-electron system (eV)
  ---------------------------------------------------
  alpha Z        PSCENC =         3.52644062
  Ewald energy   TEWEN  =      -248.97122806
  -Hartree energ DENC   =        -2.92696563
  -exchange      EXHF   =         0.00000000
  -V(xc)+E(xc)   XCENC  =       -18.95220955
  PAW double counting   =       176.24759923     -141.06103558
  entropy T*S    EENTRO =        -0.00450608
  eigenvalues    EBANDS =        16.80156804
  atomic energy  EATOM  =       206.13192747
  Solvation  Ediel_sol  =         0.00000000
  ---------------------------------------------------
  free energy    TOTEN  =        -9.20840955 eV

  energy without entropy =       -9.20390347  energy(sigma->0) =       -9.20615651


--------------------------------------------------------------------------------------------------------




----------------------------------------- Iteration    1(   3)  ---------------------------------------


     EDDAV:  cpu time    2.5676: real time    2.2615
       DOS:  cpu time    0.0010: real time    0.0012
    --------------------------------------------
      LOOP:  cpu time    2.5716: real time    2.2653

 eigenvalue-minimisations  :   792
 total energy-change (2. order) :-0.1526399E+00  (-0.1525503E+00)
 number of electron       8.0000000 magnetization 
 augmentation part        8.0000000 magnetization 

 Free energy of the ion-electron system (eV)
  ---------------------------------------------------
  alpha Z        PSCENC =         3.52644062
  Ewald energy   TEWEN  =      -248.97122806
  -Hartree energ DENC   =        -2.92696563
  -exchange      EXHF   =         0.00000000
  -V(xc)+E(xc)   XCENC  =       -18.95220955
  PAW double counting   =       176.24759923     -141.06103558
  entropy T*S    EENTRO =        -0.00464266
  eigenvalues    EBANDS =        16.64906476
  atomic energy  EATOM  =       206.13192747
  Solvation  Ediel_sol  =         0.00000000
  ---------------------------------------------------
  free energy    TOTEN  =        -9.36104941 eV

  energy without entropy =       -9.35640675  energy(sigma->0) =       -9.35872808


--------------------------------------------------------------------------------------------------------




----------------------------------------- Iteration    1(   4)  ---------------------------------------


     EDDAV:  cpu time    2.7236: real time    2.3176
       DOS:  cpu time    0.0020: real time    0.0011
    --------------------------------------------
      LOOP:  cpu time    2.7286: real time    2.3217

 eigenvalue-minimisations  :   768
 total energy-change (2. order) :-0.4559379E-03  (-0.4559339E-03)
 number of electron       8.0000000 magnetization 
 augmentation part        8.0000000 magnetization 

 Free energy of the ion-electron system (eV)
  ---------------------------------------------------
  alpha Z        PSCENC =         3.52644062
  Ewald energy   TEWEN  =      -248.97122806
  -Hartree energ DENC   =        -2.92696563
  -exchange      EXHF   =         0.00000000
  -V(xc)+E(xc)   XCENC  =       -18.95220955
  PAW double counting   =       176.24759923     -141.06103558
  entropy T*S    EENTRO =        -0.00464563
  eigenvalues    EBANDS =        16.64861179
  atomic energy  EATOM  =       206.13192747
  Solvation  Ediel_sol  =         0.00000000
  ---------------------------------------------------
  free energy    TOTEN  =        -9.36150534 eV

  energy without entropy =       -9.35685971  energy(sigma->0) =       -9.35918253


--------------------------------------------------------------------------------------------------------




----------------------------------------- Iteration    1(   5)  ---------------------------------------


     EDDAV:  cpu time    2.5616: real time    1.9162
       DOS:  cpu time    0.0020: real time    0.0020
    CHARGE:  cpu time    0.0600: real time    0.0690
    MIXING:  cpu time    0.0060: real time    0.0128
    --------------------------------------------
      LOOP:  cpu time    2.6426: real time    2.0098

 eigenvalue-minimisations  :   784
 total energy-change (2. order) :-0.1710577E-05  (-0.1709742E-05)
 number of electron       7.9999999 magnetization 
 augmentation part       -0.5024023 magnetization 

 Broyden mixing:
  rms(total) = 0.21990E+00    rms(broyden)= 0.21990E+00
  rms(prec ) = 0.28260E+00
  weight for this iteration     100.00

 Free energy of the ion-electron system (eV)
  ---------------------------------------------------
  alpha Z        PSCENC =         3.52644062
  Ewald energy   TEWEN  =      -248.97122806
  -Hartree energ DENC   =        -2.92696563
  -exchange      EXHF   =         0.00000000
  -V(xc)+E(xc)   XCENC  =       -18.95220955
  PAW double counting   =       176.24759923     -141.06103558
  entropy T*S    EENTRO =        -0.00464563
  eigenvalues    EBANDS =        16.64861008
  atomic energy  EATOM  =       206.13192747
  Solvation  Ediel_sol  =         0.00000000
  ---------------------------------------------------
  free energy    TOTEN  =        -9.36150706 eV

  energy without entropy =       -9.35686142  energy(sigma->0) =       -9.35918424


--------------------------------------------------------------------------------------------------------




----------------------------------------- Iteration    1(   6)  ---------------------------------------


    POTLOK:  cpu time    0.0950: real time    0.1035
    SETDIJ:  cpu time    0.0040: real time    0.0048
     EDDAV:  cpu time    2.0297: real time    2.1410
       DOS:  cpu time    0.0020: real time    0.0015
    CHARGE:  cpu time    0.0560: real time    0.0370
    MIXING:  cpu time    0.0090: real time    0.0098
    --------------------------------------------
      LOOP:  cpu time    2.1987: real time    2.3007

 eigenvalue-minimisations  :   616
 total energy-change (2. order) : 0.2005187E-01  (-0.9723828E-03)
 number of electron       7.9999999 magnetization 
 augmentation part       -0.5070838 magnetization 

 Broyden mixing:
  rms(total) = 0.11893E+00    rms(broyden)= 0.11893E+00
  rms(prec ) = 0.15837E+00
  weight for this iteration     100.00

 eigenvalues of (default mixing * dielectric matrix)
  average eigenvalue GAMMA=   2.1528
  2.1528

 Free energy of the ion-electron system (eV)
  ---------------------------------------------------
  alpha Z        PSCENC =         3.52644062
  Ewald energy   TEWEN  =      -248.97122806
  -Hartree energ DENC   =        -2.62559166
  -exchange      EXHF   =         0.00000000
  -V(xc)+E(xc)   XCENC  =       -18.96600044
  PAW double counting   =       252.28401034     -217.06587200
  entropy T*S    EENTRO =        -0.00457063
  eigenvalues    EBANDS =        16.34942918
  atomic energy  EATOM  =       206.13192747
  Solvation  Ediel_sol  =         0.00000000
  ---------------------------------------------------
  free energy    TOTEN  =        -9.34145518 eV

  energy without entropy =       -9.33688455  energy(sigma->0) =       -9.33916986


--------------------------------------------------------------------------------------------------------




----------------------------------------- Iteration    1(   7)  ---------------------------------------


    POTLOK:  cpu time    0.0830: real time    0.0640
    SETDIJ:  cpu time    0.0140: real time    0.0102
     EDDAV:  cpu time    2.4886: real time    1.6026
       DOS:  cpu time    0.0020: real time    0.0010
    CHARGE:  cpu time    0.0580: real time    0.0339
    MIXING:  cpu time    0.0100: real time    0.0059
    --------------------------------------------
      LOOP:  cpu time    2.6586: real time    1.7206

 eigenvalue-minimisations  :   688
 total energy-change (2. order) : 0.1036654E-01  (-0.1727164E-02)
 number of electron       7.9999999 magnetization 
 augmentation part       -0.5134896 magnetization 

 Broyden mixing:
  rms(total) = 0.13291E-01    rms(broyden)= 0.13291E-01
  rms(prec ) = 0.15760E-01
  weight for this iteration     100.00

 eigenvalues of (default mixing * dielectric matrix)
  average eigenvalue GAMMA=   2.4215
  2.4215  2.4215

 Free energy of the ion-electron system (eV)
  ---------------------------------------------------
  alpha Z        PSCENC =         3.52644062
  Ewald energy   TEWEN  =      -248.97122806
  -Hartree energ DENC   =        -2.26514355
  -exchange      EXHF   =         0.00000000
  -V(xc)+E(xc)   XCENC  =       -18.97856251
  PAW double counting   =       365.27879493     -330.02739737
  entropy T*S    EENTRO =        -0.00447689
  eigenvalues    EBANDS =        15.97855672
  atomic energy  EATOM  =       206.13192747
  Solvation  Ediel_sol  =         0.00000000
  ---------------------------------------------------
  free energy    TOTEN  =        -9.33108864 eV

  energy without entropy =       -9.32661175  energy(sigma->0) =       -9.32885019


--------------------------------------------------------------------------------------------------------




----------------------------------------- Iteration    1(   8)  ---------------------------------------


    POTLOK:  cpu time    0.1010: real time    0.0593
    SETDIJ:  cpu time    0.0100: real time    0.0072
     EDDAV:  cpu time    2.7146: real time    2.6497
       DOS:  cpu time    0.0020: real time    0.0027
    CHARGE:  cpu time    0.0580: real time    0.0679
    MIXING:  cpu time    0.0050: real time    0.0052
    --------------------------------------------
      LOOP:  cpu time    2.8936: real time    2.7950

 eigenvalue-minimisations  :   816
 total energy-change (2. order) : 0.2433058E-04  (-0.1521198E-04)
 number of electron       7.9999999 magnetization 
 augmentation part       -0.5139181 magnetization 

 Broyden mixing:
  rms(total) = 0.17423E-02    rms(broyden)= 0.17422E-02
  rms(prec ) = 0.20520E-02
  weight for this iteration     100.00

 eigenvalues of (default mixing * dielectric matrix)
  average eigenvalue GAMMA=   2.0259
  0.9474  2.7751  2.3551

 Free energy of the ion-electron system (eV)
  ---------------------------------------------------
  alpha Z        PSCENC =         3.52644062
  Ewald energy   TEWEN  =      -248.97122806
  -Hartree energ DENC   =        -2.24519226
  -exchange      EXHF   =         0.00000000
  -V(xc)+E(xc)   XCENC  =       -18.97808167
  PAW double counting   =       349.41663406     -314.17609784
  entropy T*S    EENTRO =        -0.00447568
  eigenvalues    EBANDS =        15.96900905
  atomic energy  EATOM  =       206.13192747
  Solvation  Ediel_sol  =         0.00000000
  ---------------------------------------------------
  free energy    TOTEN  =        -9.33106431 eV

  energy without entropy =       -9.32658862  energy(sigma->0) =       -9.32882647


--------------------------------------------------------------------------------------------------------




----------------------------------------- Iteration    1(   9)  ---------------------------------------


    POTLOK:  cpu time    0.0890: real time    0.1004
    SETDIJ:  cpu time    0.0080: real time    0.0076
     EDDAV:  cpu time    2.1377: real time    1.5642
       DOS:  cpu time    0.0020: real time    0.0012
    --------------------------------------------
      LOOP:  cpu time    2.2377: real time    1.6758

 eigenvalue-minimisations  :   480
 total energy-change (2. order) :-0.1320936E-05  (-0.1626956E-06)
 number of electron       7.9999999 magnetization 
 augmentation part       -0.5139181 magnetization 

 Free energy of the ion-electron system (eV)
  ---------------------------------------------------
  alpha Z        PSCENC =         3.52644062
  Ewald energy   TEWEN  =      -248.97122806
  -Hartree energ DENC   =        -2.24236556
  -exchange      EXHF   =         0.00000000
  -V(xc)+E(xc)   XCENC  =       -18.97818061
  PAW double counting   =       347.07761701     -311.83801548
  entropy T*S    EENTRO =        -0.00447544
  eigenvalues    EBANDS =        15.96721441
  atomic energy  EATOM  =       206.13192747
  Solvation  Ediel_sol  =         0.00000000
  ---------------------------------------------------
  free energy    TOTEN  =        -9.33106563 eV

  energy without entropy =       -9.32659019  energy(sigma->0) =       -9.32882791


--------------------------------------------------------------------------------------------------------




 average (electrostatic) potential at core
  the test charge radii are     0.9892
  (the norm of the test charge is              1.0000)
       1 -83.3254       2 -83.3254
 
 
 
 E-fermi :   6.7809     XC(G=0): -10.1040     alpha+bet :-12.5627


 k-point     1 :       0.0833    0.0833    0.0833
  band No.  band energies     occupation 
      1      -4.7703      2.00000
      2      -0.0733      2.00000
      3       2.4737      2.00000
      4      10.0559      0.00000
      5      10.8522      0.00000
      6      13.6157      0.00000
      7      14.1739      0.00000
      8      14.2463      0.00000

 k-point     2 :       0.2500    0.0833    0.0833
  band No.  band energies     occupation 
      1      -3.3118      2.00000
      2       1.3218      2.00000
      3       3.8260      2.00000
      4       5.4758      2.00000
      5       8.6690      0.00000
      6       9.8344      0.00000
      7      11.8231      0.00000
      8      12.7714      0.00000

 k-point     3 :       0.4167    0.0833    0.0833
  band No.  band energies     occupation 
      1      -0.8272      2.00000
      2       1.1540      2.00000
      3       3.9697      2.00000
      4       5.7013      2.00000
      5       6.2032      2.00000
      6       8.0359      0.00000
      7       8.4143      0.00000
      8      12.0139      0.00000

 k-point     4 :      -0.4167    0.0833    0.0833
  band No.  band energies     occupation 
      1      -2.1673      2.00000
      2       2.2110      2.00000
      3       3.4367      2.00000
      4       4.9681      2.00000
      5       7.4902      0.00000
      6       8.4109      0.00000
      7      10.0222      0.00000
      8      12.2657      0.00000

 k-point     5 :      -0.2500    0.0833    0.0833
  band No.  band energies     occupation 
      1      -4.1842      2.00000
      2       0.4937      2.00000
      3       3.0259      2.00000
      4       7.8054      0.00000
      5       9.5686      0.00000
      6      11.8964      0.00000
      7      13.2460      0.00000
      8      13.5838      0.00000

 k-point     6 :      -0.0833    0.0833    0.0833
  band No.  band energies     occupation 
      1      -5.0645      2.00000
      2      -0.3594      2.00000
      3       2.1951      2.00000
      4      11.5189      0.00000
      5      12.3779      0.00000
      6      13.9830      0.00000
      7      14.4846      0.00000
      8      14.8265      0.00000

 k-point     7 :       0.2500    0.2500    0.0833
  band No.  band energies     occupation 
      1      -1.3175      2.00000
      2       2.7365      2.00000
      3       4.0785      2.00000
      4       4.6770      2.00000
      5       5.7824      2.00000
      6       8.1340      0.00000
      7       8.8968      0.00000
      8      10.0529      0.00000

 k-point     8 :       0.4167    0.2500    0.0833
  band No.  band energies     occupation 
      1       0.0102      2.00000
      2       1.7909      2.00000
      3       3.9366      2.00000
      4       4.9787      2.00000
      5       6.5196      1.99978
      6       7.0427      0.00021
      7       8.2112      0.00000
      8       8.9483      0.00000

 k-point     9 :      -0.4167    0.2500    0.0833
  band No.  band energies     occupation 
      1      -2.4483      2.00000
      2       2.0982      2.00000
      3       4.3649      2.00000
      4       4.9038      2.00000
      5       6.4687      1.99999
      6       8.9846      0.00000
      7      10.5422      0.00000
      8      11.1589      0.00000

 k-point    10 :      -0.2500    0.2500    0.0833
  band No.  band energies     occupation 
      1      -3.8926      2.00000
      2       0.7730      2.00000
      3       3.2974      2.00000
      4       6.5472      1.99905
      5      10.5287      0.00000
      6      10.5755      0.00000
      7      12.5794      0.00000
      8      13.6895      0.00000

 k-point    11 :       0.4167    0.4167    0.0833
  band No.  band energies     occupation 
      1      -0.0700      2.00000
      2       0.9506      2.00000
      3       4.6199      2.00000
      4       5.5125      2.00000
      5       5.9640      2.00000
      6       6.9566      0.01297
      7       8.1557      0.00000
      8      10.2043      0.00000

 k-point    12 :      -0.4167    0.4167    0.0833
  band No.  band energies     occupation 
      1      -1.6144      2.00000
      2       1.8231      2.00000
      3       3.3003      2.00000
      4       5.4380      2.00000
      5       6.5786      1.99579
      6       9.0650      0.00000
      7       9.5111      0.00000
      8      12.1764      0.00000

 k-point    13 :       0.0833    0.0833    0.2500
  band No.  band energies     occupation 
      1      -4.4394      2.00000
      2      -1.5241      2.00000
      3       4.5166      2.00000
      4      10.3427      0.00000
      5      11.0882      0.00000
      6      12.1765      0.00000
      7      13.0182      0.00000
      8      13.4860      0.00000

 k-point    14 :       0.2500    0.0833    0.2500
  band No.  band energies     occupation 
      1      -2.9839      2.00000
      2      -0.1006      2.00000
      3       5.4424      2.00000
      4       6.1515      2.00000
      5       8.2994      0.00000
      6       9.2086      0.00000
      7      11.5708      0.00000
      8      12.7563      0.00000

 k-point    15 :       0.4167    0.0833    0.2500
  band No.  band energies     occupation 
      1      -0.5096      2.00000
      2       1.3549      2.00000
      3       2.6307      2.00000
      4       4.4178      2.00000
      5       7.9115      0.00000
      6       8.5757      0.00000
      7      10.0142      0.00000
      8      11.1276      0.00000

 k-point    16 :      -0.4167    0.0833    0.2500
  band No.  band energies     occupation 
      1      -1.8426      2.00000
      2       0.9798      2.00000
      3       3.5377      2.00000
      4       6.1791      2.00000
      5       7.0309      0.00041
      6       8.6138      0.00000
      7      10.9421      0.00000
      8      11.8696      0.00000

 k-point    17 :      -0.2500    0.0833    0.2500
  band No.  band energies     occupation 
      1      -3.8544      2.00000
      2      -0.9499      2.00000
      3       5.0430      2.00000
      4       8.1150      0.00000
      5       9.7975      0.00000
      6      10.7226      0.00000
      7      12.3283      0.00000
      8      12.8898      0.00000

 k-point    18 :      -0.0833    0.0833    0.2500
  band No.  band energies     occupation 
      1      -4.7331      2.00000
      2      -1.8129      2.00000
      3       4.2460      2.00000
      4      11.7629      0.00000
      5      12.1819      0.00000
      6      12.6352      0.00000
      7      13.6816      0.00000
      8      14.4470      0.00000

 k-point    19 :       0.2500    0.2500    0.2500
  band No.  band energies     occupation 
      1      -0.9959      2.00000
      2       1.7525      2.00000
      3       3.9210      2.00000
      4       4.9649      2.00000
      5       6.6900      1.80177
      6       7.3237      0.00000
      7       8.2742      0.00000
      8      11.7977      0.00000

 k-point    20 :       0.4167    0.2500    0.2500
  band No.  band energies     occupation 
      1       0.3217      2.00000
      2       1.9828      2.00000
      3       3.4559      2.00000
      4       4.3872      2.00000
      5       5.2079      2.00000
      6       7.0365      0.00030
      7       9.0971      0.00000
      8      10.7491      0.00000

 k-point    21 :      -0.4167    0.2500    0.2500
  band No.  band energies     occupation 
      1      -2.1226      2.00000
      2       0.7286      2.00000
      3       4.7546      2.00000
      4       6.5703      1.99711
      5       6.8105      0.67641
      6       7.7394      0.00000
      7       9.5309      0.00000
      8      12.4988      0.00000

 k-point    22 :      -0.2500    0.2500    0.2500
  band No.  band energies     occupation 
      1      -3.5634      2.00000
      2      -0.6652      2.00000
      3       5.2789      2.00000
      4       6.8885      0.12828
      5       9.4218      0.00000
      6      10.8110      0.00000
      7      12.3705      0.00000
      8      13.1369      0.00000

 k-point    23 :       0.4167    0.4167    0.2500
  band No.  band energies     occupation 
      1       0.2407      2.00000
      2       1.2211      2.00000
      3       3.2821      2.00000
      4       4.2106      2.00000
      5       6.1873      2.00000
      6       8.6703      0.00000
      7       8.9447      0.00000
      8      10.3551      0.00000

 k-point    24 :      -0.4167    0.4167    0.2500
  band No.  band energies     occupation 
      1      -1.2921      2.00000
      2       1.3912      2.00000
      3       2.5956      2.00000
      4       5.1739      2.00000
      5       7.5066      0.00000
      6       9.7987      0.00000
      7      10.6852      0.00000
      8      12.2078      0.00000

 k-point    25 :       0.0833    0.0833    0.4167
  band No.  band energies     occupation 
      1      -3.7806      2.00000
      2      -2.8016      2.00000
      3       6.9555      0.01359
      4       9.5858      0.00000
      5      10.8942      0.00000
      6      11.4487      0.00000
      7      12.1439      0.00000
      8      12.6158      0.00000

 k-point    26 :       0.2500    0.0833    0.4167
  band No.  band energies     occupation 
      1      -2.3312      2.00000
      2      -1.3623      2.00000
      3       6.2474      2.00000
      4       7.1404      0.00000
      5       8.3520      0.00000
      6       9.6506      0.00000
      7      10.5174      0.00000
      8      11.1787      0.00000

 k-point    27 :       0.4167    0.0833    0.4167
  band No.  band energies     occupation 
      1       0.1136      2.00000
      2       0.9715      2.00000
      3       2.3926      2.00000
      4       3.2290      2.00000
      5       8.7765      0.00000
      6       9.5990      0.00000
      7      10.5776      0.00000
      8      11.8561      0.00000

 k-point    28 :      -0.4167    0.0833    0.4167
  band No.  band energies     occupation 
      1      -1.1974      2.00000
      2      -0.2435      2.00000
      3       4.1309      2.00000
      4       5.0436      2.00000
      5       8.8970      0.00000
      6       9.4338      0.00000
      7      10.1371      0.00000
      8      11.7251      0.00000

 k-point    29 :      -0.2500    0.0833    0.4167
  band No.  band energies     occupation 
      1      -3.1979      2.00000
      2      -2.2224      2.00000
      3       7.3935      0.00000
      4       8.7330      0.00000
      5       9.3784      0.00000
      6      10.0138      0.00000
      7      10.9243      0.00000
      8      11.4830      0.00000

 k-point    30 :      -0.0833    0.0833    0.4167
  band No.  band energies     occupation 
      1      -4.0732      2.00000
      2      -3.0927      2.00000
      3       6.7033      1.72760
      4       9.3907      0.00000
      5      12.3178      0.00000
      6      13.0150      0.00000
      7      13.1278      0.00000
      8      13.7891      0.00000

 k-point    31 :       0.2500    0.2500    0.4167
  band No.  band energies     occupation 
      1      -0.3580      2.00000
      2       0.5794      2.00000
      3       4.4590      2.00000
      4       5.2217      2.00000
      5       5.8170      2.00000
      6       6.5386      1.99939
      7      10.2474      0.00000
      8      12.2519      0.00000

 k-point    32 :       0.4167    0.2500    0.4167
  band No.  band energies     occupation 
      1       0.9275      2.00000
      2       1.7208      2.00000
      3       3.1463      2.00000
      4       3.9103      2.00000
      5       5.0571      2.00000
      6       5.9257      2.00000
      7      11.2379      0.00000
      8      12.3037      0.00000

 k-point    33 :      -0.4167    0.2500    0.4167
  band No.  band energies     occupation 
      1      -1.4748      2.00000
      2      -0.5149      2.00000
      3       5.3760      2.00000
      4       6.2549      2.00000
      5       7.4241      0.00000
      6       8.1614      0.00000
      7       9.4366      0.00000
      8      11.6798      0.00000

 k-point    34 :      -0.2500    0.2500    0.4167
  band No.  band energies     occupation 
      1      -2.9080      2.00000
      2      -1.9345      2.00000
      3       7.1834      0.00000
      4       7.8702      0.00000
      5       8.3932      0.00000
      6      10.4206      0.00000
      7      11.3665      0.00000
      8      12.1684      0.00000

 k-point    35 :       0.4167    0.4167    0.4167
  band No.  band energies     occupation 
      1       0.8362      2.00000
      2       1.4571      2.00000
      3       2.4396      2.00000
      4       3.0456      2.00000
      5       6.7833      0.97312
      6       7.6609      0.00000
      7      11.0919      0.00000
      8      12.0016      0.00000

 k-point    36 :      -0.4167    0.4167    0.4167
  band No.  band energies     occupation 
      1      -0.6533      2.00000
      2       0.2814      2.00000
      3       3.0785      2.00000
      4       3.9842      2.00000
      5       9.7232      0.00000
      6      10.3666      0.00000
      7      11.1927      0.00000
      8      11.3894      0.00000


--------------------------------------------------------------------------------------------------------


 soft charge-density along one line, spin component           1
         0         1         2         3         4         5         6         7         8         9
 total charge-density along one line
 
 pseudopotential strength for first ion, spin component:           1
 18.354  25.607   0.000   0.000  -0.000   0.000   0.000  -0.000
 25.607  35.732   0.000   0.000  -0.000   0.000   0.000  -0.000
  0.000   0.000   4.149  -0.000  -0.000   7.733  -0.000  -0.000
  0.000   0.000  -0.000   4.150   0.000  -0.000   7.733   0.000
 -0.000  -0.000  -0.000   0.000   4.149  -0.000   0.000   7.733
  0.000   0.000   7.733  -0.000  -0.000  14.422  -0.000  -0.000
  0.000   0.000  -0.000   7.733   0.000  -0.000  14.422   0.000
 -0.000  -0.000  -0.000   0.000   7.733  -0.000   0.000  14.422
 total augmentation occupancy for first ion, spin component:           1
  3.225  -1.052   0.000   0.000   0.000  -0.000   0.000   0.000
 -1.052   0.812   0.000   0.000   0.000   0.000   0.000   0.000
 -0.000  -0.000   1.574   0.000   0.000  -0.306   0.000   0.000
  0.000   0.000   0.000   1.549   0.000  -0.000  -0.305  -0.000
  0.000   0.000   0.000   0.000   1.574   0.000   0.000  -0.306
 -0.000  -0.000  -0.306   0.000   0.000   0.069   0.000   0.000
  0.000   0.000  -0.000  -0.305  -0.000   0.000   0.069   0.000
  0.000   0.000  -0.000   0.000  -0.306   0.000   0.000   0.069


------------------------ aborting loop because EDIFF is reached ----------------------------------------


    CHARGE:  cpu time    0.0510: real time    0.0311
    FORLOC:  cpu time    0.0020: real time    0.0013
    FORNL :  cpu time    0.0640: real time    0.0393
    STRESS:  cpu time    0.3609: real time    0.2318
    FORCOR:  cpu time    0.0520: real time    0.0517
    FORHAR:  cpu time    0.0100: real time    0.0106
    MIXING:  cpu time    0.0080: real time    0.0081
    OFIELD:  cpu time    0.0000: real time    0.0000

  FORCE on cell =-STRESS in cart. coord.  units (eV):
  Direction    XX          YY          ZZ          XY          YZ          ZX
  --------------------------------------------------------------------------------------
  Alpha Z     3.52644     3.52644     3.52644
  Ewald     -83.04726   -83.04726   -82.87688    -0.00000     0.00000     0.00000
  Hartree     0.74233     0.74233     0.75735    -0.00000    -0.00000    -0.00000
  E(xc)     -23.86509   -23.86509   -23.87001    -0.00000     0.00000    -0.00000
  Local     -15.24279   -15.24279   -15.08823    -0.00000     0.00000    -0.00000
  n-local    77.00430    77.03560    77.09192    -0.08215    -0.05552     0.06701
  augment   -13.15578   -13.15577   -13.09577     0.00000     0.00000     0.00000
  Kinetic    62.86849    39.06688    49.98336     7.59214    -0.11711    -0.25397
  Fock        0.00000     0.00000     0.00000     0.00000     0.00000     0.00000
  -------------------------------------------------------------------------------------
  Total      -3.05451    -3.05451    -3.57181     0.00000    -0.00000     0.00000
  in kB    -128.16654  -128.16654  -149.87232     0.00000    -0.00000     0.00000
  external pressure =     -135.40 kB  Pullay stress =        0.00 kB


 VOLUME and BASIS-vectors are now :
 -----------------------------------------------------------------------------
  energy-cutoff  :      450.00
  volume of cell :       38.18
      direct lattice vectors                 reciprocal lattice vectors
     3.000000000  0.000000000  0.000000000     0.333333333  0.192450090  0.000000000
    -1.500000000  2.598076211  0.000000000     0.000000000  0.384900179  0.000000000
     0.000000000  0.000000000  4.898970000     0.000000000  0.000000000  0.204124540

  length of vectors
     3.000000000  3.000000000  4.898970000     0.384900179  0.384900179  0.204124540


 FORCES acting on ions
    electron-ion (+dipol)            ewald-force                    non-local-force                 convergence-correction
 -----------------------------------------------------------------------------------------------
   -.614E-09 0.355E-09 0.389E-15   -.773E-13 0.583E-13 -.310E-14   -.347E-16 -.278E-16 0.000E+00   0.638E-09 -.368E-09 0.914E-14
   0.614E-09 -.355E-09 -.813E-14   0.760E-13 -.577E-13 0.310E-14   0.226E-16 0.312E-16 0.000E+00   -.638E-09 0.368E-09 -.936E-14
 -----------------------------------------------------------------------------------------------
   0.371E-14 -.193E-13 -.774E-14   -.129E-14 0.662E-15 0.000E+00   -.121E-16 0.347E-17 0.000E+00   0.209E-15 0.161E-15 -.221E-15
 
 
 POSITION                                       TOTAL-FORCE (eV/Angst)
 -----------------------------------------------------------------------------------
      0.00000      0.00000      0.00000         0.000000      0.000000      0.000000
     -0.00000      1.73205      2.44949        -0.000000      0.000000      0.000000
 -----------------------------------------------------------------------------------
    total drift:                                0.000000     -0.000000     -0.000000


--------------------------------------------------------------------------------------------------------



  FREE ENERGIE OF THE ION-ELECTRON SYSTEM (eV)
  ---------------------------------------------------
  free  energy   TOTEN  =        -9.33106563 eV

  energy  without entropy=       -9.32659019  energy(sigma->0) =       -9.32882791
 


--------------------------------------------------------------------------------------------------------


    POTLOK:  cpu time    0.0300: real time    0.0298


--------------------------------------------------------------------------------------------------------




--------------------------------------------------------------------------------------------------------


    WAVPRE:  cpu time    0.0040: real time    0.0047
 FEWALD executed in parallel
    FEWALD:  cpu time    0.0010: real time    0.0001
    GENKIN:  cpu time    0.0140: real time    0.0150
    ORTHCH:  cpu time    0.2590: real time    0.1794
     LOOP+:  cpu time   23.6854: real time   18.8261


----------------------------------------- Iteration    2(   1)  ---------------------------------------


    POTLOK:  cpu time    0.0870: real time    0.0652
    SETDIJ:  cpu time    0.0130: real time    0.0063
     EDDAV:  cpu time    2.3866: real time    2.5515
       DOS:  cpu time    0.0020: real time    0.0019
    CHARGE:  cpu time    0.0540: real time    0.0653
    MIXING:  cpu time    0.0040: real time    0.0040
    --------------------------------------------
      LOOP:  cpu time    2.5476: real time    2.6956

 eigenvalue-minimisations  :   704
 total energy-change (2. order) :-0.6770313E-02  (-0.9269118E-02)
 number of electron       8.0000000 magnetization 
 augmentation part       -0.5137194 magnetization 

 Broyden mixing:
  rms(total) = 0.14666E-01    rms(broyden)= 0.14666E-01
  rms(prec ) = 0.34553E-01
  weight for this iteration     100.00

 Free energy of the ion-electron system (eV)
  ---------------------------------------------------
  alpha Z        PSCENC =         3.52644062
  Ewald energy   TEWEN  =      -248.96442820
  -Hartree energ DENC   =        -2.24218905
  -exchange      EXHF   =         0.00000000
  -V(xc)+E(xc)   XCENC  =       -18.97851310
  PAW double counting   =       347.52739005     -312.28686026
  entropy T*S    EENTRO =        -0.00429830
  eigenvalues    EBANDS =        15.95269616
  atomic energy  EATOM  =       206.13192747
  Solvation  Ediel_sol  =         0.00000000
  ---------------------------------------------------
  free energy    TOTEN  =        -9.33783462 eV

  energy without entropy =       -9.33353632  energy(sigma->0) =       -9.33568547


--------------------------------------------------------------------------------------------------------




----------------------------------------- Iteration    2(   2)  ---------------------------------------


    POTLOK:  cpu time    0.0870: real time    0.1152
    SETDIJ:  cpu time    0.0080: real time    0.0094
     EDDAV:  cpu time    2.1087: real time    1.8733
       DOS:  cpu time    0.0010: real time    0.0011
    CHARGE:  cpu time    0.0520: real time    0.0393
    MIXING:  cpu time    0.0120: real time    0.0078
    --------------------------------------------
      LOOP:  cpu time    2.2717: real time    2.0493

 eigenvalue-minimisations  :   632
 total energy-change (2. order) : 0.4511255E-03  (-0.1686679E-03)
 number of electron       8.0000000 magnetization 
 augmentation part       -0.5139031 magnetization 

 Broyden mixing:
  rms(total) = 0.86356E-02    rms(broyden)= 0.86356E-02
  rms(prec ) = 0.20524E-01
  weight for this iteration     100.00

 eigenvalues of (default mixing * dielectric matrix)
  average eigenvalue GAMMA=   2.2397
  2.2397

 Free energy of the ion-electron system (eV)
  ---------------------------------------------------
  alpha Z        PSCENC =         3.52644062
  Ewald energy   TEWEN  =      -248.96442820
  -Hartree energ DENC   =        -2.24156837
  -exchange      EXHF   =         0.00000000
  -V(xc)+E(xc)   XCENC  =       -18.97862650
  PAW double counting   =       347.42658764     -312.18579950
  entropy T*S    EENTRO =        -0.00425643
  eigenvalues    EBANDS =        15.95233978
  atomic energy  EATOM  =       206.13192747
  Solvation  Ediel_sol  =         0.00000000
  ---------------------------------------------------
  free energy    TOTEN  =        -9.33738350 eV

  energy without entropy =       -9.33312707  energy(sigma->0) =       -9.33525528


--------------------------------------------------------------------------------------------------------




----------------------------------------- Iteration    2(   3)  ---------------------------------------


    POTLOK:  cpu time    0.0790: real time    0.0595
    SETDIJ:  cpu time    0.0060: real time    0.0038
     EDDAV:  cpu time    2.4846: real time    1.7184
       DOS:  cpu time    0.0030: real time    0.0011
    CHARGE:  cpu time    0.0650: real time    0.0531
    MIXING:  cpu time    0.0020: real time    0.0019
    --------------------------------------------
      LOOP:  cpu time    2.6416: real time    1.8402

 eigenvalue-minimisations  :   704
 total energy-change (2. order) : 0.3011412E-03  (-0.8147191E-04)
 number of electron       8.0000000 magnetization 
 augmentation part       -0.5139310 magnetization 

 Broyden mixing:
  rms(total) = 0.10383E-02    rms(broyden)= 0.10383E-02
  rms(prec ) = 0.18459E-02
  weight for this iteration     100.00

 eigenvalues of (default mixing * dielectric matrix)
  average eigenvalue GAMMA=   1.6205
  0.9501  2.2908

 Free energy of the ion-electron system (eV)
  ---------------------------------------------------
  alpha Z        PSCENC =         3.52644062
  Ewald energy   TEWEN  =      -248.96442820
  -Hartree energ DENC   =        -2.24275246
  -exchange      EXHF   =         0.00000000
  -V(xc)+E(xc)   XCENC  =       -18.97865455
  PAW double counting   =       347.12521764     -311.88445806
  entropy T*S    EENTRO =        -0.00419665
  eigenvalues    EBANDS =        15.95382184
  atomic energy  EATOM  =       206.13192747
  Solvation  Ediel_sol  =         0.00000000
  ---------------------------------------------------
  free energy    TOTEN  =        -9.33708235 eV

  energy without entropy =       -9.33288570  energy(sigma->0) =       -9.33498403


--------------------------------------------------------------------------------------------------------




----------------------------------------- Iteration    2(   4)  ---------------------------------------


    POTLOK:  cpu time    0.0810: real time    0.0654
    SETDIJ:  cpu time    0.0050: real time    0.0037
     EDDAV:  cpu time    1.8547: real time    2.1352
       DOS:  cpu time    0.0030: real time    0.0045
    --------------------------------------------
      LOOP:  cpu time    1.9487: real time    2.2122

 eigenvalue-minimisations  :   616
 total energy-change (2. order) :-0.1807433E-05  (-0.3294657E-05)
 number of electron       8.0000000 magnetization 
 augmentation part       -0.5139310 magnetization 

 Free energy of the ion-electron system (eV)
  ---------------------------------------------------
  alpha Z        PSCENC =         3.52644062
  Ewald energy   TEWEN  =      -248.96442820
  -Hartree energ DENC   =        -2.24256976
  -exchange      EXHF   =         0.00000000
  -V(xc)+E(xc)   XCENC  =       -18.97868475
  PAW double counting   =       347.10994230     -311.86918366
  entropy T*S    EENTRO =        -0.00419948
  eigenvalues    EBANDS =        15.95367130
  atomic energy  EATOM  =       206.13192747
  Solvation  Ediel_sol  =         0.00000000
  ---------------------------------------------------
  free energy    TOTEN  =        -9.33708416 eV

  energy without entropy =       -9.33288468  energy(sigma->0) =       -9.33498442


--------------------------------------------------------------------------------------------------------




 average (electrostatic) potential at core
  the test charge radii are     0.9892
  (the norm of the test charge is              1.0000)
       1 -83.3280       2 -83.3280
 
 
 
 E-fermi :   6.8079     XC(G=0): -10.1042     alpha+bet :-12.5627


 k-point     1 :       0.0833    0.0833    0.0833
  band No.  band energies     occupation 
      1      -4.7746      2.00000
      2       0.0352      2.00000
      3       2.5391      2.00000
      4       9.9228      0.00000
      5      10.7347      0.00000
      6      13.5633      0.00000
      7      14.1241      0.00000
      8      14.3381      0.00000

 k-point     2 :       0.2500    0.0833    0.0833
  band No.  band energies     occupation 
      1      -3.3298      2.00000
      2       1.4116      2.00000
      3       3.8697      2.00000
      4       5.4032      2.00000
      5       8.5772      0.00000
      6       9.8418      0.00000
      7      11.8119      0.00000
      8      12.7764      0.00000

 k-point     3 :       0.4167    0.0833    0.0833
  band No.  band energies     occupation 
      1      -0.8739      2.00000
      2       1.1086      2.00000
      3       4.0305      2.00000
      4       5.7631      2.00000
      5       6.2338      2.00000
      6       7.9523      0.00000
      7       8.4268      0.00000
      8      12.0277      0.00000

 k-point     4 :      -0.4167    0.0833    0.0833
  band No.  band energies     occupation 
      1      -2.1968      2.00000
      2       2.2445      2.00000
      3       3.4161      2.00000
      4       5.0129      2.00000
      5       7.5059      0.00000
      6       8.3405      0.00000
      7      10.0224      0.00000
      8      12.2768      0.00000

 k-point     5 :      -0.2500    0.0833    0.0833
  band No.  band energies     occupation 
      1      -4.1940      2.00000
      2       0.5956      2.00000
      3       3.0848      2.00000
      4       7.6990      0.00000
      5       9.4616      0.00000
      6      11.8824      0.00000
      7      13.2406      0.00000
      8      13.5930      0.00000

 k-point     6 :      -0.0833    0.0833    0.0833
  band No.  band energies     occupation 
      1      -5.0661      2.00000
      2      -0.2478      2.00000
      3       2.2636      2.00000
      4      11.3769      0.00000
      5      12.2291      0.00000
      6      13.8918      0.00000
      7      14.6508      0.00000
      8      14.7283      0.00000

 k-point     7 :       0.2500    0.2500    0.0833
  band No.  band energies     occupation 
      1      -1.3556      2.00000
      2       2.7184      2.00000
      3       4.0814      2.00000
      4       4.6257      2.00000
      5       5.8229      2.00000
      6       8.1488      0.00000
      7       8.9606      0.00000
      8      10.0596      0.00000

 k-point     8 :       0.4167    0.2500    0.0833
  band No.  band energies     occupation 
      1      -0.0447      2.00000
      2       1.7268      2.00000
      3       3.8958      2.00000
      4       5.0234      2.00000
      5       6.5639      1.99944
      6       7.0741      0.00017
      7       8.2508      0.00000
      8       8.9811      0.00000

 k-point     9 :      -0.4167    0.2500    0.0833
  band No.  band energies     occupation 
      1      -2.4747      2.00000
      2       2.1688      2.00000
      3       4.3210      2.00000
      4       4.9229      2.00000
      5       6.3952      2.00000
      6       9.0070      0.00000
      7      10.5600      0.00000
      8      11.1716      0.00000

 k-point    10 :      -0.2500    0.2500    0.0833
  band No.  band energies     occupation 
      1      -3.9051      2.00000
      2       0.8712      2.00000
      3       3.3524      2.00000
      4       6.4576      2.00000
      5      10.4004      0.00000
      6      10.5748      0.00000
      7      12.5479      0.00000
      8      13.6327      0.00000

 k-point    11 :       0.4167    0.4167    0.0833
  band No.  band energies     occupation 
      1      -0.1307      2.00000
      2       0.9103      2.00000
      3       4.6458      2.00000
      4       5.5937      2.00000
      5       5.9036      2.00000
      6       6.9866      0.01152
      7       8.1712      0.00000
      8      10.2441      0.00000

 k-point    12 :      -0.4167    0.4167    0.0833
  band No.  band energies     occupation 
      1      -1.6502      2.00000
      2       1.7799      2.00000
      3       3.3622      2.00000
      4       5.4766      2.00000
      5       6.6349      1.98561
      6       9.0728      0.00000
      7       9.3920      0.00000
      8      12.0795      0.00000

 k-point    13 :       0.0833    0.0833    0.2500
  band No.  band energies     occupation 
      1      -4.4377      2.00000
      2      -1.4635      2.00000
      3       4.6375      2.00000
      4      10.2166      0.00000
      5      10.9861      0.00000
      6      12.2667      0.00000
      7      13.0446      0.00000
      8      13.4222      0.00000

 k-point    14 :       0.2500    0.0833    0.2500
  band No.  band energies     occupation 
      1      -2.9959      2.00000
      2      -0.0555      2.00000
      3       5.4100      2.00000
      4       6.2117      2.00000
      5       8.2636      0.00000
      6       9.1247      0.00000
      7      11.5412      0.00000
      8      12.8370      0.00000

 k-point    15 :       0.4167    0.0833    0.2500
  band No.  band energies     occupation 
      1      -0.5506      2.00000
      2       1.3187      2.00000
      3       2.6437      2.00000
      4       4.4392      2.00000
      5       7.8959      0.00000
      6       8.5830      0.00000
      7      10.0596      0.00000
      8      11.1253      0.00000

 k-point    16 :      -0.4167    0.0833    0.2500
  band No.  band energies     occupation 
      1      -1.8662      2.00000
      2       1.0086      2.00000
      3       3.4822      2.00000
      4       6.1840      2.00000
      5       7.1111      0.00002
      6       8.5316      0.00000
      7      10.9262      0.00000
      8      11.9105      0.00000

 k-point    17 :      -0.2500    0.0833    0.2500
  band No.  band energies     occupation 
      1      -3.8581      2.00000
      2      -0.8953      2.00000
      3       5.1538      2.00000
      4       8.0182      0.00000
      5       9.7010      0.00000
      6      10.6738      0.00000
      7      12.3107      0.00000
      8      13.0242      0.00000

 k-point    18 :      -0.0833    0.0833    0.2500
  band No.  band energies     occupation 
      1      -4.7286      2.00000
      2      -1.7494      2.00000
      3       4.3708      2.00000
      4      11.6418      0.00000
      5      12.3842      0.00000
      6      12.4925      0.00000
      7      13.5884      0.00000
      8      14.3472      0.00000

 k-point    19 :       0.2500    0.2500    0.2500
  band No.  band energies     occupation 
      1      -1.0282      2.00000
      2       1.7653      2.00000
      3       3.8537      2.00000
      4       4.9199      2.00000
      5       6.6643      1.95778
      6       7.3698      0.00000
      7       8.3411      0.00000
      8      11.8638      0.00000

 k-point    20 :       0.4167    0.2500    0.2500
  band No.  band energies     occupation 
      1       0.2723      2.00000
      2       1.9278      2.00000
      3       3.4582      2.00000
      4       4.3499      2.00000
      5       5.2060      2.00000
      6       7.0520      0.00056
      7       9.1786      0.00000
      8      10.8197      0.00000

 k-point    21 :      -0.4167    0.2500    0.2500
  band No.  band energies     occupation 
      1      -2.1430      2.00000
      2       0.7632      2.00000
      3       4.6801      2.00000
      4       6.5505      1.99973
      5       6.8545      0.51034
      6       7.7206      0.00000
      7       9.5250      0.00000
      8      12.5771      0.00000

 k-point    22 :      -0.2500    0.2500    0.2500
  band No.  band energies     occupation 
      1      -3.5698      2.00000
      2      -0.6137      2.00000
      3       5.3759      2.00000
      4       6.8174      0.89390
      5       9.3870      0.00000
      6      10.6890      0.00000
      7      12.4387      0.00000
      8      13.0770      0.00000

 k-point    23 :       0.4167    0.4167    0.2500
  band No.  band energies     occupation 
      1       0.1856      2.00000
      2       1.1859      2.00000
      3       3.2834      2.00000
      4       4.2409      2.00000
      5       6.1185      2.00000
      6       8.6669      0.00000
      7       9.0233      0.00000
      8      10.4291      0.00000

 k-point    24 :      -0.4167    0.4167    0.2500
  band No.  band energies     occupation 
      1      -1.3221      2.00000
      2       1.3976      2.00000
      3       2.5678      2.00000
      4       5.1849      2.00000
      5       7.5950      0.00000
      6       9.6859      0.00000
      7      10.7340      0.00000
      8      12.1594      0.00000

 k-point    25 :       0.0833    0.0833    0.4167
  band No.  band energies     occupation 
      1      -3.7666      2.00000
      2      -2.7687      2.00000
      3       7.1166      0.00001
      4       9.7707      0.00000
      5      10.7828      0.00000
      6      11.3502      0.00000
      7      12.0582      0.00000
      8      12.5304      0.00000

 k-point    26 :       0.2500    0.0833    0.4167
  band No.  band energies     occupation 
      1      -2.3311      2.00000
      2      -1.3437      2.00000
      3       6.1809      2.00000
      4       7.0957      0.00005
      5       8.4766      0.00000
      6       9.5943      0.00000
      7      10.4853      0.00000
      8      11.3119      0.00000

 k-point    27 :       0.4167    0.0833    0.4167
  band No.  band energies     occupation 
      1       0.0836      2.00000
      2       0.9541      2.00000
      3       2.3733      2.00000
      4       3.2232      2.00000
      5       8.7037      0.00000
      6       9.5525      0.00000
      7      10.6804      0.00000
      8      11.9582      0.00000

 k-point    28 :      -0.4167    0.0833    0.4167
  band No.  band energies     occupation 
      1      -1.2092      2.00000
      2      -0.2376      2.00000
      3       4.0838      2.00000
      4       5.0146      2.00000
[...]

 k-point     2 :       0.2500    0.0833    0.0833
  band No.  band energies     occupation 
      1      -3.3809      2.00000
      2       1.6507      2.00000
      3       3.9997      2.00000
      4       5.2205      2.00000
      5       8.3181      0.00000
      6       9.8656      0.00000
      7      11.7905      0.00000
      8      12.7921      0.00000

 k-point     3 :       0.4167    0.0833    0.0833
  band No.  band energies     occupation 
      1      -1.0023      2.00000
      2       0.9836      2.00000
      3       4.1882      2.00000
      4       5.9340      2.00000
      5       6.3321      2.00000
      6       7.7271      0.00000
      7       8.4906      0.00000
      8      12.0694      0.00000

 k-point     4 :      -0.4167    0.0833    0.0833
  band No.  band energies     occupation 
      1      -2.2788      2.00000
      2       2.2892      2.00000
      3       3.4002      2.00000
      4       5.1611      2.00000
      5       7.4984      0.00000
      6       8.1956      0.00000
      7      10.0448      0.00000
      8      12.3107      0.00000

 k-point     5 :      -0.2500    0.0833    0.0833
  band No.  band energies     occupation 
      1      -4.2228      2.00000
      2       0.8690      2.00000
      3       3.2696      2.00000
      4       7.4101      0.00000
      5       9.1678      0.00000
      6      11.8392      0.00000
      7      13.2110      0.00000
      8      13.5897      0.00000

 k-point     6 :      -0.0833    0.0833    0.0833
  band No.  band energies     occupation 
      1      -5.0729      2.00000
      2       0.0526      2.00000
      3       2.4754      2.00000
      4      10.9895      0.00000
      5      11.8232      0.00000
      6      13.6269      0.00000
      7      14.4559      0.00000
      8      15.0338      0.00000

 k-point     7 :       0.2500    0.2500    0.0833
  band No.  band energies     occupation 
      1      -1.4608      2.00000
      2       2.6277      2.00000
      3       4.1255      2.00000
      4       4.4831      2.00000
      5       5.9618      2.00000
      6       8.1836      0.00000
      7       9.1367      0.00000
      8      10.1062      0.00000

 k-point     8 :       0.4167    0.2500    0.0833
  band No.  band energies     occupation 
      1      -0.1948      2.00000
      2       1.5512      2.00000
      3       3.7777      2.00000
      4       5.1419      2.00000
      5       6.6849      1.98720
      6       7.1823      0.00001
      7       8.3674      0.00000
      8       9.0973      0.00000

 k-point     9 :      -0.4167    0.2500    0.0833
  band No.  band energies     occupation 
      1      -2.5485      2.00000
      2       2.3469      2.00000
      3       4.1803      2.00000
      4       5.0285      2.00000
      5       6.1969      2.00000
      6       9.0615      0.00000
      7      10.6150      0.00000
      8      11.2266      0.00000

 k-point    10 :      -0.2500    0.2500    0.0833
  band No.  band energies     occupation 
      1      -3.9412      2.00000
      2       1.1343      2.00000
      3       3.5249      2.00000
      4       6.2162      2.00000
      5      10.0498      0.00000
      6      10.5658      0.00000
      7      12.4327      0.00000
      8      13.5123      0.00000

 k-point    11 :       0.4167    0.4167    0.0833
  band No.  band energies     occupation 
      1      -0.2952      2.00000
      2       0.7972      2.00000
      3       4.6990      2.00000
      4       5.7511      2.00000
      5       5.8103      2.00000
      6       7.0970      0.00084
      7       8.2373      0.00000
      8      10.3560      0.00000

 k-point    12 :      -0.4167    0.4167    0.0833
  band No.  band energies     occupation 
      1      -1.7495      2.00000
      2       1.6535      2.00000
      3       3.5318      2.00000
      4       5.6092      2.00000
      5       6.7859      1.71085
      6       9.0661      0.00000
      7       9.1156      0.00000
      8      11.8190      0.00000

 k-point    13 :       0.0833    0.0833    0.2500
  band No.  band energies     occupation 
      1      -4.4348      2.00000
      2      -1.2995      2.00000
      3       4.9889      2.00000
      4       9.8752      0.00000
      5      10.6916      0.00000
      6      12.2971      0.00000
      7      13.2457      0.00000
      8      13.3163      0.00000

 k-point    14 :       0.2500    0.0833    0.2500
  band No.  band energies     occupation 
      1      -3.0302      2.00000
      2       0.0667      2.00000
      3       5.2627      2.00000
      4       6.4550      2.00000
      5       8.1569      0.00000
      6       8.9054      0.00000
      7      11.4559      0.00000
      8      13.0008      0.00000

 k-point    15 :       0.4167    0.0833    0.2500
  band No.  band energies     occupation 
      1      -0.6632      2.00000
      2       1.2186      2.00000
      3       2.6787      2.00000
      4       4.4968      2.00000
      5       7.7676      0.00000
      6       8.7079      0.00000
      7      10.1756      0.00000
      8      11.1481      0.00000

 k-point    16 :      -0.4167    0.0833    0.2500
  band No.  band energies     occupation 
      1      -1.9318      2.00000
      2       1.0845      2.00000
      3       3.3323      2.00000
      4       6.1912      2.00000
      5       7.3362      0.00000
      6       8.3277      0.00000
      7      10.8759      0.00000
      8      12.0306      0.00000

 k-point    17 :      -0.2500    0.0833    0.2500
  band No.  band energies     occupation 
      1      -3.8700      2.00000
      2      -0.7474      2.00000
      3       5.4709      2.00000
      4       7.7614      0.00000
      5       9.4350      0.00000
      6      10.5372      0.00000
      7      12.2199      0.00000
      8      13.3756      0.00000

 k-point    18 :      -0.0833    0.0833    0.2500
  band No.  band energies     occupation 
      1      -4.7184      2.00000
      2      -1.5775      2.00000
      3       4.7334      2.00000
      4      11.2810      0.00000
      5      12.1037      0.00000
      6      12.9439      0.00000
      7      13.3435      0.00000
      8      14.0756      0.00000

 k-point    19 :       0.2500    0.2500    0.2500
  band No.  band energies     occupation 
      1      -1.1173      2.00000
      2       1.7942      2.00000
      3       3.6773      2.00000
      4       4.7954      2.00000
      5       6.5958      1.99982
      6       7.4903      0.00000
      7       8.5509      0.00000
      8      12.0599      0.00000

 k-point    20 :       0.4167    0.2500    0.2500
  band No.  band energies     occupation 
      1       0.1376      2.00000
      2       1.7771      2.00000
      3       3.4624      2.00000
      4       4.2477      2.00000
      5       5.2005      2.00000
      6       7.0982      0.00079
      7       9.4231      0.00000
      8      11.0334      0.00000

 k-point    21 :      -0.4167    0.2500    0.2500
  band No.  band energies     occupation 
      1      -2.2003      2.00000
      2       0.8558      2.00000
      3       4.4771      2.00000
      4       6.4041      2.00000
      5       7.0678      0.00344
      6       7.6892      0.00000
      7       9.5128      0.00000
      8      12.7886      0.00000

 k-point    22 :      -0.2500    0.2500    0.2500
  band No.  band energies     occupation 
      1      -3.5892      2.00000
      2      -0.4741      2.00000
      3       5.6254      2.00000
      4       6.6603      1.99544
      5       9.2922      0.00000
      6      10.3558      0.00000
      7      12.5059      0.00000
      8      12.9145      0.00000

 k-point    23 :       0.4167    0.4167    0.2500
  band No.  band energies     occupation 
      1       0.0367      2.00000
      2       1.0878      2.00000
      3       3.2875      2.00000
      4       4.3195      2.00000
      5       5.9312      2.00000
      6       8.6597      0.00000
      7       9.2595      0.00000
      8      10.6523      0.00000

 k-point    24 :      -0.4167    0.4167    0.2500
  band No.  band energies     occupation 
      1      -1.4052      2.00000
      2       1.4043      2.00000
      3       2.5009      2.00000
      4       5.2147      2.00000
      5       7.8553      0.00000
      6       9.3776      0.00000
      7      10.8641      0.00000
      8      12.0288      0.00000

 k-point    25 :       0.0833    0.0833    0.4167
  band No.  band energies     occupation 
      1      -3.7296      2.00000
      2      -2.6794      2.00000
      3       7.5730      0.00000
      4      10.2555      0.00000
      5      10.4860      0.00000
      6      11.0861      0.00000
      7      11.8573      0.00000
      8      12.2967      0.00000

 k-point    26 :       0.2500    0.0833    0.4167
  band No.  band energies     occupation 
      1      -2.3320      2.00000
      2      -1.2934      2.00000
      3       5.9980      2.00000
      4       6.9677      0.13101
      5       8.7966      0.00000
      6       9.4573      0.00000
      7      10.3747      0.00000
      8      11.7362      0.00000

 k-point    27 :       0.4167    0.0833    0.4167
  band No.  band energies     occupation 
      1       0.0020      2.00000
      2       0.9072      2.00000
      3       2.3193      2.00000
      4       3.2066      2.00000
      5       8.5009      0.00000
      6       9.4163      0.00000
      7      10.9822      0.00000
      8      12.2336      0.00000

 k-point    28 :      -0.4167    0.0833    0.4167
  band No.  band energies     occupation 
      1      -1.2421      2.00000
      2      -0.2218      2.00000
      3       3.9553      2.00000
      4       4.9356      2.00000
      5       8.7269      0.00000
      6       9.5237      0.00000
      7      10.2400      0.00000
      8      12.2170      0.00000

 k-point    29 :      -0.2500    0.0833    0.4167
  band No.  band energies     occupation 
      1      -3.1673      2.00000
      2      -2.1211      2.00000
      3       7.7804      0.00000
      4       8.6088      0.00000
      5       9.1517      0.00000
      6      10.0687      0.00000
      7      11.0328      0.00000
      8      11.4134      0.00000

 k-point    30 :      -0.0833    0.0833    0.4167
  band No.  band energies     occupation 
      1      -4.0120      2.00000
      2      -2.9600      2.00000
      3       7.3478      0.00000
      4      10.1599      0.00000
      5      11.8613      0.00000
      6      12.6264      0.00000
      7      12.6420      0.00000
      8      13.3662      0.00000

 k-point    31 :       0.2500    0.2500    0.4167
  band No.  band energies     occupation 
      1      -0.4363      2.00000
      2       0.5632      2.00000
      3       4.2199      2.00000
      4       5.0559      2.00000
      5       5.6790      2.00000
      6       6.4960      2.00000
      7      10.7717      0.00000
      8      12.8202      0.00000

 k-point    32 :       0.4167    0.2500    0.4167
  band No.  band energies     occupation 
      1       0.7822      2.00000
      2       1.6045      2.00000
      3       3.0290      2.00000
      4       3.8238      2.00000
      5       4.9346      2.00000
      6       5.8777      2.00000
      7      11.7177      0.00000
      8      12.7832      0.00000

 k-point    33 :      -0.4167    0.2500    0.4167
  band No.  band energies     occupation 
      1      -1.5077      2.00000
      2      -0.4800      2.00000
      3       5.1320      2.00000
      4       6.0742      2.00000
      5       7.2250      0.00000
      6       8.0767      0.00000
      7       9.9314      0.00000
      8      12.3233      0.00000

 k-point    34 :      -0.2500    0.2500    0.4167
  band No.  band energies     occupation 
      1      -2.8878      2.00000
      2      -1.8440      2.00000
      3       7.0006      0.04822
      4       7.9453      0.00000
      5       8.5994      0.00000
      6      10.9596      0.00000
      7      11.0715      0.00000
      8      11.8372      0.00000

 k-point    35 :       0.4167    0.4167    0.4167
  band No.  band energies     occupation 
      1       0.6734      2.00000
      2       1.3404      2.00000
      3       2.3885      2.00000
      4       3.0486      2.00000
      5       6.5693      1.99996
      6       7.5218      0.00000
      7      11.5493      0.00000
      8      12.4784      0.00000

 k-point    36 :      -0.4167    0.4167    0.4167
  band No.  band energies     occupation 
      1      -0.7229      2.00000
      2       0.2736      2.00000
      3       2.9527      2.00000
      4       3.9220      2.00000
      5       9.9945      0.00000
      6      10.1577      0.00000
      7      10.8983      0.00000
      8      11.6448      0.00000


--------------------------------------------------------------------------------------------------------


 soft charge-density along one line, spin component           1
         0         1         2         3         4         5         6         7         8         9
 total charge-density along one line
 
 pseudopotential strength for first ion, spin component:           1
 18.354  25.608   0.000   0.000  -0.000   0.000   0.000  -0.000
 25.608  35.733   0.000   0.000  -0.000   0.000   0.000  -0.000
  0.000   0.000   4.149  -0.000   0.000   7.733  -0.000   0.000
  0.000   0.000  -0.000   4.149   0.000  -0.000   7.733   0.000
 -0.000  -0.000   0.000   0.000   4.149   0.000   0.000   7.733
  0.000   0.000   7.733  -0.000   0.000  14.422  -0.000   0.000
  0.000   0.000  -0.000   7.733   0.000  -0.000  14.422   0.000
 -0.000  -0.000   0.000   0.000   7.733   0.000   0.000  14.422
 total augmentation occupancy for first ion, spin component:           1
  3.225  -1.052   0.000   0.000   0.000   0.000   0.000   0.000
 -1.052   0.811   0.000   0.000   0.000   0.000   0.000   0.000
  0.000   0.000   1.539   0.000   0.000  -0.297  -0.000   0.000
  0.000   0.000   0.000   1.628  -0.000   0.000  -0.325  -0.000
  0.000   0.000   0.000   0.000   1.539   0.000  -0.000  -0.297
  0.000   0.000  -0.297  -0.000   0.000   0.066   0.000   0.000
  0.000   0.000   0.000  -0.325  -0.000   0.000   0.074  -0.000
  0.000   0.000   0.000   0.000  -0.297  -0.000   0.000   0.066


------------------------ aborting loop because EDIFF is reached ----------------------------------------


    CHARGE:  cpu time    0.0520: real time    0.0525
    FORLOC:  cpu time    0.0020: real time    0.0012
    FORNL :  cpu time    0.0760: real time    0.0761
    STRESS:  cpu time    0.2920: real time    0.4279
    FORCOR:  cpu time    0.0240: real time    0.0957
    FORHAR:  cpu time    0.0050: real time    0.0188
    MIXING:  cpu time    0.0020: real time    0.0080
    OFIELD:  cpu time    0.0000: real time    0.0000

  FORCE on cell =-STRESS in cart. coord.  units (eV):
  Direction    XX          YY          ZZ          XY          YZ          ZX
  --------------------------------------------------------------------------------------
  Alpha Z     3.52644     3.52644     3.52644
  Ewald     -84.52397   -84.52397   -79.84558    -0.00000     0.00000    -0.00000
  Hartree     0.57366     0.57366     1.13351    -0.00000    -0.00000    -0.00000
  E(xc)     -23.86543   -23.86543   -23.87618    -0.00000     0.00000    -0.00000
  Local     -13.51419   -13.51419   -18.65640    -0.00000    -0.00000     0.00000
  n-local    76.95025    76.72912    77.38785     0.04027    -0.09138     0.11225
  augment   -13.12081   -13.12080   -13.14883     0.00000     0.00000     0.00000
  Kinetic    62.16769    39.50137    50.23098     7.44691    -0.08041     0.68177
  Fock        0.00000     0.00000     0.00000     0.00000     0.00000     0.00000
  -------------------------------------------------------------------------------------
  Total      -3.25007    -3.25007    -3.24822     0.00000     0.00000     0.00000
  in kB    -136.37221  -136.37221  -136.29435     0.00000     0.00000     0.00000
  external pressure =     -136.35 kB  Pullay stress =        0.00 kB


 VOLUME and BASIS-vectors are now :
 -----------------------------------------------------------------------------
  energy-cutoff  :      450.00
  volume of cell :       38.18
      direct lattice vectors                 reciprocal lattice vectors
     3.047263909  0.000000000  0.000000000     0.328163241  0.189465135  0.000000000
    -1.523631955  2.639007957 -0.000000000     0.000000000  0.378930271  0.000000000
     0.000000000 -0.000000000  4.748179770     0.000000000  0.000000000  0.210607022

  length of vectors
     3.047263909  3.047263909  4.748179770     0.378930271  0.378930271  0.210607022


 FORCES acting on ions
    electron-ion (+dipol)            ewald-force                    non-local-force                 convergence-correction
 -----------------------------------------------------------------------------------------------
   0.271E-09 -.156E-09 0.154E-14   -.981E-13 0.695E-13 -.283E-14   -.226E-16 0.451E-16 0.000E+00   0.195E-09 -.113E-09 -.576E-15
   -.271E-09 0.156E-09 -.470E-15   0.985E-13 -.698E-13 0.283E-14   0.260E-16 -.416E-16 0.000E+00   -.195E-09 0.113E-09 0.462E-15
 -----------------------------------------------------------------------------------------------
   -.332E-15 -.231E-13 0.108E-14   0.365E-15 -.355E-15 -.174E-17   0.347E-17 0.347E-17 0.000E+00   0.155E-15 0.342E-16 -.114E-15
 
 
 POSITION                                       TOTAL-FORCE (eV/Angst)
 -----------------------------------------------------------------------------------
      0.00000      0.00000      0.00000         0.000000      0.000000     -0.000000
     -0.00000      1.75934      2.37409         0.000000     -0.000000      0.000000
 -----------------------------------------------------------------------------------
    total drift:                                0.000000     -0.000000      0.000000


--------------------------------------------------------------------------------------------------------



  FREE ENERGIE OF THE ION-ELECTRON SYSTEM (eV)
  ---------------------------------------------------
  free  energy   TOTEN  =        -9.35146860 eV

  energy  without entropy=       -9.34990164  energy(sigma->0) =       -9.35068512
 
 d Force = 0.0000000E+00[ 0.000E+00, 0.000E+00]  d Energy = 0.3948990E-04-0.395E-04
 d Force = 0.0000000E+00[ 0.000E+00, 0.000E+00]  d Ewald  =-0.5208699E-02 0.521E-02


--------------------------------------------------------------------------------------------------------


    POTLOK:  cpu time    0.0240: real time    0.0904


--------------------------------------------------------------------------------------------------------




--------------------------------------------------------------------------------------------------------


  
 reached required accuracy - stopping structural energy minimisation
 writing wavefunctions
     LOOP+:  cpu time    7.3809: real time    6.1343
    4ORBIT:  cpu time    0.0000: real time    0.0000

 total amount of memory used by VASP on root node    37333. kBytes
========================================================================

   base      :      30000. kBytes
   nonl-proj :       1962. kBytes
   fftplans  :       1513. kBytes
   grid      :       2866. kBytes
   one-center:          6. kBytes
   wavefun   :        986. kBytes
 
  
  
 General timing and accounting informations for this job:
 ========================================================
  
                  Total CPU time used (sec):       64.678
                            User time (sec):       59.904
                          System time (sec):        4.774
                         Elapsed time (sec):       56.554
  
                   Maximum memory used (kb):       42276.
                   Average memory used (kb):           0.
  
                          Minor page faults:        87519
                          Major page faults:            7
                 Voluntary context switches:         1178
