 running on    4 total cores
 distrk:  each k-point on    4 cores,    1 groups
 distr:  one band on    1 cores,    4 groups
 using from now: INCAR     
 vasp.5.4.1 24Jun15 (build Jul 19 2016 16:50:41) complex                        
  
 POSCAR found :  1 types and       2 ions
 LDA part: xc-table for Pade appr. of Perdew
 POSCAR, INCAR and KPOINTS ok, starting setup
 FFT: planning ...
 WAVECAR not read
 entering main loop
       N       E                     dE             d eps       ncg     rms          rms(c)
DAV:   1     0.230413395663E+01    0.23041E+01   -0.30069E+03   576   0.684E+02
DAV:   2    -0.920840954582E+01   -0.11513E+02   -0.11180E+02   856   0.668E+01
DAV:   3    -0.936104940706E+01   -0.15264E+00   -0.15255E+00   792   0.910E+00
DAV:   4    -0.936150534493E+01   -0.45594E-03   -0.45593E-03   768   0.551E-01
DAV:   5    -0.936150705550E+01   -0.17106E-05   -0.17097E-05   784   0.241E-02    0.220E+00
DAV:   6    -0.934145518070E+01    0.20052E-01   -0.97238E-03   616   0.596E-01    0.119E+00
DAV:   7    -0.933108863845E+01    0.10367E-01   -0.17272E-02   688   0.783E-01    0.133E-01
DAV:   8    -0.933106430787E+01    0.24331E-04   -0.15212E-04   816   0.110E-01    0.174E-02
DAV:   9    -0.933106562881E+01   -0.13209E-05   -0.16270E-06   480   0.105E-02
   1 F= -.93310656E+01 E0= -.93288279E+01  d E =-.933107E+01
 curvature:   0.00 expect dE= 0.000E+00 dE for cont linesearch  0.000E+00
 trial: gam= 0.00000 g(F)=  0.393E-56 g(S)=  0.430E-02 ort = 0.000E+00 (trialstep = 0.100E+01)
 search vector abs. value=  0.430E-02
 bond charge predicted
       N       E                     dE             d eps       ncg     rms          rms(c)
DAV:   1    -0.933783462077E+01   -0.67703E-02   -0.92691E-02   704   0.164E+00    0.147E-01
DAV:   2    -0.933738349524E+01    0.45113E-03   -0.16867E-03   632   0.317E-01    0.864E-02
DAV:   3    -0.933708235404E+01    0.30114E-03   -0.81472E-04   704   0.144E-01    0.104E-02
DAV:   4    -0.933708416147E+01   -0.18074E-05   -0.32947E-05   616   0.427E-02
   2 F= -.93370842E+01 E0= -.93349844E+01  d E =-.601853E-02
 ZBRENT: can't locate minimum, use default step
 trial-energy change:   -0.006019  1 .order   -0.006014   -0.004303   -0.007724
 step:   4.0000(harm=  4.0000)  dis= 0.00000  next Energy=    -9.375647 (dE=-0.446E-01)
 bond charge predicted
       N       E                     dE             d eps       ncg     rms          rms(c)
DAV:   1    -0.935916947271E+01   -0.22087E-01   -0.75326E-01   720   0.488E+00    0.478E-01
DAV:   2    -0.935436935231E+01    0.48001E-02   -0.14342E-02   648   0.925E-01    0.282E-01
DAV:   3    -0.935129095442E+01    0.30784E-02   -0.78388E-03   736   0.454E-01    0.305E-02
DAV:   4    -0.935130730801E+01   -0.16354E-04   -0.30411E-04   640   0.131E-01    0.213E-02
DAV:   5    -0.935131273286E+01   -0.54248E-05   -0.28263E-06   504   0.166E-02
   3 F= -.93513127E+01 E0= -.93503161E+01  d E =-.202471E-01
 curvature:  -2.78 expect dE=-0.942E-03 dE for cont linesearch -0.942E-03
 ZBRENT: interpolating
 opt :   3.5946  next Energy=    -9.351557 (dE=-0.205E-01)
 bond charge predicted
       N       E                     dE             d eps       ncg     rms          rms(c)
DAV:   1    -0.935158891884E+01   -0.28161E-03   -0.12779E-02   728   0.645E-01    0.676E-02
DAV:   2    -0.935148958008E+01    0.99339E-04   -0.25710E-04   632   0.122E-01    0.395E-02
DAV:   3    -0.935142874592E+01    0.60834E-04   -0.15494E-04   736   0.638E-02    0.417E-03
DAV:   4    -0.935142910818E+01   -0.36226E-06   -0.56989E-06   288   0.184E-02
   4 F= -.93514291E+01 E0= -.93507343E+01  d E =-.203635E-01
 curvature:  -0.72 expect dE=-0.595E-04 dE for cont linesearch -0.595E-04
 ZBRENT: interpolating
 opt :   3.7284  next Energy=    -9.351469 (dE=-0.204E-01)
 bond charge predicted
       N       E                     dE             d eps       ncg     rms          rms(c)
DAV:   1    -0.935148709790E+01   -0.58352E-04   -0.14205E-03   736   0.214E-01    0.226E-02
DAV:   2    -0.935147560877E+01    0.11489E-04   -0.29099E-05   624   0.411E-02    0.133E-02
DAV:   3    -0.935146859808E+01    0.70107E-05   -0.16840E-05   360   0.215E-02
   5 F= -.93514686E+01 E0= -.93506851E+01  d E =-.204030E-01
 curvature:  -0.48 expect dE=-0.268E-07 dE for cont linesearch -0.268E-07
 trial: gam= 0.00000 g(F)=  0.101E-53 g(S)=  0.554E-07 ort =-0.154E-04 (trialstep = 0.155E+01)
 search vector abs. value=  0.555E-07
 reached required accuracy - stopping structural energy minimisation
 writing wavefunctions
