<?xml version="1.0" encoding="ISO-8859-1"?>
<modeling>
 <generator>
  <i name="program" type="string">vasp </i>
  <i name="version" type="string">5.4.1  </i>
  <i name="subversion" type="string">24Jun15 (build Jul 19 2016 16:50:41) complex                          parallel </i>
  <i name="platform" type="string">IFC91_ompi </i>
  <i name="date" type="string">2019 10 10 </i>
  <i name="time" type="string">11:17:10 </i>
 </generator>
 <incar>
  <i type="string" name="SYSTEM"> Si beta-tin</i>
  <i type="string" name="PREC">accurate</i>
  <i type="int" name="IBRION">     2</i>
  <i name="EDIFF">      0.00001000</i>
  <i name="EDIFFG">     -0.01000000</i>
  <i type="int" name="NSW">   100</i>
  <i type="int" name="ISIF">     4</i>
  <i name="ENMAX">    450.00000000</i>
  <i type="int" name="ISMEAR">     0</i>
  <i name="SIGMA">      0.10000000</i>
  <v type="int" name="KPOINT_BSE">    -1     0     0     0</v>
 </incar>
 <kpoints>
  <generation param="Monkhorst-Pack">
   <v type="int" name="divisions">       6        6        6 </v>
   <v name="usershift">      0.00000000       0.00000000       0.00000000 </v>
   <v name="genvec1">      0.16666667      -0.00000000       0.00000000 </v>
   <v name="genvec2">      0.00000000       0.16666667       0.00000000 </v>
   <v name="genvec3">      0.00000000       0.00000000       0.16666667 </v>
   <v name="shift">      0.50000000       0.50000000       0.50000000 </v>
  </generation>
  <varray name="kpointlist" >
   <v>       0.08333333       0.08333333       0.08333333 </v>
   <v>       0.25000000       0.08333333       0.08333333 </v>
   <v>       0.41666667       0.08333333       0.08333333 </v>
   <v>      -0.41666667       0.08333333       0.08333333 </v>
   <v>      -0.25000000       0.08333333       0.08333333 </v>
   <v>      -0.08333333       0.08333333       0.08333333 </v>
   <v>       0.25000000       0.25000000       0.08333333 </v>
   <v>       0.41666667       0.25000000       0.08333333 </v>
   <v>      -0.41666667       0.25000000       0.08333333 </v>
   <v>      -0.25000000       0.25000000       0.08333333 </v>
   <v>       0.41666667       0.41666667       0.08333333 </v>
   <v>      -0.41666667       0.41666667       0.08333333 </v>
   <v>       0.08333333       0.08333333       0.25000000 </v>
   <v>       0.25000000       0.08333333       0.25000000 </v>
   <v>       0.41666667       0.08333333       0.25000000 </v>
   <v>      -0.41666667       0.08333333       0.25000000 </v>
   <v>      -0.25000000       0.08333333       0.25000000 </v>
   <v>      -0.08333333       0.08333333       0.25000000 </v>
   <v>       0.25000000       0.25000000       0.25000000 </v>
   <v>       0.41666667       0.25000000       0.25000000 </v>
   <v>      -0.41666667       0.25000000       0.25000000 </v>
   <v>      -0.25000000       0.25000000       0.25000000 </v>
   <v>       0.41666667       0.41666667       0.25000000 </v>
   <v>      -0.41666667       0.41666667       0.25000000 </v>
   <v>       0.08333333       0.08333333       0.41666667 </v>
   <v>       0.25000000       0.08333333       0.41666667 </v>
   <v>       0.41666667       0.08333333       0.41666667 </v>
   <v>      -0.41666667       0.08333333       0.41666667 </v>
   <v>      -0.25000000       0.08333333       0.41666667 </v>
   <v>      -0.08333333       0.08333333       0.41666667 </v>
   <v>       0.25000000       0.25000000       0.41666667 </v>
   <v>       0.41666667       0.25000000       0.41666667 </v>
   <v>      -0.41666667       0.25000000       0.41666667 </v>
   <v>      -0.25000000       0.25000000       0.41666667 </v>
   <v>       0.41666667       0.41666667       0.41666667 </v>
   <v>      -0.41666667       0.41666667       0.41666667 </v>
  </varray>
  <varray name="weights" >
   <v>       0.01851852 </v>
   <v>       0.03703704 </v>
   <v>       0.03703704 </v>
   <v>       0.03703704 </v>
   <v>       0.03703704 </v>
   <v>       0.01851852 </v>
   <v>       0.01851852 </v>
   <v>       0.03703704 </v>
   <v>       0.03703704 </v>
   <v>       0.01851852 </v>
   <v>       0.01851852 </v>
   <v>       0.01851852 </v>
   <v>       0.01851852 </v>
   <v>       0.03703704 </v>
   <v>       0.03703704 </v>
   <v>       0.03703704 </v>
   <v>       0.03703704 </v>
   <v>       0.01851852 </v>
   <v>       0.01851852 </v>
   <v>       0.03703704 </v>
   <v>       0.03703704 </v>
   <v>       0.01851852 </v>
   <v>       0.01851852 </v>
   <v>       0.01851852 </v>
   <v>       0.01851852 </v>
   <v>       0.03703704 </v>
   <v>       0.03703704 </v>
   <v>       0.03703704 </v>
   <v>       0.03703704 </v>
   <v>       0.01851852 </v>
   <v>       0.01851852 </v>
   <v>       0.03703704 </v>
   <v>       0.03703704 </v>
   <v>       0.01851852 </v>
   <v>       0.01851852 </v>
   <v>       0.01851852 </v>
  </varray>
 </kpoints>
 <parameters>
  <separator name="general" >
   <i type="string" name="SYSTEM">Si beta-tin</i>
   <i type="logical" name="LCOMPAT"> F  </i>
  </separator>
  <separator name="electronic" >
   <i type="string" name="PREC">accura</i>
   <i name="ENMAX">    450.00000000</i>
   <i name="ENAUG">    322.06900000</i>
   <i name="EDIFF">      0.00001000</i>
   <i type="int" name="IALGO">    38</i>
   <i type="int" name="IWAVPR">    11</i>
   <i type="int" name="NBANDS">     8</i>
   <i name="NELECT">      8.00000000</i>
   <i type="int" name="TURBO">     0</i>
   <i type="int" name="IRESTART">     0</i>
   <i type="int" name="NREBOOT">     0</i>
   <i type="int" name="NMIN">     0</i>
   <i name="EREF">      0.00000000</i>
   <separator name="electronic smearing" >
    <i type="int" name="ISMEAR">     0</i>
    <i name="SIGMA">      0.10000000</i>
    <i name="KSPACING">      0.50000000</i>
    <i type="logical" name="KGAMMA"> T  </i>
   </separator>
   <separator name="electronic projectors" >
    <i type="logical" name="LREAL"> F  </i>
    <v name="ROPT">      0.00000000</v>
    <i type="int" name="LMAXPAW">  -100</i>
    <i type="int" name="LMAXMIX">     2</i>
    <i type="logical" name="NLSPLINE"> F  </i>
   </separator>
   <separator name="electronic startup" >
    <i type="int" name="ISTART">     0</i>
    <i type="int" name="ICHARG">     2</i>
    <i type="int" name="INIWAV">     1</i>
   </separator>
   <separator name="electronic spin" >
    <i type="int" name="ISPIN">     1</i>
    <i type="logical" name="LNONCOLLINEAR"> F  </i>
    <v name="MAGMOM">      1.00000000      1.00000000</v>
    <i name="NUPDOWN">     -1.00000000</i>
    <i type="logical" name="LSORBIT"> F  </i>
    <v name="SAXIS">      0.00000000      0.00000000      1.00000000</v>
    <i type="logical" name="LSPIRAL"> F  </i>
    <v name="QSPIRAL">      0.00000000      0.00000000      0.00000000</v>
    <i type="logical" name="LZEROZ"> F  </i>
   </separator>
   <separator name="electronic exchange-correlation" >
    <i type="logical" name="LASPH"> F  </i>
    <i type="logical" name="LMETAGGA"> F  </i>
   </separator>
   <separator name="electronic convergence" >
    <i type="int" name="NELM">    60</i>
    <i type="int" name="NELMDL">    -5</i>
    <i type="int" name="NELMIN">     2</i>
    <i name="ENINI">    450.00000000</i>
    <separator name="electronic convergence detail" >
     <i type="logical" name="LDIAG"> T  </i>
     <i type="logical" name="LSUBROT"> F  </i>
     <i name="WEIMIN">      0.00100000</i>
     <i name="EBREAK">      0.00000031</i>
     <i name="DEPER">      0.30000000</i>
     <i type="int" name="NRMM">     4</i>
     <i name="TIME">      0.40000000</i>
    </separator>
   </separator>
   <separator name="electronic mixer" >
    <i name="AMIX">      0.40000000</i>
    <i name="BMIX">      1.00000000</i>
    <i name="AMIN">      0.10000000</i>
    <i name="AMIX_MAG">      1.60000000</i>
    <i name="BMIX_MAG">      1.00000000</i>
    <separator name="electronic mixer details" >
     <i type="int" name="IMIX">     4</i>
     <i type="logical" name="MIXFIRST"> F  </i>
     <i type="int" name="MAXMIX">   -45</i>
     <i name="WC">    100.00000000</i>
     <i type="int" name="INIMIX">     1</i>
     <i type="int" name="MIXPRE">     1</i>
     <i type="int" name="MREMOVE">     5</i>
    </separator>
   </separator>
   <separator name="electronic dipolcorrection" >
    <i type="logical" name="LDIPOL"> F  </i>
    <i type="logical" name="LMONO"> F  </i>
    <i type="int" name="IDIPOL">     0</i>
    <i name="EPSILON">      1.00000000</i>
    <v name="DIPOL">   -100.00000000   -100.00000000   -100.00000000</v>
    <i name="EFIELD">      0.00000000</i>
   </separator>
  </separator>
  <separator name="grids" >
   <i type="int" name="NGX">    24</i>
   <i type="int" name="NGY">    24</i>
   <i type="int" name="NGZ">    36</i>
   <i type="int" name="NGXF">    48</i>
   <i type="int" name="NGYF">    48</i>
   <i type="int" name="NGZF">    72</i>
   <i type="logical" name="ADDGRID"> F  </i>
  </separator>
  <separator name="ionic" >
   <i type="int" name="NSW">   100</i>
   <i type="int" name="IBRION">     2</i>
   <i type="int" name="ISIF">     4</i>
   <i name="PSTRESS">      0.00000000</i>
   <i name="EDIFFG">     -0.01000000</i>
   <i type="int" name="NFREE">     1</i>
   <i name="POTIM">      0.50000000</i>
   <i name="SMASS">     -3.00000000</i>
   <i name="SCALEE">      1.00000000</i>
  </separator>
  <separator name="ionic md" >
   <i name="TEBEG">      0.00010000</i>
   <i name="TEEND">      0.00010000</i>
   <i type="int" name="NBLOCK">     1</i>
   <i type="int" name="KBLOCK">   100</i>
   <i type="int" name="NPACO">   256</i>
   <i name="APACO">     16.00000000</i>
  </separator>
  <separator name="symmetry" >
   <i type="int" name="ISYM">     2</i>
   <i name="SYMPREC">      0.00001000</i>
  </separator>
  <separator name="dos" >
   <i type="logical" name="LORBIT"> F  </i>
   <v name="RWIGS">     -1.00000000</v>
   <i type="int" name="NEDOS">   301</i>
   <i name="EMIN">     10.00000000</i>
   <i name="EMAX">    -10.00000000</i>
   <i name="EFERMI">      0.00000000</i>
  </separator>
  <separator name="writing" >
   <i type="int" name="NWRITE">     2</i>
   <i type="logical" name="LWAVE"> T  </i>
   <i type="logical" name="LCHARG"> T  </i>
   <i type="logical" name="LPARD"> F  </i>
   <i type="logical" name="LVTOT"> F  </i>
   <i type="logical" name="LVHAR"> F  </i>
   <i type="logical" name="LELF"> F  </i>
   <i type="logical" name="LOPTICS"> F  </i>
   <v name="STM">      0.00000000      0.00000000      0.00000000      0.00000000      0.00000000      0.00000000      0.00000000</v>
  </separator>
  <separator name="performance" >
   <i type="int" name="NPAR">     4</i>
   <i type="int" name="NSIM">     4</i>
   <i type="int" name="NBLK">    -1</i>
   <i type="logical" name="LPLANE"> T  </i>
   <i type="logical" name="LSCALAPACK"> F  </i>
   <i type="logical" name="LSCAAWARE"> F  </i>
   <i type="logical" name="LSCALU"> F  </i>
   <i type="logical" name="LASYNC"> F  </i>
   <i type="logical" name="LORBITALREAL"> F  </i>
  </separator>
  <separator name="miscellaneous" >
   <i type="int" name="IDIOT">     3</i>
   <i type="logical" name="LMUSIC"> F  </i>
   <v name="POMASS">     28.08500000</v>
   <v name="DARWINR">      0.00000000</v>
   <v name="DARWINV">      1.00000000</v>
   <i type="logical" name="LCORR"> T  </i>
  </separator>
  <i type="logical" name="GGA_COMPAT"> T  </i>
  <i type="logical" name="LBERRY"> F  </i>
  <i type="int" name="ICORELEVEL">     0</i>
  <i type="logical" name="LDAU"> F  </i>
  <i type="int" name="I_CONSTRAINED_M">     0</i>
  <separator name="electronic exchange-correlation" >
   <i type="string" name="GGA">--</i>
   <i type="int" name="VOSKOWN">     0</i>
   <i type="logical" name="LHFCALC"> F  </i>
   <i type="string" name="PRECFOCK"></i>
   <i type="logical" name="LSYMGRAD"> F  </i>
   <i type="logical" name="LHFONE"> F  </i>
   <i type="logical" name="LRHFCALC"> F  </i>
   <i type="logical" name="LTHOMAS"> F  </i>
   <i type="logical" name="LMODELHF"> F  </i>
   <i name="ENCUT4O">     -1.00000000</i>
   <i type="int" name="EXXOEP">     0</i>
   <i type="int" name="FOURORBIT">     0</i>
   <i name="AEXX">      0.00000000</i>
   <i name="HFALPHA">      0.00000000</i>
   <i name="MCALPHA">      0.00000000</i>
   <i name="ALDAX">      1.00000000</i>
   <i name="AGGAX">      1.00000000</i>
   <i name="ALDAC">      1.00000000</i>
   <i name="AGGAC">      1.00000000</i>
   <i type="int" name="NKREDX">     1</i>
   <i type="int" name="NKREDY">     1</i>
   <i type="int" name="NKREDZ">     1</i>
   <i type="logical" name="SHIFTRED"> F  </i>
   <i type="logical" name="ODDONLY"> F  </i>
   <i type="logical" name="EVENONLY"> F  </i>
   <i type="int" name="LMAXFOCK">     0</i>
   <i type="int" name="NMAXFOCKAE">     0</i>
   <i type="logical" name="LFOCKAEDFT"> F  </i>
   <i name="HFSCREEN">      0.00000000</i>
   <i name="HFSCREENC">      0.00000000</i>
   <i type="int" name="NBANDSGWLOW">     0</i>
  </separator>
  <separator name="vdW DFT" >
   <i type="logical" name="LUSE_VDW"> F  </i>
   <i name="Zab_VDW">     -0.84910000</i>
   <i name="PARAM1">      0.12340000</i>
   <i name="PARAM2">      1.00000000</i>
   <i name="PARAM3">      0.00000000</i>
  </separator>
  <separator name="model GW" >
   <i type="int" name="MODEL_GW">     0</i>
   <i name="MODEL_EPS0">     11.45510768</i>
   <i name="MODEL_ALPHA">      1.00000000</i>
  </separator>
  <separator name="linear response parameters" >
   <i type="logical" name="LEPSILON"> F  </i>
   <i type="logical" name="LRPA"> F  </i>
   <i type="logical" name="LNABLA"> F  </i>
   <i type="logical" name="LVEL"> F  </i>
   <i type="int" name="KINTER">     0</i>
   <i name="CSHIFT">      0.10000000</i>
   <i name="OMEGAMAX">     -1.00000000</i>
   <i name="DEG_THRESHOLD">      0.00200000</i>
  </separator>
  <separator name="orbital magnetization" >
   <i type="logical" name="NUCIND"> F  </i>
   <v name="MAGPOS">      0.00000000      0.00000000      0.00000000</v>
   <i type="logical" name="LNICSALL"> T  </i>
   <i type="logical" name="ORBITALMAG"> F  </i>
   <i type="logical" name="LMAGBLOCH"> F  </i>
   <i type="logical" name="LCHIMAG"> F  </i>
   <i type="logical" name="LGAUGE"> T  </i>
   <i type="int" name="MAGATOM">     0</i>
   <v name="MAGDIPOL">      0.00000000      0.00000000      0.00000000</v>
   <v name="AVECCONST">      0.00000000      0.00000000      0.00000000</v>
  </separator>
  <separator name="response functions" >
   <i type="logical" name="LADDER"> F  </i>
   <i type="logical" name="LFXC"> F  </i>
   <i type="logical" name="LHARTREE"> T  </i>
   <i type="int" name="IBSE">     0</i>
   <v type="int" name="KPOINT">    -1     0     0     0</v>
   <i type="logical" name="LTCTE"> F  </i>
   <i type="logical" name="LTETE"> F  </i>
   <i type="logical" name="LTRIPLET"> F  </i>
   <i type="logical" name="LFXCEPS"> F  </i>
   <i type="logical" name="LFXHEG"> F  </i>
   <i type="int" name="NATURALO">     0</i>
   <i type="logical" name="L2ORDER"> F  </i>
   <i type="logical" name="LUSEW"> F  </i>
   <i name="ENCUTGW">     -2.00000000</i>
   <i name="ENCUTGWSOFT">     -2.00000000</i>
   <i name="ENCUTLF">     -1.00000000</i>
   <i type="int" name="LMAXMP2">    -1</i>
   <i name="SCISSOR">      0.00000000</i>
   <i type="int" name="NOMEGA">     0</i>
   <i type="int" name="NOMEGAR">     0</i>
   <i type="int" name="NBANDSGW">    -1</i>
   <i type="int" name="NBANDSO">    -1</i>
   <i type="int" name="NBANDSV">    -1</i>
   <i type="int" name="NELM">     1</i>
   <i type="int" name="NELMHF">     1</i>
   <i type="int" name="DIM">     3</i>
   <i type="int" name="ANTIRES">     0</i>
   <i name="OMEGAMAX">    -30.00000000</i>
   <i name="OMEGAMIN">    -30.00000000</i>
   <i name="OMEGATL">   -200.00000000</i>
   <i type="int" name="OMEGAGRID">     0</i>
   <i name="CSHIFT">     -0.10000000</i>
   <i type="logical" name="SELFENERGY"> F  </i>
   <i type="logical" name="LSPECTRAL"> F  </i>
   <i type="logical" name="LSPECTRALGW"> F  </i>
   <i type="logical" name="LSINGLES"> F  </i>
   <i type="logical" name="LFERMIGW"> F  </i>
   <i type="logical" name="ODDONLYGW"> F  </i>
   <i type="logical" name="EVENONLYGW"> F  </i>
   <i type="int" name="NKREDLFX">     1</i>
   <i type="int" name="NKREDLFY">     1</i>
   <i type="int" name="NKREDLFZ">     1</i>
   <i type="int" name="MAXMEM">  1800</i>
   <i type="int" name="TELESCOPE">     0</i>
   <i type="int" name="TAUPAR">     1</i>
   <i type="int" name="OMEGAPAR">    -1</i>
   <i name="LAMBDA">      1.00000000</i>
  </separator>
  <separator name="External order field" >
   <i name="OFIELD_KAPPA">      0.00000000</i>
   <v name="OFIELD_K">      0.00000000      0.00000000      0.00000000</v>
   <i name="OFIELD_Q6_NEAR">      0.00000000</i>
   <i name="OFIELD_Q6_FAR">      0.00000000</i>
   <i name="OFIELD_A">      0.00000000</i>
  </separator>
 </parameters>
 <atominfo>
  <atoms>       2 </atoms>
  <types>       1 </types>
  <array name="atoms" >
   <dimension dim="1">ion</dimension>
   <field type="string">element</field>
   <field type="int">atomtype</field>
   <set>
    <rc><c> S</c><c>   1</c></rc>
    <rc><c> S</c><c>   1</c></rc>
   </set>
  </array>
  <array name="atomtypes" >
   <dimension dim="1">type</dimension>
   <field type="int">atomspertype</field>
   <field type="string">element</field>
   <field>mass</field>
   <field>valence</field>
   <field type="string">pseudopotential</field>
   <set>
    <rc><c>   2</c><c> S</c><c>     28.08500000</c><c>      4.00000000</c><c>  PAW_PBE Si 05Jan2001                  </c></rc>
   </set>
  </array>
 </atominfo>
 <structure name="initialpos" >
  <crystal>
   <varray name="basis" >
    <v>       3.00000000       0.00000000       0.00000000 </v>
    <v>      -1.50000000       2.59807621       0.00000000 </v>
    <v>       0.00000000       0.00000000       4.89897000 </v>
   </varray>
   <i name="volume">     38.18369225 </i>
   <varray name="rec_basis" >
    <v>       0.33333333       0.19245009       0.00000000 </v>
    <v>       0.00000000       0.38490018       0.00000000 </v>
    <v>       0.00000000       0.00000000       0.20412454 </v>
   </varray>
  </crystal>
  <varray name="positions" >
   <v>       0.00000000       0.00000000       0.00000000 </v>
   <v>       0.33333333       0.66666667       0.50000000 </v>
  </varray>
 </structure>
 <calculation>
  <scstep>
   <time name="dav">    1.81    1.10</time>
   <time name="total">    1.92    1.17</time>
   <energy>
    <i name="alphaZ">      3.52644062 </i>
    <i name="ewald">   -248.97122806 </i>
    <i name="hartreedc">     -2.92696563 </i>
    <i name="XCdc">    -18.95220955 </i>
    <i name="pawpsdc">    176.24759923 </i>
    <i name="pawaedc">   -141.06103558 </i>
    <i name="eentropy">     -0.00592374 </i>
    <i name="bandstr">     28.31552921 </i>
    <i name="atom">    206.13192747 </i>
    <i name="e_fr_energy">      2.30413396 </i>
    <i name="e_wo_entrp">      2.31005770 </i>
    <i name="e_0_energy">      2.30709583 </i>
   </energy>
  </scstep>
  <scstep>
   <time name="dav">    2.79    1.76</time>
   <time name="total">    2.79    1.76</time>
   <energy>
    <i name="e_fr_energy">     -9.20840955 </i>
    <i name="e_wo_entrp">     -9.20390347 </i>
    <i name="e_0_energy">     -9.20615651 </i>
   </energy>
  </scstep>
  <scstep>
   <time name="dav">    2.57    2.26</time>
   <time name="total">    2.57    2.27</time>
   <energy>
    <i name="e_fr_energy">     -9.36104941 </i>
    <i name="e_wo_entrp">     -9.35640675 </i>
    <i name="e_0_energy">     -9.35872808 </i>
   </energy>
  </scstep>
  <scstep>
   <time name="dav">    2.72    2.32</time>
   <time name="total">    2.73    2.32</time>
   <energy>
    <i name="e_fr_energy">     -9.36150534 </i>
    <i name="e_wo_entrp">     -9.35685971 </i>
    <i name="e_0_energy">     -9.35918253 </i>
   </energy>
  </scstep>
  <scstep>
   <time name="dav">    2.56    1.92</time>
   <time name="total">    2.64    2.01</time>
   <energy>
    <i name="e_fr_energy">     -9.36150706 </i>
    <i name="e_wo_entrp">     -9.35686142 </i>
    <i name="e_0_energy">     -9.35918424 </i>
   </energy>
  </scstep>
  <scstep>
   <time name="dav">    2.03    2.14</time>
   <time name="total">    2.20    2.30</time>
   <energy>
    <i name="e_fr_energy">     -9.34145518 </i>
    <i name="e_wo_entrp">     -9.33688455 </i>
    <i name="e_0_energy">     -9.33916986 </i>
   </energy>
  </scstep>
  <scstep>
   <time name="dav">    2.49    1.60</time>
   <time name="total">    2.66    1.72</time>
   <energy>
    <i name="e_fr_energy">     -9.33108864 </i>
    <i name="e_wo_entrp">     -9.32661175 </i>
    <i name="e_0_energy">     -9.32885019 </i>
   </energy>
  </scstep>
  <scstep>
   <time name="dav">    2.71    2.65</time>
   <time name="total">    2.89    2.80</time>
   <energy>
    <i name="e_fr_energy">     -9.33106431 </i>
    <i name="e_wo_entrp">     -9.32658862 </i>
    <i name="e_0_energy">     -9.32882647 </i>
   </energy>
  </scstep>
  <scstep>
   <time name="dav">    2.14    1.56</time>
   <time name="total">    2.24    1.68</time>
   <energy>
    <i name="alphaZ">      3.52644062 </i>
    <i name="ewald">   -248.97122806 </i>
    <i name="hartreedc">     -2.24236556 </i>
    <i name="XCdc">    -18.97818061 </i>
    <i name="pawpsdc">    347.07761701 </i>
    <i name="pawaedc">   -311.83801548 </i>
    <i name="eentropy">     -0.00447544 </i>
    <i name="bandstr">     15.96721441 </i>
    <i name="atom">    206.13192747 </i>
    <i name="e_fr_energy">     -9.33106563 </i>
    <i name="e_wo_entrp">     -9.32659019 </i>
    <i name="e_0_energy">     -9.32882791 </i>
   </energy>
  </scstep>
  <structure>
   <crystal>
    <varray name="basis" >
     <v>       3.00000000       0.00000000       0.00000000 </v>
     <v>      -1.50000000       2.59807621       0.00000000 </v>
     <v>       0.00000000       0.00000000       4.89897000 </v>
    </varray>
    <i name="volume">     38.18369225 </i>
    <varray name="rec_basis" >
     <v>       0.33333333       0.19245009       0.00000000 </v>
     <v>       0.00000000       0.38490018       0.00000000 </v>
     <v>       0.00000000       0.00000000       0.20412454 </v>
    </varray>
   </crystal>
   <varray name="positions" >
    <v>       0.00000000       0.00000000       0.00000000 </v>
    <v>       0.33333333       0.66666667       0.50000000 </v>
   </varray>
  </structure>
  <varray name="forces" >
   <v>       0.00000000       0.00000000       0.00000000 </v>
   <v>      -0.00000000       0.00000000       0.00000000 </v>
  </varray>
  <varray name="stress" >
   <v>    -128.16653820       0.00000000       0.00000000 </v>
   <v>       0.00000000    -128.16653820      -0.00000000 </v>
   <v>       0.00000000      -0.00000000    -149.87232201 </v>
  </varray>
  <energy>
   <i name="e_fr_energy">     -9.33106563 </i>
   <i name="e_wo_entrp">     -9.32882791 </i>
   <i name="e_0_energy">     -0.00447544 </i>
  </energy>
  <time name="totalsc">   23.69   18.83</time>
 </calculation>
 <calculation>
  <scstep>
   <time name="dav">    2.39    2.55</time>
   <time name="total">    2.55    2.70</time>
   <energy>
    <i name="alphaZ">      3.52644062 </i>
    <i name="ewald">   -248.96442820 </i>
    <i name="hartreedc">     -2.24218905 </i>
    <i name="XCdc">    -18.97851310 </i>
    <i name="pawpsdc">    347.52739005 </i>
    <i name="pawaedc">   -312.28686026 </i>
    <i name="eentropy">     -0.00429830 </i>
    <i name="bandstr">     15.95269616 </i>
    <i name="atom">    206.13192747 </i>
    <i name="e_fr_energy">     -9.33783462 </i>
    <i name="e_wo_entrp">     -9.33353632 </i>
    <i name="e_0_energy">     -9.33568547 </i>
   </energy>
  </scstep>
  <scstep>
   <time name="dav">    2.11    1.87</time>
   <time name="total">    2.27    2.05</time>
   <energy>
    <i name="e_fr_energy">     -9.33738350 </i>
    <i name="e_wo_entrp">     -9.33312707 </i>
    <i name="e_0_energy">     -9.33525528 </i>
   </energy>
  </scstep>
  <scstep>
   <time name="dav">    2.48    1.72</time>
   <time name="total">    2.64    1.84</time>
   <energy>
    <i name="e_fr_energy">     -9.33708235 </i>
    <i name="e_wo_entrp">     -9.33288570 </i>
    <i name="e_0_energy">     -9.33498403 </i>
   </energy>
  </scstep>
  <scstep>
   <time name="dav">    1.85    2.14</time>
   <time name="total">    1.95    2.21</time>
   <energy>
    <i name="alphaZ">      3.52644062 </i>
    <i name="ewald">   -248.96442820 </i>
    <i name="hartreedc">     -2.24256976 </i>
    <i name="XCdc">    -18.97868475 </i>
    <i name="pawpsdc">    347.10994230 </i>
    <i name="pawaedc">   -311.86918366 </i>
    <i name="eentropy">     -0.00419948 </i>
    <i name="bandstr">     15.95367130 </i>
    <i name="atom">    206.13192747 </i>
    <i name="e_fr_energy">     -9.33708416 </i>
    <i name="e_wo_entrp">     -9.33288468 </i>
    <i name="e_0_energy">     -9.33498442 </i>
   </energy>
  </scstep>
  <structure>
   <crystal>
    <varray name="basis" >
     <v>       3.01253023       0.00000000       0.00000000 </v>
     <v>      -1.50626512       2.60892771      -0.00000000 </v>
     <v>       0.00000000      -0.00000000       4.85830148 </v>
    </varray>
    <i name="volume">     38.18369225 </i>
    <varray name="rec_basis" >
     <v>       0.33194688       0.19164962       0.00000000 </v>
     <v>       0.00000000       0.38329924       0.00000000 </v>
     <v>       0.00000000       0.00000000       0.20583325 </v>
    </varray>
   </crystal>
   <varray name="positions" >
    <v>       0.00000000       0.00000000       0.00000000 </v>
    <v>       0.33333333       0.66666667       0.50000000 </v>
   </varray>
  </structure>
  <varray name="forces" >
   <v>      -0.00000000      -0.00000000       0.00000000 </v>
   <v>       0.00000000       0.00000000      -0.00000000 </v>
  </varray>
  <varray name="stress" >
   <v>    -122.90171079       0.00000000       0.00000000 </v>
   <v>       0.00000000    -122.90171079      -0.00000000 </v>
   <v>      -0.00000000       0.00000000    -161.86352359 </v>
  </varray>
  <energy>
   <i name="e_fr_energy">     -9.33708416 </i>
   <i name="e_wo_entrp">     -9.33498442 </i>
   <i name="e_0_energy">     -0.00419948 </i>
  </energy>
  <time name="totalsc">    9.99    9.80</time>
 </calculation>
 <calculation>
  <scstep>
   <time name="dav">    2.79    2.09</time>
   <time name="total">    2.96    2.25</time>
   <energy>
    <i name="alphaZ">      3.52644062 </i>
    <i name="ewald">   -248.88224535 </i>
    <i name="hartreedc">     -2.24694734 </i>
    <i name="XCdc">    -18.97950339 </i>
    <i name="pawpsdc">    347.08569211 </i>
    <i name="pawaedc">   -311.84492195 </i>
    <i name="eentropy">     -0.00230878 </i>
    <i name="bandstr">     15.85269714 </i>
    <i name="atom">    206.13192747 </i>
    <i name="e_fr_energy">     -9.35916947 </i>
    <i name="e_wo_entrp">     -9.35686070 </i>
    <i name="e_0_energy">     -9.35801509 </i>
   </energy>
  </scstep>
  <scstep>
   <time name="dav">    2.76    2.22</time>
   <time name="total">    2.92    2.36</time>
   <energy>
    <i name="e_fr_energy">     -9.35436935 </i>
    <i name="e_wo_entrp">     -9.35219435 </i>
    <i name="e_0_energy">     -9.35328185 </i>
   </energy>
  </scstep>
  <scstep>
   <time name="dav">    2.43    2.60</time>
   <time name="total">    2.60    2.77</time>
   <energy>
    <i name="e_fr_energy">     -9.35129095 </i>
    <i name="e_wo_entrp">     -9.34930872 </i>
    <i name="e_0_energy">     -9.35029984 </i>
   </energy>
  </scstep>
  <scstep>
   <time name="dav">    2.43    1.67</time>
   <time name="total">    2.59    1.78</time>
   <energy>
    <i name="e_fr_energy">     -9.35130731 </i>
    <i name="e_wo_entrp">     -9.34931533 </i>
    <i name="e_0_energy">     -9.35031132 </i>
   </energy>
  </scstep>
  <scstep>
   <time name="dav">    1.70    1.10</time>
   <time name="total">    1.81    1.17</time>
   <energy>
    <i name="alphaZ">      3.52644062 </i>
    <i name="ewald">   -248.88224535 </i>
    <i name="hartreedc">     -2.28860237 </i>
    <i name="XCdc">    -18.97472583 </i>
    <i name="pawpsdc">    348.12643256 </i>
    <i name="pawaedc">   -312.88586763 </i>
    <i name="eentropy">     -0.00199331 </i>
    <i name="bandstr">     15.89732110 </i>
    <i name="atom">    206.13192747 </i>
    <i name="e_fr_energy">     -9.35131273 </i>
    <i name="e_wo_entrp">     -9.34931942 </i>
    <i name="e_0_energy">     -9.35031608 </i>
   </energy>
  </scstep>
  <structure>
   <crystal>
    <varray name="basis" >
     <v>       3.05076594       0.00000000       0.00000000 </v>
     <v>      -1.52538297       2.64204081      -0.00000000 </v>
     <v>       0.00000000      -0.00000000       4.73728497 </v>
    </varray>
    <i name="volume">     38.18369225 </i>
    <varray name="rec_basis" >
     <v>       0.32778654       0.18924764       0.00000000 </v>
     <v>       0.00000000       0.37849529       0.00000000 </v>
     <v>       0.00000000       0.00000000       0.21109138 </v>
    </varray>
   </crystal>
   <varray name="positions" >
    <v>       0.00000000       0.00000000       0.00000000 </v>
    <v>       0.33333333       0.66666667       0.50000000 </v>
   </varray>
  </structure>
  <varray name="forces" >
   <v>       0.00000000      -0.00000000       0.00000000 </v>
   <v>      -0.00000000       0.00000000      -0.00000000 </v>
  </varray>
  <varray name="stress" >
   <v>    -138.26843915       0.00000000       0.00000000 </v>
   <v>       0.00000000    -138.26843915       0.00000000 </v>
   <v>       0.00000000       0.00000000    -132.18014021 </v>
  </varray>
  <energy>
   <i name="e_fr_energy">     -9.35131273 </i>
   <i name="e_wo_entrp">     -9.35031608 </i>
   <i name="e_0_energy">     -0.00199331 </i>
  </energy>
  <time name="totalsc">   13.50   11.20</time>
 </calculation>
 <calculation>
  <scstep>
   <time name="dav">    2.30    2.43</time>
   <time name="total">    2.47    2.60</time>
   <energy>
    <i name="alphaZ">      3.52644062 </i>
    <i name="ewald">   -248.89854623 </i>
    <i name="hartreedc">     -2.28575814 </i>
    <i name="XCdc">    -18.97487852 </i>
    <i name="pawpsdc">    348.20110702 </i>
    <i name="pawaedc">   -312.96042136 </i>
    <i name="eentropy">     -0.00134943 </i>
    <i name="bandstr">     15.90988966 </i>
    <i name="atom">    206.13192747 </i>
    <i name="e_fr_energy">     -9.35158892 </i>
    <i name="e_wo_entrp">     -9.35023949 </i>
    <i name="e_0_energy">     -9.35091420 </i>
   </energy>
  </scstep>
  <scstep>
   <time name="dav">    1.66    1.18</time>
   <time name="total">    1.81    1.29</time>
   <energy>
    <i name="e_fr_energy">     -9.35148958 </i>
    <i name="e_wo_entrp">     -9.35012341 </i>
    <i name="e_0_energy">     -9.35080649 </i>
   </energy>
  </scstep>
  <scstep>
   <time name="dav">    2.60    1.86</time>
   <time name="total">    2.87    2.05</time>
   <energy>
    <i name="e_fr_energy">     -9.35142875 </i>
    <i name="e_wo_entrp">     -9.35003796 </i>
    <i name="e_0_energy">     -9.35073335 </i>
   </energy>
  </scstep>
  <scstep>
   <time name="dav">    1.17    1.30</time>
   <time name="total">    1.26    1.41</time>
   <energy>
    <i name="alphaZ">      3.52644062 </i>
    <i name="ewald">   -248.89854623 </i>
    <i name="hartreedc">     -2.27745964 </i>
    <i name="XCdc">    -18.97583128 </i>
    <i name="pawpsdc">    347.87149852 </i>
    <i name="pawaedc">   -312.63067943 </i>
    <i name="eentropy">     -0.00138961 </i>
    <i name="bandstr">     15.90261049 </i>
    <i name="atom">    206.13192747 </i>
    <i name="e_fr_energy">     -9.35142911 </i>
    <i name="e_wo_entrp">     -9.35003949 </i>
    <i name="e_0_energy">     -9.35073430 </i>
   </energy>
  </scstep>
  <structure>
   <crystal>
    <varray name="basis" >
     <v>       3.04554059       0.00000000       0.00000000 </v>
     <v>      -1.52277030       2.63751552      -0.00000000 </v>
     <v>       0.00000000      -0.00000000       4.75355479 </v>
    </varray>
    <i name="volume">     38.18369225 </i>
    <varray name="rec_basis" >
     <v>       0.32834893       0.18957234       0.00000000 </v>
     <v>       0.00000000       0.37914469       0.00000000 </v>
     <v>       0.00000000       0.00000000       0.21036888 </v>
    </varray>
   </crystal>
   <varray name="positions" >
    <v>       0.00000000       0.00000000       0.00000000 </v>
    <v>       0.33333333       0.66666667       0.50000000 </v>
   </varray>
  </structure>
  <varray name="forces" >
   <v>      -0.00000000       0.00000000       0.00000000 </v>
   <v>       0.00000000      -0.00000000       0.00000000 </v>
  </varray>
  <varray name="stress" >
   <v>    -135.38856680      -0.00000000       0.00000000 </v>
   <v>       0.00000000    -135.38856680       0.00000000 </v>
   <v>      -0.00000000      -0.00000000    -138.38985632 </v>
  </varray>
  <energy>
   <i name="e_fr_energy">     -9.35142911 </i>
   <i name="e_wo_entrp">     -9.35073430 </i>
   <i name="e_0_energy">     -0.00138961 </i>
  </energy>
  <time name="totalsc">    9.24    8.54</time>
 </calculation>
 <calculation>
  <scstep>
   <time name="dav">    2.78    2.25</time>
   <time name="total">    2.94    2.41</time>
   <energy>
    <i name="alphaZ">      3.52644062 </i>
    <i name="ewald">   -248.89333753 </i>
    <i name="hartreedc">     -2.27814547 </i>
    <i name="XCdc">    -18.97581269 </i>
    <i name="pawpsdc">    347.83519714 </i>
    <i name="pawaedc">   -312.59441610 </i>
    <i name="eentropy">     -0.00158162 </i>
    <i name="bandstr">     15.89824108 </i>
    <i name="atom">    206.13192747 </i>
    <i name="e_fr_energy">     -9.35148710 </i>
    <i name="e_wo_entrp">     -9.34990548 </i>
    <i name="e_0_energy">     -9.35069629 </i>
   </energy>
  </scstep>
  <scstep>
   <time name="dav">    1.92    1.20</time>
   <time name="total">    2.13    1.34</time>
   <energy>
    <i name="e_fr_energy">     -9.35147561 </i>
    <i name="e_wo_entrp">     -9.34989998 </i>
    <i name="e_0_energy">     -9.35068780 </i>
   </energy>
  </scstep>
  <scstep>
   <time name="dav">    1.65    1.36</time>
   <time name="total">    1.78    1.47</time>
   <energy>
    <i name="alphaZ">      3.52644062 </i>
    <i name="ewald">   -248.89333753 </i>
    <i name="hartreedc">     -2.28100313 </i>
    <i name="XCdc">    -18.97548694 </i>
    <i name="pawpsdc">    347.91560014 </i>
    <i name="pawaedc">   -312.67488818 </i>
    <i name="eentropy">     -0.00156696 </i>
    <i name="bandstr">     15.90084591 </i>
    <i name="atom">    206.13192747 </i>
    <i name="e_fr_energy">     -9.35146860 </i>
    <i name="e_wo_entrp">     -9.34990164 </i>
    <i name="e_0_energy">     -9.35068512 </i>
   </energy>
  </scstep>
  <structure>
   <crystal>
    <varray name="basis" >
     <v>       3.04726391       0.00000000       0.00000000 </v>
     <v>      -1.52363195       2.63900796      -0.00000000 </v>
     <v>       0.00000000      -0.00000000       4.74817977 </v>
    </varray>
    <i name="volume">     38.18369225 </i>
    <varray name="rec_basis" >
     <v>       0.32816324       0.18946514       0.00000000 </v>
     <v>       0.00000000       0.37893027       0.00000000 </v>
     <v>       0.00000000       0.00000000       0.21060702 </v>
    </varray>
   </crystal>
   <varray name="positions" >
    <v>       0.00000000       0.00000000       0.00000000 </v>
    <v>       0.33333333       0.66666667       0.50000000 </v>
   </varray>
  </structure>
  <varray name="forces" >
   <v>       0.00000000       0.00000000      -0.00000000 </v>
   <v>       0.00000000      -0.00000000       0.00000000 </v>
  </varray>
  <varray name="stress" >
   <v>    -136.37221389       0.00000000       0.00000000 </v>
   <v>       0.00000000    -136.37221389       0.00000000 </v>
   <v>       0.00000000       0.00000000    -136.29434791 </v>
  </varray>
  <energy>
   <i name="e_fr_energy">     -9.35146860 </i>
   <i name="e_wo_entrp">     -9.35068512 </i>
   <i name="e_0_energy">     -0.00156696 </i>
  </energy>
  <time name="totalsc">    7.38    6.13</time>
  <eigenvalues>
   <array>
    <dimension dim="1">band</dimension>
    <dimension dim="2">kpoint</dimension>
    <dimension dim="3">spin</dimension>
    <field>eigene</field>
    <field>occ</field>
    <set>
     <set comment="spin 1">
      <set comment="kpoint 1">
       <r>   -4.7887    1.0000 </r>
       <r>    0.3269    1.0000 </r>
       <r>    2.7425    1.0000 </r>
       <r>    9.5614    0.0000 </r>
       <r>   10.4108    0.0000 </r>
       <r>   13.4036    0.0000 </r>
       <r>   13.9773    0.0000 </r>
       <r>   14.4998    0.0000 </r>
      </set>
      <set comment="kpoint 2">
       <r>   -3.3809    1.0000 </r>
       <r>    1.6507    1.0000 </r>
       <r>    3.9997    1.0000 </r>
       <r>    5.2205    1.0000 </r>
       <r>    8.3181    0.0000 </r>
       <r>    9.8656    0.0000 </r>
       <r>   11.7905    0.0000 </r>
       <r>   12.7921    0.0000 </r>
      </set>
      <set comment="kpoint 3">
       <r>   -1.0023    1.0000 </r>
       <r>    0.9836    1.0000 </r>
       <r>    4.1882    1.0000 </r>
       <r>    5.9340    1.0000 </r>
       <r>    6.3321    1.0000 </r>
       <r>    7.7271    0.0000 </r>
       <r>    8.4906    0.0000 </r>
       <r>   12.0694    0.0000 </r>
      </set>
      <set comment="kpoint 4">
       <r>   -2.2788    1.0000 </r>
       <r>    2.2892    1.0000 </r>
       <r>    3.4002    1.0000 </r>
       <r>    5.1611    1.0000 </r>
       <r>    7.4984    0.0000 </r>
       <r>    8.1956    0.0000 </r>
       <r>   10.0448    0.0000 </r>
       <r>   12.3107    0.0000 </r>
      </set>
      <set comment="kpoint 5">
       <r>   -4.2228    1.0000 </r>
       <r>    0.8690    1.0000 </r>
       <r>    3.2696    1.0000 </r>
       <r>    7.4101    0.0000 </r>
       <r>    9.1678    0.0000 </r>
       <r>   11.8392    0.0000 </r>
       <r>   13.2110    0.0000 </r>
       <r>   13.5897    0.0000 </r>
      </set>
      <set comment="kpoint 6">
       <r>   -5.0729    1.0000 </r>
       <r>    0.0526    1.0000 </r>
       <r>    2.4754    1.0000 </r>
       <r>   10.9895    0.0000 </r>
       <r>   11.8232    0.0000 </r>
       <r>   13.6269    0.0000 </r>
       <r>   14.4559    0.0000 </r>
       <r>   15.0338    0.0000 </r>
      </set>
      <set comment="kpoint 7">
       <r>   -1.4608    1.0000 </r>
       <r>    2.6277    1.0000 </r>
       <r>    4.1255    1.0000 </r>
       <r>    4.4831    1.0000 </r>
       <r>    5.9618    1.0000 </r>
       <r>    8.1836    0.0000 </r>
       <r>    9.1367    0.0000 </r>
       <r>   10.1062    0.0000 </r>
      </set>
      <set comment="kpoint 8">
       <r>   -0.1948    1.0000 </r>
       <r>    1.5512    1.0000 </r>
       <r>    3.7777    1.0000 </r>
       <r>    5.1419    1.0000 </r>
       <r>    6.6849    0.9936 </r>
       <r>    7.1823    0.0000 </r>
       <r>    8.3674    0.0000 </r>
       <r>    9.0973    0.0000 </r>
      </set>
      <set comment="kpoint 9">
       <r>   -2.5485    1.0000 </r>
       <r>    2.3469    1.0000 </r>
       <r>    4.1803    1.0000 </r>
       <r>    5.0285    1.0000 </r>
       <r>    6.1969    1.0000 </r>
       <r>    9.0615    0.0000 </r>
       <r>   10.6150    0.0000 </r>
       <r>   11.2266    0.0000 </r>
      </set>
      <set comment="kpoint 10">
       <r>   -3.9412    1.0000 </r>
       <r>    1.1343    1.0000 </r>
       <r>    3.5249    1.0000 </r>
       <r>    6.2162    1.0000 </r>
       <r>   10.0498    0.0000 </r>
       <r>   10.5658    0.0000 </r>
       <r>   12.4327    0.0000 </r>
       <r>   13.5123    0.0000 </r>
      </set>
      <set comment="kpoint 11">
       <r>   -0.2952    1.0000 </r>
       <r>    0.7972    1.0000 </r>
       <r>    4.6990    1.0000 </r>
       <r>    5.7511    1.0000 </r>
       <r>    5.8103    1.0000 </r>
       <r>    7.0970    0.0004 </r>
       <r>    8.2373    0.0000 </r>
       <r>   10.3560    0.0000 </r>
      </set>
      <set comment="kpoint 12">
       <r>   -1.7495    1.0000 </r>
       <r>    1.6535    1.0000 </r>
       <r>    3.5318    1.0000 </r>
       <r>    5.6092    1.0000 </r>
       <r>    6.7859    0.8554 </r>
       <r>    9.0661    0.0000 </r>
       <r>    9.1156    0.0000 </r>
       <r>   11.8190    0.0000 </r>
      </set>
      <set comment="kpoint 13">
       <r>   -4.4348    1.0000 </r>
       <r>   -1.2995    1.0000 </r>
       <r>    4.9889    1.0000 </r>
       <r>    9.8752    0.0000 </r>
       <r>   10.6916    0.0000 </r>
       <r>   12.2971    0.0000 </r>
       <r>   13.2457    0.0000 </r>
       <r>   13.3163    0.0000 </r>
      </set>
      <set comment="kpoint 14">
       <r>   -3.0302    1.0000 </r>
       <r>    0.0667    1.0000 </r>
       <r>    5.2627    1.0000 </r>
       <r>    6.4550    1.0000 </r>
       <r>    8.1569    0.0000 </r>
       <r>    8.9054    0.0000 </r>
       <r>   11.4559    0.0000 </r>
       <r>   13.0008    0.0000 </r>
      </set>
      <set comment="kpoint 15">
       <r>   -0.6632    1.0000 </r>
       <r>    1.2186    1.0000 </r>
       <r>    2.6787    1.0000 </r>
       <r>    4.4968    1.0000 </r>
       <r>    7.7676    0.0000 </r>
       <r>    8.7079    0.0000 </r>
       <r>   10.1756    0.0000 </r>
       <r>   11.1481    0.0000 </r>
      </set>
      <set comment="kpoint 16">
       <r>   -1.9318    1.0000 </r>
       <r>    1.0845    1.0000 </r>
       <r>    3.3323    1.0000 </r>
       <r>    6.1912    1.0000 </r>
       <r>    7.3362    0.0000 </r>
       <r>    8.3277    0.0000 </r>
       <r>   10.8759    0.0000 </r>
       <r>   12.0306    0.0000 </r>
      </set>
      <set comment="kpoint 17">
       <r>   -3.8700    1.0000 </r>
       <r>   -0.7474    1.0000 </r>
       <r>    5.4709    1.0000 </r>
       <r>    7.7614    0.0000 </r>
       <r>    9.4350    0.0000 </r>
       <r>   10.5372    0.0000 </r>
       <r>   12.2199    0.0000 </r>
       <r>   13.3756    0.0000 </r>
      </set>
      <set comment="kpoint 18">
       <r>   -4.7184    1.0000 </r>
       <r>   -1.5775    1.0000 </r>
       <r>    4.7334    1.0000 </r>
       <r>   11.2810    0.0000 </r>
       <r>   12.1037    0.0000 </r>
       <r>   12.9439    0.0000 </r>
       <r>   13.3435    0.0000 </r>
       <r>   14.0756    0.0000 </r>
      </set>
      <set comment="kpoint 19">
       <r>   -1.1173    1.0000 </r>
       <r>    1.7942    1.0000 </r>
       <r>    3.6773    1.0000 </r>
       <r>    4.7954    1.0000 </r>
       <r>    6.5958    0.9999 </r>
       <r>    7.4903    0.0000 </r>
       <r>    8.5509    0.0000 </r>
       <r>   12.0599    0.0000 </r>
      </set>
      <set comment="kpoint 20">
       <r>    0.1376    1.0000 </r>
       <r>    1.7771    1.0000 </r>
       <r>    3.4624    1.0000 </r>
       <r>    4.2477    1.0000 </r>
       <r>    5.2005    1.0000 </r>
       <r>    7.0982    0.0004 </r>
       <r>    9.4231    0.0000 </r>
       <r>   11.0334    0.0000 </r>
      </set>
      <set comment="kpoint 21">
       <r>   -2.2003    1.0000 </r>
       <r>    0.8558    1.0000 </r>
       <r>    4.4771    1.0000 </r>
       <r>    6.4041    1.0000 </r>
       <r>    7.0678    0.0017 </r>
       <r>    7.6892    0.0000 </r>
       <r>    9.5128    0.0000 </r>
       <r>   12.7886    0.0000 </r>
      </set>
      <set comment="kpoint 22">
       <r>   -3.5892    1.0000 </r>
       <r>   -0.4741    1.0000 </r>
       <r>    5.6254    1.0000 </r>
       <r>    6.6603    0.9977 </r>
       <r>    9.2922    0.0000 </r>
       <r>   10.3558    0.0000 </r>
       <r>   12.5059    0.0000 </r>
       <r>   12.9145    0.0000 </r>
      </set>
      <set comment="kpoint 23">
       <r>    0.0367    1.0000 </r>
       <r>    1.0878    1.0000 </r>
       <r>    3.2875    1.0000 </r>
       <r>    4.3195    1.0000 </r>
       <r>    5.9312    1.0000 </r>
       <r>    8.6597    0.0000 </r>
       <r>    9.2595    0.0000 </r>
       <r>   10.6523    0.0000 </r>
      </set>
      <set comment="kpoint 24">
       <r>   -1.4052    1.0000 </r>
       <r>    1.4043    1.0000 </r>
       <r>    2.5009    1.0000 </r>
       <r>    5.2147    1.0000 </r>
       <r>    7.8553    0.0000 </r>
       <r>    9.3776    0.0000 </r>
       <r>   10.8641    0.0000 </r>
       <r>   12.0288    0.0000 </r>
      </set>
      <set comment="kpoint 25">
       <r>   -3.7296    1.0000 </r>
       <r>   -2.6794    1.0000 </r>
       <r>    7.5730    0.0000 </r>
       <r>   10.2555    0.0000 </r>
       <r>   10.4860    0.0000 </r>
       <r>   11.0861    0.0000 </r>
       <r>   11.8573    0.0000 </r>
       <r>   12.2967    0.0000 </r>
      </set>
      <set comment="kpoint 26">
       <r>   -2.3320    1.0000 </r>
       <r>   -1.2934    1.0000 </r>
       <r>    5.9980    1.0000 </r>
       <r>    6.9677    0.0655 </r>
       <r>    8.7966    0.0000 </r>
       <r>    9.4573    0.0000 </r>
       <r>   10.3747    0.0000 </r>
       <r>   11.7362    0.0000 </r>
      </set>
      <set comment="kpoint 27">
       <r>    0.0020    1.0000 </r>
       <r>    0.9072    1.0000 </r>
       <r>    2.3193    1.0000 </r>
       <r>    3.2066    1.0000 </r>
       <r>    8.5009    0.0000 </r>
       <r>    9.4163    0.0000 </r>
       <r>   10.9822    0.0000 </r>
       <r>   12.2336    0.0000 </r>
      </set>
      <set comment="kpoint 28">
       <r>   -1.2421    1.0000 </r>
       <r>   -0.2218    1.0000 </r>
       <r>    3.9553    1.0000 </r>
       <r>    4.9356    1.0000 </r>
       <r>    8.7269    0.0000 </r>
       <r>    9.5237    0.0000 </r>
       <r>   10.2400    0.0000 </r>
       <r>   12.2170    0.0000 </r>
      </set>
      <set comment="kpoint 29">
       <r>   -3.1673    1.0000 </r>
       <r>   -2.1211    1.0000 </r>
       <r>    7.7804    0.0000 </r>
       <r>    8.6088    0.0000 </r>
       <r>    9.1517    0.0000 </r>
       <r>   10.0687    0.0000 </r>
       <r>   11.0328    0.0000 </r>
       <r>   11.4134    0.0000 </r>
      </set>
      <set comment="kpoint 30">
       <r>   -4.0120    1.0000 </r>
       <r>   -2.9600    1.0000 </r>
       <r>    7.3478    0.0000 </r>
       <r>   10.1599    0.0000 </r>
       <r>   11.8613    0.0000 </r>
       <r>   12.6264    0.0000 </r>
       <r>   12.6420    0.0000 </r>
       <r>   13.3662    0.0000 </r>
      </set>
      <set comment="kpoint 31">
       <r>   -0.4363    1.0000 </r>
       <r>    0.5632    1.0000 </r>
       <r>    4.2199    1.0000 </r>
       <r>    5.0559    1.0000 </r>
       <r>    5.6790    1.0000 </r>
       <r>    6.4960    1.0000 </r>
       <r>   10.7717    0.0000 </r>
       <r>   12.8202    0.0000 </r>
      </set>
      <set comment="kpoint 32">
       <r>    0.7822    1.0000 </r>
       <r>    1.6045    1.0000 </r>
       <r>    3.0290    1.0000 </r>
       <r>    3.8238    1.0000 </r>
       <r>    4.9346    1.0000 </r>
       <r>    5.8777    1.0000 </r>
       <r>   11.7177    0.0000 </r>
       <r>   12.7832    0.0000 </r>
      </set>
      <set comment="kpoint 33">
       <r>   -1.5077    1.0000 </r>
       <r>   -0.4800    1.0000 </r>
       <r>    5.1320    1.0000 </r>
       <r>    6.0742    1.0000 </r>
       <r>    7.2250    0.0000 </r>
       <r>    8.0767    0.0000 </r>
       <r>    9.9314    0.0000 </r>
       <r>   12.3233    0.0000 </r>
      </set>
      <set comment="kpoint 34">
       <r>   -2.8878    1.0000 </r>
       <r>   -1.8440    1.0000 </r>
       <r>    7.0006    0.0241 </r>
       <r>    7.9453    0.0000 </r>
       <r>    8.5994    0.0000 </r>
       <r>   10.9596    0.0000 </r>
       <r>   11.0715    0.0000 </r>
       <r>   11.8372    0.0000 </r>
      </set>
      <set comment="kpoint 35">
       <r>    0.6734    1.0000 </r>
       <r>    1.3404    1.0000 </r>
       <r>    2.3885    1.0000 </r>
       <r>    3.0486    1.0000 </r>
       <r>    6.5693    1.0000 </r>
       <r>    7.5218    0.0000 </r>
       <r>   11.5493    0.0000 </r>
       <r>   12.4784    0.0000 </r>
      </set>
      <set comment="kpoint 36">
       <r>   -0.7229    1.0000 </r>
       <r>    0.2736    1.0000 </r>
       <r>    2.9527    1.0000 </r>
       <r>    3.9220    1.0000 </r>
       <r>    9.9945    0.0000 </r>
       <r>   10.1577    0.0000 </r>
       <r>   10.8983    0.0000 </r>
       <r>   11.6448    0.0000 </r>
      </set>
     </set>
    </set>
   </array>
  </eigenvalues>
  <separator name="orbital magnetization" >
   <v name="MAGDIPOLOUT">      0.00000000      0.00000000      0.00000000</v>
  </separator>
  <dos>
   <i name="efermi">      6.86088723 </i>
   <total>
    <array>
     <dimension dim="1">gridpoints</dimension>
     <dimension dim="2">spin</dimension>
     <field>energy</field>
     <field>total</field>
     <field>integrated</field>
     <set>
      <set comment="spin 1">
       <r>    -6.0782     0.0000     0.0000 </r>
       <r>    -6.0045     0.0000     0.0000 </r>
       <r>    -5.9308     0.0000     0.0000 </r>
       <r>    -5.8570     0.0000     0.0000 </r>
       <r>    -5.7833     0.0000     0.0000 </r>
       <r>    -5.7096     0.0000     0.0000 </r>
       <r>    -5.6359     0.0000     0.0000 </r>
       <r>    -5.5621     0.0000     0.0000 </r>
       <r>    -5.4884     0.0000     0.0000 </r>
       <r>    -5.4147     0.0000     0.0000 </r>
       <r>    -5.3410     0.0000     0.0000 </r>
       <r>    -5.2672     0.0015     0.0001 </r>
       <r>    -5.1935     0.0206     0.0016 </r>
       <r>    -5.1198     0.1053     0.0094 </r>
       <r>    -5.0461     0.1981     0.0240 </r>
       <r>    -4.9724     0.1404     0.0343 </r>
       <r>    -4.8986     0.0660     0.0392 </r>
       <r>    -4.8249     0.1566     0.0508 </r>
       <r>    -4.7512     0.3283     0.0750 </r>
       <r>    -4.6775     0.3202     0.0986 </r>
       <r>    -4.6037     0.1458     0.1093 </r>
       <r>    -4.5300     0.0671     0.1143 </r>
       <r>    -4.4563     0.1489     0.1252 </r>
       <r>    -4.3826     0.2071     0.1405 </r>
       <r>    -4.3088     0.1970     0.1550 </r>
       <r>    -4.2351     0.3384     0.1800 </r>
       <r>    -4.1614     0.3883     0.2086 </r>
       <r>    -4.0877     0.2385     0.2262 </r>
       <r>    -4.0139     0.2875     0.2474 </r>
       <r>    -3.9402     0.4990     0.2842 </r>
       <r>    -3.8665     0.6171     0.3297 </r>
       <r>    -3.7928     0.4989     0.3665 </r>
       <r>    -3.7190     0.3338     0.3911 </r>
       <r>    -3.6453     0.2696     0.4110 </r>
       <r>    -3.5716     0.2496     0.4294 </r>
       <r>    -3.4979     0.2043     0.4444 </r>
       <r>    -3.4241     0.2673     0.4641 </r>
       <r>    -3.3504     0.4077     0.4942 </r>
       <r>    -3.2767     0.3210     0.5178 </r>
       <r>    -3.2030     0.3192     0.5414 </r>
       <r>    -3.1292     0.4835     0.5770 </r>
       <r>    -3.0555     0.5649     0.6187 </r>
       <r>    -2.9818     0.6354     0.6655 </r>
       <r>    -2.9081     0.5543     0.7064 </r>
       <r>    -2.8343     0.3385     0.7313 </r>
       <r>    -2.7606     0.1724     0.7441 </r>
       <r>    -2.6869     0.2091     0.7595 </r>
       <r>    -2.6132     0.3416     0.7847 </r>
       <r>    -2.5394     0.4499     0.8178 </r>
       <r>    -2.4657     0.3730     0.8453 </r>
       <r>    -2.3920     0.3323     0.8698 </r>
       <r>    -2.3183     0.6754     0.9196 </r>
       <r>    -2.2446     0.9738     0.9914 </r>
       <r>    -2.1708     0.9490     1.0614 </r>
       <r>    -2.0971     0.7401     1.1159 </r>
       <r>    -2.0234     0.4477     1.1489 </r>
       <r>    -1.9497     0.4186     1.1798 </r>
       <r>    -1.8759     0.5415     1.2197 </r>
       <r>    -1.8022     0.4784     1.2550 </r>
       <r>    -1.7285     0.3493     1.2807 </r>
       <r>    -1.6548     0.2533     1.2994 </r>
       <r>    -1.5810     0.3707     1.3267 </r>
       <r>    -1.5073     0.6810     1.3770 </r>
       <r>    -1.4336     0.7958     1.4356 </r>
       <r>    -1.3599     0.7554     1.4913 </r>
       <r>    -1.2861     0.9440     1.5609 </r>
       <r>    -1.2124     0.9589     1.6316 </r>
       <r>    -1.1387     0.6019     1.6760 </r>
       <r>    -1.0650     0.4426     1.7086 </r>
       <r>    -0.9912     0.4798     1.7440 </r>
       <r>    -0.9175     0.3512     1.7699 </r>
       <r>    -0.8438     0.2087     1.7853 </r>
       <r>    -0.7701     0.4664     1.8197 </r>
       <r>    -0.6963     0.8478     1.8822 </r>
       <r>    -0.6226     0.7664     1.9387 </r>
       <r>    -0.5489     0.5372     1.9783 </r>
       <r>    -0.4752     0.7157     2.0310 </r>
       <r>    -0.4014     0.7604     2.0871 </r>
       <r>    -0.3277     0.5292     2.1261 </r>
       <r>    -0.2540     0.6835     2.1765 </r>
       <r>    -0.1803     0.9048     2.2432 </r>
       <r>    -0.1065     0.6472     2.2909 </r>
       <r>    -0.0328     0.5979     2.3350 </r>
       <r>     0.0409     1.1142     2.4171 </r>
       <r>     0.1146     1.2873     2.5120 </r>
       <r>     0.1884     0.8562     2.5752 </r>
       <r>     0.2621     0.5019     2.6122 </r>
       <r>     0.3358     0.4157     2.6428 </r>
       <r>     0.4095     0.2564     2.6617 </r>
       <r>     0.4833     0.1263     2.6710 </r>
       <r>     0.5570     0.2001     2.6858 </r>
       <r>     0.6307     0.3170     2.7091 </r>
       <r>     0.7044     0.4634     2.7433 </r>
       <r>     0.7781     0.8796     2.8082 </r>
       <r>     0.8519     1.4528     2.9153 </r>
       <r>     0.9256     1.5663     3.0307 </r>
       <r>     0.9993     1.2084     3.1198 </r>
       <r>     1.0730     1.0328     3.1960 </r>
       <r>     1.1468     0.9997     3.2697 </r>
       <r>     1.2205     0.8004     3.3287 </r>
       <r>     1.2942     0.5733     3.3709 </r>
       <r>     1.3679     0.4596     3.4048 </r>
       <r>     1.4417     0.4222     3.4359 </r>
       <r>     1.5154     0.5353     3.4754 </r>
       <r>     1.5891     0.9893     3.5483 </r>
       <r>     1.6628     1.2544     3.6408 </r>
       <r>     1.7366     1.0328     3.7170 </r>
       <r>     1.8103     0.7793     3.7744 </r>
       <r>     1.8840     0.4301     3.8061 </r>
       <r>     1.9577     0.1072     3.8140 </r>
       <r>     2.0315     0.0104     3.8148 </r>
       <r>     2.1052     0.0064     3.8153 </r>
       <r>     2.1789     0.0867     3.8217 </r>
       <r>     2.2526     0.4908     3.8578 </r>
       <r>     2.3264     1.1576     3.9432 </r>
       <r>     2.4001     1.2550     4.0357 </r>
       <r>     2.4738     0.8398     4.0976 </r>
       <r>     2.5475     0.5687     4.1396 </r>
       <r>     2.6213     0.5482     4.1800 </r>
       <r>     2.6950     0.7031     4.2318 </r>
       <r>     2.7687     0.5851     4.2749 </r>
       <r>     2.8424     0.2742     4.2951 </r>
       <r>     2.9162     0.2346     4.3124 </r>
       <r>     2.9899     0.5273     4.3513 </r>
       <r>     3.0636     0.7349     4.4055 </r>
       <r>     3.1373     0.6171     4.4510 </r>
       <r>     3.2111     0.7508     4.5063 </r>
       <r>     3.2848     1.1709     4.5927 </r>
       <r>     3.3585     1.3078     4.6891 </r>
       <r>     3.4322     1.2000     4.7775 </r>
       <r>     3.5060     1.0437     4.8545 </r>
       <r>     3.5797     0.7239     4.9079 </r>
       <r>     3.6534     0.4350     4.9399 </r>
       <r>     3.7271     0.5158     4.9780 </r>
       <r>     3.8008     0.8209     5.0385 </r>
       <r>     3.8746     0.9529     5.1087 </r>
       <r>     3.9483     1.0105     5.1832 </r>
       <r>     4.0220     1.0001     5.2570 </r>
       <r>     4.0957     0.8368     5.3186 </r>
       <r>     4.1695     1.1574     5.4040 </r>
       <r>     4.2432     1.4842     5.5134 </r>
       <r>     4.3169     1.0700     5.5923 </r>
       <r>     4.3906     0.6246     5.6383 </r>
       <r>     4.4644     0.8248     5.6991 </r>
       <r>     4.5381     0.9900     5.7721 </r>
       <r>     4.6118     0.5596     5.8134 </r>
       <r>     4.6855     0.3820     5.8415 </r>
       <r>     4.7593     0.5299     5.8806 </r>
       <r>     4.8330     0.5703     5.9227 </r>
       <r>     4.9067     0.8167     5.9829 </r>
       <r>     4.9804     1.2935     6.0782 </r>
       <r>     5.0542     1.5002     6.1888 </r>
       <r>     5.1279     1.8315     6.3239 </r>
       <r>     5.2016     2.2839     6.4922 </r>
       <r>     5.2753     1.8709     6.6302 </r>
       <r>     5.3491     0.8550     6.6932 </r>
       <r>     5.4228     0.3793     6.7212 </r>
       <r>     5.4965     0.4548     6.7547 </r>
       <r>     5.5702     0.5221     6.7932 </r>
       <r>     5.6440     0.6263     6.8394 </r>
       <r>     5.7177     0.6666     6.8885 </r>
       <r>     5.7914     0.6791     6.9386 </r>
       <r>     5.8651     0.9516     7.0087 </r>
       <r>     5.9389     1.3907     7.1113 </r>
       <r>     6.0126     1.4465     7.2179 </r>
       <r>     6.0863     1.1266     7.3010 </r>
       <r>     6.1600     1.0616     7.3792 </r>
       <r>     6.2338     1.1890     7.4669 </r>
       <r>     6.3075     1.0138     7.5416 </r>
       <r>     6.3812     0.9864     7.6143 </r>
       <r>     6.4549     1.1134     7.6964 </r>
       <r>     6.5286     1.0075     7.7707 </r>
       <r>     6.6024     0.8810     7.8357 </r>
       <r>     6.6761     0.8973     7.9018 </r>
       <r>     6.7498     0.7420     7.9565 </r>
       <r>     6.8235     0.4342     7.9885 </r>
       <r>     6.8973     0.3334     8.0131 </r>
       <r>     6.9710     0.6536     8.0613 </r>
       <r>     7.0447     1.1503     8.1461 </r>
       <r>     7.1184     1.4305     8.2516 </r>
       <r>     7.1922     1.3381     8.3502 </r>
       <r>     7.2659     1.1053     8.4317 </r>
       <r>     7.3396     1.0400     8.5084 </r>
       <r>     7.4133     1.1510     8.5932 </r>
       <r>     7.4871     1.2219     8.6833 </r>
       <r>     7.5608     1.1136     8.7654 </r>
       <r>     7.6345     0.9106     8.8325 </r>
       <r>     7.7082     1.3402     8.9313 </r>
       <r>     7.7820     1.9052     9.0718 </r>
       <r>     7.8557     1.4558     9.1791 </r>
       <r>     7.9294     0.6964     9.2305 </r>
       <r>     8.0031     0.4465     9.2634 </r>
       <r>     8.0769     0.6464     9.3110 </r>
       <r>     8.1506     1.1150     9.3933 </r>
       <r>     8.2243     1.4249     9.4983 </r>
       <r>     8.2980     1.4524     9.6054 </r>
       <r>     8.3718     1.4279     9.7106 </r>
       <r>     8.4455     1.2232     9.8008 </r>
       <r>     8.5192     1.2802     9.8952 </r>
       <r>     8.5929     1.4248    10.0002 </r>
       <r>     8.6667     1.4506    10.1072 </r>
       <r>     8.7404     1.4268    10.2124 </r>
       <r>     8.8141     1.1496    10.2971 </r>
       <r>     8.8878     0.7903    10.3554 </r>
       <r>     8.9616     0.6379    10.4024 </r>
       <r>     9.0353     0.9318    10.4711 </r>
       <r>     9.1090     1.7163    10.5977 </r>
       <r>     9.1827     1.9000    10.7377 </r>
       <r>     9.2565     1.2669    10.8311 </r>
       <r>     9.3302     0.9826    10.9036 </r>
       <r>     9.4039     1.5837    11.0203 </r>
       <r>     9.4776     2.2462    11.1859 </r>
       <r>     9.5513     1.8715    11.3239 </r>
       <r>     9.6251     0.8916    11.3896 </r>
       <r>     9.6988     0.2293    11.4066 </r>
       <r>     9.7725     0.1547    11.4180 </r>
       <r>     9.8462     0.5504    11.4585 </r>
       <r>     9.9200     1.0463    11.5357 </r>
       <r>     9.9937     1.3037    11.6318 </r>
       <r>    10.0674     1.6054    11.7501 </r>
       <r>    10.1411     1.7497    11.8791 </r>
       <r>    10.2149     1.6105    11.9979 </r>
       <r>    10.2886     1.3416    12.0968 </r>
       <r>    10.3623     1.2364    12.1879 </r>
       <r>    10.4360     1.1805    12.2750 </r>
       <r>    10.5098     1.0635    12.3534 </r>
       <r>    10.5835     1.1746    12.4400 </r>
       <r>    10.6572     1.1417    12.5241 </r>
       <r>    10.7309     0.8396    12.5860 </r>
       <r>    10.8047     0.7124    12.6386 </r>
       <r>    10.8784     1.0416    12.7154 </r>
       <r>    10.9521     1.5473    12.8294 </r>
       <r>    11.0258     1.9541    12.9735 </r>
       <r>    11.0996     1.8264    13.1081 </r>
       <r>    11.1733     1.2973    13.2038 </r>
       <r>    11.2470     0.9431    13.2733 </r>
       <r>    11.3207     0.6941    13.3245 </r>
       <r>    11.3945     0.6804    13.3746 </r>
       <r>    11.4682     0.8598    13.4380 </r>
       <r>    11.5419     0.7187    13.4910 </r>
       <r>    11.6156     0.5715    13.5332 </r>
       <r>    11.6894     0.9024    13.5997 </r>
       <r>    11.7631     1.6323    13.7200 </r>
       <r>    11.8368     2.1125    13.8758 </r>
       <r>    11.9105     1.6520    13.9975 </r>
       <r>    11.9843     1.0534    14.0752 </r>
       <r>    12.0580     1.3072    14.1716 </r>
       <r>    12.1317     1.4514    14.2786 </r>
       <r>    12.2054     1.5752    14.3947 </r>
       <r>    12.2791     2.0286    14.5443 </r>
       <r>    12.3529     1.8213    14.6786 </r>
       <r>    12.4266     1.0984    14.7595 </r>
       <r>    12.5003     0.7282    14.8132 </r>
       <r>    12.5740     0.5876    14.8565 </r>
       <r>    12.6478     0.5745    14.8989 </r>
       <r>    12.7215     0.8229    14.9596 </r>
       <r>    12.7952     1.3780    15.0611 </r>
       <r>    12.8689     1.4124    15.1653 </r>
       <r>    12.9427     0.9889    15.2382 </r>
       <r>    13.0164     0.7617    15.2943 </r>
       <r>    13.0901     0.4635    15.3285 </r>
       <r>    13.1638     0.3831    15.3567 </r>
       <r>    13.2376     0.7078    15.4089 </r>
       <r>    13.3113     1.0564    15.4868 </r>
       <r>    13.3850     1.2668    15.5802 </r>
       <r>    13.4587     1.0067    15.6544 </r>
       <r>    13.5325     0.6918    15.7054 </r>
       <r>    13.6062     0.7167    15.7583 </r>
       <r>    13.6799     0.5471    15.7986 </r>
       <r>    13.7536     0.1916    15.8127 </r>
       <r>    13.8274     0.0355    15.8153 </r>
       <r>    13.9011     0.0669    15.8203 </r>
       <r>    13.9748     0.2088    15.8357 </r>
       <r>    14.0485     0.3170    15.8590 </r>
       <r>    14.1223     0.2668    15.8787 </r>
       <r>    14.1960     0.1155    15.8872 </r>
       <r>    14.2697     0.0236    15.8890 </r>
       <r>    14.3434     0.0339    15.8915 </r>
       <r>    14.4172     0.1727    15.9042 </r>
       <r>    14.4909     0.3648    15.9311 </r>
       <r>    14.5646     0.3109    15.9540 </r>
       <r>    14.6383     0.1065    15.9619 </r>
       <r>    14.7121     0.0143    15.9629 </r>
       <r>    14.7858     0.0008    15.9630 </r>
       <r>    14.8595     0.0033    15.9632 </r>
       <r>    14.9332     0.0355    15.9658 </r>
       <r>    15.0070     0.1380    15.9760 </r>
       <r>    15.0807     0.1980    15.9906 </r>
       <r>    15.1544     0.1053    15.9984 </r>
       <r>    15.2281     0.0206    15.9999 </r>
       <r>    15.3018     0.0015    16.0000 </r>
       <r>    15.3756     0.0000    16.0000 </r>
       <r>    15.4493     0.0000    16.0000 </r>
       <r>    15.5230     0.0000    16.0000 </r>
       <r>    15.5967     0.0000    16.0000 </r>
       <r>    15.6705     0.0000    16.0000 </r>
       <r>    15.7442     0.0000    16.0000 </r>
       <r>    15.8179     0.0000    16.0000 </r>
       <r>    15.8916     0.0000    16.0000 </r>
       <r>    15.9654     0.0000    16.0000 </r>
       <r>    16.0391     0.0000    16.0000 </r>
      </set>
     </set>
    </array>
   </total>
  </dos>
 </calculation>
 <structure name="finalpos" >
  <crystal>
   <varray name="basis" >
    <v>       3.04726391       0.00000000       0.00000000 </v>
    <v>      -1.52363195       2.63900796      -0.00000000 </v>
    <v>       0.00000000      -0.00000000       4.74817977 </v>
   </varray>
   <i name="volume">     38.18369225 </i>
   <varray name="rec_basis" >
    <v>       0.32816324       0.18946514       0.00000000 </v>
    <v>       0.00000000       0.37893027       0.00000000 </v>
    <v>       0.00000000       0.00000000       0.21060702 </v>
   </varray>
  </crystal>
  <varray name="positions" >
   <v>       0.00000000       0.00000000       0.00000000 </v>
   <v>       0.33333333       0.66666667       0.50000000 </v>
  </varray>
 </structure>
</modeling>
