Si beta-tin                             
           1
     3.000000    0.000000    0.000000
    -1.500000    2.598076    0.000000
     0.000000    0.000000    4.898970
    S
   2
Direct configuration=     1
   0.00000000  0.00000000  0.00000000
   0.33333333  0.66666667  0.50000000
Direct configuration=     2
   0.00000000  0.00000000  0.00000000
   0.33333333  0.66666667  0.50000000
Direct configuration=     3
   0.00000000  0.00000000  0.00000000
   0.33333333  0.66666667  0.50000000
Direct configuration=     4
   0.00000000  0.00000000  0.00000000
   0.33333333  0.66666667  0.50000000
Direct configuration=     5
   0.00000000  0.00000000  0.00000000
   0.33333333  0.66666667  0.50000000
