Fe FCC                                  
   2.90000000000000     
    -0.500000    0.500000    0.500000
     0.500000   -0.500000    0.500000
     0.500000    0.500000   -0.500000
   Fe
     1
Direct
  0.000000  0.000000  0.000000
 
   32   32   32
  103.60      101.08      93.918      83.161      70.229      56.572      43.422      31.691      21.973      14.578    
  9.5334      6.5685      5.1329      4.4946      4.0811      3.8323      3.7501      3.8323      4.0811      4.4946    
  5.1329      6.5685      9.5334      14.578      21.973      31.691      43.422      56.572      70.229      83.161    
  93.918      101.08      101.08      100.25      94.657      85.146      73.023      59.735      46.579      34.560    
  24.362      16.377      10.724      7.2271      5.4248      4.6344      4.1762      3.8764      3.7415      3.7684    
  3.9581      4.3127      4.8329      5.8773      8.1780      12.358      18.787      27.541      38.409      50.903    
  64.233      77.289      88.698      97.024      93.918      94.657      90.801      82.941      72.197      59.922    
  47.412      35.714      25.575      17.451      11.530      7.7230      5.6574      4.7248      4.2329      3.8950    
  3.7152      3.6901      3.8187      4.1050      4.5451      5.2616      6.8786      10.062      15.275      22.702    
  32.243      43.526      55.895      68.390      79.779      88.698      83.161      85.146      82.941      76.891    
  67.886      57.118      45.805      34.984      25.424      17.617      11.799      7.9471      5.7745      4.7565    
  4.2436      3.8833      3.6705      3.6016      3.6730      3.8888      4.2533      4.7722      5.8017      7.9995    
  11.899      17.794      25.702      35.372      46.287      57.647      68.390      77.289      70.229      73.023    
  72.197      67.886      60.746      51.767      42.031      32.510      23.952      16.856      11.479      7.8463    
  5.7391      4.7185      4.2051      3.8387      3.6070      3.5058      3.5291      3.6790      3.9636      4.3837    
  5.0176      6.3752      9.0233      13.348      19.489      27.322      36.468      46.287      55.895      64.233    
  56.572      59.735      59.922      57.118      51.767      44.645      36.667      28.696      21.422      15.317    
  10.640      7.4392      5.5496      4.6091      4.1195      3.7617      3.5252      3.4048      3.3921      3.4860    
  3.6951      4.0293      4.4865      5.2558      6.8570      9.7369      14.144      20.085      27.322      35.372    
  43.526      50.903      43.422      46.579      47.412      45.805      42.031      36.667      30.449      24.104    
  18.236      13.269      9.4422      6.8082      5.2402      4.4406      3.9935      3.6565      3.4276      3.3005    
  3.2646      3.3159      3.4605      3.7115      4.0777      4.5644      5.4317      7.1315      9.9921      14.144    
  19.489      25.702      32.243      38.409      31.691      34.560      35.714      34.984      32.510      28.696    
  24.104      19.318      14.839      11.029      8.0903      6.0715      4.8680      4.2347      3.8374      3.5302    
  3.3186      3.1951      3.1480      3.1705      3.2655      3.4449      3.7231      4.1062      4.6084      5.4966    
  7.1315      9.7369      13.348      17.794      22.702      27.541      21.973      24.362      25.575      25.424    
  23.952      21.422      18.236      14.839      11.626      8.8863      6.7825      5.3482      4.4930      4.0131    
  3.6634      3.3920      3.2041      3.0918      3.0429      3.0491      3.1099      3.2340      3.4358      3.7287    
  4.1155      4.6084      5.4317      6.8570      9.0233      11.899      15.275      18.787      14.578      16.377    
  17.451      17.617      16.856      15.317      13.269      11.029      8.8863      7.0596      5.6679      4.7279    
  4.1573      3.7868      3.4842      3.2517      3.0911      2.9944      2.9501      2.9495      2.9896      3.0755    
  3.2185      3.4327      3.7287      4.1062      4.5644      5.2558      6.3752      7.9995      10.062      12.358    
  9.5334      10.724      11.530      11.799      11.479      10.640      9.4422      8.0903      6.7825      5.6679    
  4.8243      4.2510      3.8709      3.5653      3.3115      3.1186      2.9861      2.9067      2.8705      2.8693    
  2.8990      2.9615      3.0642      3.2185      3.4358      3.7231      4.0777      4.4865      5.0176      5.8017    
  6.8786      8.1780      6.5685      7.2271      7.7230      7.9471      7.8463      7.4392      6.8082      6.0715    
  5.3482      4.7279      4.2510      3.9008      3.6120      3.3599      3.1545      3.0000      2.8946      2.8322    
  2.8053      2.8069      2.8329      2.8831      2.9615      3.0755      3.2340      3.4449      3.7115      4.0293    
  4.3837      4.7722      5.2616      5.8773      5.1329      5.4248      5.6574      5.7745      5.7391      5.5496    
  5.2402      4.8680      4.4930      4.1573      3.8709      3.6120      3.3783      3.1790      3.0194      2.9004    
  2.8199      2.7733      2.7554      2.7612      2.7874      2.8329      2.8990      2.9896      3.1099      3.2655    
  3.4605      3.6951      3.9636      4.2533      4.5451      4.8329      4.4946      4.6344      4.7248      4.7565    
  4.7185      4.6091      4.4406      4.2347      4.0131      3.7868      3.5653      3.3599      3.1790      3.0281    
  2.9092      2.8218      2.7635      2.7312      2.7217      2.7324      2.7612      2.8069      2.8693      2.9495    
  3.0491      3.1705      3.3159      3.4860      3.6790      3.8888      4.1050      4.3127      4.0811      4.1762    
  4.2329      4.2436      4.2051      4.1195      3.9935      3.8374      3.6634      3.4842      3.3115      3.1545    
  3.0194      2.9092      2.8245      2.7637      2.7247      2.7057      2.7050      2.7217      2.7554      2.8053    
  2.8705      2.9501      3.0429      3.1480      3.2646      3.3921      3.5291      3.6730      3.8187      3.9581    
  3.8323      3.8764      3.8950      3.8833      3.8387      3.7617      3.6565      3.5302      3.3920      3.2517    
  3.1186      3.0000      2.9004      2.8218      2.7637      2.7245      2.7024      2.6962      2.7057      2.7312    
  2.7733      2.8322      2.9067      2.9944      3.0918      3.1951      3.3005      3.4048      3.5058      3.6016    
  3.6901      3.7684      3.7501      3.7415      3.7152      3.6705      3.6070      3.5252      3.4276      3.3186    
  3.2041      3.0911      2.9861      2.8946      2.8199      2.7635      2.7247      2.7024      2.6951      2.7024    
  2.7247      2.7635      2.8199      2.8946      2.9861      3.0911      3.2041      3.3186      3.4276      3.5252    
  3.6070      3.6705      3.7152      3.7415      3.8323      3.7684      3.6901      3.6016      3.5058      3.4048    
  3.3005      3.1951      3.0918      2.9944      2.9067      2.8322      2.7733      2.7312      2.7057      2.6962    
  2.7024      2.7245      2.7637      2.8218      2.9004      3.0000      3.1186      3.2517      3.3920      3.5302    
  3.6565      3.7617      3.8387      3.8833      3.8950      3.8764      4.0811      3.9581      3.8187      3.6730    
  3.5291      3.3921      3.2646      3.1480      3.0429      2.9501      2.8705      2.8053      2.7554      2.7217    
  2.7050      2.7057      2.7247      2.7637      2.8245      2.9092      3.0194      3.1545      3.3115      3.4842    
  3.6634      3.8374      3.9935      4.1195      4.2051      4.2436      4.2329      4.1762      4.4946      4.3127    
  4.1050      3.8888      3.6790      3.4860      3.3159      3.1705      3.0491      2.9495      2.8693      2.8069    
  2.7612      2.7324      2.7217      2.7312      2.7635      2.8218      2.9092      3.0281      3.1790      3.3599    
  3.5653      3.7868      4.0131      4.2347      4.4406      4.6091      4.7185      4.7565      4.7248      4.6344    
  5.1329      4.8329      4.5451      4.2533      3.9636      3.6951      3.4605      3.2655      3.1099      2.9896    
  2.8990      2.8329      2.7874      2.7612      2.7554      2.7733      2.8199      2.9004      3.0194      3.1790    
  3.3783      3.6120      3.8709      4.1573      4.4930      4.8680      5.2402      5.5496      5.7391      5.7745    
  5.6574      5.4248      6.5685      5.8773      5.2616      4.7722      4.3837      4.0293      3.7115      3.4449    
  3.2340      3.0755      2.9615      2.8831      2.8329      2.8069      2.8053      2.8322      2.8946      3.0000    
  3.1545      3.3599      3.6120      3.9008      4.2510      4.7279      5.3482      6.0715      6.8082      7.4392    
  7.8463      7.9471      7.7230      7.2271      9.5334      8.1780      6.8786      5.8017      5.0176      4.4865    
  4.0777      3.7231      3.4358      3.2185      3.0642      2.9615      2.8990      2.8693      2.8705      2.9067    
  2.9861      3.1186      3.3115      3.5653      3.8709      4.2510      4.8243      5.6679      6.7825      8.0903    
  9.4422      10.640      11.479      11.799      11.530      10.724      14.578      12.358      10.062      7.9995    
  6.3752      5.2558      4.5644      4.1062      3.7287      3.4327      3.2185      3.0755      2.9896      2.9495    
  2.9501      2.9944      3.0911      3.2517      3.4842      3.7868      4.1573      4.7279      5.6679      7.0596    
  8.8863      11.029      13.269      15.317      16.856      17.617      17.451      16.377      21.973      18.787    
  15.275      11.899      9.0233      6.8570      5.4317      4.6084      4.1155      3.7287      3.4358      3.2340    
  3.1099      3.0491      3.0429      3.0918      3.2041      3.3920      3.6634      4.0131      4.4930      5.3482    
  6.7825      8.8863      11.626      14.839      18.236      21.422      23.952      25.424      25.575      24.362    
  31.691      27.541      22.702      17.794      13.348      9.7369      7.1315      5.4966      4.6084      4.1062    
  3.7231      3.4449      3.2655      3.1705      3.1480      3.1951      3.3186      3.5302      3.8374      4.2347    
  4.8680      6.0715      8.0903      11.029      14.839      19.318      24.104      28.696      32.510      34.984    
  35.714      34.560      43.422      38.409      32.243      25.702      19.489      14.144      9.9921      7.1315    
  5.4317      4.5644      4.0777      3.7115      3.4605      3.3159      3.2646      3.3005      3.4276      3.6565    
  3.9935      4.4406      5.2402      6.8082      9.4422      13.269      18.236      24.104      30.449      36.667    
  42.031      45.805      47.412      46.579      56.572      50.903      43.526      35.372      27.322      20.085    
  14.144      9.7369      6.8570      5.2558      4.4865      4.0293      3.6951      3.4860      3.3921      3.4048    
  3.5252      3.7617      4.1195      4.6091      5.5496      7.4392      10.640      15.317      21.422      28.696    
  36.667      44.645      51.767      57.118      59.922      59.735      70.229      64.233      55.895      46.287    
  36.468      27.322      19.489      13.348      9.0233      6.3752      5.0176      4.3837      3.9636      3.6790    
  3.5291      3.5058      3.6070      3.8387      4.2051      4.7185      5.7391      7.8463      11.479      16.856    
  23.952      32.510      42.031      51.767      60.746      67.886      72.197      73.023      83.161      77.289    
  68.390      57.647      46.287      35.372      25.702      17.794      11.899      7.9995      5.8017      4.7722    
  4.2533      3.8888      3.6730      3.6016      3.6705      3.8833      4.2436      4.7565      5.7745      7.9471    
  11.799      17.617      25.424      34.984      45.805      57.118      67.886      76.891      82.941      85.146    
  93.918      88.698      79.779      68.390      55.895      43.526      32.243      22.702      15.275      10.062    
  6.8786      5.2616      4.5451      4.1050      3.8187      3.6901      3.7152      3.8950      4.2329      4.7248    
  5.6574      7.7230      11.530      17.451      25.575      35.714      47.412      59.922      72.197      82.941    
  90.801      94.657      101.08      97.024      88.698      77.289      64.233      50.903      38.409      27.541    
  18.787      12.358      8.1780      5.8773      4.8329      4.3127      3.9581      3.7684      3.7415      3.8764    
  4.1762      4.6344      5.4248      7.2271      10.724      16.377      24.362      34.560      46.579      59.735    
  73.023      85.146      94.657      100.25      101.08      100.25      94.657      85.146      73.023      59.735    
  46.579      34.560      24.362      16.377      10.724      7.2271      5.4248      4.6344      4.1762      3.8764    
  3.7415      3.7684      3.9581      4.3127      4.8329      5.8773      8.1780      12.358      18.787      27.541    
  38.409      50.903      64.233      77.289      88.698      97.024      100.25      101.08      97.024      88.698    
  77.289      64.233      50.903      38.409      27.541      18.787      12.358      8.1780      5.8773      4.8329    
  4.3127      3.9581      3.7684      3.7415      3.8764      4.1762      4.6344      5.4248      7.2271      10.724    
  16.377      24.362      34.560      46.579      59.735      73.023      85.146      94.657      94.657      97.024    
  94.657      87.922      77.807      65.649      52.815      40.475      29.493      20.435      13.588      8.9623    
  6.2803      4.9984      4.4088      4.0130      3.7762      3.6982      3.7762      4.0130      4.4088      4.9984    
  6.2803      8.9623      13.588      20.435      29.493      40.475      52.815      65.649      77.807      87.922    
  85.146      88.698      87.922      82.941      74.504      63.772      52.033      40.447      29.915      21.050    
  14.193      9.4231      6.5461      5.1048      4.4541      4.0335      3.7618      3.6407      3.6653      3.8371    
  4.1610      4.6317      5.4717      7.3347      10.820      16.304      23.890      33.404      44.410      56.187    
  67.729      77.807      73.023      77.289      77.807      74.504      67.886      58.903      48.694      38.349    
  28.755      20.536      14.065      9.4640      6.6081      5.1231      4.4433      4.0149      3.7229      3.5700    
  3.5498      3.6610      3.9101      4.3004      4.8607      6.0245      8.4058      12.462      18.409      26.196    
  35.513      45.788      56.187      65.649      59.735      64.233      65.649      63.772      58.903      51.767    
  43.318      34.529      26.221      19.000      13.236      9.0768      6.4445      5.0388      4.3766      3.9559    
  3.6586      3.4873      3.4338      3.4938      3.6729      3.9804      4.4153      5.0998      6.5518      9.2748    
  13.584      19.552      27.004      35.513      44.410      52.815      46.579      50.903      52.815      52.033    
  48.694      43.318      36.667      29.560      22.725      16.711      11.867      8.3408      6.0857      4.8601    
  4.2594      3.8597      3.5706      3.3939      3.3198      3.3412      3.4607      3.6894      4.0371      4.5034    
  5.3066      6.9305      9.7593      13.981      19.552      26.196      33.404      40.475      34.560      38.409    
  40.475      40.447      38.349      34.529      29.560      24.104      18.769      14.031      10.195      7.3965    
  5.6024      4.6161      4.1023      3.7333      3.4634      3.2924      3.2096      3.2055      3.2794      3.4407    
  3.7032      4.0750      4.5637      5.4272      7.0679      9.7593      13.584      18.409      23.890      29.493    
  24.362      27.541      29.493      29.915      28.755      26.221      22.725      18.769      14.839      11.323    
  8.4740      6.4036      5.0816      4.3449      3.9179      3.5866      3.3435      3.1867      3.1048      3.0871    
  3.1299      3.2391      3.4282      3.7114      4.0934      4.5856      5.4272      6.9305      9.2748      12.462    
  16.304      20.435      16.377      18.787      20.435      21.050      20.536      19.000      16.711      14.031    
  11.323      8.8863      6.9183      5.5002      4.5998      4.0781      3.7197      3.4305      3.2191      3.0818    
  3.0076      2.9854      3.0098      3.0831      3.2157      3.4219      3.7140      4.0934      4.5637      5.3066    
  6.5518      8.4058      10.820      13.588      10.724      12.358      13.588      14.193      14.065      13.236    
  11.867      10.195      8.4740      6.9183      5.6679      4.7747      4.2013      3.8270      3.5211      3.2762    
  3.0982      2.9828      2.9201      2.8998      2.9155      2.9669      3.0605      3.2079      3.4219      3.7114    
  4.0750      4.5034      5.0998      6.0245      7.3347      8.9623      7.2271      8.1780      8.9623      9.4231    
  9.4640      9.0768      8.3408      7.3965      6.4036      5.5002      4.7747      4.2510      3.8855      3.5877    
  3.3335      3.1329      2.9882      2.8950      2.8450      2.8297      2.8431      2.8832      2.9531      3.0605    
  3.2157      3.4282      3.7032      4.0371      4.4153      4.8607      5.4717      6.2803      5.4248      5.8773    
  6.2803      6.5461      6.6081      6.4445      6.0857      5.6024      5.0816      4.5998      4.2013      3.8855    
  3.6120      3.3689      3.1657      3.0075      2.8942      2.8218      2.7842      2.7752      2.7898      2.8255    
  2.8832      2.9669      3.0831      3.2391      3.4407      3.6894      3.9804      4.3004      4.6317      4.9984    
  4.6344      4.8329      4.9984      5.1048      5.1231      5.0388      4.8601      4.6161      4.3449      4.0781    
  3.8270      3.5877      3.3689      3.1790      3.0235      2.9038      2.8189      2.7654      2.7393      2.7367    
  2.7541      2.7898      2.8431      2.9155      3.0098      3.1299      3.2794      3.4607      3.6729      3.9101    
  4.1610      4.4088      4.1762      4.3127      4.4088      4.4541      4.4433      4.3766      4.2594      4.1023    
  3.9179      3.7197      3.5211      3.3335      3.1657      3.0235      2.9092      2.8229      2.7626      2.7261    
  2.7108      2.7148      2.7367      2.7752      2.8297      2.8998      2.9854      3.0871      3.2055      3.3412    
  3.4938      3.6610      3.8371      4.0130      3.8764      3.9581      4.0130      4.0335      4.0149      3.9559    
  3.8597      3.7333      3.5866      3.4305      3.2762      3.1329      3.0075      2.9038      2.8229      2.7637    
  2.7244      2.7031      2.6987      2.7108      2.7393      2.7842      2.8450      2.9201      3.0076      3.1048    
  3.2096      3.3198      3.4338      3.5498      3.6653      3.7762      3.7415      3.7684      3.7762      3.7618    
  3.7229      3.6586      3.5706      3.4634      3.3435      3.2191      3.0982      2.9882      2.8942      2.8189    
  2.7626      2.7244      2.7024      2.6954      2.7031      2.7261      2.7654      2.8218      2.8950      2.9828    
  3.0818      3.1867      3.2924      3.3939      3.4873      3.5700      3.6407      3.6982      3.7684      3.7415    
  3.6982      3.6407      3.5700      3.4873      3.3939      3.2924      3.1867      3.0818      2.9828      2.8950    
  2.8218      2.7654      2.7261      2.7031      2.6954      2.7024      2.7244      2.7626      2.8189      2.8942    
  2.9882      3.0982      3.2191      3.3435      3.4634      3.5706      3.6586      3.7229      3.7618      3.7762    
  3.9581      3.8764      3.7762      3.6653      3.5498      3.4338      3.3198      3.2096      3.1048      3.0076    
  2.9201      2.8450      2.7842      2.7393      2.7108      2.6987      2.7031      2.7244      2.7637      2.8229    
  2.9038      3.0075      3.1329      3.2762      3.4305      3.5866      3.7333      3.8597      3.9559      4.0149    
  4.0335      4.0130      4.3127      4.1762      4.0130      3.8371      3.6610      3.4938      3.3412      3.2055    
  3.0871      2.9854      2.8998      2.8297      2.7752      2.7367      2.7148      2.7108      2.7261      2.7626    
  2.8229      2.9092      3.0235      3.1657      3.3335      3.5211      3.7197      3.9179      4.1023      4.2594    
  4.3766      4.4433      4.4541      4.4088      4.8329      4.6344      4.4088      4.1610      3.9101      3.6729    
  3.4607      3.2794      3.1299      3.0098      2.9155      2.8431      2.7898      2.7541      2.7367      2.7393    
  2.7654      2.8189      2.9038      3.0235      3.1790      3.3689      3.5877      3.8270      4.0781      4.3449    
  4.6161      4.8601      5.0388      5.1231      5.1048      4.9984      5.8773      5.4248      4.9984      4.6317    
  4.3004      3.9804      3.6894      3.4407      3.2391      3.0831      2.9669      2.8832      2.8255      2.7898    
  2.7752      2.7842      2.8218      2.8942      3.0075      3.1657      3.3689      3.6120      3.8855      4.2013    
  4.5998      5.0816      5.6024      6.0857      6.4445      6.6081      6.5461      6.2803      8.1780      7.2271    
  6.2803      5.4717      4.8607      4.4153      4.0371      3.7032      3.4282      3.2157      3.0605      2.9531    
  2.8832      2.8431      2.8297      2.8450      2.8950      2.9882      3.1329      3.3335      3.5877      3.8855    
  4.2510      4.7747      5.5002      6.4036      7.3965      8.3408      9.0768      9.4640      9.4231      8.9623    
  12.358      10.724      8.9623      7.3347      6.0245      5.0998      4.5034      4.0750      3.7114      3.4219    
  3.2079      3.0605      2.9669      2.9155      2.8998      2.9201      2.9828      3.0982      3.2762      3.5211    
  3.8270      4.2013      4.7747      5.6679      6.9183      8.4739      10.195      11.867      13.236      14.065    
  14.193      13.588      18.787      16.377      13.588      10.820      8.4058      6.5518      5.3066      4.5637    
  4.0934      3.7140      3.4219      3.2157      3.0831      3.0098      2.9854      3.0076      3.0818      3.2191    
  3.4305      3.7197      4.0781      4.5998      5.5002      6.9183      8.8863      11.323      14.031      16.711    
  19.000      20.536      21.050      20.435      27.541      24.362      20.435      16.304      12.462      9.2748    
  6.9305      5.4272      4.5856      4.0934      3.7114      3.4282      3.2391      3.1299      3.0871      3.1048    
  3.1867      3.3435      3.5866      3.9179      4.3449      5.0816      6.4036      8.4739      11.323      14.839    
  18.769      22.725      26.221      28.755      29.915      29.493      38.409      34.560      29.493      23.890    
  18.409      13.584      9.7593      7.0679      5.4272      4.5637      4.0750      3.7032      3.4407      3.2794    
  3.2055      3.2096      3.2924      3.4634      3.7333      4.1023      4.6161      5.6024      7.3965      10.195    
  14.031      18.769      24.104      29.560      34.529      38.349      40.447      40.475      50.903      46.579    
  40.475      33.404      26.196      19.552      13.981      9.7593      6.9305      5.3066      4.5034      4.0371    
  3.6894      3.4607      3.3412      3.3198      3.3939      3.5706      3.8597      4.2594      4.8601      6.0857    
  8.3408      11.867      16.711      22.725      29.560      36.667      43.318      48.694      52.033      52.815    
  64.233      59.735      52.815      44.410      35.513      27.004      19.552      13.584      9.2748      6.5518    
  5.0998      4.4153      3.9804      3.6729      3.4938      3.4338      3.4873      3.6586      3.9559      4.3766    
  5.0388      6.4445      9.0768      13.236      19.000      26.221      34.529      43.318      51.767      58.903    
  63.772      65.649      77.289      73.023      65.649      56.187      45.788      35.513      26.196      18.409    
  12.462      8.4058      6.0245      4.8607      4.3004      3.9101      3.6610      3.5498      3.5700      3.7229    
  4.0149      4.4433      5.1231      6.6081      9.4640      14.065      20.536      28.755      38.349      48.694    
  58.903      67.886      74.504      77.807      88.698      85.146      77.807      67.729      56.187      44.410    
  33.404      23.890      16.304      10.820      7.3347      5.4717      4.6317      4.1610      3.8371      3.6653    
  3.6407      3.7618      4.0335      4.4541      5.1048      6.5461      9.4231      14.193      21.050      29.915    
  40.447      52.033      63.772      74.504      82.941      87.922      97.024      94.657      87.922      77.807    
  65.649      52.815      40.475      29.493      20.435      13.588      8.9623      6.2803      4.9984      4.4088    
  4.0130      3.7762      3.6982      3.7762      4.0130      4.4088      4.9984      6.2803      8.9623      13.588    
  20.435      29.493      40.475      52.815      65.649      77.807      87.922      94.657      93.918      94.657    
  90.801      82.941      72.197      59.922      47.412      35.714      25.575      17.451      11.530      7.7230    
  5.6574      4.7248      4.2329      3.8950      3.7152      3.6901      3.8187      4.1050      4.5451      5.2616    
  6.8786      10.062      15.275      22.702      32.243      43.526      55.895      68.390      79.779      88.698    
  94.657      97.024      94.657      87.922      77.807      65.649      52.815      40.475      29.493      20.435    
  13.588      8.9623      6.2803      4.9984      4.4088      4.0130      3.7762      3.6982      3.7762      4.0130    
  4.4088      4.9984      6.2803      8.9623      13.588      20.435      29.493      40.475      52.815      65.649    
  77.807      87.922      90.801      94.657      93.918      88.698      79.779      68.390      55.895      43.526    
  32.243      22.702      15.275      10.062      6.8786      5.2616      4.5451      4.1050      3.8187      3.6901    
  3.7152      3.8950      4.2329      4.7248      5.6574      7.7230      11.530      17.451      25.575      35.714    
  47.412      59.922      72.197      82.941      82.941      87.922      88.698      85.146      77.807      67.729    
  56.187      44.410      33.404      23.890      16.304      10.820      7.3347      5.4717      4.6317      4.1610    
  3.8371      3.6653      3.6407      3.7618      4.0335      4.4541      5.1048      6.5461      9.4231      14.193    
  21.050      29.915      40.447      52.033      63.772      74.504      72.197      77.807      79.779      77.807    
  72.197      63.772      53.654      42.998      32.801      23.808      16.496      11.088      7.5471      5.5787    
  4.6618      4.1735      3.8270      3.6232      3.5566      3.6232      3.8270      4.1735      4.6618      5.5787    
  7.5471      11.088      16.496      23.808      32.801      42.998      53.654      63.772      59.922      65.649    
  68.390      67.729      63.772      57.118      48.694      39.526      30.548      22.486      15.826      10.815    
  7.4647      5.5489      4.6273      4.1392      3.7856      3.5631      3.4656      3.4863      3.6270      3.8963    
  4.2968      4.8765      6.0837      8.4658      12.404      18.048      25.298      33.811      42.998      52.033    
  47.412      52.815      55.895      56.187      53.654      48.694      42.031      34.529      27.015      20.159    
  14.423      10.059      7.1017      5.3797      4.5272      4.0598      3.7134      3.4857      3.3696      3.3559    
  3.4434      3.6404      3.9573      4.3923      5.0829      6.5098      9.1078      13.127      18.594      25.298    
  32.801      40.447      35.714      40.475      43.526      44.410      42.998      39.526      34.529      28.696    
  22.725      17.200      12.537      8.9651      6.5317      5.1011      4.3722      3.9414      3.6142      3.3932    
  3.2704      3.2346      3.2816      3.4173      3.6543      4.0023      4.4610      5.2353      6.7532      9.3377    
  13.127      18.048      23.808      29.915      25.575      29.493      32.243      33.404      32.801      30.548    
  27.015      22.725      18.236      14.031      10.461      7.7249      5.8628      4.7643      4.1809      3.7935    
  3.4946      3.2896      3.1700      3.1236      3.1433      3.2319      3.4007      3.6640      4.0289      4.4989    
  5.2916      6.7532      9.1078      12.404      16.496      21.050      17.451      20.435      22.702      23.890    
  23.808      22.486      20.159      17.200      14.031      11.029      8.4740      6.5231      5.2045      4.4226    
  3.9712      3.6279      3.3633      3.1808      3.0716      3.0234      3.0277      3.0840      3.2004      3.3908    
  3.6686      4.0375      4.4989      5.2353      6.5098      8.4658      11.088      14.193      11.530      13.588    
  15.275      16.304      16.496      15.826      14.423      12.537      10.461      8.4740      6.7825      5.5002    
  4.6390      4.1128      3.7535      3.4567      3.2297      3.0732      2.9787      2.9349      2.9328      2.9696    
  3.0500      3.1847      3.3874      3.6686      4.0289      4.4610      5.0829      6.0837      7.5471      9.4231    
  7.7230      8.9623      10.062      10.820      11.088      10.815      10.059      8.9651      7.7249      6.5231    
  5.5002      4.7279      4.2013      3.8403      3.5396      3.2911      3.1027      2.9732      2.8952      2.8590    
  2.8565      2.8836      2.9420      3.0388      3.1847      3.3908      3.6640      4.0023      4.3923      4.8765    
  5.5787      6.5461      5.6574      6.2803      6.8786      7.3347      7.5471      7.4647      7.1017      6.5317    
  5.8628      5.2045      4.6390      4.2013      3.8709      3.5877      3.3409      3.1402      2.9893      2.8860    