    1    1    1    2
  0.1219450E+02  0.2511474E-09  0.2511474E-09  0.2511474E-09  0.5000000E-15
  1.000000000000000E-004
  CAR 
 Fe FCC                                  
      8     26     12
 
  0.6250000E-01  0.6250000E-01  0.6250000E-01  0.1562500E-01
    1       -1.979966     -1.869704   1.000000   1.000000
    2        2.738572      4.763461   1.000000   1.000904
    3        2.738572      4.763461   1.000000   1.002652
    4        3.461028      5.587225   1.000000   0.000000
    5        3.992100      6.752650   1.000000   0.000000
    6        3.992100      6.752650   1.003355   0.000000
    7       25.746462     25.895253   0.000000   0.000000
    8       25.746462     25.895253   0.000000   0.000000
    9       29.051564     29.897723   0.000000   0.000000
   10       30.321602     29.967569   0.000000   0.000000
   11       34.754817     35.073995   0.000000   0.000000
   12       34.754817     35.073995   0.000000   0.000000
 
  0.1875000E+00  0.6250000E-01  0.6250000E-01  0.4687500E-01
    1       -0.448711     -0.248960   1.000000   1.000000
    2        2.371596      4.306444   1.000000   1.000217
    3        2.564649      4.453933   1.000000   1.000888
    4        3.935831      6.558876   1.000000   0.000000
    5        4.100501      6.615989   1.000660   0.000000
    6        4.387772      6.896366   0.892219   0.000000
    7       20.345160     20.916776   0.000000   0.000000
    8       23.435574     23.708460   0.000000   0.000000
    9       25.379894     26.099266   0.000000   0.000000
   10       30.525041     30.418176   0.000000   0.000000
   11       34.118114     34.665255   0.000000   0.000000
   12       35.443848     35.661173   0.000000   0.000000
 
  0.3125000E+00  0.6250000E-01  0.6250000E-01  0.4687500E-01
    1        0.693872      1.571089   1.000000   1.000000
    2        2.055444      3.911413   1.000000   1.000000
    3        3.283219      4.505139   1.000000   1.026733
    4        4.061876      6.700602   1.000000   0.000000
    5        4.185333      7.023563   1.030449   0.000000
    6        5.712693      7.749227   0.018175   0.000000
    7       14.979415     15.926571   0.000000   0.000000
    8       21.796626     22.059066   0.000000   0.000000
    9       23.169046     23.796576   0.000000   0.000000
   10       29.912819     30.060476   0.000000   0.000000
   11       33.437305     33.971120   0.000000   0.000000
   12       38.653048     38.849981   0.000000   0.000000
 
  0.4375000E+00  0.6250000E-01  0.6250000E-01  0.2343750E-01
    1        0.767650      2.113889   1.000000   1.000000
    2        1.933934      3.760216   1.000000   1.000000
    3        4.117352      5.188104   1.000000   0.656293
    4        4.208600      6.765790   1.000000   0.000000
    5        4.220017      7.078722   1.077022   0.000000
    6        7.094724      8.549787  -0.005011   0.000000
    7       11.917454     13.295207   0.000000   0.000000
    8       21.201572     21.443246   0.000000   0.000000
    9       22.345809     22.924323   0.000000   0.000000
   10       29.659610     29.882722   0.000000   0.000000
   11       33.316585     33.874157   0.000000   0.000000
   12       38.749077     38.702122   0.000000   0.000000
 
 -0.6250000E-01  0.6250000E-01  0.6250000E-01  0.1171875E-01
    1       -2.567190     -2.464259   1.000000   1.000000
    2        2.920099      4.984229   1.000000   0.995322
    3        2.920100      4.984230   1.000000   0.993214
    4        2.999134      5.085798   1.000000   0.000000
    5        3.925796      6.674828   1.000000   0.000000
    6        4.101932      6.906527   1.000000   0.000000
    7       27.751235     27.584549   0.000000   0.000000
    8       29.009014     28.860727   0.000000   0.000000
    9       29.009017     28.860727   0.000000   0.000000
   10       31.725759     32.091547   0.000000   0.000000
   11       33.618309     34.361389   0.000000   0.000000
   12       33.618310     34.361392   0.000000   0.000000
 
  0.1875000E+00  0.1875000E+00  0.6250000E-01  0.4687500E-01
    1        0.983851      1.504382   1.000000   1.000000
    2        2.121608      3.926070   1.000000   1.000000
    3        2.298556      4.024993   1.000000   1.000695
    4        4.007806      6.687458   1.000000   0.000000
    5        4.214784      7.016856   1.000555   0.000000
    6        5.896775      7.924142  -0.000775   0.000000
    7       17.934022     18.606007   0.000000   0.000000
    8       18.623239     19.255157   0.000000   0.000000
    9       22.375918     22.932064   0.000000   0.000000
   10       32.378496     32.265430   0.000000   0.000000
   11       35.714622     35.995754   0.000000   0.000000
   12       38.024214     38.285866   0.000000   0.000000
 
  0.3125000E+00  0.1875000E+00  0.6250000E-01  0.9375000E-01
    1        1.342741      2.680576   1.000000   1.000000
    2        1.969246      3.704398   1.000000   1.000000
    3        2.889438      4.196959   1.000000   1.011995
    4        4.132900      6.815999   1.000000   0.000000
    5        4.302300      7.082208   1.008775   0.000000
    6        8.264080      9.728623  -0.003876   0.000000
    7       13.356819     14.389200   0.000000   0.000000
    8       17.130953     17.774565   0.000000   0.000000
    9       21.169441     21.687876   0.000000   0.000000
   10       32.661522     32.690524   0.000000   0.000000
   11       36.820117     36.890554   0.000000   0.000000
   12       38.557353     38.932424   0.000000   0.000000
 
 -0.1875000E+00  0.1875000E+00  0.6250000E-01  0.4687500E-01
    1       -1.429229     -1.300751   1.000000   1.000000
    2        2.681303      4.686570   1.000000   1.001613
    3        2.859133      4.865878   1.000000   1.001566
    4        3.557091      5.705793   1.000000   0.000000
    5        3.711234      6.347501   1.000000   0.000000
    6        4.189802      7.004072   1.010909   0.000000
    7       23.190110     23.578988   0.000000   0.000000
    8       26.562719     26.639433   0.000000   0.000000
    9       27.254489     27.618479   0.000000   0.000000
   10       31.123166     31.518558   0.000000   0.000000
   11       31.235213     31.741083   0.000000   0.000000
   12       32.787270     33.124364   0.000000   0.000000
 
  0.3125000E+00  0.3125000E+00  0.6250000E-01  0.1562500E-01
    1        1.640114      3.255795   1.000000   1.000000
    2        2.299572      3.789388   1.000000   1.000000
    3        2.299574      3.789389   1.000000   1.000666
    4        4.256919      6.978620   1.000000   0.000000
    5        4.256920      6.978621   1.000000   0.000000
    6       11.669329     12.707484   0.000000   0.000000
    7       11.669332     12.707485   0.000000   0.000000
    8       13.916807     14.831782   0.000000   0.000000
    9       20.716884     21.257235   0.000000   0.000000
   10       35.038223     35.017829   0.000000   0.000000
   11       35.038228     35.017831   0.000000   0.000000
   12       41.615129     42.325229   0.000000   0.000000
 
 -0.3125000E+00  0.3125000E+00  0.6250000E-01  0.4687500E-01
    1        0.169378      0.606848   1.000000   1.000000
    2        2.324763      4.249565   1.000000   1.000494
    3        2.921397      4.587386   1.000000   1.009503
    4        3.894430      6.403587   1.000000   0.000000
    5        4.357643      6.743263   1.015816   0.000000
    6        4.471477      7.110413   0.723737   0.000000
    7       17.481492     18.260123   0.000000   0.000000
    8       24.244856     24.324809   0.000000   0.000000
    9       25.060176     25.655769   0.000000   0.000000
   10       29.503345     29.931039   0.000000   0.000000
   11       31.256298     31.735808   0.000000   0.000000
   12       34.163348     34.399455   0.000000   0.000000
 
 -0.1875000E+00  0.3125000E+00  0.6250000E-01  0.4687500E-01
    1       -0.029553      0.235849   1.000000   1.000000
    2        2.495365      4.479317   1.000000   1.001159
    3        2.673659      4.579422   1.000000   1.007927
    4        3.599123      6.089725   1.000000   0.000000
    5        4.219638      6.497204   1.001190   0.000000
    6        4.541534      7.210672   0.777033   0.000000
    7       20.455385     21.024150   0.000000   0.000000
    8       21.295694     21.857114   0.000000   0.000000
    9       27.794852     27.976694   0.000000   0.000000
   10       27.832762     28.298524   0.000000   0.000000
   11       31.518446     31.885997   0.000000   0.000000
   12       36.025724     36.304630   0.000000   0.000000
 
 -0.4375000E+00  0.4375000E+00  0.6250000E-01  0.4687500E-01
    1        0.651001      1.888041   1.000000   1.000000
    2        2.082269      3.955767   1.000000   1.000000
    3        3.628351      5.069936   1.000000   0.765076
    4        4.041574      6.597472   1.000000   0.000000
    5        5.204908      7.443241   0.564161   0.000000
    6        5.708530      7.597608  -0.000349   0.000000
    7       12.815911     14.046711   0.000000   0.000000
    8       22.933285     22.981756   0.000000   0.000000
    9       23.486869     24.049026   0.000000   0.000000
   10       28.814482     29.285530   0.000000   0.000000
   11       31.454985     32.009454   0.000000   0.000000
   12       35.921774     35.988484   0.000000   0.000000
 
 -0.3125000E+00  0.4375000E+00  0.6250000E-01  0.9375000E-01
    1        1.017348      1.966484   1.000000   1.000000
    2        2.217110      4.054325   1.000000   1.000056
    3        2.741109      4.412014   1.000000   1.016126
    4        3.868768      6.321318   1.000000   0.000000
    5        4.572443      7.113199   1.023650   0.000000
    6        6.177713      8.119499  -0.034836   0.000000
    7       15.356251     16.255716   0.000000   0.000000
    8       19.172329     19.759935   0.000000   0.000000
    9       25.580813     25.894983   0.000000   0.000000
   10       28.676434     29.014784   0.000000   0.000000
   11       32.181956     32.469761   0.000000   0.000000
   12       36.484871     36.870212   0.000000   0.000000
 
 -0.4375000E+00 -0.4375000E+00  0.6250000E-01  0.4687500E-01
    1        1.069300      2.513760   1.000000   1.000000
    2        2.206366      4.058189   1.000000   1.000000
    3        2.904676      4.455544   1.000000   1.032074
    4        3.960870      6.464506   1.000000   0.000000
    5        4.895631      7.325183   0.939027   0.000000
    6        8.153433      9.422516  -0.001925   0.000000
    7       12.032207     13.335987   0.000000   0.000000
    8       18.504861     19.079262   0.000000   0.000000
    9       24.785861     25.064902   0.000000   0.000000
   10       28.964375     29.392240   0.000000   0.000000
   11       33.253508     33.301982   0.000000   0.000000
   12       35.785678     36.275670   0.000000   0.000000
 
 -0.3125000E+00 -0.4375000E+00  0.6250000E-01  0.4687500E-01
    1        1.700486      3.168504   1.000000   1.000000
    2        1.946556      3.674879   1.000000   1.000000
    3        2.435746      4.138548   1.000000   1.006971
    4        4.139572      6.591277   1.000000   0.000000
    5        4.550138      7.035983   1.028545   0.000000
    6        9.288171     10.615370  -0.000665   0.000000
    7       13.542446     14.511719   0.000000   0.000000
    8       14.728428     15.552690   0.000000   0.000000
    9       25.896630     26.344257   0.000000   0.000000
   10       29.168822     29.316362   0.000000   0.000000
   11       31.260152     31.427267   0.000000   0.000000
   12       37.751246     38.585059   0.000000   0.000000
 
  0.1875000E+00  0.1875000E+00  0.1875000E+00  0.1562500E-01
    1        1.954751      3.003830   1.000000   1.000000
    2        1.954751      3.628717   1.000000   1.000000
    3        2.095695      3.628717   1.000000   1.000777
    4        4.199275      7.014996   1.000000   0.000000
    5        4.199275      7.014996   1.000000   0.000000
    6        8.222908      9.803248  -0.004894   0.000000
    7       16.339045     17.052332   0.000000   0.000000
    8       16.339045     17.052332   0.000000   0.000000
    9       17.398720     18.073103   0.000000   0.000000
   10       36.992967     36.650996   0.000000   0.000000
   11       39.405709     39.519001   0.000000   0.000000
   12       39.405709     39.519001   0.000000   0.000000
 
  0.3125000E+00  0.1875000E+00  0.1875000E+00  0.2343750E-01
    1        1.846578      3.314207   1.000000   1.000000
    2        1.919350      3.543816   1.000000   1.000000
    3        2.521740      3.885565   1.000000   1.001182
    4        4.229532      7.045379   1.000000   0.000000
    5        4.242363      7.109094   1.000000   0.000000
    6       10.990921     12.041786   0.000000   0.000000
    7       12.681896     13.724168   0.000000   0.000000
    8       15.792566     16.515654   0.000000   0.000000
    9       16.546059     17.210729   0.000000   0.000000
   10       37.927981     37.765774   0.000000   0.000000
   11       41.166621     41.145497   0.000000   0.000000
   12       41.407673     41.700821   0.000000   0.000000
 
 -0.1875000E+00  0.1875000E+00  0.1875000E+00  0.1171875E-01
    1       -0.425680     -0.231789   1.000000   1.000000
    2        3.014425      5.071938   1.000000   0.976143
    3        3.062669      5.071940   1.000000   0.840308
    4        3.062670      5.474304   1.000000   0.000000
    5        3.570986      5.732637   1.000000   0.000000
    6        4.515793      7.284087   0.921581   0.000000
    7       23.443505     23.705006   0.000000   0.000000
    8       24.133241     24.703187   0.000000   0.000000
    9       24.133247     24.703188   0.000000   0.000000
   10       26.025902     26.403644   0.000000   0.000000
   11       35.231785     35.468259   0.000000   0.000000
   12       35.231787     35.468262   0.000000   0.000000
 
 -0.3125000E+00  0.3125000E+00  0.1875000E+00  0.4687500E-01
    1        0.853200      1.453269   1.000000   1.000000
    2        2.324474      4.401397   1.000000   1.000520
    3        2.938605      4.916057   1.000000   0.877647
    4        3.537304      5.715302   1.000000   0.000000
    5        4.367305      6.622689   1.024924   0.000000
    6        5.321292      7.656118   0.129902   0.000000
    7       18.316468     19.040874   0.000000   0.000000
    8       21.594712     22.201357   0.000000   0.000000
    9       22.902556     23.278768   0.000000   0.000000
   10       26.640479     27.023128   0.000000   0.000000
   11       34.287912     34.693130   0.000000   0.000000
   12       35.940406     36.280479   0.000000   0.000000
 
 -0.4375000E+00  0.4375000E+00  0.1875000E+00  0.4687500E-01
    1        1.162448      2.598365   1.000000   1.000000
    2        2.261776      3.982467   1.000000   1.000000
    3        2.760221      4.701897   1.000000   0.919542
    4        3.730010      6.030111   1.000000   0.000000
    5        5.131763      7.512506   0.477688   0.000000
    6        7.726899      9.105162  -0.011903   0.000000
    7       13.346487     14.413018   0.000000   0.000000
    8       20.044778     20.599112   0.000000   0.000000
    9       22.083287     22.486122   0.000000   0.000000
   10       29.165576     29.407659   0.000000   0.000000
   11       33.386601     33.816106   0.000000   0.000000
   12       33.930190     34.489217   0.000000   0.000000
 
 -0.3125000E+00  0.4375000E+00  0.1875000E+00  0.4687500E-01
    1        1.448927      2.690517   1.000000   1.000000
    2        1.757649      3.728968   1.000000   1.000055
    3        3.012835      4.978671   1.000000   0.695718
    4        3.895864      6.082252   1.000000   0.000000
    5        4.749402      7.093394   1.054013   0.000000
    6        7.582285      9.120180  -0.016006   0.000000
    7       16.263727     17.074944   0.000000   0.000000
    8       16.794992     17.471968   0.000000   0.000000
    9       24.291776     24.682521   0.000000   0.000000
   10       25.653455     26.052105   0.000000   0.000000
   11       33.010134     33.469825   0.000000   0.000000
   12       35.685319     36.340594   0.000000   0.000000
 
 -0.4375000E+00 -0.4375000E+00  0.1875000E+00  0.4687500E-01
    1        1.421662      3.174481   1.000000   1.000000
    2        1.763896      3.502669   1.000000   1.000000
    3        2.835714      4.728221   1.000000   0.786330
    4        4.175546      6.418464   1.000000   0.000000
    5        4.959360      7.313833   0.938844   0.000000
    6       10.505593     11.518773   0.000000   0.000000
    7       12.535376     13.590468   0.000000   0.000000
    8       15.867531     16.562551   0.000000   0.000000
    9       24.277616     24.668271   0.000000   0.000000
   10       27.395235     27.626772   0.000000   0.000000
   11       30.422917     31.116142   0.000000   0.000000
   12       34.741652     35.358667   0.000000   0.000000
 
 -0.3125000E+00  0.3125000E+00  0.3125000E+00  0.1171875E-01
    1        1.250248      2.428829   1.000000   1.000000
    2        1.719010      3.819019   1.000000   1.000341
    3        3.765043      5.814509   1.000000  -0.262527
    4        3.765043      5.814511   1.000000   0.000000
    5        4.399573      6.677002   1.127594   0.000000
    6        6.975637      8.592790  -0.023257   0.000000
    7       18.776560     19.348552   0.000000   0.000000
    8       18.776566     19.348553   0.000000   0.000000
    9       21.108166     21.773280   0.000000   0.000000
   10       22.939636     23.461269   0.000000   0.000000
   11       34.163850     34.846607   0.000000   0.000000
   12       39.080476     39.474575   0.000000   0.000000
 
 -0.4375000E+00  0.4375000E+00  0.3125000E+00  0.4687500E-01
    1        1.179879      2.892200   1.000000   1.000000
    2        1.301686      3.194555   1.000000   1.000000
    3        3.889836      5.983022   1.000000  -0.120444
    4        4.144938      6.260647   1.000000   0.000000
    5        5.030759      7.395751   0.596097   0.000000
    6        9.989043     10.960534   0.000000   0.000000
    7       14.547310     15.274558   0.000000   0.000000
    8       17.051086     17.525983   0.000000   0.000000
    9       21.218562     21.905716   0.000000   0.000000
   10       24.001583     24.477046   0.000000   0.000000
   11       29.556448     30.394919   0.000000   0.000000
   12       38.576615     38.933607   0.000000   0.000000
 
 -0.4375000E+00 -0.4375000E+00  0.3125000E+00  0.1562500E-01
    1        1.055550      2.904033   1.000000   1.000000
    2        1.055550      2.904033   1.000000   1.000000
    3        3.986762      6.056573   1.000000  -0.070472
    4        4.891833      7.202568   1.000000   0.000000
    5        4.891833      7.202572   1.149405   0.000000
    6       13.284003     13.950113   0.000000   0.000000
    7       13.284010     13.950115   0.000000   0.000000
    8       14.308665     14.892328   0.000000   0.000000
    9       22.683765     23.229373   0.000000   0.000000
   10       22.683768     23.229374   0.000000   0.000000
   11       26.983069     27.983891   0.000000   0.000000
   12       39.091109     39.440173   0.000000   0.000000
 
 -0.4375000E+00  0.4375000E+00  0.4375000E+00  0.1171875E-01
    1        0.817367      2.642167   1.000000   1.000000
    2        0.819093      2.706921   1.000000   1.000000
    3        4.855227      7.149579   1.000000  -0.003156
    4        4.855227      7.149581   1.000000   0.000000
    5        4.998817      7.365204   0.864077   0.000000
    6       12.703047     13.215098   0.000000   0.000000
    7       15.147803     15.455318   0.000000   0.000000
    8       15.147809     15.455321   0.000000   0.000000
    9       20.204681     21.099789   0.000000   0.000000
   10       21.316460     22.051644   0.000000   0.000000
   11       25.509825     26.533626   0.000000   0.000000
   12       42.328642     42.540060   0.000000   0.000000
