PROCAR lm decomposed
# of k-points:   26         # of bands:  12         # of ions:   1

 k-point    1 :    0.06250000 0.06250000 0.06250000     weight = 0.01562500

band   1 # energy   -1.97996640 # occ.  1.00000000
 
ion      s     py     pz     px    dxy    dyz    dz2    dxz    dx2    tot
  1  0.614  0.019  0.019  0.019  0.002  0.002  0.000  0.002  0.000  0.677
 
band   2 # energy    2.73857223 # occ.  1.00000000
 
ion      s     py     pz     px    dxy    dyz    dz2    dxz    dx2    tot
  1  0.000  0.000  0.002  0.000  0.623  0.154  0.024  0.158  0.000  0.961
 
band   3 # energy    2.73857223 # occ.  1.00000000
 
ion      s     py     pz     px    dxy    dyz    dz2    dxz    dx2    tot
  1  0.000  0.001  0.000  0.001  0.000  0.470  0.000  0.465  0.024  0.961
 
band   4 # energy    3.46102826 # occ.  1.00000000
 
ion      s     py     pz     px    dxy    dyz    dz2    dxz    dx2    tot
  1  0.002  0.003  0.003  0.003  0.320  0.320  0.000  0.320  0.000  0.970
 
band   5 # energy    3.99210018 # occ.  1.00000000
 
ion      s     py     pz     px    dxy    dyz    dz2    dxz    dx2    tot
  1  0.000  0.000  0.000  0.000  0.000  0.012  0.007  0.014  0.934  0.968
 
band   6 # energy    3.99210018 # occ.  1.00335486
 
ion      s     py     pz     px    dxy    dyz    dz2    dxz    dx2    tot
  1  0.000  0.000  0.000  0.000  0.017  0.006  0.934  0.003  0.007  0.968
 
band   7 # energy   25.74646220 # occ.  0.00000000
 
ion      s     py     pz     px    dxy    dyz    dz2    dxz    dx2    tot
  1  0.000  0.019  0.078  0.020  0.169  0.042  0.165  0.042  0.000  0.535
 
band   8 # energy   25.74646220 # occ.  0.00000000
 
ion      s     py     pz     px    dxy    dyz    dz2    dxz    dx2    tot
  1  0.000  0.058  0.000  0.058  0.000  0.126  0.000  0.127  0.165  0.535
 
band   9 # energy   29.05156404 # occ.  0.00000000
 
ion      s     py     pz     px    dxy    dyz    dz2    dxz    dx2    tot
  1  0.080  0.171  0.171  0.171  0.126  0.126  0.000  0.126  0.000  0.970
 
band  10 # energy   30.32160213 # occ.  0.00000000
 
ion      s     py     pz     px    dxy    dyz    dz2    dxz    dx2    tot
  1  0.000  0.000  0.000  0.000  0.000  0.000  0.000  0.000  0.000  0.000
 
band  11 # energy   34.75481670 # occ.  0.00000000
 
ion      s     py     pz     px    dxy    dyz    dz2    dxz    dx2    tot
  1  0.000  0.030  0.168  0.173  0.023  0.024  0.010  0.004  0.005  0.435
 
band  12 # energy   34.75481670 # occ.  0.00000000
 
ion      s     py     pz     px    dxy    dyz    dz2    dxz    dx2    tot
  1  0.000  0.217  0.079  0.074  0.011  0.010  0.005  0.030  0.010  0.435
 

 k-point    2 :    0.18750000 0.06250000 0.06250000     weight = 0.04687500

band   1 # energy   -0.44871074 # occ.  1.00000000
 
ion      s     py     pz     px    dxy    dyz    dz2    dxz    dx2    tot
  1  0.478  0.057  0.057  0.017  0.007  0.062  0.003  0.007  0.010  0.698
 
band   2 # energy    2.37159640 # occ.  1.00000000
 
ion      s     py     pz     px    dxy    dyz    dz2    dxz    dx2    tot
  1  0.000  0.002  0.002  0.000  0.461  0.000  0.018  0.461  0.006  0.950
 
band   3 # energy    2.56464856 # occ.  1.00000000
 
ion      s     py     pz     px    dxy    dyz    dz2    dxz    dx2    tot
  1  0.011  0.016  0.016  0.002  0.091  0.546  0.038  0.091  0.114  0.926
 
band   4 # energy    3.93583106 # occ.  1.00000000
 
ion      s     py     pz     px    dxy    dyz    dz2    dxz    dx2    tot
  1  0.001  0.000  0.000  0.000  0.015  0.150  0.197  0.015  0.591  0.970
 
band   5 # energy    4.10050119 # occ.  1.00066008
 
ion      s     py     pz     px    dxy    dyz    dz2    dxz    dx2    tot
  1  0.000  0.000  0.000  0.000  0.014  0.000  0.710  0.014  0.237  0.974
 
band   6 # energy    4.38777215 # occ.  0.89221901
 
ion      s     py     pz     px    dxy    dyz    dz2    dxz    dx2    tot
  1  0.013  0.010  0.010  0.009  0.369  0.181  0.000  0.369  0.000  0.963
 
band   7 # energy   20.34515952 # occ.  0.00000000
 
ion      s     py     pz     px    dxy    dyz    dz2    dxz    dx2    tot
  1  0.064  0.119  0.119  0.021  0.007  0.276  0.030  0.007  0.090  0.734
 
band   8 # energy   23.43557432 # occ.  0.00000000
 
ion      s     py     pz     px    dxy    dyz    dz2    dxz    dx2    tot
  1  0.000  0.104  0.104  0.000  0.143  0.000  0.068  0.143  0.023  0.587
 
band   9 # energy   25.37989367 # occ.  0.00000000
 
ion      s     py     pz     px    dxy    dyz    dz2    dxz    dx2    tot
  1  0.123  0.052  0.052  0.388  0.094  0.001  0.009  0.094  0.028  0.842
 
band  10 # energy   30.52504107 # occ.  0.00000000
 
ion      s     py     pz     px    dxy    dyz    dz2    dxz    dx2    tot
  1  0.000  0.004  0.004  0.000  0.170  0.000  0.018  0.170  0.006  0.371
 
band  11 # energy   34.11811399 # occ.  0.00000000
 
ion      s     py     pz     px    dxy    dyz    dz2    dxz    dx2    tot
  1  0.037  0.053  0.053  0.157  0.053  0.055  0.101  0.053  0.302  0.864
 
band  12 # energy   35.44384831 # occ.  0.00000000
 
ion      s     py     pz     px    dxy    dyz    dz2    dxz    dx2    tot
  1  0.000  0.111  0.111  0.000  0.124  0.000  0.006  0.124  0.002  0.478
 

 k-point    3 :    0.31250000 0.06250000 0.06250000     weight = 0.04687500

band   1 # energy    0.69387246 # occ.  1.00000000
 
ion      s     py     pz     px    dxy    dyz    dz2    dxz    dx2    tot
  1  0.198  0.023  0.023  0.015  0.001  0.393  0.041  0.001  0.123  0.817
 
band   2 # energy    2.05544370 # occ.  1.00000000
 
ion      s     py     pz     px    dxy    dyz    dz2    dxz    dx2    tot
  1  0.000  0.003  0.003  0.000  0.465  0.000  0.006  0.465  0.002  0.944
 
band   3 # energy    3.28321888 # occ.  1.00000000
 
ion      s     py     pz     px    dxy    dyz    dz2    dxz    dx2    tot
  1  0.075  0.105  0.105  0.000  0.164  0.087  0.032  0.164  0.096  0.829
 
band   4 # energy    4.06187625 # occ.  1.00000000
 
ion      s     py     pz     px    dxy    dyz    dz2    dxz    dx2    tot
  1  0.002  0.002  0.002  0.000  0.018  0.290  0.161  0.018  0.484  0.977
 
band   5 # energy    4.18533316 # occ.  1.03044898
 
ion      s     py     pz     px    dxy    dyz    dz2    dxz    dx2    tot
  1  0.000  0.000  0.000  0.000  0.004  0.000  0.728  0.004  0.243  0.980
 
band   6 # energy    5.71269264 # occ.  0.01817524
 
ion      s     py     pz     px    dxy    dyz    dz2    dxz    dx2    tot
  1  0.051  0.058  0.058  0.008  0.308  0.118  0.001  0.308  0.003  0.913
 
band   7 # energy   14.97941531 # occ.  0.00000000
 
ion      s     py     pz     px    dxy    dyz    dz2    dxz    dx2    tot
  1  0.222  0.105  0.105  0.012  0.004  0.274  0.020  0.004  0.059  0.804
 
band   8 # energy   21.79662583 # occ.  0.00000000
 
ion      s     py     pz     px    dxy    dyz    dz2    dxz    dx2    tot
  1  0.000  0.130  0.130  0.000  0.134  0.000  0.019  0.134  0.006  0.553
 
band   9 # energy   23.16904573 # occ.  0.00000000
 
ion      s     py     pz     px    dxy    dyz    dz2    dxz    dx2    tot
  1  0.121  0.009  0.009  0.519  0.032  0.013  0.011  0.032  0.034  0.780
 
band  10 # energy   29.91281915 # occ.  0.00000000
 
ion      s     py     pz     px    dxy    dyz    dz2    dxz    dx2    tot
  1  0.000  0.008  0.008  0.000  0.339  0.000  0.006  0.339  0.002  0.701
 
band  11 # energy   33.43730511 # occ.  0.00000000
 
ion      s     py     pz     px    dxy    dyz    dz2    dxz    dx2    tot
  1  0.103  0.021  0.021  0.129  0.014  0.000  0.144  0.014  0.431  0.874
 
band  12 # energy   38.65304836 # occ.  0.00000000
 
ion      s     py     pz     px    dxy    dyz    dz2    dxz    dx2    tot
  1  0.001  0.105  0.086  0.000  0.058  0.008  0.134  0.048  0.045  0.486
 

 k-point    4 :    0.43750000 0.06250000 0.06250000     weight = 0.02343750

band   1 # energy    0.76765031 # occ.  1.00000000
 
ion      s     py     pz     px    dxy    dyz    dz2    dxz    dx2    tot
  1  0.110  0.000  0.000  0.013  0.000  0.490  0.062  0.000  0.186  0.861
 
band   2 # energy    1.93393350 # occ.  1.00000000
 
ion      s     py     pz     px    dxy    dyz    dz2    dxz    dx2    tot
  1  0.000  0.003  0.003  0.000  0.467  0.000  0.000  0.467  0.000  0.941
 
band   3 # energy    4.11735161 # occ.  1.00000000
 
ion      s     py     pz     px    dxy    dyz    dz2    dxz    dx2    tot
  1  0.010  0.000  0.000  0.000  0.000  0.290  0.170  0.000  0.509  0.978
 
band   4 # energy    4.20860000 # occ.  1.00000000
 
ion      s     py     pz     px    dxy    dyz    dz2    dxz    dx2    tot
  1  0.000  0.116  0.116  0.000  0.313  0.000  0.000  0.313  0.000  0.859
 
band   5 # energy    4.22001715 # occ.  1.07702219
 
ion      s     py     pz     px    dxy    dyz    dz2    dxz    dx2    tot
  1  0.000  0.000  0.000  0.000  0.000  0.000  0.737  0.000  0.246  0.983
 
band   6 # energy    7.09472422 # occ. -0.00501150
 
ion      s     py     pz     px    dxy    dyz    dz2    dxz    dx2    tot
  1  0.000  0.202  0.202  0.000  0.189  0.000  0.000  0.189  0.000  0.783
 
band   7 # energy   11.91745441 # occ.  0.00000000
 
ion      s     py     pz     px    dxy    dyz    dz2    dxz    dx2    tot
  1  0.419  0.000  0.000  0.015  0.000  0.356  0.020  0.000  0.060  0.870
 
band   8 # energy   21.20157179 # occ.  0.00000000
 
ion      s     py     pz     px    dxy    dyz    dz2    dxz    dx2    tot
  1  0.000  0.138  0.138  0.000  0.129  0.000  0.000  0.129  0.000  0.532
 
band   9 # energy   22.34580885 # occ.  0.00000000
 
ion      s     py     pz     px    dxy    dyz    dz2    dxz    dx2    tot
  1  0.119  0.000  0.000  0.568  0.000  0.022  0.011  0.000  0.032  0.752
 
band  10 # energy   29.65960969 # occ.  0.00000000
 
ion      s     py     pz     px    dxy    dyz    dz2    dxz    dx2    tot
  1  0.000  0.008  0.008  0.000  0.389  0.000  0.000  0.389  0.000  0.793
 
band  11 # energy   33.31658477 # occ.  0.00000000
 
ion      s     py     pz     px    dxy    dyz    dz2    dxz    dx2    tot
  1  0.139  0.000  0.000  0.120  0.000  0.013  0.161  0.000  0.483  0.916
 
band  12 # energy   38.74907722 # occ.  0.00000000
 
ion      s     py     pz     px    dxy    dyz    dz2    dxz    dx2    tot
  1  0.000  0.033  0.033  0.000  0.006  0.000  0.000  0.006  0.000  0.079
 

 k-point    5 :   -0.06250000 0.06250000 0.06250000     weight = 0.01171875

band   1 # energy   -2.56719028 # occ.  1.00000000
 
ion      s     py     pz     px    dxy    dyz    dz2    dxz    dx2    tot
  1  0.655  0.000  0.000  0.020  0.000  0.000  0.000  0.000  0.000  0.675
 
band   2 # energy    2.92009925 # occ.  1.00000000
 
ion      s     py     pz     px    dxy    dyz    dz2    dxz    dx2    tot
  1  0.000  0.001  0.001  0.000  0.483  0.000  0.000  0.483  0.000  0.968
 
band   3 # energy    2.92010003 # occ.  1.00000000
 
ion      s     py     pz     px    dxy    dyz    dz2    dxz    dx2    tot
  1  0.000  0.001  0.001  0.000  0.483  0.000  0.000  0.483  0.000  0.968
 
band   4 # energy    2.99913358 # occ.  1.00000000
 
ion      s     py     pz     px    dxy    dyz    dz2    dxz    dx2    tot
  1  0.000  0.000  0.000  0.000  0.000  0.970  0.000  0.000  0.000  0.970
 
band   5 # energy    3.92579563 # occ.  1.00000000
 
ion      s     py     pz     px    dxy    dyz    dz2    dxz    dx2    tot
  1  0.000  0.000  0.000  0.000  0.000  0.000  0.723  0.000  0.241  0.964
 
band   6 # energy    4.10193167 # occ.  1.00000000
 
ion      s     py     pz     px    dxy    dyz    dz2    dxz    dx2    tot
  1  0.000  0.000  0.000  0.000  0.000  0.000  0.243  0.000  0.728  0.972
 
band   7 # energy   27.75123468 # occ.  0.00000000
 
ion      s     py     pz     px    dxy    dyz    dz2    dxz    dx2    tot
  1  0.000  0.000  0.000  0.000  0.000  0.000  0.183  0.000  0.061  0.245
 
band   8 # energy   29.00901355 # occ.  0.00000000
 
ion      s     py     pz     px    dxy    dyz    dz2    dxz    dx2    tot
  1  0.000  0.017  0.017  0.000  0.131  0.000  0.000  0.131  0.000  0.296
 
band   9 # energy   29.00901747 # occ.  0.00000000
 
ion      s     py     pz     px    dxy    dyz    dz2    dxz    dx2    tot
  1  0.000  0.017  0.017  0.000  0.131  0.000  0.000  0.131  0.000  0.296
 
band  10 # energy   31.72575941 # occ.  0.00000000
 
ion      s     py     pz     px    dxy    dyz    dz2    dxz    dx2    tot
  1  0.021  0.000  0.000  0.330  0.000  0.000  0.062  0.000  0.187  0.600
 
band  11 # energy   33.61830905 # occ.  0.00000000
 
ion      s     py     pz     px    dxy    dyz    dz2    dxz    dx2    tot
  1  0.000  0.232  0.232  0.000  0.196  0.000  0.000  0.196  0.000  0.857
 
band  12 # energy   33.61830985 # occ.  0.00000000
 
ion      s     py     pz     px    dxy    dyz    dz2    dxz    dx2    tot
  1  0.000  0.232  0.232  0.000  0.196  0.000  0.000  0.196  0.000  0.857
 

 k-point    6 :    0.18750000 0.18750000 0.06250000     weight = 0.04687500

band   1 # energy    0.98385112 # occ.  1.00000000
 
ion      s     py     pz     px    dxy    dyz    dz2    dxz    dx2    tot
  1  0.272  0.040  0.065  0.040  0.000  0.153  0.044  0.153  0.000  0.768
 
band   2 # energy    2.12160821 # occ.  1.00000000
 
ion      s     py     pz     px    dxy    dyz    dz2    dxz    dx2    tot
  1  0.000  0.017  0.000  0.017  0.000  0.345  0.000  0.345  0.195  0.918
 
band   3 # energy    2.29855620 # occ.  1.00000000
 
ion      s     py     pz     px    dxy    dyz    dz2    dxz    dx2    tot
  1  0.027  0.003  0.054  0.003  0.661  0.078  0.007  0.078  0.000  0.911
 
band   4 # energy    4.00780628 # occ.  1.00000000
 
ion      s     py     pz     px    dxy    dyz    dz2    dxz    dx2    tot
  1  0.000  0.001  0.000  0.001  0.000  0.109  0.000  0.109  0.755  0.974
 
band   5 # energy    4.21478411 # occ.  1.00055472
 
ion      s     py     pz     px    dxy    dyz    dz2    dxz    dx2    tot
  1  0.005  0.000  0.001  0.000  0.000  0.033  0.908  0.033  0.000  0.980
 
band   6 # energy    5.89677548 # occ. -0.00077482
 
ion      s     py     pz     px    dxy    dyz    dz2    dxz    dx2    tot
  1  0.066  0.027  0.051  0.027  0.297  0.217  0.018  0.217  0.000  0.921
 
band   7 # energy   17.93402175 # occ.  0.00000000
 
ion      s     py     pz     px    dxy    dyz    dz2    dxz    dx2    tot
  1  0.000  0.160  0.000  0.160  0.000  0.157  0.000  0.157  0.114  0.747
 
band   8 # energy   18.62323908 # occ.  0.00000000
 
ion      s     py     pz     px    dxy    dyz    dz2    dxz    dx2    tot
  1  0.220  0.018  0.246  0.018  0.063  0.083  0.013  0.083  0.000  0.743
 
band   9 # energy   22.37591793 # occ.  0.00000000
 
ion      s     py     pz     px    dxy    dyz    dz2    dxz    dx2    tot
  1  0.129  0.193  0.011  0.193  0.161  0.008  0.028  0.008  0.000  0.730
 
band  10 # energy   32.37849640 # occ.  0.00000000
 
ion      s     py     pz     px    dxy    dyz    dz2    dxz    dx2    tot
  1  0.000  0.014  0.000  0.014  0.000  0.083  0.000  0.083  0.143  0.338
 
band  11 # energy   35.71462234 # occ.  0.00000000
 
ion      s     py     pz     px    dxy    dyz    dz2    dxz    dx2    tot
  1  0.022  0.025  0.036  0.025  0.350  0.153  0.015  0.153  0.000  0.779
 
band  12 # energy   38.02421398 # occ.  0.00000000
 
ion      s     py     pz     px    dxy    dyz    dz2    dxz    dx2    tot
  1  0.000  0.091  0.000  0.091  0.000  0.018  0.000  0.018  0.383  0.601
 

 k-point    7 :    0.31250000 0.18750000 0.06250000     weight = 0.09375000

band   1 # energy    1.34274133 # occ.  1.00000000
 
ion      s     py     pz     px    dxy    dyz    dz2    dxz    dx2    tot
  1  0.079  0.002  0.006  0.039  0.029  0.527  0.056  0.040  0.097  0.873
 
band   2 # energy    1.96924570 # occ.  1.00000000
 
ion      s     py     pz     px    dxy    dyz    dz2    dxz    dx2    tot
  1  0.000  0.018  0.008  0.010  0.322  0.023  0.000  0.471  0.069  0.922
 
band   3 # energy    2.88943784 # occ.  1.00000000
 
ion      s     py     pz     px    dxy    dyz    dz2    dxz    dx2    tot
  1  0.018  0.071  0.100  0.000  0.376  0.010  0.081  0.146  0.061  0.864
 
band   4 # energy    4.13289997 # occ.  1.00000000
 
ion      s     py     pz     px    dxy    dyz    dz2    dxz    dx2    tot
  1  0.002  0.001  0.000  0.001  0.000  0.211  0.054  0.046  0.661  0.978
 
band   5 # energy    4.30230026 # occ.  1.00877491
 
ion      s     py     pz     px    dxy    dyz    dz2    dxz    dx2    tot
  1  0.004  0.003  0.005  0.000  0.056  0.012  0.762  0.081  0.056  0.980
 
band   6 # energy    8.26408000 # occ. -0.00387608
 
ion      s     py     pz     px    dxy    dyz    dz2    dxz    dx2    tot
  1  0.076  0.110  0.164  0.018  0.180  0.082  0.030  0.165  0.000  0.825
 
band   7 # energy   13.35681929 # occ.  0.00000000
 
ion      s     py     pz     px    dxy    dyz    dz2    dxz    dx2    tot
  1  0.250  0.112  0.031  0.061  0.014  0.263  0.004  0.017  0.055  0.807
 
band   8 # energy   17.13095304 # occ.  0.00000000
 
ion      s     py     pz     px    dxy    dyz    dz2    dxz    dx2    tot
  1  0.175  0.047  0.096  0.160  0.078  0.004  0.001  0.148  0.027  0.736
 
band   9 # energy   21.16944073 # occ.  0.00000000
 
ion      s     py     pz     px    dxy    dyz    dz2    dxz    dx2    tot
  1  0.119  0.111  0.058  0.225  0.106  0.037  0.008  0.045  0.003  0.712
 
band  10 # energy   32.66152164 # occ.  0.00000000
 
ion      s     py     pz     px    dxy    dyz    dz2    dxz    dx2    tot
  1  0.008  0.001  0.002  0.029  0.127  0.005  0.014  0.196  0.141  0.521
 
band  11 # energy   36.82011659 # occ.  0.00000000
 
ion      s     py     pz     px    dxy    dyz    dz2    dxz    dx2    tot
  1  0.003  0.064  0.000  0.000  0.150  0.058  0.083  0.011  0.117  0.487
 
band  12 # energy   38.55735305 # occ.  0.00000000
 
ion      s     py     pz     px    dxy    dyz    dz2    dxz    dx2    tot
  1  0.046  0.006  0.004  0.118  0.058  0.001  0.230  0.035  0.273  0.773
 

 k-point    8 :   -0.18750000 0.18750000 0.06250000     weight = 0.04687500

band   1 # energy   -1.42922872 # occ.  1.00000000
 
ion      s     py     pz     px    dxy    dyz    dz2    dxz    dx2    tot
  1  0.570  0.017  0.000  0.072  0.012  0.000  0.005  0.000  0.005  0.681
 
band   2 # energy    2.68130264 # occ.  1.00000000
 
ion      s     py     pz     px    dxy    dyz    dz2    dxz    dx2    tot
  1  0.000  0.000  0.002  0.000  0.000  0.373  0.000  0.586  0.000  0.961
 
band   3 # energy    2.85913286 # occ.  1.00000000
 
ion      s     py     pz     px    dxy    dyz    dz2    dxz    dx2    tot
  1  0.004  0.011  0.000  0.006  0.809  0.000  0.106  0.000  0.011  0.947
 
band   4 # energy    3.55709087 # occ.  1.00000000
 
ion      s     py     pz     px    dxy    dyz    dz2    dxz    dx2    tot
  1  0.000  0.000  0.006  0.000  0.000  0.595  0.000  0.370  0.000  0.971
 
band   5 # energy    3.71123426 # occ.  1.00000000
 
ion      s     py     pz     px    dxy    dyz    dz2    dxz    dx2    tot
  1  0.000  0.000  0.000  0.000  0.124  0.000  0.656  0.000  0.179  0.959
 
band   6 # energy    4.18980191 # occ.  1.01090908
 
ion      s     py     pz     px    dxy    dyz    dz2    dxz    dx2    tot
  1  0.005  0.000  0.000  0.001  0.004  0.000  0.187  0.000  0.777  0.975
 
band   7 # energy   23.19010964 # occ.  0.00000000
 
ion      s     py     pz     px    dxy    dyz    dz2    dxz    dx2    tot
  1  0.030  0.131  0.000  0.062  0.263  0.000  0.173  0.000  0.012  0.672
 
band   8 # energy   26.56271873 # occ.  0.00000000
 
ion      s     py     pz     px    dxy    dyz    dz2    dxz    dx2    tot
  1  0.027  0.001  0.000  0.148  0.040  0.000  0.050  0.000  0.132  0.399
 
band   9 # energy   27.25448915 # occ.  0.00000000
 
ion      s     py     pz     px    dxy    dyz    dz2    dxz    dx2    tot
  1  0.000  0.000  0.233  0.000  0.000  0.016  0.000  0.543  0.000  0.792
 
band  10 # energy   31.12316591 # occ.  0.00000000
 
ion      s     py     pz     px    dxy    dyz    dz2    dxz    dx2    tot
  1  0.000  0.271  0.000  0.073  0.199  0.000  0.123  0.000  0.001  0.667
 
band  11 # energy   31.23521334 # occ.  0.00000000
 
ion      s     py     pz     px    dxy    dyz    dz2    dxz    dx2    tot
  1  0.000  0.000  0.328  0.000  0.000  0.447  0.000  0.000  0.000  0.776
 
band  12 # energy   32.78727046 # occ.  0.00000000
 
ion      s     py     pz     px    dxy    dyz    dz2    dxz    dx2    tot
  1  0.095  0.106  0.000  0.126  0.002  0.000  0.083  0.000  0.009  0.421
 

 k-point    9 :    0.31250000 0.31250000 0.06250000     weight = 0.01562500

band   1 # energy    1.64011426 # occ.  1.00000000
 
ion      s     py     pz     px    dxy    dyz    dz2    dxz    dx2    tot
  1  0.035  0.006  0.006  0.006  0.287  0.287  0.000  0.287  0.000  0.915
 
band   2 # energy    2.29957231 # occ.  1.00000000
 
ion      s     py     pz     px    dxy    dyz    dz2    dxz    dx2    tot
  1  0.000  0.020  0.080  0.020  0.364  0.091  0.216  0.091  0.000  0.882
 
band   3 # energy    2.29957392 # occ.  1.00000000
 
ion      s     py     pz     px    dxy    dyz    dz2    dxz    dx2    tot
  1  0.000  0.060  0.000  0.060  0.000  0.273  0.000  0.273  0.216  0.882
 
band   4 # energy    4.25691928 # occ.  1.00000000
 
ion      s     py     pz     px    dxy    dyz    dz2    dxz    dx2    tot
  1  0.000  0.003  0.000  0.003  0.000  0.121  0.000  0.121  0.731  0.980
 
band   5 # energy    4.25691973 # occ.  1.00000000
 
ion      s     py     pz     px    dxy    dyz    dz2    dxz    dx2    tot
  1  0.000  0.001  0.004  0.001  0.162  0.040  0.731  0.040  0.000  0.980
 
band   6 # energy   11.66932932 # occ.  0.00000000
 
ion      s     py     pz     px    dxy    dyz    dz2    dxz    dx2    tot
  1  0.000  0.069  0.276  0.069  0.207  0.052  0.056  0.052  0.000  0.781
 
band   7 # energy   11.66933235 # occ.  0.00000000
 
ion      s     py     pz     px    dxy    dyz    dz2    dxz    dx2    tot
  1  0.000  0.207  0.000  0.207  0.000  0.156  0.000  0.156  0.056  0.781
 
band   8 # energy   13.91680724 # occ.  0.00000000
 
ion      s     py     pz     px    dxy    dyz    dz2    dxz    dx2    tot
  1  0.584  0.002  0.002  0.002  0.070  0.070  0.000  0.070  0.000  0.800
 
band   9 # energy   20.71688371 # occ.  0.00000000
 
ion      s     py     pz     px    dxy    dyz    dz2    dxz    dx2    tot
  1  0.120  0.126  0.126  0.126  0.077  0.077  0.000  0.077  0.000  0.727
 
band  10 # energy   35.03822308 # occ.  0.00000000
 
ion      s     py     pz     px    dxy    dyz    dz2    dxz    dx2    tot
  1  0.000  0.008  0.032  0.008  0.056  0.014  0.274  0.014  0.000  0.407
 
band  11 # energy   35.03822805 # occ.  0.00000000
 
ion      s     py     pz     px    dxy    dyz    dz2    dxz    dx2    tot
  1  0.000  0.024  0.000  0.024  0.000  0.042  0.000  0.042  0.274  0.407
 
band  12 # energy   41.61512944 # occ.  0.00000000
 
ion      s     py     pz     px    dxy    dyz    dz2    dxz    dx2    tot
  1  0.031  0.056  0.056  0.056  0.335  0.335  0.000  0.335  0.000  1.202
 

 k-point   10 :   -0.31250000 0.31250000 0.06250000     weight = 0.04687500

band   1 # energy    0.16937830 # occ.  1.00000000
 
ion      s     py     pz     px    dxy    dyz    dz2    dxz    dx2    tot
  1  0.347  0.027  0.000  0.085  0.189  0.000  0.087  0.000  0.010  0.746
 
band   2 # energy    2.32476332 # occ.  1.00000000
 
ion      s     py     pz     px    dxy    dyz    dz2    dxz    dx2    tot
  1  0.000  0.000  0.002  0.000  0.000  0.430  0.000  0.519  0.000  0.951
 
band   3 # energy    2.92139732 # occ.  1.00000000
 
ion      s     py     pz     px    dxy    dyz    dz2    dxz    dx2    tot
  1  0.054  0.056  0.000  0.061  0.269  0.000  0.278  0.000  0.148  0.866
 
band   4 # energy    3.89443034 # occ.  1.00000000
 
ion      s     py     pz     px    dxy    dyz    dz2    dxz    dx2    tot
  1  0.001  0.009  0.000  0.009  0.450  0.000  0.479  0.000  0.017  0.965
 
band   5 # energy    4.35764284 # occ.  1.01581593
 
ion      s     py     pz     px    dxy    dyz    dz2    dxz    dx2    tot
  1  0.031  0.008  0.000  0.017  0.008  0.000  0.096  0.000  0.801  0.961
 
band   6 # energy    4.47147658 # occ.  0.72373693
 
ion      s     py     pz     px    dxy    dyz    dz2    dxz    dx2    tot
  1  0.000  0.000  0.008  0.000  0.000  0.536  0.000  0.434  0.000  0.978
 
band   7 # energy   17.48149216 # occ.  0.00000000
 
ion      s     py     pz     px    dxy    dyz    dz2    dxz    dx2    tot
  1  0.142  0.169  0.000  0.093  0.272  0.000  0.102  0.000  0.006  0.784
 
band   8 # energy   24.24485635 # occ.  0.00000000
 
ion      s     py     pz     px    dxy    dyz    dz2    dxz    dx2    tot
  1  0.029  0.059  0.000  0.149  0.002  0.000  0.067  0.000  0.061  0.366
 
band   9 # energy   25.06017580 # occ.  0.00000000
 
ion      s     py     pz     px    dxy    dyz    dz2    dxz    dx2    tot
  1  0.000  0.000  0.479  0.000  0.000  0.011  0.000  0.380  0.000  0.870
 
band  10 # energy   29.50334477 # occ.  0.00000000
 
ion      s     py     pz     px    dxy    dyz    dz2    dxz    dx2    tot
  1  0.000  0.000  0.177  0.000  0.000  0.550  0.000  0.169  0.000  0.896
 
band  11 # energy   31.25629786 # occ.  0.00000000
 
ion      s     py     pz     px    dxy    dyz    dz2    dxz    dx2    tot
  1  0.083  0.224  0.000  0.000  0.010  0.000  0.431  0.000  0.003  0.752
 
band  12 # energy   34.16334829 # occ.  0.00000000
 
ion      s     py     pz     px    dxy    dyz    dz2    dxz    dx2    tot
  1  0.106  0.021  0.000  0.068  0.185  0.000  0.022  0.000  0.109  0.512
 

 k-point   11 :   -0.18750000 0.31250000 0.06250000     weight = 0.04687500

band   1 # energy   -0.02955271 # occ.  1.00000000
 
ion      s     py     pz     px    dxy    dyz    dz2    dxz    dx2    tot
  1  0.420  0.012  0.012  0.126  0.037  0.000  0.016  0.037  0.048  0.708
 
band   2 # energy    2.49536453 # occ.  1.00000000
 
ion      s     py     pz     px    dxy    dyz    dz2    dxz    dx2    tot
  1  0.000  0.009  0.009  0.000  0.281  0.000  0.259  0.281  0.086  0.926
 
band   3 # energy    2.67365942 # occ.  1.00000000
 
ion      s     py     pz     px    dxy    dyz    dz2    dxz    dx2    tot
  1  0.009  0.004  0.004  0.017  0.220  0.468  0.000  0.220  0.000  0.942
 
band   4 # energy    3.59912319 # occ.  1.00000000
 
ion      s     py     pz     px    dxy    dyz    dz2    dxz    dx2    tot
  1  0.000  0.002  0.002  0.000  0.185  0.000  0.440  0.185  0.147  0.960
 
band   5 # energy    4.21963814 # occ.  1.00118978
 
ion      s     py     pz     px    dxy    dyz    dz2    dxz    dx2    tot
  1  0.001  0.003  0.003  0.001  0.157  0.329  0.082  0.157  0.245  0.977
 
band   6 # energy    4.54153359 # occ.  0.77703331
 
ion      s     py     pz     px    dxy    dyz    dz2    dxz    dx2    tot
  1  0.043  0.006  0.006  0.021  0.058  0.170  0.148  0.058  0.445  0.956
 
band   7 # energy   20.45538506 # occ.  0.00000000
 
ion      s     py     pz     px    dxy    dyz    dz2    dxz    dx2    tot
  1  0.000  0.129  0.129  0.000  0.128  0.000  0.168  0.128  0.056  0.738
 
band   8 # energy   21.29569437 # occ.  0.00000000
 
ion      s     py     pz     px    dxy    dyz    dz2    dxz    dx2    tot
  1  0.149  0.069  0.069  0.175  0.130  0.015  0.001  0.130  0.003  0.741
 
band   9 # energy   27.79485170 # occ.  0.00000000
 
ion      s     py     pz     px    dxy    dyz    dz2    dxz    dx2    tot
  1  0.000  0.057  0.057  0.000  0.118  0.000  0.190  0.118  0.063  0.605
 
band  10 # energy   27.83276202 # occ.  0.00000000
 
ion      s     py     pz     px    dxy    dyz    dz2    dxz    dx2    tot
  1  0.000  0.220  0.220  0.067  0.013  0.084  0.003  0.013  0.009  0.630
 
band  11 # energy   31.51844650 # occ.  0.00000000
 
ion      s     py     pz     px    dxy    dyz    dz2    dxz    dx2    tot
  1  0.101  0.001  0.001  0.064  0.121  0.315  0.012  0.121  0.037  0.774
 
band  12 # energy   36.02572372 # occ.  0.00000000
 
ion      s     py     pz     px    dxy    dyz    dz2    dxz    dx2    tot
  1  0.000  0.143  0.143  0.000  0.007  0.000  0.091  0.007  0.030  0.421
 

 k-point   12 :   -0.43750000 0.43750000 0.06250000     weight = 0.04687500

band   1 # energy    0.65100053 # occ.  1.00000000
 
ion      s     py     pz     px    dxy    dyz    dz2    dxz    dx2    tot
  1  0.135  0.000  0.000  0.015  0.429  0.000  0.269  0.000  0.001  0.848
 
band   2 # energy    2.08226892 # occ.  1.00000000
 
ion      s     py     pz     px    dxy    dyz    dz2    dxz    dx2    tot
  1  0.000  0.000  0.002  0.000  0.000  0.459  0.000  0.485  0.000  0.946
 
band   3 # energy    3.62835068 # occ.  1.00000000
 
ion      s     py     pz     px    dxy    dyz    dz2    dxz    dx2    tot
  1  0.016  0.051  0.000  0.056  0.003  0.000  0.107  0.000  0.666  0.900
 
band   4 # energy    4.04157413 # occ.  1.00000000
 
ion      s     py     pz     px    dxy    dyz    dz2    dxz    dx2    tot
  1  0.007  0.005  0.000  0.004  0.331  0.000  0.538  0.000  0.088  0.973
 
band   5 # energy    5.20490849 # occ.  0.56416079
 
ion      s     py     pz     px    dxy    dyz    dz2    dxz    dx2    tot
  1  0.000  0.000  0.002  0.000  0.000  0.510  0.000  0.478  0.000  0.989
 
band   6 # energy    5.70852962 # occ. -0.00034916
 
ion      s     py     pz     px    dxy    dyz    dz2    dxz    dx2    tot
  1  0.056  0.185  0.000  0.224  0.065  0.000  0.009  0.000  0.228  0.769
 
band   7 # energy   12.81591085 # occ.  0.00000000
 
ion      s     py     pz     px    dxy    dyz    dz2    dxz    dx2    tot
  1  0.342  0.081  0.000  0.024  0.313  0.000  0.086  0.000  0.003  0.849
 
band   8 # energy   22.93328538 # occ.  0.00000000
 
ion      s     py     pz     px    dxy    dyz    dz2    dxz    dx2    tot
  1  0.026  0.106  0.000  0.132  0.001  0.000  0.065  0.000  0.007  0.338
 
band   9 # energy   23.48686854 # occ.  0.00000000
 
ion      s     py     pz     px    dxy    dyz    dz2    dxz    dx2    tot
  1  0.000  0.000  0.609  0.000  0.000  0.039  0.000  0.154  0.000  0.802
 
band  10 # energy   28.81448235 # occ.  0.00000000
 
ion      s     py     pz     px    dxy    dyz    dz2    dxz    dx2    tot
  1  0.000  0.000  0.113  0.000  0.000  0.512  0.000  0.389  0.000  1.014
 
band  11 # energy   31.45498541 # occ.  0.00000000
 
ion      s     py     pz     px    dxy    dyz    dz2    dxz    dx2    tot