<?xml version="1.0" encoding="ISO-8859-1"?>
<modeling>
 <generator>
  <i name="program" type="string">vasp </i>
  <i name="version" type="string">5.4.1  </i>
  <i name="subversion" type="string">24Jun15 (build Jul 19 2016 16:50:41) complex                          parallel </i>
  <i name="platform" type="string">IFC91_ompi </i>
  <i name="date" type="string">2019 10 17 </i>
  <i name="time" type="string">13:11:51 </i>
 </generator>
 <incar>
  <i type="string" name="SYSTEM"> Fe FCC</i>
  <i type="string" name="PREC">accurate</i>
  <i type="int" name="ISPIN">     2</i>
  <i name="EDIFF">      0.00000100</i>
  <i name="ENCUT">    400.00000000</i>
  <v name="MAGMOM">      4.00000000</v>
  <i type="int" name="ISMEAR">    -5</i>
  <i type="logical" name="LORBIT"> F  </i>
  <v type="int" name="KPOINT_BSE">    -1     0     0     0</v>
 </incar>
 <kpoints>
  <generation param="Monkhorst-Pack">
   <v type="int" name="divisions">       8        8        8 </v>
   <v name="usershift">      0.00000000       0.00000000       0.00000000 </v>
   <v name="genvec1">      0.12500000       0.00000000       0.00000000 </v>
   <v name="genvec2">      0.00000000       0.12500000       0.00000000 </v>
   <v name="genvec3">      0.00000000       0.00000000       0.12500000 </v>
   <v name="shift">      0.50000000       0.50000000       0.50000000 </v>
  </generation>
  <varray name="kpointlist" >
   <v>       0.06250000       0.06250000       0.06250000 </v>
   <v>       0.18750000       0.06250000       0.06250000 </v>
   <v>       0.31250000       0.06250000       0.06250000 </v>
   <v>       0.43750000       0.06250000       0.06250000 </v>
   <v>      -0.06250000       0.06250000       0.06250000 </v>
   <v>       0.18750000       0.18750000       0.06250000 </v>
   <v>       0.31250000       0.18750000       0.06250000 </v>
   <v>      -0.18750000       0.18750000       0.06250000 </v>
   <v>       0.31250000       0.31250000       0.06250000 </v>
   <v>      -0.31250000       0.31250000       0.06250000 </v>
   <v>      -0.18750000       0.31250000       0.06250000 </v>
   <v>      -0.43750000       0.43750000       0.06250000 </v>
   <v>      -0.31250000       0.43750000       0.06250000 </v>
   <v>      -0.43750000      -0.43750000       0.06250000 </v>
   <v>      -0.31250000      -0.43750000       0.06250000 </v>
   <v>       0.18750000       0.18750000       0.18750000 </v>
   <v>       0.31250000       0.18750000       0.18750000 </v>
   <v>      -0.18750000       0.18750000       0.18750000 </v>
   <v>      -0.31250000       0.31250000       0.18750000 </v>
   <v>      -0.43750000       0.43750000       0.18750000 </v>
   <v>      -0.31250000       0.43750000       0.18750000 </v>
   <v>      -0.43750000      -0.43750000       0.18750000 </v>
   <v>      -0.31250000       0.31250000       0.31250000 </v>
   <v>      -0.43750000       0.43750000       0.31250000 </v>
   <v>      -0.43750000      -0.43750000       0.31250000 </v>
   <v>      -0.43750000       0.43750000       0.43750000 </v>
  </varray>
  <varray name="weights" >
   <v>       0.01562500 </v>
   <v>       0.04687500 </v>
   <v>       0.04687500 </v>
   <v>       0.02343750 </v>
   <v>       0.01171875 </v>
   <v>       0.04687500 </v>
   <v>       0.09375000 </v>
   <v>       0.04687500 </v>
   <v>       0.01562500 </v>
   <v>       0.04687500 </v>
   <v>       0.04687500 </v>
   <v>       0.04687500 </v>
   <v>       0.09375000 </v>
   <v>       0.04687500 </v>
   <v>       0.04687500 </v>
   <v>       0.01562500 </v>
   <v>       0.02343750 </v>
   <v>       0.01171875 </v>
   <v>       0.04687500 </v>
   <v>       0.04687500 </v>
   <v>       0.04687500 </v>
   <v>       0.04687500 </v>
   <v>       0.01171875 </v>
   <v>       0.04687500 </v>
   <v>       0.01562500 </v>
   <v>       0.01171875 </v>
  </varray>
  <varray name="tetrahedronlist"  type="int" >
   <v type="int" >        4        1        2        2        6 </v>
   <v type="int" >        8        2        2        6        6 </v>
   <v type="int" >        4        2        6        6       16 </v>
   <v type="int" >        4        2        3        6        7 </v>
   <v type="int" >        4        2        6        6        7 </v>
   <v type="int" >       12        6        6        7       16 </v>
   <v type="int" >        8        3        6        7        7 </v>
   <v type="int" >        8        6        7        7       17 </v>
   <v type="int" >        8        6        7       16       17 </v>
   <v type="int" >        4        3        4        7        7 </v>
   <v type="int" >        4        3        7        7        7 </v>
   <v type="int" >       16        7        7        7       17 </v>
   <v type="int" >        8        4        7        7        7 </v>
   <v type="int" >        4        7        7        7       16 </v>
   <v type="int" >       20        7        7       16       17 </v>
   <v type="int" >        4        3        4        6        7 </v>
   <v type="int" >        4        4        6        7        7 </v>
   <v type="int" >       16        6        7        7       16 </v>
   <v type="int" >        8        3        6        6        7 </v>
   <v type="int" >        4        6        6        6        7 </v>
   <v type="int" >        4        2        2        3        6 </v>
   <v type="int" >        8        2        3        6        6 </v>
   <v type="int" >        4        2        6        6        6 </v>
   <v type="int" >        4        2        2        2        6 </v>
   <v type="int" >        8        2        2        6       11 </v>
   <v type="int" >        4        2        6        6       11 </v>
   <v type="int" >       16        1        2        2        8 </v>
   <v type="int" >        4        2        2        2        8 </v>
   <v type="int" >       12        2        2        8       11 </v>
   <v type="int" >       16        1        2        8        8 </v>
   <v type="int" >        4        2        8        8       18 </v>
   <v type="int" >        4        2        8       11       18 </v>
   <v type="int" >       20        1        5        8        8 </v>
   <v type="int" >        4        1        8        8        8 </v>
   <v type="int" >        4        8        8        8       18 </v>
   <v type="int" >        8        5        8        8        8 </v>
   <v type="int" >        4        8        8        8       11 </v>
   <v type="int" >        4        8        8       11       18 </v>
   <v type="int" >        8        1        2        5        8 </v>
   <v type="int" >        8        2        5        8        8 </v>
   <v type="int" >        8        2        8        8       11 </v>
   <v type="int" >        4        2        2        6        8 </v>
   <v type="int" >        4        2        6        8       11 </v>
   <v type="int" >        4        6        7        9       16 </v>
   <v type="int" >       16        7        9       16       17 </v>
   <v type="int" >       12        9       16       17       17 </v>
   <v type="int" >       20        7        7        9       17 </v>
   <v type="int" >       12        7        9       17       17 </v>
   <v type="int" >        8        7        7       17       17 </v>
   <v type="int" >       12        3        6        7       16 </v>
   <v type="int" >        8        3        7        7       16 </v>
   <v type="int" >        8        3        6        6       16 </v>
   <v type="int" >        4        3        6       13       16 </v>
   <v type="int" >        4        3        7       13       16 </v>
   <v type="int" >        4        2        6        6       10 </v>
   <v type="int" >        4        3        6        6       10 </v>
   <v type="int" >        8        3        6       10       13 </v>
   <v type="int" >       12        2        6       10       11 </v>
   <v type="int" >        4        6       10       11       19 </v>
   <v type="int" >        4        6       10       13       19 </v>
   <v type="int" >        4        2        8       11       11 </v>
   <v type="int" >        4        2       10       11       11 </v>
   <v type="int" >        4       10       11       11       19 </v>
   <v type="int" >        8        8       11       11       18 </v>
   <v type="int" >        8       11       11       18       19 </v>
   <v type="int" >        4       11       11       19       19 </v>
   <v type="int" >        4        8        8       10       18 </v>
   <v type="int" >       12        8       10       11       18 </v>
   <v type="int" >       12       10       11       18       19 </v>
   <v type="int" >        4       10       11       13       18 </v>
   <v type="int" >        4       10       13       18       19 </v>
   <v type="int" >        4        2        3        8       11 </v>
   <v type="int" >        4        3        8       10       11 </v>
   <v type="int" >        8        3       10       11       13 </v>
   <v type="int" >       16        2        3        6       11 </v>
   <v type="int" >        4        3        6        7       11 </v>
   <v type="int" >        4        3        7       11       13 </v>
   <v type="int" >        4        4        7        9       17 </v>
   <v type="int" >        8        4        7        7       17 </v>
   <v type="int" >        4        4        7       14       17 </v>
   <v type="int" >        4        3        7        7       12 </v>
   <v type="int" >        8        4        7        7       12 </v>
   <v type="int" >        8        4        7       12       14 </v>
   <v type="int" >        8        3        7       12       13 </v>
   <v type="int" >        4        7       12       13       20 </v>
   <v type="int" >        4        7       12       14       20 </v>
   <v type="int" >        4        3       10       13       13 </v>
   <v type="int" >        4        3       12       13       13 </v>
   <v type="int" >        4       12       13       13       20 </v>
   <v type="int" >        8       10       13       13       19 </v>
   <v type="int" >       12       13       13       19       21 </v>
   <v type="int" >        4       13       13       20       21 </v>
   <v type="int" >        8       10       11       13       19 </v>
   <v type="int" >        8       11       13       19       19 </v>
   <v type="int" >        4       13       19       19       20 </v>
   <v type="int" >        8       13       19       20       21 </v>
   <v type="int" >        4       10       11       12       19 </v>
   <v type="int" >        4       11       12       13       19 </v>
   <v type="int" >        8       12       13       19       20 </v>
   <v type="int" >        8       10       12       13       19 </v>
   <v type="int" >        4       12       13       14       19 </v>
   <v type="int" >        4       12       14       19       20 </v>
   <v type="int" >        4        3        4       10       13 </v>
   <v type="int" >        4        4       10       12       13 </v>
   <v type="int" >       12        4       12       13       14 </v>
   <v type="int" >       12        3        4        7       13 </v>
   <v type="int" >        8        4        7        7       13 </v>
   <v type="int" >       12        4        7       13       14 </v>
   <v type="int" >        4        4       12       14       14 </v>
   <v type="int" >        4       12       14       14       20 </v>
   <v type="int" >        4       14       14       20       22 </v>
   <v type="int" >        4       12       13       15       20 </v>
   <v type="int" >        4       12       14       15       20 </v>
   <v type="int" >        8       14       15       20       22 </v>
   <v type="int" >       12       13       15       20       21 </v>
   <v type="int" >       12       15       20       21       22 </v>
   <v type="int" >        4       15       20       22       22 </v>
   <v type="int" >        4       13       13       14       21 </v>
   <v type="int" >       12       13       14       15       21 </v>
   <v type="int" >       16       14       15       21       22 </v>
   <v type="int" >        8       13       14       20       21 </v>
   <v type="int" >        4       14       20       20       21 </v>
   <v type="int" >       12       14       20       21       22 </v>
   <v type="int" >        4       12       12       13       20 </v>
   <v type="int" >        8       12       13       14       20 </v>
   <v type="int" >        8       12       14       20       20 </v>
   <v type="int" >        8       12       12       14       20 </v>
   <v type="int" >        4       12       13       20       20 </v>
   <v type="int" >       16        3        4       12       14 </v>
   <v type="int" >        8        3       12       12       14 </v>
   <v type="int" >        8        3       12       13       14 </v>
   <v type="int" >       16        3        4        7       14 </v>
   <v type="int" >        4        3        6        7       14 </v>
   <v type="int" >        4        3        6       13       14 </v>
   <v type="int" >        8       14       15       15       22 </v>
   <v type="int" >        8       15       15       22       22 </v>
   <v type="int" >        8       15       21       22       22 </v>
   <v type="int" >       12       13       14       15       22 </v>
   <v type="int" >        4       13       15       15       22 </v>
   <v type="int" >        8       13       15       21       22 </v>
   <v type="int" >       12       13       14       20       22 </v>
   <v type="int" >        4       13       19       20       22 </v>
   <v type="int" >        4       13       19       21       22 </v>
   <v type="int" >        4       10       12       14       20 </v>
   <v type="int" >        4       10       13       14       20 </v>
   <v type="int" >        8       10       13       19       20 </v>
   <v type="int" >        8       10       12       13       20 </v>
   <v type="int" >        4       10       11       13       20 </v>
   <v type="int" >        4       10       11       19       20 </v>
   <v type="int" >        4        2        3       12       13 </v>
   <v type="int" >        4        2       10       12       13 </v>
   <v type="int" >        8        2       10       11       13 </v>
   <v type="int" >       12        2        3        6       13 </v>
   <v type="int" >        4        2        2        6       13 </v>
   <v type="int" >        4        2        2       11       13 </v>
   <v type="int" >        4       11       13       15       21 </v>
   <v type="int" >        8       11       13       19       21 </v>
   <v type="int" >        4       11       18       19       21 </v>
   <v type="int" >        4        8       10       13       19 </v>
   <v type="int" >        4        8       11       13       19 </v>
   <v type="int" >        8        8       11       18       19 </v>
   <v type="int" >        8        8       10       11       19 </v>
   <v type="int" >        4        8        8       11       19 </v>
   <v type="int" >        4        8        8       18       19 </v>
   <v type="int" >        4        1        2       10       11 </v>
   <v type="int" >        4        1        8       10       11 </v>
   <v type="int" >        8        1        8        8       11 </v>
   <v type="int" >        8        1        2        2       11 </v>
   <v type="int" >       12        1        2        8       11 </v>
   <v type="int" >        4        5        8       11       18 </v>
   <v type="int" >        4        5        8        8       18 </v>
   <v type="int" >        4        1        5        8       18 </v>
   <v type="int" >        4        5        5        8        8 </v>
   <v type="int" >       12        1        5        5        8 </v>
   <v type="int" >        6        1        1        5        5 </v>
   <v type="int" >        8        1        1        5        8 </v>
   <v type="int" >        4        1        1        2        8 </v>
   <v type="int" >        4        2        3        6       16 </v>
   <v type="int" >        4        3        7       16       17 </v>
   <v type="int" >       12        7       16       17       17 </v>
   <v type="int" >        8        7       17       17       17 </v>
   <v type="int" >       12        7        7        9       16 </v>
   <v type="int" >        4        6        6        7        7 </v>
   <v type="int" >       16        3        6        7       13 </v>
   <v type="int" >       12        6        7        7       13 </v>
   <v type="int" >        4        3        6        6       11 </v>
   <v type="int" >       12        3        6       11       13 </v>
   <v type="int" >       12        2        3       10       11 </v>
   <v type="int" >        4        3       10       11       19 </v>
   <v type="int" >        4        3       11       13       19 </v>
   <v type="int" >        4        2        8       10       18 </v>
   <v type="int" >        4        2       10       11       18 </v>
   <v type="int" >        4       10       18       19       19 </v>
   <v type="int" >        4        8        8       11       11 </v>
   <v type="int" >        4        8       10       11       11 </v>
   <v type="int" >        4       10       11       11       13 </v>
   <v type="int" >        4       11       11       13       19 </v>
   <v type="int" >        4        2        6        8       10 </v>
   <v type="int" >        4        6        8       10       11 </v>
   <v type="int" >       12        6       10       11       13 </v>
   <v type="int" >        8        2        3        6       10 </v>
   <v type="int" >        4        3        6        7       10 </v>
   <v type="int" >        4        6        7       10       13 </v>
   <v type="int" >        4       16       17       17       17 </v>
   <v type="int" >        4       17       17       17       17 </v>
   <v type="int" >        4        9       17       17       17 </v>
   <v type="int" >        8        7        7       15       17 </v>
   <v type="int" >        8        7        9       15       17 </v>
   <v type="int" >        4        6        7       13       16 </v>
   <v type="int" >        4        7        7       13       16 </v>
   <v type="int" >       12        7        7       13       15 </v>
   <v type="int" >        8        6        7       13       13 </v>
   <v type="int" >        4        7       13       13       21 </v>
   <v type="int" >        4        7       13       15       21 </v>
   <v type="int" >        4        6       11       13       19 </v>
   <v type="int" >        4        6       13       13       19 </v>
   <v type="int" >        4       13       19       19       23 </v>
   <v type="int" >        4       13       19       21       23 </v>
   <v type="int" >        4       11       18       19       19 </v>
   <v type="int" >        4       11       19       19       19 </v>
   <v type="int" >        4       19       19       19       23 </v>
   <v type="int" >        4       18       19       19       19 </v>
   <v type="int" >        4       19       19       19       21 </v>
   <v type="int" >        4       19       19       21       23 </v>
   <v type="int" >        4       11       13       18       19 </v>
   <v type="int" >        4       13       18       19       19 </v>
   <v type="int" >        8       13       19       19       21 </v>
   <v type="int" >       12       11       13       13       19 </v>
   <v type="int" >        4       13       13       15       19 </v>
   <v type="int" >        4       13       15       19       21 </v>
   <v type="int" >        4        6        7       11       13 </v>
   <v type="int" >        4        7       11       13       13 </v>
   <v type="int" >        8        7       13       13       15 </v>
   <v type="int" >        4        7        7        9       13 </v>
   <v type="int" >        4        7        9       13       15 </v>
   <v type="int" >        4        7        9       14       17 </v>
   <v type="int" >       12        7        9       14       15 </v>
   <v type="int" >        4        9       14       15       22 </v>
   <v type="int" >        4        7       13       15       20 </v>
   <v type="int" >        4        7       14       15       20 </v>
   <v type="int" >        4       15       20       21       24 </v>
   <v type="int" >        4       15       20       22       24 </v>
   <v type="int" >        4       13       19       21       21 </v>
   <v type="int" >        4       13       20       21       21 </v>
   <v type="int" >        4       20       21       21       24 </v>
   <v type="int" >        8       19       21       21       23 </v>
   <v type="int" >        8       21       21       23       24 </v>
   <v type="int" >        4       21       21       24       24 </v>
   <v type="int" >        4       19       19       20       23 </v>
   <v type="int" >       12       19       20       21       23 </v>
   <v type="int" >       12       20       21       23       24 </v>
   <v type="int" >        4       20       21       22       23 </v>
   <v type="int" >        4       20       22       23       24 </v>
   <v type="int" >        4       13       14       19       21 </v>
   <v type="int" >        4       14       19       20       21 </v>
   <v type="int" >        4       14       15       15       21 </v>
   <v type="int" >       16        7       13       14       15 </v>
   <v type="int" >        8        7       14       15       15 </v>
   <v type="int" >       16        7        7        9       15 </v>
   <v type="int" >        4        7        7       15       15 </v>
   <v type="int" >        4       14       20       22       22 </v>
   <v type="int" >        8       20       22       22       24 </v>
   <v type="int" >       16       22       22       24       25 </v>
   <v type="int" >       16       20       21       22       24 </v>
   <v type="int" >        8       21       22       24       24 </v>
   <v type="int" >        4       22       24       24       24 </v>
   <v type="int" >       16       22       24       24       25 </v>
   <v type="int" >        4       20       20       21       24 </v>
   <v type="int" >       12       20       22       24       24 </v>
   <v type="int" >        8       20       20       22       24 </v>
   <v type="int" >        4       20       21       24       24 </v>
   <v type="int" >        4       13       20       20       22 </v>
   <v type="int" >        8       13       20       21       22 </v>
   <v type="int" >        4       13       13       15       22 </v>
   <v type="int" >        4       13       13       21       22 </v>
   <v type="int" >        4        6        7       14       15 </v>
   <v type="int" >        4        6       13       14       15 </v>
   <v type="int" >        4        6       13       13       15 </v>
   <v type="int" >        4        6        7        7       15 </v>
   <v type="int" >        4        3        6        7       15 </v>
   <v type="int" >        4        3        6       13       15 </v>
   <v type="int" >        8       21       22       22       25 </v>
   <v type="int" >       12       21       22       24       25 </v>
   <v type="int" >        4       21       23       24       25 </v>
   <v type="int" >        4       19       20       22       24 </v>
   <v type="int" >        4       19       21       22       24 </v>
   <v type="int" >        8       19       21       23       24 </v>
   <v type="int" >        8       19       20       21       24 </v>
   <v type="int" >        4       19       19       21       24 </v>
   <v type="int" >        4       19       19       23       24 </v>
   <v type="int" >        4       11       13       20       21 </v>
   <v type="int" >        4       11       19       20       21 </v>
   <v type="int" >        4       11       19       19       21 </v>
   <v type="int" >        4       11       13       13       21 </v>
   <v type="int" >        4       10       11       13       21 </v>
   <v type="int" >        4       10       11       19       21 </v>
   <v type="int" >        4        2        6       13       13 </v>
   <v type="int" >        4        2       11       13       13 </v>
   <v type="int" >       12        2        3       10       13 </v>
   <v type="int" >        4        2       10       10       13 </v>
   <v type="int" >        4       18       19       21       23 </v>
   <v type="int" >        4       18       19       19       23 </v>
   <v type="int" >        4       11       18       19       23 </v>
   <v type="int" >        4        8       11       19       19 </v>
   <v type="int" >        4        8       18       19       19 </v>
   <v type="int" >        4        2        8       10       19 </v>
   <v type="int" >        4        2        8       11       19 </v>
   <v type="int" >       16        2        8       10       11 </v>
   <v type="int" >        4        8        8       10       11 </v>
   <v type="int" >       12        2        8        8       10 </v>
   <v type="int" >        8        2        8       10       10 </v>
   <v type="int" >        4        8       10       10       11 </v>
   <v type="int" >        4        1        8       11       18 </v>
   <v type="int" >        4        2        8        8        8 </v>
   <v type="int" >        8        2        2        8       10 </v>
   <v type="int" >        4        2        2        3       10 </v>
   <v type="int" >        4        3        4        7       17 </v>
   <v type="int" >        4        4        7       16       17 </v>
   <v type="int" >        4        7        7        7        9 </v>
   <v type="int" >        4        4        7        7       14 </v>
   <v type="int" >        4        7        7        7       14 </v>
   <v type="int" >       12        3        4       12       13 </v>
   <v type="int" >        4        4       12       13       20 </v>
   <v type="int" >        4        4       13       14       20 </v>
   <v type="int" >        4        3       10       12       19 </v>
   <v type="int" >        4        3       12       13       19 </v>
   <v type="int" >        4       12       13       19       21 </v>
   <v type="int" >        4       12       19       20       21 </v>
   <v type="int" >        4       10       13       19       19 </v>
   <v type="int" >        8       13       13       19       20 </v>
   <v type="int" >        4       10       11       13       13 </v>
   <v type="int" >        4       10       12       13       13 </v>
   <v type="int" >        4       12       13       13       14 </v>
   <v type="int" >        4       13       13       14       20 </v>
   <v type="int" >        4        3        7       10       12 </v>
   <v type="int" >        4        7       10       12       13 </v>
   <v type="int" >        8        7       12       13       14 </v>
   <v type="int" >        8        3        4        7       12 </v>
   <v type="int" >        4        7        7       12       14 </v>
   <v type="int" >        4        7        9       15       16 </v>
   <v type="int" >       12        7        9       15       15 </v>
   <v type="int" >        8        7        7       14       15 </v>
   <v type="int" >        4        7       14       15       22 </v>
   <v type="int" >        4        7       15       15       22 </v>
   <v type="int" >        4        7       13       14       21 </v>
   <v type="int" >        4        7       14       15       21 </v>
   <v type="int" >        4       14       20       21       24 </v>
   <v type="int" >        4       14       21       22       24 </v>
   <v type="int" >        4       13       19       20       23 </v>
   <v type="int" >        4       13       20       21       23 </v>
   <v type="int" >        4       20       23       24       24 </v>
   <v type="int" >        4       19       19       21       21 </v>
   <v type="int" >        4       19       20       21       21 </v>
   <v type="int" >        4       20       21       21       22 </v>
   <v type="int" >        4       21       21       22       24 </v>
   <v type="int" >        4       13       15       19       20 </v>
   <v type="int" >        4       15       19       20       21 </v>
   <v type="int" >        8       13       14       15       20 </v>
   <v type="int" >        4       14       15       15       20 </v>
   <v type="int" >        4       15       15       20       22 </v>
   <v type="int" >        4        7        9       13       14 </v>
   <v type="int" >        4        9       13       14       15 </v>
   <v type="int" >        8        9       14       15       15 </v>
   <v type="int" >        8        7        7        9       14 </v>
   <v type="int" >        4        9       15       15       22 </v>
   <v type="int" >        4       15       22       22       25 </v>
   <v type="int" >        4       15       21       22       24 </v>
   <v type="int" >        4       15       22       22       24 </v>
   <v type="int" >        8       22       24       24       26 </v>
   <v type="int" >        8       22       24       25       26 </v>
   <v type="int" >        4       21       23       24       24 </v>
   <v type="int" >        4       21       24       24       24 </v>
   <v type="int" >        8       24       24       24       26 </v>
   <v type="int" >        4       23       24       24       24 </v>
   <v type="int" >        4       24       24       24       25 </v>
   <v type="int" >       20       24       24       25       26 </v>
   <v type="int" >        4       21       22       23       24 </v>
   <v type="int" >        4       22       23       24       24 </v>
   <v type="int" >       12       21       22       22       24 </v>
   <v type="int" >        4       22       22       22       24 </v>
   <v type="int" >        4       15       15       21       22 </v>
   <v type="int" >        4       15       22       22       22 </v>
   <v type="int" >        4       15       15       15       22 </v>
   <v type="int" >        4       14       15       22       22 </v>
   <v type="int" >        4        7       15       15       15 </v>
   <v type="int" >        4        4        7        7       15 </v>
   <v type="int" >        4        4        7       14       15 </v>
   <v type="int" >        4       22       24       25       25 </v>
   <v type="int" >        8       24       25       25       26 </v>
   <v type="int" >        6       25       25       26       26 </v>
   <v type="int" >       12       24       25       26       26 </v>
   <v type="int" >        4       24       24       26       26 </v>
   <v type="int" >        8       21       24       24       25 </v>
   <v type="int" >        4       20       21       22       25 </v>
   <v type="int" >        4       20       21       24       25 </v>
   <v type="int" >        4       13       15       22       22 </v>
   <v type="int" >        4       13       21       22       22 </v>
   <v type="int" >        4       12       13       14       22 </v>
   <v type="int" >        4       12       13       20       22 </v>
   <v type="int" >        4        3        7       14       15 </v>
   <v type="int" >        4        3       13       14       15 </v>
   <v type="int" >        4       23       24       25       26 </v>
   <v type="int" >        4       23       24       24       26 </v>
   <v type="int" >        4       21       23       24       26 </v>
   <v type="int" >        4       19       21       24       24 </v>
   <v type="int" >        4       19       23       24       24 </v>
   <v type="int" >        4       13       19       20       24 </v>
   <v type="int" >        4       13       19       21       24 </v>
   <v type="int" >        4       10       13       20       21 </v>
   <v type="int" >        4       10       19       20       21 </v>
   <v type="int" >        4        3       10       12       20 </v>
   <v type="int" >        4        3       10       13       20 </v>
   <v type="int" >        8        3       10       12       13 </v>
   <v type="int" >        4       10       10       12       13 </v>
   <v type="int" >        8        3       10       10       12 </v>
   <v type="int" >        8        3       10       12       12 </v>
   <v type="int" >        4       10       12       12       13 </v>
   <v type="int" >        4       11       19       21       23 </v>
   <v type="int" >        4        6       11       13       21 </v>
   <v type="int" >        4        2       10       13       19 </v>
   <v type="int" >        4        2       11       13       19 </v>
   <v type="int" >        8        2        6       11       13 </v>
   <v type="int" >        4        2        6        6       13 </v>
   <v type="int" >        4        3       10       10       11 </v>
   <v type="int" >        4        3       11       13       13 </v>
   <v type="int" >        4        2        2        6       10 </v>
   <v type="int" >        4        6       10       12       13 </v>
   <v type="int" >        4        3        6       10       12 </v>
   <v type="int" >        4        2        3        3       10 </v>
   <v type="int" >        4        3        3       10       12 </v>
   <v type="int" >        4        3        3        4       12 </v>
   <v type="int" >        4        3        4        7       16 </v>
   <v type="int" >        4        6        7        7        7 </v>
   <v type="int" >        4        6        6        7       13 </v>
   <v type="int" >        8        3        7        7       14 </v>
   <v type="int" >        8        3        7       13       14 </v>
   <v type="int" >        4        3       12       14       20 </v>
   <v type="int" >        4        3       13       14       20 </v>
   <v type="int" >        4        4       12       12       20 </v>
   <v type="int" >        4        4       12       14       20 </v>
   <v type="int" >        4       12       14       20       22 </v>
   <v type="int" >        4       12       20       20       22 </v>
   <v type="int" >        4       12       13       14       21 </v>
   <v type="int" >        4       12       14       20       21 </v>
   <v type="int" >        4       14       21       22       22 </v>
   <v type="int" >        4       13       13       15       20 </v>
   <v type="int" >        4       14       15       20       20 </v>
   <v type="int" >        4       15       20       20       22 </v>
   <v type="int" >        4       12       13       14       14 </v>
   <v type="int" >        4       13       14       14       20 </v>
   <v type="int" >        2       14       14       20       20 </v>
   <v type="int" >        2       12       12       14       14 </v>
   <v type="int" >        8        4        7       12       12 </v>
   <v type="int" >        4        7       12       12       14 </v>
   <v type="int" >        4        3        6        7       12 </v>
   <v type="int" >        4        6        7       12       13 </v>
   <v type="int" >        4        6        7       15       16 </v>
   <v type="int" >        8        6        7       13       15 </v>
   <v type="int" >        4        6       13       15       21 </v>
   <v type="int" >        4        7       13       14       22 </v>
   <v type="int" >        4        7       13       15       22 </v>
   <v type="int" >        4       13       20       22       24 </v>
   <v type="int" >        4       13       21       22       24 </v>
   <v type="int" >        4       14       20       20       24 </v>
   <v type="int" >        4       14       20       22       24 </v>
   <v type="int" >        4       20       22       24       25 </v>
   <v type="int" >        4       20       24       24       25 </v>
   <v type="int" >        6       22       22       24       24 </v>
   <v type="int" >        4       20       21       22       22 </v>
   <v type="int" >        2       20       20       22       22 </v>
   <v type="int" >        4        7        7       13       14 </v>
   <v type="int" >        4        3        7       13       13 </v>
   <v type="int" >        4       15       21       22       25 </v>
   <v type="int" >        4       21       24       25       26 </v>
   <v type="int" >        4       24       26       26       26 </v>
   <v type="int" >        6       24       24       25       25 </v>
   <v type="int" >        4        4        7       13       15 </v>
   <v type="int" >        4        4       13       14       15 </v>
   <v type="int" >        8        4       12       12       13 </v>
   <v type="int" >        4       25       26       26       26 </v>
   <v type="int" >        2       26       26       26       26 </v>
   <v type="int" >        4        4       12       12       14 </v>
   <v type="int" >        4       12       12       12       14 </v>
   <v type="int" >        8        4       12       12       12 </v>
   <v type="int" >        4        3        4        4       12 </v>
   <v type="int" >        4        4        4       12       12 </v>
   <v type="int" >        4        1        5        8       11 </v>
   <v type="int" >        4        1        2        6       11 </v>
   <v type="int" >        4        2        8       10       13 </v>
   <v type="int" >        4        2        8       11       13 </v>
   <v type="int" >        4        2        3        7       13 </v>
   <v type="int" >        4        2        6        7       13 </v>
   <v type="int" >        4        3       10       12       14 </v>
   <v type="int" >        4        3       10       13       14 </v>
   <v type="int" >        4        3        4        6       13 </v>
   <v type="int" >        4        4        6        7       13 </v>
   <v type="int" >        4        3       10       11       12 </v>
   <v type="int" >        4        3       11       12       13 </v>
   <v type="int" >        4        2        2        3       11 </v>
   <v type="int" >        6        2        2        8        8 </v>
   <v type="int" >        6        1        1        8        8 </v>
   <v type="int" >        4        5        5        5        8 </v>
   <v type="int" >        4        6       11       13       15 </v>
   <v type="int" >        4        6        7        9       15 </v>
   <v type="int" >        4        7       13       15       15 </v>
   <v type="int" >        4        7        7        7       15 </v>
   <v type="int" >        4        7       13       13       14 </v>
   <v type="int" >        4        3        7        7       13 </v>
   <v type="int" >        4        6       10       13       13 </v>
   <v type="int" >        4        2        6       10       10 </v>
   <v type="int" >        4        3        6       10       10 </v>
   <v type="int" >        4        2        2       10       11 </v>
   <v type="int" >        2        2        2       10       10 </v>
   <v type="int" >        4        1        8        8       10 </v>
   <v type="int" >        4        1        2        8       10 </v>
   <v type="int" >        4        2        3        8       10 </v>
   <v type="int" >        4        3        8       10       10 </v>
   <v type="int" >        4        4        7        9       14 </v>
   <v type="int" >        4        7       12       13       15 </v>
   <v type="int" >        4        7       12       14       15 </v>
   <v type="int" >        4        3        7       12       12 </v>
   <v type="int" >        4        3        3       10       13 </v>
   <v type="int" >        4        3        3       12       13 </v>
   <v type="int" >        2        3        3       12       12 </v>
   <v type="int" >        2        3        3       10       10 </v>
   <v type="int" >        4        2       10       10       12 </v>
   <v type="int" >        4        2        3       10       12 </v>
   <v type="int" >        4        3        4       10       12 </v>
   <v type="int" >        4        4       10       12       12 </v>
   <v type="int" >        4        4        4       12       14 </v>
   <v type="int" >        4        3       12       12       12 </v>
   <v type="int" >        4        3        4       12       12 </v>
   <v type="int" >        4        1        5        5        5 </v>
   <v type="int" >        2        5        5        5        5 </v>
  </varray>
  <i name="volumeweight">      0.00032552 </i>
 </kpoints>
 <parameters>
  <separator name="general" >
   <i type="string" name="SYSTEM">Fe FCC</i>
   <i type="logical" name="LCOMPAT"> F  </i>
  </separator>
  <separator name="electronic" >
   <i type="string" name="PREC">accura</i>
   <i name="ENMAX">    400.00000000</i>
   <i name="ENAUG">    511.36800000</i>
   <i name="EDIFF">      0.00000100</i>
   <i type="int" name="IALGO">    38</i>
   <i type="int" name="IWAVPR">    10</i>
   <i type="int" name="NBANDS">    12</i>
   <i name="NELECT">      8.00000000</i>
   <i type="int" name="TURBO">     0</i>
   <i type="int" name="IRESTART">     0</i>
   <i type="int" name="NREBOOT">     0</i>
   <i type="int" name="NMIN">     0</i>
   <i name="EREF">      0.00000000</i>
   <separator name="electronic smearing" >
    <i type="int" name="ISMEAR">    -5</i>
    <i name="SIGMA">      0.20000000</i>
    <i name="KSPACING">      0.50000000</i>
    <i type="logical" name="KGAMMA"> T  </i>
   </separator>
   <separator name="electronic projectors" >
    <i type="logical" name="LREAL"> F  </i>
    <v name="ROPT">      0.00000000</v>
    <i type="int" name="LMAXPAW">  -100</i>
    <i type="int" name="LMAXMIX">     2</i>
    <i type="logical" name="NLSPLINE"> F  </i>
   </separator>
   <separator name="electronic startup" >
    <i type="int" name="ISTART">     0</i>
    <i type="int" name="ICHARG">     2</i>
    <i type="int" name="INIWAV">     1</i>
   </separator>
   <separator name="electronic spin" >
    <i type="int" name="ISPIN">     2</i>
    <i type="logical" name="LNONCOLLINEAR"> F  </i>
    <v name="MAGMOM">      4.00000000</v>
    <i name="NUPDOWN">     -1.00000000</i>
    <i type="logical" name="LSORBIT"> F  </i>
    <v name="SAXIS">      0.00000000      0.00000000      1.00000000</v>
    <i type="logical" name="LSPIRAL"> F  </i>
    <v name="QSPIRAL">      0.00000000      0.00000000      0.00000000</v>
    <i type="logical" name="LZEROZ"> F  </i>
   </separator>
   <separator name="electronic exchange-correlation" >
    <i type="logical" name="LASPH"> F  </i>
    <i type="logical" name="LMETAGGA"> F  </i>
   </separator>
   <separator name="electronic convergence" >
    <i type="int" name="NELM">    60</i>
    <i type="int" name="NELMDL">    -5</i>
    <i type="int" name="NELMIN">     2</i>
    <i name="ENINI">    400.00000000</i>
    <separator name="electronic convergence detail" >
     <i type="logical" name="LDIAG"> T  </i>
     <i type="logical" name="LSUBROT"> F  </i>
     <i name="WEIMIN">      0.00000000</i>
     <i name="EBREAK">      0.00000002</i>
     <i name="DEPER">      0.30000000</i>
     <i type="int" name="NRMM">     4</i>
     <i name="TIME">      0.40000000</i>
    </separator>
   </separator>
   <separator name="electronic mixer" >
    <i name="AMIX">      0.40000000</i>
    <i name="BMIX">      1.00000000</i>
    <i name="AMIN">      0.10000000</i>
    <i name="AMIX_MAG">      1.60000000</i>
    <i name="BMIX_MAG">      1.00000000</i>
    <separator name="electronic mixer details" >
     <i type="int" name="IMIX">     4</i>
     <i type="logical" name="MIXFIRST"> F  </i>
     <i type="int" name="MAXMIX">   -45</i>
     <i name="WC">    100.00000000</i>
     <i type="int" name="INIMIX">     1</i>
     <i type="int" name="MIXPRE">     1</i>
     <i type="int" name="MREMOVE">     5</i>
    </separator>
   </separator>
   <separator name="electronic dipolcorrection" >
    <i type="logical" name="LDIPOL"> F  </i>
    <i type="logical" name="LMONO"> F  </i>
    <i type="int" name="IDIPOL">     0</i>
    <i name="EPSILON">      1.00000000</i>
    <v name="DIPOL">   -100.00000000   -100.00000000   -100.00000000</v>
    <i name="EFIELD">      0.00000000</i>
   </separator>
  </separator>
  <separator name="grids" >
   <i type="int" name="NGX">    16</i>
   <i type="int" name="NGY">    16</i>
   <i type="int" name="NGZ">    16</i>
   <i type="int" name="NGXF">    32</i>
   <i type="int" name="NGYF">    32</i>
   <i type="int" name="NGZF">    32</i>
   <i type="logical" name="ADDGRID"> F  </i>
  </separator>
  <separator name="ionic" >
   <i type="int" name="NSW">     0</i>
   <i type="int" name="IBRION">    -1</i>
   <i type="int" name="ISIF">     2</i>
   <i name="PSTRESS">      0.00000000</i>
   <i name="EDIFFG">      0.00001000</i>
   <i type="int" name="NFREE">     0</i>
   <i name="POTIM">      0.50000000</i>
   <i name="SMASS">     -3.00000000</i>
   <i name="SCALEE">      1.00000000</i>
  </separator>
  <separator name="ionic md" >
   <i name="TEBEG">      0.00010000</i>
   <i name="TEEND">      0.00010000</i>
   <i type="int" name="NBLOCK">     1</i>
   <i type="int" name="KBLOCK">     1</i>
   <i type="int" name="NPACO">   256</i>
   <i name="APACO">     16.00000000</i>
  </separator>
  <separator name="symmetry" >
   <i type="int" name="ISYM">     2</i>
   <i name="SYMPREC">      0.00001000</i>
  </separator>
  <separator name="dos" >
   <i type="logical" name="LORBIT"> F  </i>
   <v name="RWIGS">     -1.00000000</v>
   <i type="int" name="NEDOS">   301</i>
   <i name="EMIN">     10.00000000</i>
   <i name="EMAX">    -10.00000000</i>
   <i name="EFERMI">      0.00000000</i>
  </separator>
  <separator name="writing" >
   <i type="int" name="NWRITE">     2</i>
   <i type="logical" name="LWAVE"> T  </i>
   <i type="logical" name="LCHARG"> T  </i>
   <i type="logical" name="LPARD"> F  </i>
   <i type="logical" name="LVTOT"> F  </i>
   <i type="logical" name="LVHAR"> F  </i>
   <i type="logical" name="LELF"> F  </i>
   <i type="logical" name="LOPTICS"> F  </i>
   <v name="STM">      0.00000000      0.00000000      0.00000000      0.00000000      0.00000000      0.00000000      0.00000000</v>
  </separator>
  <separator name="performance" >
   <i type="int" name="NPAR">     4</i>
   <i type="int" name="NSIM">     4</i>
   <i type="int" name="NBLK">    -1</i>
   <i type="logical" name="LPLANE"> T  </i>
   <i type="logical" name="LSCALAPACK"> F  </i>
   <i type="logical" name="LSCAAWARE"> F  </i>
   <i type="logical" name="LSCALU"> F  </i>
   <i type="logical" name="LASYNC"> F  </i>
   <i type="logical" name="LORBITALREAL"> F  </i>
  </separator>
  <separator name="miscellaneous" >
   <i type="int" name="IDIOT">     3</i>
   <i type="logical" name="LMUSIC"> F  </i>
   <v name="POMASS">     55.84700000</v>
   <v name="DARWINR">      0.00000000</v>
   <v name="DARWINV">      1.00000000</v>
   <i type="logical" name="LCORR"> T  </i>
  </separator>
  <i type="logical" name="GGA_COMPAT"> T  </i>
  <i type="logical" name="LBERRY"> F  </i>
  <i type="int" name="ICORELEVEL">     0</i>
  <i type="logical" name="LDAU"> F  </i>
  <i type="int" name="I_CONSTRAINED_M">     0</i>
  <separator name="electronic exchange-correlation" >
   <i type="string" name="GGA">--</i>
   <i type="int" name="VOSKOWN">     0</i>
   <i type="logical" name="LHFCALC"> F  </i>
   <i type="string" name="PRECFOCK"></i>
   <i type="logical" name="LSYMGRAD"> F  </i>
   <i type="logical" name="LHFONE"> F  </i>
   <i type="logical" name="LRHFCALC"> F  </i>
   <i type="logical" name="LTHOMAS"> F  </i>
   <i type="logical" name="LMODELHF"> F  </i>
   <i name="ENCUT4O">     -1.00000000</i>
   <i type="int" name="EXXOEP">     0</i>
   <i type="int" name="FOURORBIT">     0</i>
   <i name="AEXX">      0.00000000</i>
   <i name="HFALPHA">      0.00000000</i>
   <i name="MCALPHA">      0.00000000</i>
   <i name="ALDAX">      1.00000000</i>
   <i name="AGGAX">      1.00000000</i>
   <i name="ALDAC">      1.00000000</i>
   <i name="AGGAC">      1.00000000</i>
   <i type="int" name="NKREDX">     1</i>
   <i type="int" name="NKREDY">     1</i>
   <i type="int" name="NKREDZ">     1</i>
   <i type="logical" name="SHIFTRED"> F  </i>
   <i type="logical" name="ODDONLY"> F  </i>
   <i type="logical" name="EVENONLY"> F  </i>
   <i type="int" name="LMAXFOCK">     0</i>
   <i type="int" name="NMAXFOCKAE">     0</i>
   <i type="logical" name="LFOCKAEDFT"> F  </i>
   <i name="HFSCREEN">      0.00000000</i>
   <i name="HFSCREENC">      0.00000000</i>
   <i type="int" name="NBANDSGWLOW">     0</i>
  </separator>
  <separator name="vdW DFT" >
   <i type="logical" name="LUSE_VDW"> F  </i>
   <i name="Zab_VDW">     -0.84910000</i>
   <i name="PARAM1">      0.12340000</i>
   <i name="PARAM2">      1.00000000</i>
   <i name="PARAM3">      0.00000000</i>
  </separator>
  <separator name="model GW" >
   <i type="int" name="MODEL_GW">     0</i>
   <i name="MODEL_EPS0">      7.31670000</i>
   <i name="MODEL_ALPHA">      1.00000000</i>
  </separator>
  <separator name="linear response parameters" >
   <i type="logical" name="LEPSILON"> F  </i>
   <i type="logical" name="LRPA"> F  </i>
   <i type="logical" name="LNABLA"> F  </i>
   <i type="logical" name="LVEL"> F  </i>
   <i type="int" name="KINTER">     0</i>
   <i name="CSHIFT">      0.10000000</i>
   <i name="OMEGAMAX">     -1.00000000</i>
   <i name="DEG_THRESHOLD">      0.00200000</i>
  </separator>
  <separator name="orbital magnetization" >
   <i type="logical" name="NUCIND"> F  </i>
   <v name="MAGPOS">      0.00000000      0.00000000      0.00000000</v>
   <i type="logical" name="LNICSALL"> T  </i>
   <i type="logical" name="ORBITALMAG"> F  </i>
   <i type="logical" name="LMAGBLOCH"> F  </i>
   <i type="logical" name="LCHIMAG"> F  </i>
   <i type="logical" name="LGAUGE"> T  </i>
   <i type="int" name="MAGATOM">     0</i>
   <v name="MAGDIPOL">      0.00000000      0.00000000      0.00000000</v>
   <v name="AVECCONST">      0.00000000      0.00000000      0.00000000</v>
  </separator>
  <separator name="response functions" >
   <i type="logical" name="LADDER"> F  </i>
   <i type="logical" name="LFXC"> F  </i>
   <i type="logical" name="LHARTREE"> T  </i>
   <i type="int" name="IBSE">     0</i>
   <v type="int" name="KPOINT">    -1     0     0     0</v>
   <i type="logical" name="LTCTE"> F  </i>
   <i type="logical" name="LTETE"> F  </i>
   <i type="logical" name="LTRIPLET"> F  </i>
   <i type="logical" name="LFXCEPS"> F  </i>
   <i type="logical" name="LFXHEG"> F  </i>
   <i type="int" name="NATURALO">     0</i>
   <i type="logical" name="L2ORDER"> F  </i>
   <i type="logical" name="LUSEW"> F  </i>
   <i name="ENCUTGW">     -2.00000000</i>
   <i name="ENCUTGWSOFT">     -2.00000000</i>
   <i name="ENCUTLF">     -1.00000000</i>
   <i type="int" name="LMAXMP2">    -1</i>
   <i name="SCISSOR">      0.00000000</i>
   <i type="int" name="NOMEGA">     0</i>
   <i type="int" name="NOMEGAR">     0</i>
   <i type="int" name="NBANDSGW">    -1</i>
   <i type="int" name="NBANDSO">    -1</i>
   <i type="int" name="NBANDSV">    -1</i>
   <i type="int" name="NELM">     1</i>
   <i type="int" name="NELMHF">     1</i>
   <i type="int" name="DIM">     3</i>
   <i type="int" name="ANTIRES">     0</i>
   <i name="OMEGAMAX">    -30.00000000</i>
   <i name="OMEGAMIN">    -30.00000000</i>
   <i name="OMEGATL">   -200.00000000</i>
   <i type="int" name="OMEGAGRID">     0</i>
   <i name="CSHIFT">     -0.10000000</i>
   <i type="logical" name="SELFENERGY"> F  </i>
   <i type="logical" name="LSPECTRAL"> F  </i>
   <i type="logical" name="LSPECTRALGW"> F  </i>
   <i type="logical" name="LSINGLES"> F  </i>
   <i type="logical" name="LFERMIGW"> F  </i>
   <i type="logical" name="ODDONLYGW"> F  </i>
   <i type="logical" name="EVENONLYGW"> F  </i>
   <i type="int" name="NKREDLFX">     1</i>
   <i type="int" name="NKREDLFY">     1</i>
   <i type="int" name="NKREDLFZ">     1</i>
   <i type="int" name="MAXMEM">  1800</i>
   <i type="int" name="TELESCOPE">     0</i>
   <i type="int" name="TAUPAR">     1</i>
   <i type="int" name="OMEGAPAR">    -1</i>
   <i name="LAMBDA">      1.00000000</i>
  </separator>
  <separator name="External order field" >
   <i name="OFIELD_KAPPA">      0.00000000</i>
   <v name="OFIELD_K">      0.00000000      0.00000000      0.00000000</v>
   <i name="OFIELD_Q6_NEAR">      0.00000000</i>
   <i name="OFIELD_Q6_FAR">      0.00000000</i>
   <i name="OFIELD_A">      0.00000000</i>
  </separator>
 </parameters>
 <atominfo>
  <atoms>       1 </atoms>
  <types>       1 </types>
  <array name="atoms" >
   <dimension dim="1">ion</dimension>
   <field type="string">element</field>
   <field type="int">atomtype</field>
   <set>
    <rc><c>Fe</c><c>   1</c></rc>
   </set>
  </array>
  <array name="atomtypes" >
   <dimension dim="1">type</dimension>
   <field type="int">atomspertype</field>
   <field type="string">element</field>
   <field>mass</field>
   <field>valence</field>
   <field type="string">pseudopotential</field>
   <set>
    <rc><c>   1</c><c>Fe</c><c>     55.84700000</c><c>      8.00000000</c><c>  PAW_PBE Fe 06Sep2000                  </c></rc>
   </set>
  </array>
 </atominfo>
 <structure name="initialpos" >
  <crystal>
   <varray name="basis" >
    <v>      -1.45000000       1.45000000       1.45000000 </v>
    <v>       1.45000000      -1.45000000       1.45000000 </v>
    <v>       1.45000000       1.45000000      -1.45000000 </v>
   </varray>
   <i name="volume">     12.19450000 </i>
   <varray name="rec_basis" >
    <v>       0.00000000       0.34482759       0.34482759 </v>
    <v>       0.34482759       0.00000000       0.34482759 </v>
    <v>       0.34482759       0.34482759       0.00000000 </v>
   </varray>
  </crystal>
  <varray name="positions" >
   <v>       0.00000000       0.00000000       0.00000000 </v>
  </varray>
 </structure>
 <calculation>
  <scstep>
   <time name="dav">    3.64    2.42</time>
   <time name="total">    3.78    2.52</time>
   <energy>
    <i name="alphaZ">     56.67618681 </i>
    <i name="ewald">   -578.25309922 </i>
    <i name="hartreedc">   -116.99538689 </i>
    <i name="XCdc">      5.79509176 </i>
    <i name="pawpsdc">    552.89180568 </i>
    <i name="pawaedc">   -560.64780826 </i>
    <i name="eentropy">      0.00000000 </i>
    <i name="bandstr">     63.00401749 </i>
    <i name="atom">    594.30652615 </i>
    <i name="e_fr_energy">     16.77733351 </i>
    <i name="e_wo_entrp">     16.77733351 </i>
    <i name="e_0_energy">     16.77733351 </i>
   </energy>
  </scstep>
  <scstep>
   <time name="dav">    3.65    2.34</time>
   <time name="total">    3.72    2.38</time>
   <energy>
    <i name="e_fr_energy">     -8.08984398 </i>
    <i name="e_wo_entrp">     -8.08984398 </i>
    <i name="e_0_energy">     -8.08984398 </i>
   </energy>
  </scstep>
  <scstep>
   <time name="dav">    4.16    2.65</time>
   <time name="total">    4.27    2.72</time>
   <energy>
    <i name="e_fr_energy">     -8.72679961 </i>
    <i name="e_wo_entrp">     -8.72679961 </i>
    <i name="e_0_energy">     -8.72679961 </i>
   </energy>
  </scstep>
  <scstep>
   <time name="dav">    4.07    2.55</time>
   <time name="total">    4.14    2.60</time>
   <energy>
    <i name="e_fr_energy">     -8.72911769 </i>
    <i name="e_wo_entrp">     -8.72911769 </i>
    <i name="e_0_energy">     -8.72911769 </i>
   </energy>
  </scstep>
  <scstep>
   <time name="dav">    5.14    3.19</time>
   <time name="total">    5.28    3.28</time>
   <energy>
    <i name="e_fr_energy">     -8.72913221 </i>
    <i name="e_wo_entrp">     -8.72913221 </i>
    <i name="e_0_energy">     -8.72913221 </i>
   </energy>
  </scstep>
  <scstep>
   <time name="dav">    4.28    2.68</time>
   <time name="total">    4.51    2.82</time>
   <energy>
    <i name="e_fr_energy">     -8.29834436 </i>
    <i name="e_wo_entrp">     -8.29834436 </i>
    <i name="e_0_energy">     -8.29834436 </i>
   </energy>
  </scstep>
  <scstep>
   <time name="dav">    4.51    2.94</time>
   <time name="total">    4.71    3.07</time>
   <energy>
    <i name="e_fr_energy">     -8.22094304 </i>
    <i name="e_wo_entrp">     -8.22094304 </i>
    <i name="e_0_energy">     -8.22094304 </i>
   </energy>
  </scstep>
  <scstep>
   <time name="dav">    4.97    3.10</time>
   <time name="total">    5.13    3.21</time>
   <energy>
    <i name="e_fr_energy">     -8.21350262 </i>
    <i name="e_wo_entrp">     -8.21350262 </i>
    <i name="e_0_energy">     -8.21350262 </i>
   </energy>
  </scstep>
  <scstep>
   <time name="dav">    5.14    3.17</time>
   <time name="total">    5.34    3.30</time>
   <energy>
    <i name="e_fr_energy">     -8.20800886 </i>
    <i name="e_wo_entrp">     -8.20800886 </i>
    <i name="e_0_energy">     -8.20800886 </i>
   </energy>
  </scstep>
  <scstep>
   <time name="dav">    4.66    3.07</time>
   <time name="total">    4.86    3.20</time>
   <energy>
    <i name="e_fr_energy">     -8.20813307 </i>
    <i name="e_wo_entrp">     -8.20813307 </i>
    <i name="e_0_energy">     -8.20813307 </i>
   </energy>
  </scstep>
  <scstep>
   <time name="dav">    4.49    2.90</time>
   <time name="total">    4.69    3.03</time>
   <energy>
    <i name="e_fr_energy">     -8.20810557 </i>
    <i name="e_wo_entrp">     -8.20810557 </i>
    <i name="e_0_energy">     -8.20810557 </i>
   </energy>
  </scstep>
  <scstep>
   <time name="dav">    4.92    3.11</time>
   <time name="total">    5.11    3.22</time>
   <energy>
    <i name="e_fr_energy">     -8.20810182 </i>
    <i name="e_wo_entrp">     -8.20810182 </i>
    <i name="e_0_energy">     -8.20810182 </i>
   </energy>
  </scstep>
  <scstep>
   <time name="dav">    3.04    1.90</time>
   <time name="total">    3.18    1.98</time>
   <energy>
    <i name="alphaZ">     56.67618681 </i>
    <i name="ewald">   -578.25309922 </i>
    <i name="hartreedc">   -100.69519859 </i>
    <i name="XCdc">      4.25082359 </i>
    <i name="pawpsdc">    691.33409582 </i>
    <i name="pawaedc">   -700.19659075 </i>
    <i name="eentropy">      0.00000000 </i>
    <i name="bandstr">     24.36915502 </i>
    <i name="atom">    594.30652615 </i>
    <i name="e_fr_energy">     -8.20810118 </i>
    <i name="e_wo_entrp">     -8.20810118 </i>
    <i name="e_0_energy">     -8.20810118 </i>
   </energy>
  </scstep>
  <structure>
   <crystal>
    <varray name="basis" >
     <v>      -1.45000000       1.45000000       1.45000000 </v>
     <v>       1.45000000      -1.45000000       1.45000000 </v>
     <v>       1.45000000       1.45000000      -1.45000000 </v>
    </varray>
    <i name="volume">     12.19450000 </i>
    <varray name="rec_basis" >
     <v>       0.00000000       0.34482759       0.34482759 </v>
     <v>       0.34482759       0.00000000       0.34482759 </v>
     <v>       0.34482759       0.34482759       0.00000000 </v>
    </varray>
   </crystal>
   <varray name="positions" >
    <v>       0.00000000       0.00000000       0.00000000 </v>
   </varray>
  </structure>
  <varray name="forces" >
   <v>       0.00000000       0.00000000      -0.00000000 </v>
  </varray>
  <varray name="stress" >
   <v>    -117.91358999       0.00000000       0.00000000 </v>
   <v>       0.00000000    -117.91358999       0.00000000 </v>
   <v>       0.00000000       0.00000000    -117.91358999 </v>
  </varray>
  <energy>
   <i name="e_fr_energy">     -8.20810118 </i>
   <i name="e_wo_entrp">     -8.20810118 </i>
   <i name="e_0_energy">      0.00000000 </i>
  </energy>
  <time name="totalsc">   59.43   37.77</time>
  <eigenvalues>
   <array>
    <dimension dim="1">band</dimension>
    <dimension dim="2">kpoint</dimension>
    <dimension dim="3">spin</dimension>
    <field>eigene</field>
    <field>occ</field>
    <set>
     <set comment="spin 1">
      <set comment="kpoint 1">
       <r>   -1.9800    1.0000 </r>
       <r>    2.7386    1.0000 </r>
       <r>    2.7386    1.0000 </r>
       <r>    3.4610    1.0000 </r>
       <r>    3.9921    1.0000 </r>
       <r>    3.9921    1.0034 </r>
       <r>   25.7465    0.0000 </r>
       <r>   25.7465    0.0000 </r>
       <r>   29.0516    0.0000 </r>
       <r>   30.3216    0.0000 </r>
       <r>   34.7548    0.0000 </r>
       <r>   34.7548    0.0000 </r>
      </set>
      <set comment="kpoint 2">
       <r>   -0.4487    1.0000 </r>
       <r>    2.3716    1.0000 </r>
       <r>    2.5646    1.0000 </r>
       <r>    3.9358    1.0000 </r>
       <r>    4.1005    1.0007 </r>
       <r>    4.3878    0.8922 </r>
       <r>   20.3452    0.0000 </r>
       <r>   23.4356    0.0000 </r>
       <r>   25.3799    0.0000 </r>
       <r>   30.5250    0.0000 </r>
       <r>   34.1181    0.0000 </r>
       <r>   35.4438    0.0000 </r>
      </set>
      <set comment="kpoint 3">
       <r>    0.6939    1.0000 </r>
       <r>    2.0554    1.0000 </r>
       <r>    3.2832    1.0000 </r>
       <r>    4.0619    1.0000 </r>
       <r>    4.1853    1.0304 </r>
       <r>    5.7127    0.0182 </r>
       <r>   14.9794    0.0000 </r>
       <r>   21.7966    0.0000 </r>
       <r>   23.1690    0.0000 </r>
       <r>   29.9128    0.0000 </r>
       <r>   33.4373    0.0000 </r>
       <r>   38.6530    0.0000 </r>
      </set>
      <set comment="kpoint 4">
       <r>    0.7677    1.0000 </r>
       <r>    1.9339    1.0000 </r>
       <r>    4.1174    1.0000 </r>
       <r>    4.2086    1.0000 </r>
       <r>    4.2200    1.0770 </r>
       <r>    7.0947   -0.0050 </r>
       <r>   11.9175    0.0000 </r>
       <r>   21.2016    0.0000 </r>
       <r>   22.3458    0.0000 </r>
       <r>   29.6596    0.0000 </r>
       <r>   33.3166    0.0000 </r>
       <r>   38.7491    0.0000 </r>
      </set>
      <set comment="kpoint 5">
       <r>   -2.5672    1.0000 </r>
       <r>    2.9201    1.0000 </r>
       <r>    2.9201    1.0000 </r>
       <r>    2.9991    1.0000 </r>
       <r>    3.9258    1.0000 </r>
       <r>    4.1019    1.0000 </r>
       <r>   27.7512    0.0000 </r>
       <r>   29.0090    0.0000 </r>
       <r>   29.0090    0.0000 </r>
       <r>   31.7258    0.0000 </r>
       <r>   33.6183    0.0000 </r>
       <r>   33.6183    0.0000 </r>
      </set>
      <set comment="kpoint 6">
       <r>    0.9839    1.0000 </r>
       <r>    2.1216    1.0000 </r>
       <r>    2.2986    1.0000 </r>
       <r>    4.0078    1.0000 </r>
       <r>    4.2148    1.0006 </r>
       <r>    5.8968   -0.0008 </r>
       <r>   17.9340    0.0000 </r>
       <r>   18.6232    0.0000 </r>
       <r>   22.3759    0.0000 </r>
       <r>   32.3785    0.0000 </r>
       <r>   35.7146    0.0000 </r>
       <r>   38.0242    0.0000 </r>
      </set>
      <set comment="kpoint 7">
       <r>    1.3427    1.0000 </r>
       <r>    1.9692    1.0000 </r>
       <r>    2.8894    1.0000 </r>
       <r>    4.1329    1.0000 </r>
       <r>    4.3023    1.0088 </r>
       <r>    8.2641   -0.0039 </r>
       <r>   13.3568    0.0000 </r>
       <r>   17.1310    0.0000 </r>
       <r>   21.1694    0.0000 </r>
       <r>   32.6615    0.0000 </r>
       <r>   36.8201    0.0000 </r>
       <r>   38.5574    0.0000 </r>
      </set>
      <set comment="kpoint 8">
       <r>   -1.4292    1.0000 </r>
       <r>    2.6813    1.0000 </r>
       <r>    2.8591    1.0000 </r>
       <r>    3.5571    1.0000 </r>
       <r>    3.7112    1.0000 </r>
       <r>    4.1898    1.0109 </r>
       <r>   23.1901    0.0000 </r>
       <r>   26.5627    0.0000 </r>
       <r>   27.2545    0.0000 </r>
       <r>   31.1232    0.0000 </r>
       <r>   31.2352    0.0000 </r>
       <r>   32.7873    0.0000 </r>
      </set>
      <set comment="kpoint 9">
       <r>    1.6401    1.0000 </r>
       <r>    2.2996    1.0000 </r>
       <r>    2.2996    1.0000 </r>
       <r>    4.2569    1.0000 </r>
       <r>    4.2569    1.0000 </r>
       <r>   11.6693    0.0000 </r>
       <r>   11.6693    0.0000 </r>
       <r>   13.9168    0.0000 </r>
       <r>   20.7169    0.0000 </r>
       <r>   35.0382    0.0000 </r>
       <r>   35.0382    0.0000 </r>
       <r>   41.6151    0.0000 </r>
      </set>
      <set comment="kpoint 10">
       <r>    0.1694    1.0000 </r>
       <r>    2.3248    1.0000 </r>
       <r>    2.9214    1.0000 </r>
       <r>    3.8944    1.0000 </r>
       <r>    4.3576    1.0158 </r>
       <r>    4.4715    0.7237 </r>
       <r>   17.4815    0.0000 </r>
       <r>   24.2449    0.0000 </r>
       <r>   25.0602    0.0000 </r>
       <r>   29.5033    0.0000 </r>
       <r>   31.2563    0.0000 </r>
       <r>   34.1633    0.0000 </r>
      </set>
      <set comment="kpoint 11">
       <r>   -0.0296    1.0000 </r>
       <r>    2.4954    1.0000 </r>
       <r>    2.6737    1.0000 </r>
       <r>    3.5991    1.0000 </r>
       <r>    4.2196    1.0012 </r>
       <r>    4.5415    0.7770 </r>
       <r>   20.4554    0.0000 </r>
       <r>   21.2957    0.0000 </r>
       <r>   27.7949    0.0000 </r>
       <r>   27.8328    0.0000 </r>
       <r>   31.5184    0.0000 </r>
       <r>   36.0257    0.0000 </r>
      </set>
      <set comment="kpoint 12">
       <r>    0.6510    1.0000 </r>
       <r>    2.0823    1.0000 </r>
       <r>    3.6284    1.0000 </r>
       <r>    4.0416    1.0000 </r>
       <r>    5.2049    0.5642 </r>
       <r>    5.7085   -0.0003 </r>
       <r>   12.8159    0.0000 </r>
       <r>   22.9333    0.0000 </r>
       <r>   23.4869    0.0000 </r>
       <r>   28.8145    0.0000 </r>
       <r>   31.4550    0.0000 </r>
       <r>   35.9218    0.0000 </r>
      </set>
      <set comment="kpoint 13">
       <r>    1.0173    1.0000 </r>
       <r>    2.2171    1.0000 </r>
       <r>    2.7411    1.0000 </r>
       <r>    3.8688    1.0000 </r>
       <r>    4.5724    1.0236 </r>
       <r>    6.1777   -0.0348 </r>
       <r>   15.3563    0.0000 </r>
       <r>   19.1723    0.0000 </r>
       <r>   25.5808    0.0000 </r>
       <r>   28.6764    0.0000 </r>
       <r>   32.1820    0.0000 </r>
       <r>   36.4849    0.0000 </r>
      </set>
      <set comment="kpoint 14">
       <r>    1.0693    1.0000 </r>
       <r>    2.2064    1.0000 </r>
       <r>    2.9047    1.0000 </r>
       <r>    3.9609    1.0000 </r>
       <r>    4.8956    0.9390 </r>
       <r>    8.1534   -0.0019 </r>
       <r>   12.0322    0.0000 </r>
       <r>   18.5049    0.0000 </r>
       <r>   24.7859    0.0000 </r>
       <r>   28.9644    0.0000 </r>
       <r>   33.2535    0.0000 </r>
       <r>   35.7857    0.0000 </r>
      </set>
      <set comment="kpoint 15">
       <r>    1.7005    1.0000 </r>
       <r>    1.9466    1.0000 </r>
       <r>    2.4357    1.0000 </r>
       <r>    4.1396    1.0000 </r>
       <r>    4.5501    1.0285 </r>
       <r>    9.2882   -0.0007 </r>
       <r>   13.5424    0.0000 </r>
       <r>   14.7284    0.0000 </r>
       <r>   25.8966    0.0000 </r>
       <r>   29.1688    0.0000 </r>
       <r>   31.2602    0.0000 </r>
       <r>   37.7512    0.0000 </r>
      </set>
      <set comment="kpoint 16">
       <r>    1.9548    1.0000 </r>
       <r>    1.9548    1.0000 </r>
       <r>    2.0957    1.0000 </r>
       <r>    4.1993    1.0000 </r>
       <r>    4.1993    1.0000 </r>
       <r>    8.2229   -0.0049 </r>
       <r>   16.3390    0.0000 </r>
       <r>   16.3390    0.0000 </r>
       <r>   17.3987    0.0000 </r>
       <r>   36.9930    0.0000 </r>
       <r>   39.4057    0.0000 </r>
       <r>   39.4057    0.0000 </r>
      </set>
      <set comment="kpoint 17">
       <r>    1.8466    1.0000 </r>
       <r>    1.9193    1.0000 </r>
       <r>    2.5217    1.0000 </r>
       <r>    4.2295    1.0000 </r>
       <r>    4.2424    1.0000 </r>
       <r>   10.9909    0.0000 </r>
       <r>   12.6819    0.0000 </r>
       <r>   15.7926    0.0000 </r>
       <r>   16.5461    0.0000 </r>
       <r>   37.9280    0.0000 </r>
       <r>   41.1666    0.0000 </r>
       <r>   41.4077    0.0000 </r>
      </set>
      <set comment="kpoint 18">
       <r>   -0.4257    1.0000 </r>
       <r>    3.0144    1.0000 </r>
       <r>    3.0627    1.0000 </r>
       <r>    3.0627    1.0000 </r>
       <r>    3.5710    1.0000 </r>
       <r>    4.5158    0.9216 </r>
       <r>   23.4435    0.0000 </r>
       <r>   24.1332    0.0000 </r>
       <r>   24.1332    0.0000 </r>
       <r>   26.0259    0.0000 </r>
       <r>   35.2318    0.0000 </r>
       <r>   35.2318    0.0000 </r>
      </set>
      <set comment="kpoint 19">
       <r>    0.8532    1.0000 </r>
       <r>    2.3245    1.0000 </r>
       <r>    2.9386    1.0000 </r>
       <r>    3.5373    1.0000 </r>
       <r>    4.3673    1.0249 </r>
       <r>    5.3213    0.1299 </r>
       <r>   18.3165    0.0000 </r>
       <r>   21.5947    0.0000 </r>
       <r>   22.9026    0.0000 </r>
       <r>   26.6405    0.0000 </r>
       <r>   34.2879    0.0000 </r>
       <r>   35.9404    0.0000 </r>
      </set>
      <set comment="kpoint 20">
       <r>    1.1624    1.0000 </r>
       <r>    2.2618    1.0000 </r>
       <r>    2.7602    1.0000 </r>
       <r>    3.7300    1.0000 </r>
       <r>    5.1318    0.4777 </r>
       <r>    7.7269   -0.0119 </r>
       <r>   13.3465    0.0000 </r>
       <r>   20.0448    0.0000 </r>
       <r>   22.0833    0.0000 </r>
       <r>   29.1656    0.0000 </r>
       <r>   33.3866    0.0000 </r>
       <r>   33.9302    0.0000 </r>
      </set>
      <set comment="kpoint 21">
       <r>    1.4489    1.0000 </r>
       <r>    1.7576    1.0000 </r>
       <r>    3.0128    1.0000 </r>
       <r>    3.8959    1.0000 </r>
       <r>    4.7494    1.0540 </r>
       <r>    7.5823   -0.0160 </r>
       <r>   16.2637    0.0000 </r>
       <r>   16.7950    0.0000 </r>
       <r>   24.2918    0.0000 </r>
       <r>   25.6535    0.0000 </r>
       <r>   33.0101    0.0000 </r>
       <r>   35.6853    0.0000 </r>
      </set>
      <set comment="kpoint 22">
       <r>    1.4217    1.0000 </r>
       <r>    1.7639    1.0000 </r>
       <r>    2.8357    1.0000 </r>
       <r>    4.1755    1.0000 </r>
       <r>    4.9594    0.9388 </r>
       <r>   10.5056    0.0000 </r>
       <r>   12.5354    0.0000 </r>
       <r>   15.8675    0.0000 </r>
       <r>   24.2776    0.0000 </r>
       <r>   27.3952    0.0000 </r>
       <r>   30.4229    0.0000 </r>
       <r>   34.7417    0.0000 </r>
      </set>
      <set comment="kpoint 23">
       <r>    1.2502    1.0000 </r>
       <r>    1.7190    1.0000 </r>
       <r>    3.7650    1.0000 </r>
       <r>    3.7650    1.0000 </r>
       <r>    4.3996    1.1276 </r>
       <r>    6.9756   -0.0233 </r>
       <r>   18.7766    0.0000 </r>
       <r>   18.7766    0.0000 </r>
       <r>   21.1082    0.0000 </r>
       <r>   22.9396    0.0000 </r>
       <r>   34.1638    0.0000 </r>
       <r>   39.0805    0.0000 </r>
      </set>
      <set comment="kpoint 24">
       <r>    1.1799    1.0000 </r>
       <r>    1.3017    1.0000 </r>
       <r>    3.8898    1.0000 </r>
       <r>    4.1449    1.0000 </r>
       <r>    5.0308    0.5961 </r>
       <r>    9.9890    0.0000 </r>
       <r>   14.5473    0.0000 </r>
       <r>   17.0511    0.0000 </r>
       <r>   21.2186    0.0000 </r>
       <r>   24.0016    0.0000 </r>
       <r>   29.5564    0.0000 </r>
       <r>   38.5766    0.0000 </r>
      </set>
      <set comment="kpoint 25">
       <r>    1.0556    1.0000 </r>
       <r>    1.0556    1.0000 </r>
       <r>    3.9868    1.0000 </r>
       <r>    4.8918    1.0000 </r>
       <r>    4.8918    1.1494 </r>
       <r>   13.2840    0.0000 </r>
       <r>   13.2840    0.0000 </r>
       <r>   14.3087    0.0000 </r>
       <r>   22.6838    0.0000 </r>
       <r>   22.6838    0.0000 </r>
       <r>   26.9831    0.0000 </r>
       <r>   39.0911    0.0000 </r>
      </set>
      <set comment="kpoint 26">
       <r>    0.8174    1.0000 </r>
       <r>    0.8191    1.0000 </r>
       <r>    4.8552    1.0000 </r>
       <r>    4.8552    1.0000 </r>
       <r>    4.9988    0.8641 </r>
       <r>   12.7030    0.0000 </r>
       <r>   15.1478    0.0000 </r>
       <r>   15.1478    0.0000 </r>
       <r>   20.2047    0.0000 </r>
       <r>   21.3165    0.0000 </r>
       <r>   25.5098    0.0000 </r>
       <r>   42.3286    0.0000 </r>
      </set>
     </set>
     <set comment="spin 2">
      <set comment="kpoint 1">
       <r>   -1.8697    1.0000 </r>
       <r>    4.7635    1.0009 </r>
       <r>    4.7635    1.0027 </r>
       <r>    5.5872    0.0000 </r>
       <r>    6.7526    0.0000 </r>
       <r>    6.7526    0.0000 </r>
       <r>   25.8953    0.0000 </r>
       <r>   25.8953    0.0000 </r>
       <r>   29.8977    0.0000 </r>
       <r>   29.9676    0.0000 </r>
       <r>   35.0740    0.0000 </r>
       <r>   35.0740    0.0000 </r>
      </set>
      <set comment="kpoint 2">
       <r>   -0.2490    1.0000 </r>
       <r>    4.3064    1.0002 </r>
       <r>    4.4539    1.0009 </r>
       <r>    6.5589    0.0000 </r>
       <r>    6.6160    0.0000 </r>
       <r>    6.8964    0.0000 </r>
       <r>   20.9168    0.0000 </r>
       <r>   23.7085    0.0000 </r>
       <r>   26.0993    0.0000 </r>
       <r>   30.4182    0.0000 </r>
       <r>   34.6653    0.0000 </r>
       <r>   35.6612    0.0000 </r>
      </set>
      <set comment="kpoint 3">
       <r>    1.5711    1.0000 </r>
       <r>    3.9114    1.0000 </r>
       <r>    4.5051    1.0267 </r>
       <r>    6.7006    0.0000 </r>
       <r>    7.0236    0.0000 </r>
       <r>    7.7492    0.0000 </r>
       <r>   15.9266    0.0000 </r>
       <r>   22.0591    0.0000 </r>
       <r>   23.7966    0.0000 </r>
       <r>   30.0605    0.0000 </r>
       <r>   33.9711    0.0000 </r>
       <r>   38.8500    0.0000 </r>
      </set>
      <set comment="kpoint 4">
       <r>    2.1139    1.0000 </r>
       <r>    3.7602    1.0000 </r>
       <r>    5.1881    0.6563 </r>
       <r>    6.7658    0.0000 </r>
       <r>    7.0787    0.0000 </r>
       <r>    8.5498    0.0000 </r>
       <r>   13.2952    0.0000 </r>
       <r>   21.4432    0.0000 </r>
       <r>   22.9243    0.0000 </r>
       <r>   29.8827    0.0000 </r>
       <r>   33.8742    0.0000 </r>
       <r>   38.7021    0.0000 </r>
      </set>
      <set comment="kpoint 5">
       <r>   -2.4643    1.0000 </r>
       <r>    4.9842    0.9953 </r>
       <r>    4.9842    0.9932 </r>
       <r>    5.0858    0.0000 </r>
       <r>    6.6748    0.0000 </r>
       <r>    6.9065    0.0000 </r>
       <r>   27.5845    0.0000 </r>
       <r>   28.8607    0.0000 </r>
       <r>   28.8607    0.0000 </r>
       <r>   32.0915    0.0000 </r>
       <r>   34.3614    0.0000 </r>
       <r>   34.3614    0.0000 </r>
      </set>
      <set comment="kpoint 6">
       <r>    1.5044    1.0000 </r>
       <r>    3.9261    1.0000 </r>
       <r>    4.0250    1.0007 </r>
       <r>    6.6875    0.0000 </r>
       <r>    7.0169    0.0000 </r>
       <r>    7.9241    0.0000 </r>
       <r>   18.6060    0.0000 </r>
       <r>   19.2552    0.0000 </r>
       <r>   22.9321    0.0000 </r>
       <r>   32.2654    0.0000 </r>
       <r>   35.9958    0.0000 </r>
       <r>   38.2859    0.0000 </r>
      </set>
      <set comment="kpoint 7">
       <r>    2.6806    1.0000 </r>
       <r>    3.7044    1.0000 </r>
       <r>    4.1970    1.0120 </r>
       <r>    6.8160    0.0000 </r>
       <r>    7.0822    0.0000 </r>
       <r>    9.7286    0.0000 </r>
       <r>   14.3892    0.0000 </r>
       <r>   17.7746    0.0000 </r>
       <r>   21.6879    0.0000 </r>
       <r>   32.6905    0.0000 </r>
       <r>   36.8906    0.0000 </r>
       <r>   38.9324    0.0000 </r>
      </set>
      <set comment="kpoint 8">
       <r>   -1.3008    1.0000 </r>
       <r>    4.6866    1.0016 </r>
       <r>    4.8659    1.0016 </r>
       <r>    5.7058    0.0000 </r>
       <r>    6.3475    0.0000 </r>
       <r>    7.0041    0.0000 </r>
       <r>   23.5790    0.0000 </r>
       <r>   26.6394    0.0000 </r>
       <r>   27.6185    0.0000 </r>
       <r>   31.5186    0.0000 </r>
       <r>   31.7411    0.0000 </r>
       <r>   33.1244    0.0000 </r>
      </set>
      <set comment="kpoint 9">
       <r>    3.2558    1.0000 </r>
       <r>    3.7894    1.0000 </r>
       <r>    3.7894    1.0007 </r>
       <r>    6.9786    0.0000 </r>
       <r>    6.9786    0.0000 </r>
       <r>   12.7075    0.0000 </r>
       <r>   12.7075    0.0000 </r>
       <r>   14.8318    0.0000 </r>
       <r>   21.2572    0.0000 </r>
       <r>   35.0178    0.0000 </r>
       <r>   35.0178    0.0000 </r>
       <r>   42.3252    0.0000 </r>
      </set>
      <set comment="kpoint 10">
       <r>    0.6068    1.0000 </r>
       <r>    4.2496    1.0005 </r>
       <r>    4.5874    1.0095 </r>
       <r>    6.4036    0.0000 </r>
       <r>    6.7433    0.0000 </r>
       <r>    7.1104    0.0000 </r>
       <r>   18.2601    0.0000 </r>
       <r>   24.3248    0.0000 </r>
       <r>   25.6558    0.0000 </r>
       <r>   29.9310    0.0000 </r>
       <r>   31.7358    0.0000 </r>
       <r>   34.3995    0.0000 </r>
      </set>
      <set comment="kpoint 11">
       <r>    0.2358    1.0000 </r>
       <r>    4.4793    1.0012 </r>
       <r>    4.5794    1.0079 </r>
       <r>    6.0897    0.0000 </r>
       <r>    6.4972    0.0000 </r>
       <r>    7.2107    0.0000 </r>
       <r>   21.0242    0.0000 </r>
       <r>   21.8571    0.0000 </r>
       <r>   27.9767    0.0000 </r>
       <r>   28.2985    0.0000 </r>
       <r>   31.8860    0.0000 </r>
       <r>   36.3046    0.0000 </r>
      </set>
      <set comment="kpoint 12">
       <r>    1.8880    1.0000 </r>
       <r>    3.9558    1.0000 </r>
       <r>    5.0699    0.7651 </r>
       <r>    6.5975    0.0000 </r>
       <r>    7.4432    0.0000 </r>
       <r>    7.5976    0.0000 </r>
       <r>   14.0467    0.0000 </r>
       <r>   22.9818    0.0000 </r>
       <r>   24.0490    0.0000 </r>
       <r>   29.2855    0.0000 </r>
       <r>   32.0095    0.0000 </r>
       <r>   35.9885    0.0000 </r>
      </set>
      <set comment="kpoint 13">
       <r>    1.9665    1.0000 </r>
       <r>    4.0543    1.0001 </r>
       <r>    4.4120    1.0161 </r>
       <r>    6.3213    0.0000 </r>
       <r>    7.1132    0.0000 </r>
       <r>    8.1195    0.0000 </r>
       <r>   16.2557    0.0000 </r>
       <r>   19.7599    0.0000 </r>
       <r>   25.8950    0.0000 </r>
       <r>   29.0148    0.0000 </r>
       <r>   32.4698    0.0000 </r>
       <r>   36.8702    0.0000 </r>
      </set>
      <set comment="kpoint 14">
       <r>    2.5138    1.0000 </r>
       <r>    4.0582    1.0000 </r>
       <r>    4.4555    1.0321 </r>
       <r>    6.4645    0.0000 </r>
       <r>    7.3252    0.0000 </r>
       <r>    9.4225    0.0000 </r>
       <r>   13.3360    0.0000 </r>
       <r>   19.0793    0.0000 </r>
       <r>   25.0649    0.0000 </r>
       <r>   29.3922    0.0000 </r>
       <r>   33.3020    0.0000 </r>
       <r>   36.2757    0.0000 </r>
      </set>
      <set comment="kpoint 15">
       <r>    3.1685    1.0000 </r>
       <r>    3.6749    1.0000 </r>
       <r>    4.1385    1.0070 </r>
       <r>    6.5913    0.0000 </r>
       <r>    7.0360    0.0000 </r>
       <r>   10.6154    0.0000 </r>
       <r>   14.5117    0.0000 </r>
       <r>   15.5527    0.0000 </r>
       <r>   26.3443    0.0000 </r>
       <r>   29.3164    0.0000 </r>
       <r>   31.4273    0.0000 </r>
       <r>   38.5851    0.0000 </r>
      </set>
      <set comment="kpoint 16">
       <r>    3.0038    1.0000 </r>
       <r>    3.6287    1.0000 </r>
       <r>    3.6287    1.0008 </r>
       <r>    7.0150    0.0000 </r>
       <r>    7.0150    0.0000 </r>
       <r>    9.8032    0.0000 </r>
       <r>   17.0523    0.0000 </r>
       <r>   17.0523    0.0000 </r>
       <r>   18.0731    0.0000 </r>
       <r>   36.6510    0.0000 </r>
[...]
       </set>
       <set comment="band 5">
        <r>  0.0060  0.0010  0.0010  0.0086  0.0908  0.3210  0.1144  0.0908  0.3432 </r>
       </set>
       <set comment="band 6">
        <r>  0.0579  0.0386  0.0386  0.1911  0.0937  0.1422  0.0515  0.0937  0.1546 </r>
       </set>
       <set comment="band 7">
        <r>  0.0000  0.1862  0.1862  0.0000  0.1295  0.0000  0.1358  0.1295  0.0453 </r>
       </set>
       <set comment="band 8">
        <r>  0.4460  0.0406  0.0406  0.0267  0.0722  0.0841  0.0015  0.0722  0.0045 </r>
       </set>
       <set comment="band 9">
        <r>  0.0238  0.1787  0.1787  0.0897  0.0476  0.0782  0.0004  0.0476  0.0011 </r>
       </set>
       <set comment="band 10">
        <r>  0.0000  0.0436  0.0436  0.0000  0.0445  0.0000  0.2764  0.0445  0.0921 </r>
       </set>
       <set comment="band 11">
        <r>  0.0277  0.0110  0.0110  0.0258  0.0208  0.1265  0.0842  0.0208  0.2526 </r>
       </set>
       <set comment="band 12">
        <r>  0.1186  0.0371  0.0371  0.1758  0.1998  0.2028  0.0174  0.1998  0.0521 </r>
       </set>
      </set>
      <set comment="kpoint 16">
       <set comment="band 1">
        <r>  0.1464  0.0800  0.0800  0.0800  0.1265  0.1265  0.0000  0.1265  0.0000 </r>
       </set>
       <set comment="band 2">
        <r>  0.0000  0.0115  0.0462  0.0115  0.5228  0.1307  0.0426  0.1307  0.0000 </r>
       </set>
       <set comment="band 3">
        <r>  0.0000  0.0346  0.0000  0.0346  0.0000  0.3921  0.0000  0.3922  0.0426 </r>
       </set>
       <set comment="band 4">
        <r>  0.0000  0.0000  0.0000  0.0000  0.0376  0.0089  0.9249  0.0099  0.0003 </r>
       </set>
       <set comment="band 5">
        <r>  0.0000  0.0000  0.0000  0.0000  0.0000  0.0287  0.0003  0.0277  0.9249 </r>
       </set>
       <set comment="band 6">
        <r>  0.0678  0.0516  0.0516  0.0516  0.2240  0.2240  0.0000  0.2240  0.0000 </r>
       </set>
       <set comment="band 7">
        <r>  0.0000  0.1594  0.0000  0.1594  0.0000  0.1915  0.0000  0.1915  0.0367 </r>
       </set>
       <set comment="band 8">
        <r>  0.0000  0.0531  0.2125  0.0531  0.2553  0.0638  0.0367  0.0638  0.0000 </r>
       </set>
       <set comment="band 9">
        <r>  0.5511  0.0749  0.0749  0.0749  0.0010  0.0010  0.0000  0.0010  0.0000 </r>
       </set>
       <set comment="band 10">
        <r>  0.0000  0.0000  0.0000  0.0000  0.0000  0.0000  0.0000  0.0000  0.0000 </r>
       </set>
       <set comment="band 11">
        <r>  0.0000  0.0041  0.0001  0.0033  0.0036  0.2184  0.0008  0.2716  0.0702 </r>
       </set>
       <set comment="band 12">
        <r>  0.0000  0.0009  0.0049  0.0017  0.3255  0.1107  0.0702  0.0574  0.0008 </r>
       </set>
      </set>
      <set comment="kpoint 17">
       <set comment="band 1">
        <r>  0.0323  0.0000  0.0000  0.1154  0.0000  0.6638  0.0116  0.0000  0.0349 </r>
       </set>
       <set comment="band 2">
        <r>  0.0000  0.0391  0.0391  0.0000  0.4081  0.0000  0.0000  0.4081  0.0000 </r>
       </set>
       <set comment="band 3">
        <r>  0.0000  0.1079  0.1079  0.0000  0.3091  0.0000  0.0000  0.3091  0.0000 </r>
       </set>
       <set comment="band 4">
        <r>  0.0003  0.0000  0.0000  0.0002  0.0000  0.0657  0.2293  0.0000  0.6879 </r>
       </set>
       <set comment="band 5">
        <r>  0.0000  0.0000  0.0000  0.0000  0.0000  0.0000  0.7388  0.0000  0.2463 </r>
       </set>
       <set comment="band 6">
        <r>  0.0000  0.1633  0.1633  0.0000  0.2405  0.0000  0.0000  0.2405  0.0000 </r>
       </set>
       <set comment="band 7">
        <r>  0.2471  0.0000  0.0000  0.1603  0.0000  0.3846  0.0065  0.0000  0.0196 </r>
       </set>
       <set comment="band 8">
        <r>  0.0000  0.1621  0.1621  0.0000  0.2064  0.0000  0.0000  0.2064  0.0000 </r>
       </set>
       <set comment="band 9">
        <r>  0.4994  0.0000  0.0000  0.2079  0.0000  0.0528  0.0020  0.0000  0.0059 </r>
       </set>
       <set comment="band 10">
        <r>  0.0000  0.0001  0.0001  0.0000  0.1130  0.0000  0.0000  0.1130  0.0000 </r>
       </set>
       <set comment="band 11">
        <r>  0.0000  0.0250  0.0250  0.0000  0.0549  0.0000  0.0000  0.0549  0.0000 </r>
       </set>
       <set comment="band 12">
        <r>  0.0121  0.0000  0.0000  0.0952  0.0000  0.1015  0.1030  0.0000  0.3087 </r>
       </set>
      </set>
      <set comment="kpoint 18">
       <set comment="band 1">
        <r>  0.4823  0.0000  0.0000  0.1554  0.0000  0.0000  0.0096  0.0000  0.0289 </r>
       </set>
       <set comment="band 2">
        <r>  0.0000  0.0106  0.0106  0.0000  0.4655  0.0000  0.0000  0.4655  0.0000 </r>
       </set>
       <set comment="band 3">
        <r>  0.0000  0.0106  0.0106  0.0000  0.4655  0.0000  0.0000  0.4655  0.0000 </r>
       </set>
       <set comment="band 4">
        <r>  0.0000  0.0000  0.0000  0.0000  0.0000  0.0000  0.6781  0.0000  0.2260 </r>
       </set>
       <set comment="band 5">
        <r>  0.0000  0.0000  0.0000  0.0000  0.0000  0.9708  0.0000  0.0000  0.0000 </r>
       </set>
       <set comment="band 6">
        <r>  0.0237  0.0000  0.0000  0.0059  0.0000  0.0000  0.2372  0.0000  0.7116 </r>
       </set>
       <set comment="band 7">
        <r>  0.0000  0.0000  0.0000  0.0000  0.0000  0.0000  0.4014  0.0000  0.1338 </r>
       </set>
       <set comment="band 8">
        <r>  0.0000  0.1778  0.1778  0.0000  0.2451  0.0000  0.0000  0.2451  0.0000 </r>
       </set>
       <set comment="band 9">
        <r>  0.0000  0.1778  0.1778  0.0000  0.2451  0.0000  0.0000  0.2451  0.0000 </r>
       </set>
       <set comment="band 10">
        <r>  0.1684  0.0000  0.0000  0.2856  0.0000  0.0000  0.0000  0.0000  0.0000 </r>
       </set>
       <set comment="band 11">
        <r>  0.0000  0.1572  0.1586  0.0000  0.0071  0.0000  0.0000  0.0071  0.0000 </r>
       </set>
       <set comment="band 12">
        <r>  0.0000  0.1586  0.1572  0.0000  0.0071  0.0000  0.0000  0.0071  0.0000 </r>
       </set>
      </set>
      <set comment="kpoint 19">
       <set comment="band 1">
        <r>  0.3059  0.0076  0.0000  0.2016  0.0429  0.0000  0.0564  0.0000  0.0902 </r>
       </set>
       <set comment="band 2">
        <r>  0.0012  0.0275  0.0000  0.0099  0.2233  0.0000  0.4003  0.0000  0.2107 </r>
       </set>
       <set comment="band 3">
        <r>  0.0000  0.0000  0.0216  0.0000  0.0000  0.2708  0.0000  0.6538  0.0000 </r>
       </set>
       <set comment="band 4">
        <r>  0.0000  0.0196  0.0000  0.0066  0.6245  0.0000  0.2730  0.0000  0.0171 </r>
       </set>
       <set comment="band 5">
        <r>  0.0000  0.0000  0.0079  0.0000  0.0000  0.7008  0.0000  0.2659  0.0000 </r>
       </set>
       <set comment="band 6">
        <r>  0.0766  0.0062  0.0000  0.0414  0.0085  0.0000  0.1742  0.0000  0.6473 </r>
       </set>
       <set comment="band 7">
        <r>  0.0928  0.2603  0.0000  0.0345  0.2516  0.0000  0.1028  0.0000  0.0458 </r>
       </set>
       <set comment="band 8">
        <r>  0.0000  0.0000  0.4765  0.0000  0.0000  0.0090  0.0000  0.3587  0.0000 </r>
       </set>
       <set comment="band 9">
        <r>  0.0947  0.0006  0.0000  0.0753  0.0200  0.0000  0.3242  0.0000  0.0424 </r>
       </set>
       <set comment="band 10">
        <r>  0.0656  0.1982  0.0000  0.0704  0.1032  0.0000  0.0380  0.0000  0.1135 </r>
       </set>
       <set comment="band 11">
        <r>  0.0000  0.0000  0.1686  0.0000  0.0000  0.5196  0.0000  0.1320  0.0000 </r>
       </set>
       <set comment="band 12">
        <r>  0.0672  0.1686  0.0000  0.0112  0.0950  0.0000  0.1543  0.0000  0.0804 </r>
       </set>
      </set>
      <set comment="kpoint 20">
       <set comment="band 1">
        <r>  0.1164  0.0001  0.0000  0.0863  0.2503  0.0000  0.3113  0.0000  0.0392 </r>
       </set>
       <set comment="band 2">
        <r>  0.0030  0.0894  0.0000  0.0824  0.0380  0.0000  0.1035  0.0000  0.4877 </r>
       </set>
       <set comment="band 3">
        <r>  0.0000  0.0000  0.0212  0.0000  0.0000  0.4096  0.0000  0.5110  0.0000 </r>
       </set>
       <set comment="band 4">
        <r>  0.0180  0.0096  0.0000  0.0006  0.4910  0.0000  0.4211  0.0000  0.0033 </r>
       </set>
       <set comment="band 5">
        <r>  0.0000  0.0000  0.0023  0.0000  0.0000  0.5577  0.0000  0.4286  0.0000 </r>
       </set>
       <set comment="band 6">
        <r>  0.0649  0.0905  0.0000  0.1865  0.0408  0.0000  0.0349  0.0000  0.4486 </r>
       </set>
       <set comment="band 7">
        <r>  0.2602  0.1767  0.0000  0.0026  0.2835  0.0000  0.0943  0.0000  0.0274 </r>
       </set>
       <set comment="band 8">
        <r>  0.0000  0.0000  0.5581  0.0000  0.0000  0.0580  0.0000  0.1874  0.0000 </r>
       </set>
       <set comment="band 9">
        <r>  0.1092  0.0232  0.0000  0.0537  0.0053  0.0000  0.3513  0.0000  0.0047 </r>
       </set>
       <set comment="band 10">
        <r>  0.0124  0.1570  0.0000  0.0013  0.0239  0.0000  0.0335  0.0000  0.3338 </r>
       </set>
       <set comment="band 11">
        <r>  0.0000  0.0000  0.1435  0.0000  0.0000  0.4522  0.0000  0.2993  0.0000 </r>
       </set>
       <set comment="band 12">
        <r>  0.0017  0.1396  0.0000  0.2201  0.0038  0.0000  0.3135  0.0000  0.0976 </r>
       </set>
      </set>
      <set comment="kpoint 21">
       <set comment="band 1">
        <r>  0.1215  0.0049  0.0049  0.1724  0.0441  0.0001  0.0925  0.0441  0.2774 </r>
       </set>
       <set comment="band 2">
        <r>  0.0000  0.0190  0.0190  0.0000  0.0662  0.0000  0.5108  0.0662  0.1703 </r>
       </set>
       <set comment="band 3">
        <r>  0.0061  0.0146  0.0146  0.0083  0.2492  0.3204  0.0168  0.2492  0.0503 </r>
       </set>
       <set comment="band 4">
        <r>  0.0000  0.0139  0.0139  0.0000  0.3774  0.0000  0.1271  0.3774  0.0424 </r>
       </set>
       <set comment="band 5">
        <r>  0.0113  0.0003  0.0003  0.0048  0.1149  0.6065  0.0310  0.1149  0.0929 </r>
       </set>
       <set comment="band 6">
        <r>  0.1209  0.0160  0.0160  0.1647  0.0477  0.0429  0.1077  0.0477  0.3230 </r>
       </set>
       <set comment="band 7">
        <r>  0.0000  0.2005  0.2005  0.0000  0.1028  0.0000  0.1546  0.1028  0.0515 </r>
       </set>
       <set comment="band 8">
        <r>  0.2340  0.1384  0.1384  0.0307  0.0966  0.0255  0.0036  0.0966  0.0109 </r>
       </set>
       <set comment="band 9">
        <r>  0.0000  0.0591  0.0591  0.0000  0.0393  0.0000  0.3606  0.0393  0.1202 </r>
       </set>
       <set comment="band 10">
        <r>  0.0942  0.1174  0.1174  0.0377  0.0102  0.0017  0.0442  0.0102  0.1327 </r>
       </set>
       <set comment="band 11">
        <r>  0.0007  0.0657  0.0657  0.1345  0.0447  0.1948  0.0548  0.0447  0.1643 </r>
       </set>
       <set comment="band 12">
        <r>  0.1641  0.0000  0.0000  0.1650  0.1079  0.1992  0.0321  0.1079  0.0964 </r>
       </set>
      </set>
      <set comment="kpoint 22">
       <set comment="band 1">
        <r>  0.0279  0.0223  0.0196  0.0223  0.1614  0.0000  0.5763  0.0000  0.0000 </r>
       </set>
       <set comment="band 2">
        <r>  0.0000  0.0689  0.0000  0.0689  0.0000  0.0181  0.0000  0.0181  0.6348 </r>
       </set>
       <set comment="band 3">
        <r>  0.0303  0.0008  0.0202  0.0008  0.1502  0.3379  0.0457  0.3379  0.0000 </r>
       </set>
       <set comment="band 4">
        <r>  0.0094  0.0059  0.0107  0.0059  0.5042  0.1095  0.2014  0.1095  0.0000 </r>
       </set>
       <set comment="band 5">
        <r>  0.0000  0.0085  0.0000  0.0085  0.0000  0.4363  0.0000  0.4363  0.0902 </r>
       </set>
       <set comment="band 6">
        <r>  0.0000  0.2179  0.0000  0.2179  0.0000  0.0471  0.0000  0.0471  0.2907 </r>
       </set>
       <set comment="band 7">
        <r>  0.2588  0.0832  0.0355  0.0832  0.2488  0.0004  0.1287  0.0004  0.0000 </r>
       </set>
       <set comment="band 8">
        <r>  0.1611  0.0030  0.3572  0.0030  0.0016  0.0874  0.0779  0.0874  0.0000 </r>
       </set>
       <set comment="band 9">
        <r>  0.0325  0.0029  0.1454  0.0029  0.0121  0.0119  0.4192  0.0119  0.0000 </r>
       </set>
       <set comment="band 10">
        <r>  0.0000  0.0468  0.0000  0.0468  0.0000  0.0048  0.0000  0.0048  0.4957 </r>
       </set>
       <set comment="band 11">
        <r>  0.0480  0.2183  0.0822  0.2183  0.0002  0.0295  0.0981  0.0295  0.0000 </r>
       </set>
       <set comment="band 12">
        <r>  0.2061  0.0162  0.0095  0.0162  0.1762  0.2527  0.0054  0.2527  0.0000 </r>
       </set>
      </set>
      <set comment="kpoint 23">
       <set comment="band 1">
        <r>  0.1314  0.0000  0.0000  0.1967  0.0000  0.0000  0.1044  0.0000  0.3133 </r>
       </set>
       <set comment="band 2">
        <r>  0.0000  0.0000  0.0000  0.0000  0.0000  0.0000  0.6403  0.0000  0.2134 </r>
       </set>
       <set comment="band 3">
        <r>  0.0000  0.0222  0.0222  0.0000  0.4506  0.0000  0.0000  0.4506  0.0000 </r>
       </set>
       <set comment="band 4">
        <r>  0.0000  0.0222  0.0222  0.0000  0.4506  0.0000  0.0000  0.4506  0.0000 </r>
       </set>
       <set comment="band 5">
        <r>  0.0000  0.0000  0.0000  0.0000  0.0000  0.9761  0.0000  0.0000  0.0000 </r>
       </set>
       <set comment="band 6">
        <r>  0.1698  0.0000  0.0000  0.1506  0.0000  0.0000  0.1422  0.0000  0.4265 </r>
       </set>
       <set comment="band 7">
        <r>  0.0000  0.2713  0.2713  0.0000  0.1332  0.0000  0.0000  0.1332  0.0000 </r>
       </set>
       <set comment="band 8">
        <r>  0.0000  0.2713  0.2713  0.0000  0.1332  0.0000  0.0000  0.1332  0.0000 </r>
       </set>
       <set comment="band 9">
        <r>  0.0000  0.0000  0.0000  0.0000  0.0000  0.0000  0.5489  0.0000  0.1830 </r>
       </set>
       <set comment="band 10">
        <r>  0.2978  0.0000  0.0000  0.0788  0.0000  0.0000  0.0478  0.0000  0.1433 </r>
       </set>
       <set comment="band 11">
        <r>  0.1228  0.0000  0.0000  0.3042  0.0000  0.0000  0.0958  0.0000  0.2875 </r>
       </set>
       <set comment="band 12">
        <r>  0.0000  0.0000  0.0000  0.0000  0.0000  0.9150  0.0000  0.0000  0.0000 </r>
       </set>
      </set>
      <set comment="kpoint 24">
       <set comment="band 1">
        <r>  0.0230  0.0016  0.0000  0.0921  0.0196  0.0000  0.3201  0.0000  0.3498 </r>
       </set>
       <set comment="band 2">
        <r>  0.0001  0.0228  0.0000  0.0048  0.0160  0.0000  0.4313  0.0000  0.3597 </r>
       </set>
       <set comment="band 3">
        <r>  0.0000  0.0000  0.0359  0.0000  0.0000  0.3281  0.0000  0.5861  0.0000 </r>
       </set>
       <set comment="band 4">
        <r>  0.0183  0.0303  0.0000  0.0055  0.8271  0.0000  0.0622  0.0000  0.0019 </r>
       </set>
       <set comment="band 5">
        <r>  0.0000  0.0000  0.0022  0.0000  0.0000  0.6432  0.0000  0.3407  0.0000 </r>
       </set>
       <set comment="band 6">
        <r>  0.1257  0.0358  0.0000  0.3326  0.0311  0.0000  0.0493  0.0000  0.2375 </r>
       </set>
       <set comment="band 7">
        <r>  0.1224  0.4073  0.0000  0.0001  0.1614  0.0000  0.0521  0.0000  0.0490 </r>
       </set>
       <set comment="band 8">
        <r>  0.0000  0.0000  0.6017  0.0000  0.0000  0.0272  0.0000  0.1374  0.0000 </r>
       </set>
       <set comment="band 9">
        <r>  0.0855  0.0020  0.0000  0.0051  0.0061  0.0000  0.6189  0.0000  0.0155 </r>
       </set>
       <set comment="band 10">
        <r>  0.0882  0.1060  0.0000  0.0000  0.0084  0.0000  0.0002  0.0000  0.4676 </r>
       </set>
       <set comment="band 11">
        <r>  0.2725  0.0582  0.0000  0.2746  0.0118  0.0000  0.0785  0.0000  0.1016 </r>
       </set>
       <set comment="band 12">
        <r>  0.0000  0.0000  0.0720  0.0000  0.0000  0.4473  0.0000  0.2247  0.0000 </r>
       </set>
      </set>
      <set comment="kpoint 25">
       <set comment="band 1">
        <r>  0.0000  0.0183  0.0000  0.0183  0.0000  0.0041  0.0000  0.0041  0.7823 </r>
       </set>
       <set comment="band 2">
        <r>  0.0000  0.0061  0.0243  0.0061  0.0055  0.0014  0.7823  0.0014  0.0000 </r>
       </set>
       <set comment="band 3">
        <r>  0.0168  0.0120  0.0120  0.0120  0.2968  0.2968  0.0000  0.2968  0.0000 </r>
       </set>
       <set comment="band 4">
        <r>  0.0000  0.0030  0.0120  0.0030  0.6267  0.1567  0.0183  0.1567  0.0000 </r>
       </set>
       <set comment="band 5">
        <r>  0.0000  0.0090  0.0000  0.0090  0.0000  0.4700  0.0000  0.4700  0.0183 </r>
       </set>
       <set comment="band 6">
        <r>  0.0000  0.2737  0.0000  0.2737  0.0000  0.0277  0.0000  0.0277  0.1722 </r>
       </set>
       <set comment="band 7">
        <r>  0.0000  0.0912  0.3649  0.0912  0.0369  0.0092  0.1722  0.0092  0.0000 </r>
       </set>
       <set comment="band 8">
        <r>  0.2559  0.1184  0.1184  0.1184  0.0496  0.0496  0.0000  0.0496  0.0000 </r>
       </set>
       <set comment="band 9">
        <r>  0.0000  0.0408  0.0000  0.0408  0.0000  0.0032  0.0000  0.0032  0.6492 </r>
       </set>
       <set comment="band 10">
        <r>  0.0000  0.0136  0.0544  0.0136  0.0043  0.0011  0.6492  0.0011  0.0000 </r>
       </set>
       <set comment="band 11">
        <r>  0.4801  0.0985  0.0985  0.0985  0.0034  0.0034  0.0000  0.0034  0.0000 </r>
       </set>
       <set comment="band 12">
        <r>  0.0344  0.0192  0.0192  0.0192  0.1922  0.1922  0.0000  0.1922  0.0000 </r>
       </set>
      </set>
      <set comment="kpoint 26">
       <set comment="band 1">
        <r>  0.0014  0.0000  0.0000  0.0248  0.0000  0.0000  0.1998  0.0000  0.5995 </r>
       </set>
       <set comment="band 2">
        <r>  0.0000  0.0000  0.0000  0.0000  0.0000  0.0000  0.6250  0.0000  0.2083 </r>
       </set>
       <set comment="band 3">
        <r>  0.0000  0.0096  0.0096  0.0000  0.4777  0.0000  0.0000  0.4777  0.0000 </r>
       </set>
       <set comment="band 4">
        <r>  0.0000  0.0096  0.0096  0.0000  0.4777  0.0000  0.0000  0.4777  0.0000 </r>
       </set>
       <set comment="band 5">
        <r>  0.0000  0.0000  0.0000  0.0000  0.0000  0.9865  0.0000  0.0000  0.0000 </r>
       </set>
       <set comment="band 6">
        <r>  0.0828  0.0000  0.0000  0.5371  0.0000  0.0000  0.0302  0.0000  0.0906 </r>
       </set>
       <set comment="band 7">
        <r>  0.0000  0.3318  0.3318  0.0000  0.0268  0.0000  0.0000  0.0268  0.0000 </r>
       </set>
       <set comment="band 8">
        <r>  0.0000  0.3318  0.3318  0.0000  0.0268  0.0000  0.0000  0.0268  0.0000 </r>
       </set>
       <set comment="band 9">
        <r>  0.0000  0.0000  0.0000  0.0000  0.0000  0.0000  0.6230  0.0000  0.2077 </r>
       </set>
       <set comment="band 10">
        <r>  0.0747  0.0000  0.0000  0.0170  0.0000  0.0000  0.1714  0.0000  0.5143 </r>
       </set>
       <set comment="band 11">
        <r>  0.6227  0.0000  0.0000  0.1235  0.0000  0.0000  0.0112  0.0000  0.0335 </r>
       </set>
       <set comment="band 12">
        <r>  0.0000  0.0000  0.0000  0.0000  0.0000  0.2554  0.0000  0.0000  0.0000 </r>
       </set>
      </set>
     </set>
    </set>
   </array>
  </projected>
 </calculation>
 <structure name="finalpos" >
  <crystal>
   <varray name="basis" >
    <v>      -1.45000000       1.45000000       1.45000000 </v>
    <v>       1.45000000      -1.45000000       1.45000000 </v>
    <v>       1.45000000       1.45000000      -1.45000000 </v>
   </varray>
   <i name="volume">     12.19450000 </i>
   <varray name="rec_basis" >
    <v>       0.00000000       0.34482759       0.34482759 </v>
    <v>       0.34482759       0.00000000       0.34482759 </v>
    <v>       0.34482759       0.34482759       0.00000000 </v>
   </varray>
  </crystal>
  <varray name="positions" >
   <v>       0.00000000       0.00000000       0.00000000 </v>
  </varray>
 </structure>
</modeling>
