Fe FCC                                  
   2.00000000000000     
    -0.500000    0.500000    0.500000
     0.500000   -0.500000    0.500000
     0.500000    0.500000   -0.500000
   Fe
     1
Direct
  0.000000  0.000000  0.000000
 
   24   24   24
  36.550      35.810      33.686      30.442      26.458      22.154      17.925      14.086      10.852      8.3350    
  6.5464      5.4461      5.0708      5.4461      6.5464      8.3350      10.852      14.086      17.925      22.154    
  26.458      30.442      33.686      35.810      35.810      35.566      33.911      31.054      27.339      23.174    
  18.961      15.040      11.656      8.9521      6.9713      5.6755      5.0693      5.1916      6.0341      7.5531    
  9.7747      12.716      16.300      20.352      24.591      28.652      32.124      34.612      33.686      33.911    
  32.770      30.410      27.121      23.279      19.275      15.453      12.079      9.3185      7.2439      5.8375    
  5.0604      4.9482      5.5091      6.7089      8.5586      11.099      14.288      17.990      21.972      25.910    
  29.423      32.124      30.442      31.054      30.410      28.593      25.834      22.458      18.825      15.271    
  12.063      9.3819      7.3218      5.8911      5.0321      4.7401      5.0363      5.9019      7.3428      9.4170    
  12.114      15.338      18.904      22.541      25.910      28.652      26.458      27.339      27.121      25.834    
  23.643      20.819      17.676      14.521      11.612      9.1343      7.1928      5.8176      4.9664      4.5766    
  4.6598      5.2131      6.2476      7.8358      9.9947      12.665      15.708      18.904      21.972      24.591    
  22.154      23.174      23.279      22.458      20.819      18.572      15.978      13.307      10.794      8.6140    
  6.8779      5.6287      4.8456      4.4506      4.3983      4.6935      5.3597      6.4835      8.1055      10.198    
  12.665      15.338      17.990      20.352      17.925      18.961      19.275      18.825      17.676      15.978    
  13.940      11.786      9.7177      7.8960      6.4256      5.3555      4.6801      4.3405      4.2428      4.3579    
  4.7240      5.4404      6.5673      8.1055      9.9947      12.114      14.288      16.300      14.086      15.040    
  15.453      15.271      14.521      13.307      11.786      10.133      8.5177      7.0756      5.9008      5.0412    
  4.4990      4.2326      4.1584      4.1842      4.3403      4.7343      5.4404      6.4835      7.8358      9.4170    
  11.099      12.716      10.852      11.656      12.079      12.063      11.612      10.794      9.7177      8.5177    
  7.3252      6.2506      5.3720      4.7309      4.3321      4.1442      4.1022      4.1164      4.1650      4.3403    
  4.7240      5.3597      6.2476      7.3428      8.5586      9.7747      8.3350      8.9521      9.3185      9.3819    
  9.1343      8.6140      7.8960      7.0756      6.2506      5.5048      4.8984      4.4634      4.2023      4.0888    
  4.0708      4.0851      4.1164      4.1842      4.3579      4.6935      5.2131      5.9019      6.7089      7.5531    
  6.5464      6.9713      7.2439      7.3218      7.1928      6.8779      6.4256      5.9008      5.3720      4.8984    
  4.5224      4.2641      4.1210      4.0681      4.0616      4.0708      4.1022      4.1584      4.2428      4.3983    
  4.6598      5.0363      5.5091      6.0341      5.4461      5.6755      5.8375      5.8911      5.8176      5.6287    
  5.3555      5.0412      4.7309      4.4634      4.2641      4.1413      4.0854      4.0704      4.0681      4.0888    
  4.1442      4.2326      4.3405      4.4506      4.5766      4.7401      4.9482      5.1916      5.0708      5.0693    
  5.0604      5.0321      4.9664      4.8456      4.6801      4.4990      4.3321      4.2023      4.1210      4.0854    
  4.0788      4.0854      4.1210      4.2023      4.3321      4.4990      4.6801      4.8456      4.9664      5.0321    
  5.0604      5.0693      5.4461      5.1916      4.9482      4.7401      4.5766      4.4506      4.3405      4.2326    
  4.1442      4.0888      4.0681      4.0704      4.0854      4.1413      4.2641      4.4634      4.7309      5.0412    
  5.3555      5.6287      5.8176      5.8911      5.8375      5.6755      6.5464      6.0341      5.5091      5.0363    
  4.6598      4.3983      4.2428      4.1584      4.1022      4.0708      4.0616      4.0681      4.1210      4.2641    
  4.5224      4.8984      5.3720      5.9008      6.4256      6.8779      7.1928      7.3218      7.2439      6.9713    
  8.3350      7.5531      6.7089      5.9019      5.2131      4.6935      4.3579      4.1842      4.1164      4.0851    
  4.0708      4.0888      4.2023      4.4634      4.8984      5.5048      6.2506      7.0756      7.8960      8.6140    
  9.1343      9.3819      9.3185      8.9521      10.852      9.7747      8.5586      7.3428      6.2476      5.3597    
  4.7240      4.3403      4.1650      4.1164      4.1022      4.1442      4.3321      4.7309      5.3720      6.2506    
  7.3252      8.5177      9.7177      10.794      11.612      12.063      12.079      11.656      14.086      12.716    
  11.099      9.4170      7.8358      6.4835      5.4404      4.7343      4.3403      4.1842      4.1584      4.2326    
  4.4990      5.0412      5.9008      7.0756      8.5177      10.133      11.786      13.307      14.521      15.271    
  15.453      15.040      17.925      16.300      14.288      12.114      9.9947      8.1055      6.5673      5.4404    
  4.7240      4.3579      4.2428      4.3405      4.6801      5.3555      6.4256      7.8960      9.7177      11.786    
  13.940      15.978      17.676      18.825      19.275      18.961      22.154      20.352      17.990      15.338    
  12.665      10.198      8.1055      6.4835      5.3597      4.6935      4.3983      4.4506      4.8456      5.6287    
  6.8779      8.6140      10.794      13.307      15.978      18.572      20.819      22.458      23.279      23.174    
  26.458      24.591      21.972      18.904      15.708      12.665      9.9947      7.8358      6.2476      5.2131    
  4.6598      4.5766      4.9664      5.8176      7.1928      9.1343      11.612      14.521      17.676      20.819    
  23.643      25.834      27.121      27.339      30.442      28.652      25.910      22.541      18.904      15.338    
  12.114      9.4170      7.3428      5.9019      5.0363      4.7401      5.0321      5.8911      7.3218      9.3819    
  12.063      15.271      18.825      22.458      25.834      28.593      30.410      31.054      33.686      32.124    
  29.423      25.910      21.972      17.990      14.288      11.099      8.5586      6.7089      5.5091      4.9482    
  5.0604      5.8375      7.2439      9.3185      12.079      15.453      19.275      23.279      27.121      30.410    
  32.770      33.911      35.810      34.612      32.124      28.652      24.591      20.352      16.300      12.716    
  9.7747      7.5531      6.0341      5.1916      5.0693      5.6755      6.9713      8.9521      11.656      15.040    
  18.961      23.174      27.339      31.054      33.911      35.566      35.810      35.566      33.911      31.054    
  27.339      23.174      18.961      15.040      11.656      8.9521      6.9713      5.6755      5.0693      5.1916    
  6.0341      7.5531      9.7747      12.716      16.300      20.352      24.591      28.652      32.124      34.612    
  35.566      35.810      34.612      32.124      28.652      24.591      20.352      16.300      12.716      9.7747    
  7.5531      6.0341      5.1916      5.0693      5.6755      6.9713      8.9521      11.656      15.040      18.961    
  23.174      27.339      31.054      33.911      33.911      34.612      33.911      31.899      28.828      25.059    
  20.991      16.997      13.377      10.335      7.9762      6.3123      5.2952      4.9482      5.2952      6.3123    
  7.9762      10.335      13.377      16.997      20.991      25.059      28.828      31.899      31.054      32.124    
  31.899      30.410      27.846      24.518      20.795      17.037      13.551      10.555      8.1781      6.4583    
  5.3538      4.8388      4.9436      5.6612      6.9664      8.9093      11.507      14.692      18.303      22.089    
  25.721      28.828      27.339      28.652      28.828      27.846      25.834      23.042      19.793      16.419    
  13.215      10.405      8.1288      6.4462      5.3389      4.7406      4.6555      5.0913      6.0320      7.5307    
  9.6293      12.293      15.404      18.762      22.089      25.059      23.174      24.591      25.059      24.518    
  23.042      20.819      18.117      15.228      12.420      9.9084      7.8369      6.2778      5.2338      4.6424    
  4.4456      4.6512      5.2567      6.3231      7.9132      10.021      12.569      15.404      18.303      20.991    
  18.961      20.352      20.991      20.795      19.793      18.117      15.978      13.619      11.274      9.1373    
  7.3472      5.9803      5.0534      4.5254      4.3071      4.3586      4.6882      5.3699      6.4834      8.0486    
  10.021      12.293      14.692      16.997      15.040      16.300      16.997      17.037      16.419      15.228    
  13.619      11.786      9.9220      8.1956      6.7303      5.6001      4.8286      4.3903      4.2125      4.1986    
  4.3343      4.7076      5.4102      6.4834      7.9132      9.6293      11.507      13.377      11.656      12.716    
  13.377      13.551      13.215      12.420      11.274      9.9220      8.5177      7.1980      6.0677      5.1921    
  4.5954      4.2614      4.1349      4.1261      4.1628      4.3245      4.7076      5.3699      6.3231      7.5307    
  8.9093      10.335      8.9521      9.7747      10.335      10.555      10.405      9.9084      9.1373      8.1956    
  7.1980      6.2506      5.4366      4.8089      4.3875      4.1600      4.0827      4.0848      4.1063      4.1628    
  4.3343      4.6882      5.2567      6.0320      6.9664      7.9762      6.9713      7.5531      7.9762      8.1781    
  8.1288      7.8369      7.3472      6.7303      6.0677      5.4366      4.8984      4.4916      4.2291      4.0978    
  4.0608      4.0639      4.0848      4.1261      4.1986      4.3586      4.6512      5.0913      5.6612      6.3123    
  5.6755      6.0341      6.3123      6.4583      6.4462      6.2778      5.9803      5.6001      5.1921      4.8089    
  4.4916      4.2641      4.1302      4.0739      4.0611      4.0608      4.0827      4.1349      4.2125      4.3071    
  4.4456      4.6555      4.9436      5.2952      5.0693      5.1916      5.2952      5.3538      5.3389      5.2338    
  5.0534      4.8286      4.5954      4.3875      4.2291      4.1302      4.0854      4.0740      4.0739      4.0978    
  4.1600      4.2614      4.3903      4.5254      4.6424      4.7406      4.8388      4.9482      5.1916      5.0693    
  4.9482      4.8388      4.7406      4.6424      4.5254      4.3903      4.2614      4.1600      4.0978      4.0739    
  4.0740      4.0854      4.1302      4.2291      4.3875      4.5954      4.8286      5.0534      5.2338      5.3389    
  5.3538      5.2952      6.0341      5.6755      5.2952      4.9436      4.6555      4.4456      4.3071      4.2125    
  4.1349      4.0827      4.0608      4.0611      4.0739      4.1302      4.2641      4.4916      4.8089      5.1921    
  5.6001      5.9803      6.2778      6.4462      6.4583      6.3123      7.5531      6.9713      6.3123      5.6612    
  5.0913      4.6512      4.3586      4.1986      4.1261      4.0848      4.0639      4.0608      4.0978      4.2291    
  4.4916      4.8984      5.4366      6.0677      6.7303      7.3472      7.8369      8.1288      8.1781      7.9762    
  9.7747      8.9521      7.9762      6.9664      6.0320      5.2567      4.6882      4.3343      4.1628      4.1063    
  4.0848      4.0827      4.1600      4.3875      4.8089      5.4366      6.2506      7.1980      8.1956      9.1373    
  9.9084      10.405      10.555      10.335      12.716      11.656      10.335      8.9093      7.5307      6.3231    
  5.3699      4.7076      4.3245      4.1628      4.1261      4.1349      4.2614      4.5954      5.1921      6.0677    
  7.1980      8.5177      9.9220      11.274      12.420      13.215      13.551      13.377      16.300      15.040    
  13.377      11.507      9.6293      7.9132      6.4834      5.4102      4.7076      4.3343      4.1986      4.2125    
  4.3903      4.8286      5.6001      6.7303      8.1956      9.9220      11.786      13.619      15.228      16.419    
  17.037      16.997      20.352      18.961      16.997      14.692      12.293      10.021      8.0486      6.4834    
  5.3699      4.6882      4.3586      4.3071      4.5254      5.0534      5.9803      7.3472      9.1373      11.274    
  13.619      15.978      18.117      19.793      20.795      20.991      24.591      23.174      20.991      18.303    
  15.404      12.569      10.021      7.9132      6.3231      5.2567      4.6512      4.4456      4.6424      5.2338    
  6.2778      7.8369      9.9084      12.420      15.228      18.117      20.819      23.042      24.518      25.059    
  28.652      27.339      25.059      22.089      18.762      15.404      12.293      9.6293      7.5307      6.0320    
  5.0913      4.6555      4.7406      5.3389      6.4462      8.1288      10.405      13.215      16.419      19.793    
  23.042      25.834      27.846      28.828      32.124      31.054      28.828      25.721      22.089      18.303    
  14.692      11.507      8.9093      6.9664      5.6612      4.9436      4.8388      5.3538      6.4583      8.1781    
  10.555      13.551      17.037      20.795      24.518      27.846      30.410      31.899      34.612      33.911    
  31.899      28.828      25.059      20.991      16.997      13.377      10.335      7.9762      6.3123      5.2952    
  4.9482      5.2952      6.3123      7.9762      10.335      13.377      16.997      20.991      25.059      28.828    
  31.899      33.911      33.686      33.911      32.770      30.410      27.121      23.279      19.275      15.453    
  12.079      9.3185      7.2439      5.8375      5.0604      4.9482      5.5091      6.7089      8.5586      11.099    
  14.288      17.990      21.972      25.910      29.423      32.124      33.911      34.612      33.911      31.899    
  28.828      25.059      20.991      16.997      13.377      10.335      7.9762      6.3123      5.2952      4.9482    
  5.2952      6.3123      7.9762      10.335      13.377      16.997      20.991      25.059      28.828      31.899    
  32.770      33.911      33.686      32.124      29.423      25.910      21.972      17.990      14.288      11.099    
  8.5586      6.7089      5.5091      4.9482      5.0604      5.8375      7.2439      9.3186      12.079      15.453    
  19.275      23.279      27.121      30.410      30.410      31.899      32.124      31.054      28.828      25.721    
  22.089      18.303      14.692      11.507      8.9093      6.9664      5.6612      4.9436      4.8388      5.3538    
  6.4583      8.1781      10.555      13.551      17.037      20.795      24.518      27.846      27.121      28.828    
  29.423      28.828      27.121      24.518      21.329      17.895      14.534      11.504      8.9773      7.0440    
  5.7123      4.9217      4.6524      4.9217      5.7123      7.0440      8.9773      11.504      14.534      17.895    
  21.329      24.518      23.279      25.059      25.910      25.721      24.518      22.458      19.793      16.822    
  13.840      11.091      8.7537      6.9293      5.6466      4.8636      4.5081      4.5816      5.0807      6.0286    
  7.5009      9.5158      12.019      14.880      17.895      20.795      19.275      20.991      21.972      22.089    
  21.329      19.793      17.676      15.228      12.704      10.329      8.2728      6.6407      5.4743      4.7527    
  4.3971      4.3491      4.6093      5.2116      6.2453      7.7513      9.7059      12.019      14.534      17.037    
  15.453      16.997      17.990      18.303      17.895      16.822      15.228      13.307      11.274      9.3218    
  7.6044      6.2229      5.2241      4.6016      4.2969      4.2128      4.3095      4.6329      5.2842      6.3225    
  7.7513      9.5158      11.504      13.551      12.079      13.377      14.288      14.692      14.534      13.840    
  12.704      11.274      9.7177      8.1956      6.8385      5.7367      4.9359      4.4372      4.1986      4.1373    
  4.1573      4.2897      4.6410      5.2842      6.2453      7.5009      8.9773      10.555      9.3185      10.335    
  11.099      11.507      11.504      11.091      10.329      9.3218      8.1956      7.0756      6.0677      5.2466    
  4.6519      4.2869      4.1196      4.0851      4.0977      4.1378      4.2897      4.6329      5.2116      6.0286    
  7.0440      8.1781      7.2439      7.9762      8.5586      8.9093      8.9773      8.7537      8.2728      7.6044    
  6.8385      6.0677      5.3720      4.8089      4.4085      4.1718      4.0719      4.0565      4.0681      4.0977    
  4.1573      4.3095      4.6093      5.0807      5.7123      6.4583      5.8375      6.3123      6.7089      6.9664    
  7.0440      6.9293      6.6407      6.2229      5.7367      5.2466      4.8089      4.4634      4.2291      4.1019    
  4.0564      4.0493      4.0565      4.0851      4.1373      4.2128      4.3491      4.5816      4.9217      5.3538    
  5.0604      5.2952      5.5091      5.6612      5.7123      5.6466      5.4743      5.2241      4.9359      4.6519    
  4.4085      4.2291      4.1210      4.0739      4.0611      4.0564      4.0719      4.1196      4.1986      4.2969    
  4.3971      4.5081      4.6524      4.8388      4.9482      4.9482      4.9482      4.9436      4.9217      4.8636    
  4.7527      4.6016      4.4372      4.2869      4.1718      4.1019      4.0739      4.0704      4.0739      4.1019    
  4.1718      4.2869      4.4372      4.6016      4.7527      4.8636      4.9217      4.9436      5.5091      5.2952    
  5.0604      4.8388      4.6524      4.5081      4.3971      4.2969      4.1986      4.1196      4.0719      4.0564    
  4.0611      4.0739      4.1210      4.2291      4.4085      4.6519      4.9359      5.2241      5.4743      5.6466    
  5.7123      5.6612      6.7089      6.3123      5.8375      5.3538      4.9217      4.5816      4.3491      4.2128    
  4.1373      4.0851      4.0565      4.0493      4.0564      4.1019      4.2291      4.4634      4.8089      5.2466    
  5.7367      6.2229      6.6407      6.9293      7.0440      6.9664      8.5586      7.9762      7.2439      6.4583    
  5.7123      5.0807      4.6093      4.3095      4.1573      4.0977      4.0681      4.0565      4.0719      4.1718    
  4.4085      4.8089      5.3720      6.0677      6.8385      7.6044      8.2728      8.7537      8.9773      8.9093    
  11.099      10.335      9.3186      8.1781      7.0440      6.0286      5.2116      4.6329      4.2897      4.1378    
  4.0977      4.0851      4.1196      4.2869      4.6519      5.2466      6.0677      7.0756      8.1956      9.3218    
  10.329      11.091      11.504      11.507      14.288      13.377      12.079      10.555      8.9773      7.5009    
  6.2453      5.2842      4.6410      4.2897      4.1573      4.1373      4.1986      4.4372      4.9359      5.7367    
  6.8385      8.1956      9.7177      11.274      12.704      13.840      14.534      14.692      17.990      16.997    
  15.453      13.551      11.504      9.5158      7.7513      6.3225      5.2842      4.6329      4.3095      4.2128    
  4.2969      4.6016      5.2241      6.2229      7.6044      9.3218      11.274      13.307      15.228      16.822    
  17.895      18.303      21.972      20.991      19.275      17.037      14.534      12.019      9.7059      7.7513    
  6.2453      5.2116      4.6093      4.3491      4.3971      4.7527      5.4743      6.6407      8.2728      10.329    
  12.704      15.228      17.676      19.793      21.329      22.089      25.910      25.059      23.279      20.795    
  17.895      14.880      12.019      9.5158      7.5009      6.0286      5.0807      4.5816      4.5081      4.8636    
  5.6466      6.9293      8.7537      11.091      13.840      16.822      19.793      22.458      24.518      25.721    
  29.423      28.828      27.121      24.518      21.329      17.895      14.534      11.504      8.9773      7.0440    
  5.7123      4.9217      4.6524      4.9217      5.7123      7.0440      8.9773      11.504      14.534      17.895    
  21.329      24.518      27.121      28.828      32.124      31.899      30.410      27.846      24.518      20.795    
  17.037      13.551      10.555      8.1781      6.4583      5.3538      4.8388      4.9436      5.6612      6.9664    
  8.9093      11.507      14.692      18.303      22.089      25.721      28.828      31.054      30.442      31.054    
  30.410      28.593      25.834      22.458      18.825      15.271      12.063      9.3819      7.3218      5.8911    
  5.0321      4.7401      5.0363      5.9019      7.3428      9.4170      12.114      15.338      18.904      22.541    
  25.910      28.652      31.054      32.124      31.899      30.410      27.846      24.518      20.795      17.037    
  13.551      10.555      8.1781      6.4583      5.3538      4.8388      4.9436      5.6612      6.9664      8.9093    
  11.507      14.692      18.303      22.089      25.721      28.828      30.410      31.899      32.124      31.054    
  28.828      25.721      22.089      18.303      14.692      11.507      8.9093      6.9664      5.6612      4.9436    
  4.8388      5.3538      6.4583      8.1781      10.555      13.551      17.037      20.795      24.518      27.846    
  28.593      30.410      31.054      30.442      28.652      25.910      22.541      18.904      15.338      12.114    
  9.4170      7.3428      5.9019      5.0363      4.7401      5.0321      5.8911      7.3218      9.3819      12.063    
  15.271      18.825      22.458      25.834      25.834      27.846      28.828      28.652      27.339      25.059    
  22.089      18.762      15.404      12.293      9.6293      7.5307      6.0320      5.0913      4.6555      4.7406    
  5.3389      6.4462      8.1288      10.405      13.215      16.419      19.793      23.042      22.458      24.518    
  25.721      25.910      25.059      23.279      20.795      17.895      14.880      12.019      9.5158      7.5009    
  6.0286      5.0807      4.5816      4.5081      4.8636      5.6466      6.9293      8.7537      11.091      13.840    
  16.822      19.793      18.825      20.795      22.089      22.541      22.089      20.795      18.825      16.419    
  13.840      11.333      9.0945      7.2584      5.8911      4.9937      4.5047      4.3441      4.5047      4.9937    
  5.8911      7.2584      9.0945      11.333      13.840      16.419      15.271      17.037      18.303      18.904    
  18.762      17.895      16.419      14.521      12.420      10.329      8.4268      6.8408      5.6419      4.8441    
  4.4064      4.2377      4.2734      4.5256      5.0843      6.0267      7.3752      9.0945      11.091      13.215    
  12.063      13.551      14.692      15.338      15.404      14.880      13.840      12.420      10.794      9.1373    
  7.6044      6.3095      5.3205      4.6580      4.2950      4.1601      4.1510      4.2438      4.5366      5.1169    
  6.0267      7.2584      8.7537      10.405      9.3819      10.555      11.507      12.114      12.293      12.019    
  11.333      10.329      9.1373      7.8960      6.7303      5.7367      4.9751      4.4660      4.1913      4.0957    
  4.0922      4.1144      4.2323      4.5366      5.0843      5.8911      6.9293      8.1288      7.3218      8.1781    
  8.9093      9.4170      9.6293      9.5158      9.0945      8.4268      7.6044      6.7303      5.9008      5.1921    
  4.6519      4.2971      4.1129      4.0548      4.0550      4.0723      4.1144      4.2438      4.5256      4.9937    
  5.6466      6.4462      5.8911      6.4583      6.9664      7.3428      7.5307      7.5009      7.2584      6.8408    
  6.3095      5.7367      5.1921      4.7309      4.3875      4.1718      4.0687      4.0404      4.0386      4.0550    
  4.0922      4.1510      4.2734      4.5047      4.8636      5.3389      5.0321      5.3538      5.6612      5.9019    
  6.0320      6.0286      5.8911      5.6419      5.3205      4.9751      4.6519      4.3875      4.2023      4.0978    
  4.0564      4.0441      4.0404      4.0548      4.0957      4.1601      4.2377      4.3441      4.5081      4.7406    
  4.7401      4.8388      4.9436      5.0363      5.0913      5.0807      4.9937      4.8441      4.6580      4.4660    
  4.2971      4.1718      4.0978      4.0681      4.0611      4.0564      4.0687      4.1129      4.1913      4.2950    
  4.4064      4.5047      4.5816      4.6555      5.0363      4.9436      4.8388      4.7401      4.6555      4.5816    
  4.5047      4.4064      4.2950      4.1913      4.1129      4.0687      4.0564      4.0611      4.0681      4.0978    
  4.1718      4.2971      4.4660      4.6580      4.8441      4.9937      5.0807      5.0913      5.9019      5.6612    
  5.3538      5.0321      4.7406      4.5081      4.3441      4.2377      4.1601      4.0957      4.0548      4.0404    
  4.0441      4.0564      4.0978      4.2023      4.3875      4.6519      4.9751      5.3205      5.6419      5.8911    
  6.0286      6.0320      7.3428      6.9664      6.4583      5.8911      5.3389      4.8636      4.5047      4.2734    
  4.1510      4.0922      4.0550      4.0386      4.0404      4.0687      4.1718      4.3875      4.7309      5.1921    
  5.7367      6.3095      6.8408      7.2584      7.5009      7.5307      9.4170      8.9093      8.1781      7.3218    
  6.4462      5.6466      4.9937      4.5256      4.2438      4.1144      4.0723      4.0550      4.0548      4.1129    
  4.2971      4.6519      5.1921      5.9008      6.7303      7.6044      8.4268      9.0945      9.5158      9.6293    
  12.114      11.507      10.555      9.3819      8.1288      6.9293      5.8911      5.0843      4.5366      4.2323    
  4.1144      4.0922      4.0957      4.1913      4.4660      4.9751      5.7367      6.7303      7.8960      9.1373    
  10.329      11.333      12.019      12.293      15.338      14.692      13.551      12.063      10.405      8.7537    
  7.2584      6.0267      5.1169      4.5366      4.2438      4.1510      4.1601      4.2950      4.6580      5.3205    
  6.3095      7.6044      9.1373      10.794      12.420      13.840      14.880      15.404      18.904      18.303    
  17.037      15.271      13.215      11.091      9.0945      7.3752      6.0267      5.0843      4.5256      4.2734    
  4.2377      4.4064      4.8441      5.6419      6.8408      8.4268      10.329      12.420      14.521      16.419    
  17.895      18.762      22.541      22.089      20.795      18.825      16.419      13.840      11.333      9.0945    
  7.2584      5.8911      4.9937      4.5047      4.3441      4.5047      4.9937      5.8911      7.2584      9.0945    
  11.333      13.840      16.419      18.825      20.795      22.089      25.910      25.721      24.518      22.458    
  19.793      16.822      13.840      11.091      8.7537      6.9293      5.6466      4.8636      4.5081      4.5816    
  5.0807      6.0286      7.5009      9.5158      12.019      14.880      17.895      20.795      23.279      25.059    
  28.652      28.828      27.846      25.834      23.042      19.793      16.419      13.215      10.405      8.1288    
  6.4462      5.3389      4.7406      4.6555      5.0913      6.0320      7.5307      9.6293      12.293      15.404    
  18.762      22.089      25.059      27.339      26.458      27.339      27.121      25.834      23.643      20.819    
  17.676      14.521      11.612      9.1343      7.1928      5.8176      4.9664      4.5766      4.6598      5.2131    
  6.2476      7.8358      9.9947      12.665      15.708      18.904      21.972      24.591      27.339      28.652    
  28.828      27.846      25.834      23.042      19.793      16.419      13.215      10.405      8.1288      6.4462    
  5.3389      4.7406      4.6555      5.0913      6.0320      7.5307      9.6293      12.293      15.404      18.762    
  22.089      25.059      27.121      28.828      29.423      28.828      27.121      24.518      21.329      17.895    
  14.534      11.504      8.9773      7.0440      5.7123      4.9217      4.6524      4.9217      5.7123      7.0440    
  8.9773      11.504      14.534      17.895      21.329      24.518      25.834      27.846      28.828      28.652    
  27.339      25.059      22.089      18.762      15.404      12.293      9.6293      7.5307      6.0320      5.0913    
  4.6555      4.7406      5.3389      6.4462      8.1288      10.405      13.215      16.419      19.793      23.042    
  23.643      25.834      27.121      27.339      26.458      24.591      21.972      18.904      15.708      12.665    
  9.9947      7.8358      6.2476      5.2131      4.6598      4.5766      4.9664      5.8176      7.1928      9.1343    
  11.612      14.521      17.676      20.819      20.819      23.042      24.518      25.059      24.591      23.174    
  20.991      18.303      15.404      12.569      10.021      7.9132      6.3231      5.2567      4.6512      4.4456    
  4.6424      5.2338      6.2778      7.8369      9.9084      12.420      15.228      18.117      17.676      19.793    