Fe FCC                                  
   2.00000000000000     
    -0.500000    0.500000    0.500000
     0.500000   -0.500000    0.500000
     0.500000    0.500000   -0.500000
   Fe
     1
Direct
  0.000000  0.000000  0.000000
 
   24   24   24
 0.36549904579E+02 0.35810073449E+02 0.33685752913E+02 0.30441832522E+02 0.26457639119E+02
 0.22154192755E+02 0.17924888381E+02 0.14085934756E+02 0.10852425214E+02 0.83349802846E+01
 0.65463622921E+01 0.54460923458E+01 0.50708097169E+01 0.54460923458E+01 0.65463622921E+01
 0.83349802846E+01 0.10852425214E+02 0.14085934756E+02 0.17924888381E+02 0.22154192755E+02
 0.26457639119E+02 0.30441832522E+02 0.33685752913E+02 0.35810073449E+02 0.35810073449E+02
 0.35565962079E+02 0.33910811159E+02 0.31054222660E+02 0.27339240653E+02 0.23174189619E+02
 0.18961237273E+02 0.15040080916E+02 0.11656239669E+02 0.89521163863E+01 0.69712978195E+01
 0.56755219345E+01 0.50692913236E+01 0.51916151189E+01 0.60340872760E+01 0.75531474100E+01
 0.97747279054E+01 0.12715705043E+02 0.16300292052E+02 0.20351615081E+02 0.24590627579E+02
 0.28651869184E+02 0.32123756408E+02 0.34611562754E+02 0.33685752913E+02 0.33910811159E+02
 0.32769894131E+02 0.30409771000E+02 0.27121232469E+02 0.23279432054E+02 0.19274749820E+02
 0.15453228086E+02 0.12078774788E+02 0.93185494341E+01 0.72439467363E+01 0.58375069834E+01
 0.50604229521E+01 0.49481935401E+01 0.55091249278E+01 0.67088732288E+01 0.85586205914E+01
 0.11098758905E+02 0.14287749868E+02 0.17989863136E+02 0.21971540190E+02 0.25910010007E+02
 0.29423321515E+02 0.32123756408E+02 0.30441832522E+02 0.31054222660E+02 0.30409771000E+02
 0.28592992229E+02 0.25833537830E+02 0.22457666426E+02 0.18825296542E+02 0.15270985153E+02
 0.12062594345E+02 0.93818724958E+01 0.73217740369E+01 0.58911219115E+01 0.50320675966E+01
 0.47401169093E+01 0.50362584245E+01 0.59018526272E+01 0.73428115573E+01 0.94169767585E+01
 0.12114094660E+02 0.15338399304E+02 0.18904446664E+02 0.22540698207E+02 0.25910010007E+02
 0.28651869184E+02 0.26457639119E+02 0.27339240653E+02 0.27121232469E+02 0.25833537830E+02
 0.23643407758E+02 0.20819093025E+02 0.17675916917E+02 0.14521244321E+02 0.11612470070E+02
 0.91343298159E+01 0.71928178120E+01 0.58176492311E+01 0.49663718350E+01 0.45765730063E+01
 0.46598009828E+01 0.52130644716E+01 0.62475869243E+01 0.78357546262E+01 0.99947191317E+01
 0.12665101503E+02 0.15707688287E+02 0.18904446664E+02 0.21971540190E+02 0.24590627579E+02
 0.22154192755E+02 0.23174189619E+02 0.23279432054E+02 0.22457666426E+02 0.20819093025E+02
 0.18571801753E+02 0.15978371789E+02 0.13307466715E+02 0.10793811062E+02 0.86140458311E+01
 0.68779435154E+01 0.56287082462E+01 0.48456045046E+01 0.44506343516E+01 0.43983015516E+01
 0.46934641406E+01 0.53596898339E+01 0.64834907642E+01 0.81054971293E+01 0.10198469364E+02
 0.12665101503E+02 0.15338399304E+02 0.17989863136E+02 0.20351615081E+02 0.17924888381E+02
 0.18961237273E+02 0.19274749820E+02 0.18825296542E+02 0.17675916917E+02 0.15978371789E+02
 0.13940441308E+02 0.11785723940E+02 0.97177174807E+01 0.78959862448E+01 0.64256039023E+01
 0.53555313619E+01 0.46800707055E+01 0.43405063356E+01 0.42427949760E+01 0.43579335609E+01
 0.47239642662E+01 0.54404219869E+01 0.65673095574E+01 0.81054971293E+01 0.99947191317E+01
 0.12114094660E+02 0.14287749868E+02 0.16300292052E+02 0.14085934756E+02 0.15040080916E+02
 0.15453228086E+02 0.15270985153E+02 0.14521244321E+02 0.13307466715E+02 0.11785723940E+02
 0.10133183979E+02 0.85176735411E+01 0.70756439541E+01 0.59008440116E+01 0.50411552624E+01
 0.44990345286E+01 0.42326269160E+01 0.41584031148E+01 0.41841636158E+01 0.43403226390E+01
 0.47343305188E+01 0.54404219869E+01 0.64834907642E+01 0.78357546262E+01 0.94169767585E+01
 0.11098758905E+02 0.12715705043E+02 0.10852425214E+02 0.11656239669E+02 0.12078774788E+02
 0.12062594345E+02 0.11612470070E+02 0.10793811062E+02 0.97177174807E+01 0.85176735411E+01
 0.73251754092E+01 0.62505800083E+01 0.53719627593E+01 0.47309101991E+01 0.43321064465E+01
 0.41442297900E+01 0.41022228905E+01 0.41164073485E+01 0.41649762570E+01 0.43403226390E+01
 0.47239642662E+01 0.53596898339E+01 0.62475869243E+01 0.73428115573E+01 0.85586205914E+01
 0.97747279054E+01 0.83349802846E+01 0.89521163863E+01 0.93185494341E+01 0.93818724958E+01
 0.91343298159E+01 0.86140458311E+01 0.78959862448E+01 0.70756439541E+01 0.62505800083E+01
 0.55047596971E+01 0.48984262793E+01 0.44634483677E+01 0.42022893205E+01 0.40888245648E+01
 0.40707538295E+01 0.40851062098E+01 0.41164073485E+01 0.41841636158E+01 0.43579335609E+01
 0.46934641406E+01 0.52130644716E+01 0.59018526272E+01 0.67088732288E+01 0.75531474100E+01
 0.65463622921E+01 0.69712978195E+01 0.72439467363E+01 0.73217740369E+01 0.71928178120E+01
 0.68779435154E+01 0.64256039023E+01 0.59008440116E+01 0.53719627593E+01 0.48984262793E+01
 0.45223624195E+01 0.42641129697E+01 0.41209768271E+01 0.40680927116E+01 0.40616030470E+01
 0.40707538295E+01 0.41022228905E+01 0.41584031148E+01 0.42427949760E+01 0.43983015516E+01
 0.46598009828E+01 0.50362584245E+01 0.55091249278E+01 0.60340872760E+01 0.54460923458E+01
 0.56755219345E+01 0.58375069834E+01 0.58911219115E+01 0.58176492311E+01 0.56287082462E+01
 0.53555313619E+01 0.50411552624E+01 0.47309101991E+01 0.44634483677E+01 0.42641129697E+01
 0.41412847012E+01 0.40854359078E+01 0.40703822901E+01 0.40680927116E+01 0.40888245648E+01
 0.41442297900E+01 0.42326269160E+01 0.43405063356E+01 0.44506343516E+01 0.45765730063E+01
 0.47401169093E+01 0.49481935401E+01 0.51916151189E+01 0.50708097169E+01 0.50692913236E+01
 0.50604229521E+01 0.50320675966E+01 0.49663718350E+01 0.48456045046E+01 0.46800707055E+01
 0.44990345286E+01 0.43321064465E+01 0.42022893205E+01 0.41209768271E+01 0.40854359078E+01
 0.40788371030E+01 0.40854359078E+01 0.41209768271E+01 0.42022893205E+01 0.43321064465E+01
 0.44990345286E+01 0.46800707055E+01 0.48456045046E+01 0.49663718350E+01 0.50320675966E+01
 0.50604229521E+01 0.50692913236E+01 0.54460923458E+01 0.51916151189E+01 0.49481935401E+01
 0.47401169093E+01 0.45765730063E+01 0.44506343516E+01 0.43405063356E+01 0.42326269160E+01
 0.41442297900E+01 0.40888245648E+01 0.40680927116E+01 0.40703822901E+01 0.40854359078E+01
 0.41412847012E+01 0.42641129697E+01 0.44634483677E+01 0.47309101991E+01 0.50411552624E+01
 0.53555313619E+01 0.56287082462E+01 0.58176492311E+01 0.58911219115E+01 0.58375069834E+01
 0.56755219345E+01 0.65463622921E+01 0.60340872760E+01 0.55091249278E+01 0.50362584245E+01
 0.46598009828E+01 0.43983015516E+01 0.42427949760E+01 0.41584031148E+01 0.41022228905E+01
 0.40707538295E+01 0.40616030470E+01 0.40680927116E+01 0.41209768271E+01 0.42641129697E+01
 0.45223624195E+01 0.48984262793E+01 0.53719627593E+01 0.59008440116E+01 0.64256039023E+01
 0.68779435154E+01 0.71928178120E+01 0.73217740369E+01 0.72439467363E+01 0.69712978195E+01
 0.83349802846E+01 0.75531474100E+01 0.67088732288E+01 0.59018526272E+01 0.52130644716E+01
 0.46934641406E+01 0.43579335609E+01 0.41841636158E+01 0.41164073485E+01 0.40851062098E+01
 0.40707538295E+01 0.40888245648E+01 0.42022893205E+01 0.44634483677E+01 0.48984262793E+01
 0.55047596971E+01 0.62505800083E+01 0.70756439541E+01 0.78959862448E+01 0.86140458311E+01
 0.91343298159E+01 0.93818724958E+01 0.93185494341E+01 0.89521163863E+01 0.10852425214E+02
 0.97747279054E+01 0.85586205914E+01 0.73428115573E+01 0.62475869243E+01 0.53596898339E+01
 0.47239642662E+01 0.43403226390E+01 0.41649762570E+01 0.41164073485E+01 0.41022228905E+01
 0.41442297900E+01 0.43321064465E+01 0.47309101991E+01 0.53719627593E+01 0.62505800083E+01
 0.73251754092E+01 0.85176735411E+01 0.97177174807E+01 0.10793811062E+02 0.11612470070E+02
 0.12062594345E+02 0.12078774788E+02 0.11656239669E+02 0.14085934756E+02 0.12715705043E+02
 0.11098758905E+02 0.94169767585E+01 0.78357546262E+01 0.64834907642E+01 0.54404219869E+01
 0.47343305188E+01 0.43403226390E+01 0.41841636158E+01 0.41584031148E+01 0.42326269160E+01
 0.44990345286E+01 0.50411552624E+01 0.59008440116E+01 0.70756439541E+01 0.85176735411E+01
 0.10133183979E+02 0.11785723940E+02 0.13307466715E+02 0.14521244321E+02 0.15270985153E+02
 0.15453228086E+02 0.15040080916E+02 0.17924888381E+02 0.16300292052E+02 0.14287749868E+02
 0.12114094660E+02 0.99947191317E+01 0.81054971293E+01 0.65673095574E+01 0.54404219869E+01
 0.47239642662E+01 0.43579335609E+01 0.42427949760E+01 0.43405063356E+01 0.46800707055E+01
 0.53555313619E+01 0.64256039023E+01 0.78959862448E+01 0.97177174807E+01 0.11785723940E+02
 0.13940441308E+02 0.15978371789E+02 0.17675916917E+02 0.18825296542E+02 0.19274749820E+02
 0.18961237273E+02 0.22154192755E+02 0.20351615081E+02 0.17989863136E+02 0.15338399304E+02
 0.12665101503E+02 0.10198469364E+02 0.81054971293E+01 0.64834907642E+01 0.53596898339E+01
 0.46934641406E+01 0.43983015516E+01 0.44506343516E+01 0.48456045046E+01 0.56287082462E+01
 0.68779435154E+01 0.86140458311E+01 0.10793811062E+02 0.13307466715E+02 0.15978371789E+02
 0.18571801753E+02 0.20819093025E+02 0.22457666426E+02 0.23279432054E+02 0.23174189619E+02
 0.26457639119E+02 0.24590627579E+02 0.21971540190E+02 0.18904446664E+02 0.15707688287E+02
 0.12665101503E+02 0.99947191317E+01 0.78357546262E+01 0.62475869243E+01 0.52130644716E+01
 0.46598009828E+01 0.45765730063E+01 0.49663718350E+01 0.58176492311E+01 0.71928178120E+01
 0.91343298159E+01 0.11612470070E+02 0.14521244321E+02 0.17675916917E+02 0.20819093025E+02
 0.23643407758E+02 0.25833537830E+02 0.27121232469E+02 0.27339240653E+02 0.30441832522E+02
 0.28651869184E+02 0.25910010007E+02 0.22540698207E+02 0.18904446664E+02 0.15338399304E+02
 0.12114094660E+02 0.94169767585E+01 0.73428115573E+01 0.59018526272E+01 0.50362584245E+01
 0.47401169093E+01 0.50320675966E+01 0.58911219115E+01 0.73217740369E+01 0.93818724958E+01
 0.12062594345E+02 0.15270985153E+02 0.18825296542E+02 0.22457666426E+02 0.25833537830E+02
 0.28592992229E+02 0.30409771000E+02 0.31054222660E+02 0.33685752913E+02 0.32123756408E+02
 0.29423321515E+02 0.25910010007E+02 0.21971540190E+02 0.17989863136E+02 0.14287749868E+02
 0.11098758905E+02 0.85586205914E+01 0.67088732288E+01 0.55091249278E+01 0.49481935401E+01
 0.50604229521E+01 0.58375069834E+01 0.72439467363E+01 0.93185494341E+01 0.12078774788E+02
 0.15453228086E+02 0.19274749820E+02 0.23279432054E+02 0.27121232469E+02 0.30409771000E+02
 0.32769894131E+02 0.33910811159E+02 0.35810073449E+02 0.34611562754E+02 0.32123756408E+02
 0.28651869184E+02 0.24590627579E+02 0.20351615081E+02 0.16300292052E+02 0.12715705043E+02
 0.97747279054E+01 0.75531474100E+01 0.60340872760E+01 0.51916151189E+01 0.50692913236E+01
 0.56755219345E+01 0.69712978195E+01 0.89521163863E+01 0.11656239669E+02 0.15040080916E+02
 0.18961237273E+02 0.23174189619E+02 0.27339240653E+02 0.31054222660E+02 0.33910811159E+02
 0.35565962079E+02 0.35810073449E+02 0.35565962079E+02 0.33910811159E+02 0.31054222660E+02
 0.27339240653E+02 0.23174189619E+02 0.18961237273E+02 0.15040080916E+02 0.11656239669E+02
 0.89521163863E+01 0.69712978195E+01 0.56755219345E+01 0.50692913236E+01 0.51916151189E+01
 0.60340872760E+01 0.75531474100E+01 0.97747279054E+01 0.12715705043E+02 0.16300292052E+02
 0.20351615081E+02 0.24590627579E+02 0.28651869184E+02 0.32123756408E+02 0.34611562754E+02
 0.35565962079E+02 0.35810073301E+02 0.34611562468E+02 0.32123756010E+02 0.28651868704E+02
 0.24590627057E+02 0.20351614554E+02 0.16300291554E+02 0.12715704603E+02 0.97747275457E+01
 0.75531471454E+01 0.60340871159E+01 0.51916150682E+01 0.50692913832E+01 0.56755221019E+01
 0.69712980875E+01 0.89521167425E+01 0.11656240094E+02 0.15040081383E+02 0.18961237749E+02
 0.23174190065E+02 0.27339241032E+02 0.31054222937E+02 0.33910811305E+02 0.33910811159E+02
 0.34611562468E+02 0.33910810901E+02 0.31899101006E+02 0.28828334553E+02 0.25058965410E+02
 0.20990692962E+02 0.16996677486E+02 0.13376747286E+02 0.10334926303E+02 0.79761976664E+01
 0.63123332317E+01 0.52952169635E+01 0.49482155215E+01 0.52952171485E+01 0.63123335963E+01
 0.79761981985E+01 0.10334926981E+02 0.13376748076E+02 0.16996678342E+02 0.20990693825E+02
 0.25058966215E+02 0.28828335231E+02 0.31899101497E+02 0.31054222660E+02 0.32123756010E+02
 0.31899101006E+02 0.30409770704E+02 0.27846100900E+02 0.24518394298E+02 0.20794896586E+02
 0.17037333885E+02 0.13550638112E+02 0.10555008116E+02 0.81780804727E+01 0.64582774077E+01
 0.53537507182E+01 0.48388147837E+01 0.49435972737E+01 0.56612339340E+01 0.69663880496E+01
 0.89092824657E+01 0.11507172952E+02 0.14691628740E+02 0.18302838559E+02 0.22089172044E+02
 0.25721326380E+02 0.28828335093E+02 0.27339240653E+02 0.28651868704E+02 0.28828334553E+02
 0.27846100900E+02 0.25833537580E+02 0.23041738180E+02 0.19792538221E+02 0.16419072943E+02
 0.13215355762E+02 0.10404892227E+02 0.81287747919E+01 0.64462005188E+01 0.53389194801E+01
 0.47405869561E+01 0.46554940174E+01 0.50912773517E+01 0.60320458931E+01 0.75306785708E+01
 0.96292634566E+01 0.12292712108E+02 0.15403884511E+02 0.18761718072E+02 0.22089171923E+02
 0.25058965961E+02 0.23174189619E+02 0.24590627057E+02 0.25058965410E+02 0.24518394298E+02
 0.23041738180E+02 0.20819092891E+02 0.18117202636E+02 0.15227802790E+02 0.12420125953E+02
 0.99083894419E+01 0.78368872456E+01 0.62777719175E+01 0.52338067354E+01 0.46424107638E+01
 0.44456427400E+01 0.46512267509E+01 0.52567077676E+01 0.63230839315E+01 0.79132042417E+01
 0.10021353848E+02 0.12569149082E+02 0.15403884415E+02 0.18302838345E+02 0.20990693487E+02
 0.18961237273E+02 0.20351614554E+02 0.20990692962E+02 0.20794896586E+02 0.19792538221E+02
 0.18117202636E+02 0.15978371800E+02 0.13619122838E+02 0.11273951932E+02 0.91373445663E+01
 0.73472005323E+01 0.59802980877E+01 0.50534306576E+01 0.45253567241E+01 0.43071016842E+01
 0.43586455784E+01 0.46882319509E+01 0.53698713143E+01 0.64833966074E+01 0.80485950333E+01
 0.10021353784E+02 0.12292711950E+02 0.14691628470E+02 0.16996677959E+02 0.15040080916E+02
 0.16300291554E+02 0.16996677486E+02 0.17037333885E+02 0.16419072943E+02 0.15227802790E+02
 0.13619122838E+02 0.11785724074E+02 0.99220191129E+01 0.81955912343E+01 0.67303070486E+01
 0.56000804313E+01 0.48285539200E+01 0.43902614487E+01 0.42124663997E+01 0.41985933457E+01
 0.43343468096E+01 0.47075927818E+01 0.54101769642E+01 0.64833965745E+01 0.79132041467E+01
 0.96292632721E+01 0.11507172663E+02 0.13376747685E+02 0.11656239669E+02 0.12715704603E+02
 0.13376747286E+02 0.13550638112E+02 0.13215355762E+02 0.12420125953E+02 0.11273951932E+02
 0.99220191129E+01 0.85176737357E+01 0.71979713883E+01 0.60676841630E+01 0.51920801179E+01
 0.45953926410E+01 0.42614099781E+01 0.41349345861E+01 0.41260673544E+01 0.41628144877E+01
 0.43244947025E+01 0.47075927713E+01 0.53698712727E+01 0.63230838320E+01 0.75306783890E+01
 0.89092821893E+01 0.10334926616E+02 0.89521163863E+01 0.97747275457E+01 0.10334926303E+02
 0.10555008116E+02 0.10404892227E+02 0.99083894419E+01 0.91373445663E+01 0.81955912343E+01
 0.71979713883E+01 0.62505801934E+01 0.54366065134E+01 0.48088908267E+01 0.43875255314E+01
 0.41600042870E+01 0.40827026484E+01 0.40848330699E+01 0.41062779495E+01 0.41628144846E+01
 0.43343467974E+01 0.46882319120E+01 0.52567076789E+01 0.60320457340E+01 0.69663878108E+01
 0.79761978878E+01 0.69712978195E+01 0.75531471454E+01 0.79761976664E+01 0.81780804727E+01
 0.81287747919E+01 0.78368872456E+01 0.73472005323E+01 0.67303070486E+01 0.60676841630E+01
 0.54366065134E+01 0.48984264084E+01 0.44916335403E+01 0.42290675169E+01 0.40978016272E+01
 0.40608092272E+01 0.40639206016E+01 0.40848330591E+01 0.41260673407E+01 0.41985933258E+01
 0.43586455397E+01 0.46512266758E+01 0.50912772245E+01 0.56612337481E+01 0.63123333585E+01
 0.56755219345E+01 0.60340871159E+01 0.63123332317E+01 0.64582774077E+01 0.64462005188E+01
 0.62777719175E+01 0.59802980877E+01 0.56000804313E+01 0.51920801179E+01 0.48088908267E+01
 0.44916335403E+01 0.42641130303E+01 0.41302201795E+01 0.40738818511E+01 0.40610778190E+01
 0.40608091996E+01 0.40827026080E+01 0.41349345425E+01 0.42124663548E+01 0.43071016325E+01
 0.44456426718E+01 0.46554939230E+01 0.49435971482E+01 0.52952169954E+01 0.50692913236E+01
 0.51916150682E+01 0.52952169635E+01 0.53537507182E+01 0.53389194801E+01 0.52338067354E+01
 0.50534306576E+01 0.48285539200E+01 0.45953926410E+01 0.43875255314E+01 0.42290675169E+01
 0.41302201795E+01 0.40854359087E+01 0.40739609671E+01 0.40738818073E+01 0.40978015518E+01
 0.41600041942E+01 0.42614098812E+01 0.43902613574E+01 0.45253566429E+01 0.46424106925E+01
 0.47405868912E+01 0.48388147212E+01 0.49482154595E+01 0.51916151189E+01 0.50692913832E+01
 0.49482155215E+01 0.48388147837E+01 0.47405869561E+01 0.46424107638E+01 0.45253567241E+01
 0.43902614487E+01 0.42614099781E+01 0.41600042870E+01 0.40978016272E+01 0.40738818511E+01
 0.40739609671E+01 0.40854358584E+01 0.41302200800E+01 0.42290673772E+01 0.43875253674E+01
 0.45953924722E+01 0.48285537662E+01 0.50534305351E+01 0.52338066541E+01 0.53389194426E+01
 0.53537507201E+01 0.52952169954E+01 0.60340872760E+01 0.56755221019E+01 0.52952171485E+01
 0.49435972737E+01 0.46554940174E+01 0.44456427400E+01 0.43071016842E+01 0.42124663997E+01
 0.41349345861E+01 0.40827026484E+01 0.40608092272E+01 0.40610778190E+01 0.40738818073E+01
 0.41302200800E+01 0.42641128716E+01 0.44916333304E+01 0.48088905849E+01 0.51920798720E+01
 0.56000802125E+01 0.59802979241E+01 0.62777718287E+01 0.64462005119E+01 0.64582774766E+01
 0.63123333585E+01 0.75531474100E+01 0.69712980875E+01 0.63123335963E+01 0.56612339340E+01
 0.50912773517E+01 0.46512267509E+01 0.43586455784E+01 0.41985933457E+01 0.41260673544E+01
 0.40848330699E+01 0.40639206016E+01 0.40608091996E+01 0.40978015518E+01 0.42290673772E+01
 0.44916333304E+01 0.48984261371E+01 0.54366062051E+01 0.60676838541E+01 0.67303067808E+01
 0.73472003440E+01 0.78368871639E+01 0.81287748264E+01 0.81780806139E+01 0.79761978878E+01
 0.97747279054E+01 0.89521167425E+01 0.79761981985E+01 0.69663880496E+01 0.60320458931E+01
 0.52567077676E+01 0.46882319509E+01 0.43343468096E+01 0.41628144877E+01 0.41062779495E+01
 0.40848330591E+01 0.40827026080E+01 0.41600041942E+01 0.43875253674E+01 0.48088905849E+01
 0.54366062051E+01 0.62505798481E+01 0.71979710496E+01 0.81955909519E+01 0.91373443853E+01
 0.99083893931E+01 0.10404892320E+02 0.10555008337E+02 0.10334926616E+02 0.12715705043E+02
 0.11656240094E+02 0.10334926981E+02 0.89092824657E+01 0.75306785708E+01 0.63230839315E+01
 0.53698713143E+01 0.47075927818E+01 0.43244947025E+01 0.41628144846E+01 0.41260673407E+01
 0.41349345425E+01 0.42614098812E+01 0.45953924722E+01 0.51920798720E+01 0.60676838541E+01
 0.71979710496E+01 0.85176734151E+01 0.99220188633E+01 0.11273951801E+02 0.12420125969E+02
 0.13215355933E+02 0.13550638417E+02 0.13376747685E+02 0.16300292052E+02 0.15040081383E+02
 0.13376748076E+02 0.11507172952E+02 0.96292634566E+01 0.79132042417E+01 0.64833966074E+01
 0.54101769642E+01 0.47075927713E+01 0.43343467974E+01 0.41985933258E+01 0.42124663548E+01
 0.43902613574E+01 0.48285537662E+01 0.56000802125E+01 0.67303067808E+01 0.81955909519E+01
 0.99220188633E+01 0.11785723908E+02 0.13619122799E+02 0.15227802902E+02 0.16419073207E+02
 0.17037334276E+02 0.16996677959E+02 0.20351615081E+02 0.18961237749E+02 0.16996678342E+02
 0.14691628740E+02 0.12292712108E+02 0.10021353848E+02 0.80485950333E+01 0.64833965745E+01
 0.53698712727E+01 0.46882319120E+01 0.43586455397E+01 0.43071016325E+01 0.45253566429E+01
 0.50534305351E+01 0.59802979241E+01 0.73472003440E+01 0.91373443853E+01 0.11273951801E+02
 0.13619122799E+02 0.15978371886E+02 0.18117202864E+02 0.19792538585E+02 0.20794897055E+02
 0.20990693487E+02 0.24590627579E+02 0.23174190065E+02 0.20990693825E+02 0.18302838559E+02
 0.15403884511E+02 0.12569149082E+02 0.10021353784E+02 0.79132041467E+01 0.63230838320E+01
 0.52567076789E+01 0.46512266758E+01 0.44456426718E+01 0.46424106925E+01 0.52338066541E+01
 0.62777718287E+01 0.78368871639E+01 0.99083893931E+01 0.12420125969E+02 0.15227802902E+02
 0.18117202864E+02 0.20819093240E+02 0.23041738635E+02 0.24518394825E+02 0.25058965961E+02
 0.28651869184E+02 0.27339241032E+02 0.25058966215E+02 0.22089172044E+02 0.18761718072E+02
 0.15403884415E+02 0.12292711950E+02 0.96292632721E+01 0.75306783890E+01 0.60320457340E+01
 0.50912772245E+01 0.46554939230E+01 0.47405868912E+01 0.53389194426E+01 0.64462005119E+01
 0.81287748264E+01 0.10404892320E+02 0.13215355933E+02 0.16419073207E+02 0.19792538585E+02
 0.23041738635E+02 0.25833538103E+02 0.27846101455E+02 0.28828335093E+02 0.32123756408E+02
 0.31054222937E+02 0.28828335231E+02 0.25721326380E+02 0.22089171923E+02 0.18302838345E+02
 0.14691628470E+02 0.11507172663E+02 0.89092821893E+01 0.69663878108E+01 0.56612337481E+01
 0.49435971482E+01 0.48388147212E+01 0.53537507201E+01 0.64582774766E+01 0.81780806139E+01
 0.10555008337E+02 0.13550638417E+02 0.17037334276E+02 0.20794897055E+02 0.24518394825E+02
 0.27846101455E+02 0.30409771248E+02 0.31899101497E+02 0.34611562754E+02 0.33910811305E+02
 0.31899101497E+02 0.28828335093E+02 0.25058965961E+02 0.20990693487E+02 0.16996677959E+02
 0.13376747685E+02 0.10334926616E+02 0.79761978878E+01 0.63123333585E+01 0.52952169954E+01
 0.49482154595E+01 0.52952169954E+01 0.63123333585E+01 0.79761978878E+01 0.10334926616E+02
 0.13376747685E+02 0.16996677959E+02 0.20990693487E+02 0.25058965961E+02 0.28828335093E+02
 0.31899101497E+02 0.33910811305E+02 0.33685752913E+02 0.33910811159E+02 0.32769894131E+02
 0.30409771000E+02 0.27121232469E+02 0.23279432054E+02 0.19274749820E+02 0.15453228086E+02
 0.12078774788E+02 0.93185494341E+01 0.72439467363E+01 0.58375069834E+01 0.50604229521E+01
 0.49481935401E+01 0.55091249278E+01 0.67088732288E+01 0.85586205914E+01 0.11098758905E+02
 0.14287749868E+02 0.17989863136E+02 0.21971540190E+02 0.25910010007E+02 0.29423321515E+02
 0.32123756408E+02 0.33910811159E+02 0.34611562468E+02 0.33910810901E+02 0.31899101006E+02
 0.28828334553E+02 0.25058965410E+02 0.20990692962E+02 0.16996677486E+02 0.13376747286E+02
 0.10334926303E+02 0.79761976664E+01 0.63123332317E+01 0.52952169635E+01 0.49482155215E+01
 0.52952171485E+01 0.63123335963E+01 0.79761981985E+01 0.10334926981E+02 0.13376748076E+02
 0.16996678342E+02 0.20990693825E+02 0.25058966215E+02 0.28828335231E+02 0.31899101497E+02
 0.32769894131E+02 0.33910810901E+02 0.33685752413E+02 0.32123755706E+02 0.29423320667E+02
 0.25910009082E+02 0.21971539256E+02 0.17989862254E+02 0.14287749087E+02 0.11098758262E+02
 0.85586201058E+01 0.67088729121E+01 0.55091247840E+01 0.49481935687E+01 0.50604231494E+01
 0.58375073417E+01 0.72439472409E+01 0.93185500603E+01 0.12078775499E+02 0.15453228830E+02
 0.19274750536E+02 0.23279432675E+02 0.27121232930E+02 0.30409771248E+02 0.30409771000E+02
 0.31899101006E+02 0.32123755706E+02 0.31054222077E+02 0.28828334284E+02 0.25721325418E+02
 0.22089171012E+02 0.18302837538E+02 0.14691627799E+02 0.11507172145E+02 0.89092818267E+01
 0.69663875974E+01 0.56612336754E+01 0.49435972086E+01 0.48388149091E+01 0.53537510296E+01
 0.64582778970E+01 0.81780811247E+01 0.10555008903E+02 0.13550638991E+02 0.17037334797E+02
 0.20794897458E+02 0.24518395049E+02 0.27846101455E+02 0.27121232469E+02 0.28828334553E+02
 0.29423320667E+02 0.28828334284E+02 0.27121231963E+02 0.24518394137E+02 0.21328878989E+02
 0.17894646587E+02 0.14534360133E+02 0.11503860888E+02 0.89773022600E+01 0.70440176998E+01
 0.57123080769E+01 0.49216601179E+01 0.46523976061E+01 0.49216602584E+01 0.57123083610E+01
 0.70440181304E+01 0.89773028333E+01 0.11503861587E+02 0.14534360924E+02 0.17894647414E+02
 0.21328879785E+02 0.24518394825E+02 0.23279432054E+02 0.25058965410E+02 0.25910009082E+02
 0.25721325418E+02 0.24518394137E+02 0.22457666137E+02 0.19792538211E+02 0.16822310171E+02
 0.13839812648E+02 0.11091159830E+02 0.87536525745E+01 0.69293159869E+01 0.56465646297E+01
 0.48635703822E+01 0.45081199220E+01 0.45816483915E+01 0.50807326390E+01 0.60285709834E+01
 0.75009041411E+01 0.95158466574E+01 0.12018920483E+02 0.14880106953E+02 0.17894647228E+02
 0.20794897055E+02 0.19274749820E+02 0.20990692962E+02 0.21971539256E+02 0.22089171012E+02
 0.21328878989E+02 0.19792538211E+02 0.17675916914E+02 0.15227802923E+02 0.12704029000E+02
 0.10329122724E+02 0.82727691342E+01 0.66407114291E+01 0.54743251556E+01 0.47526800071E+01
 0.43971475996E+01 0.43490743999E+01 0.46093305895E+01 0.52115965701E+01 0.62453423653E+01
 0.77513199783E+01 0.97058598021E+01 0.12018920348E+02 0.14534360607E+02 0.17037334276E+02
 0.15453228086E+02 0.16996677486E+02 0.17989862254E+02 0.18302837538E+02 0.17894646587E+02
 0.16822310171E+02 0.15227802923E+02 0.13307466971E+02 0.11273952154E+02 0.93218407272E+01
 0.76044238654E+01 0.62229078811E+01 0.52241457098E+01 0.46015821686E+01 0.42968536365E+01
 0.42128418703E+01 0.43094730440E+01 0.46329269522E+01 0.52841559604E+01 0.63225262137E+01
 0.77513198991E+01 0.95158464465E+01 0.11503861202E+02 0.13550638417E+02 0.12078774788E+02
 0.13376747286E+02 0.14287749087E+02 0.14691627799E+02 0.14534360133E+02 0.13839812648E+02
 0.12704029000E+02 0.11273952154E+02 0.97177178796E+01 0.81955914654E+01 0.68385367737E+01
 0.57367411538E+01 0.49359077450E+01 0.44372443189E+01 0.41985542048E+01 0.41372737723E+01
 0.41573236539E+01 0.42897105211E+01 0.46410286829E+01 0.52841559279E+01 0.62453422562E+01
 0.75009039067E+01 0.89773024371E+01 0.10555008337E+02 0.93185494341E+01 0.10334926303E+02
 0.11098758262E+02 0.11507172145E+02 0.11503860888E+02 0.11091159830E+02 0.10329122724E+02
 0.93218407272E+01 0.81955914654E+01 0.70756443503E+01 0.60676843375E+01 0.52466167898E+01
 0.46519390603E+01 0.42869406906E+01 0.41195685521E+01 0.40850695235E+01 0.40977091327E+01
 0.41378030365E+01 0.42897105138E+01 0.46329269145E+01 0.52115964621E+01 0.60285707621E+01
 0.70440177660E+01 0.81780806139E+01 0.72439467363E+01 0.79761976664E+01 0.85586201058E+01
 0.89092818267E+01 0.89773022600E+01 0.87536525745E+01 0.82727691342E+01 0.76044238654E+01
 0.68385367737E+01 0.60676843375E+01 0.53719630428E+01 0.48088909141E+01 0.44084591038E+01
 0.41717939839E+01 0.40719272692E+01 0.40565031059E+01 0.40681441578E+01 0.40977091242E+01
 0.41573236387E+01 0.43094730032E+01 0.46093304905E+01 0.50807324474E+01 0.57123080545E+01
 0.64582774766E+01 0.58375069834E+01 0.63123332317E+01 0.67088729121E+01 0.69663875974E+01
 0.70440176998E+01 0.69293159869E+01 0.66407114291E+01 0.62229078811E+01 0.57367411538E+01
 0.52466167898E+01 0.48088909141E+01 0.44634485003E+01 0.42290675242E+01 0.41019279276E+01
 0.40564328780E+01 0.40492568477E+01 0.40565030751E+01 0.40850694818E+01 0.41372737245E+01
 0.42128418056E+01 0.43490742975E+01 0.45816482287E+01 0.49216600210E+01 0.53537507201E+01
 0.50604229521E+01 0.52952169635E+01 0.55091247840E+01 0.56612336754E+01 0.57123080769E+01
 0.56465646297E+01 0.54743251556E+01 0.52241457098E+01 0.49359077450E+01 0.46519390603E+01
 0.44084591038E+01 0.42290675242E+01 0.41209768291E+01 0.40738818023E+01 0.40611265988E+01
 0.40564328178E+01 0.40719271720E+01 0.41195684377E+01 0.41985540853E+01 0.42968535146E+01
 0.43971474703E+01 0.45081197769E+01 0.46523974391E+01 0.48388147212E+01 0.49481935401E+01
 0.49482155215E+01 0.49481935687E+01 0.49435972086E+01 0.49216601179E+01 0.48635703822E+01
 0.47526800071E+01 0.46015821686E+01 0.44372443189E+01 0.42869406906E+01 0.41717939839E+01
 0.41019279276E+01 0.40738818023E+01 0.40703821969E+01 0.40738817220E+01 0.41019277776E+01
 0.41717937834E+01 0.42869404636E+01 0.44372440898E+01 0.46015819582E+01 0.47526798298E+01
 0.48635702448E+01 0.49216600210E+01 0.49435971482E+01 0.55091249278E+01 0.52952171485E+01
 0.50604231494E+01 0.48388149091E+01 0.46523976061E+01 0.45081199220E+01 0.43971475996E+01
 0.42968536365E+01 0.41985542048E+01 0.41195685521E+01 0.40719272692E+01 0.40564328780E+01
 0.40611265988E+01 0.40738817220E+01 0.41209766577E+01 0.42290672651E+01 0.44084587759E+01
 0.46519386963E+01 0.49359073859E+01 0.52241453973E+01 0.54743249242E+01 0.56465645005E+01
 0.57123080545E+01 0.56612337481E+01 0.67088732288E+01 0.63123335963E+01 0.58375073417E+01
 0.53537510296E+01 0.49216602584E+01 0.45816483915E+01 0.43490743999E+01 0.42128418703E+01
 0.41372737723E+01 0.40850695235E+01 0.40565031059E+01 0.40492568477E+01 0.40564328178E+01
 0.41019277776E+01 0.42290672651E+01 0.44634481317E+01 0.48088904590E+01 0.52466162928E+01
 0.57367406741E+01 0.62229074810E+01 0.66407111613E+01 0.69293158834E+01 0.70440177660E+01
 0.69663878108E+01 0.85586205914E+01 0.79761981985E+01 0.72439472409E+01 0.64582778970E+01
 0.57123083610E+01 0.50807326390E+01 0.46093305895E+01 0.43094730440E+01 0.41573236539E+01
 0.40977091327E+01 0.40681441578E+01 0.40565030751E+01 0.40719271720E+01 0.41717937834E+01
 0.44084587759E+01 0.48088904590E+01 0.53719624903E+01 0.60676837452E+01 0.68385362174E+01
 0.76044234241E+01 0.82727688733E+01 0.87536525318E+01 0.89773024371E+01 0.89092821893E+01
 0.11098758905E+02 0.10334926981E+02 0.93185500603E+01 0.81780811247E+01 0.70440181304E+01
 0.60285709834E+01 0.52115965701E+01 0.46329269522E+01 0.42897105211E+01 0.41378030365E+01
 0.40977091242E+01 0.40850694818E+01 0.41195684377E+01 0.42869404636E+01 0.46519386963E+01
 0.52466162928E+01 0.60676837452E+01 0.70756437310E+01 0.81955909064E+01 0.93218403168E+01
 0.10329122533E+02 0.11091159894E+02 0.11503861202E+02 0.11507172663E+02 0.14287749868E+02
 0.13376748076E+02 0.12078775499E+02 0.10555008903E+02 0.89773028333E+01 0.75009041411E+01
 0.62453423653E+01 0.52841559604E+01 0.46410286829E+01 0.42897105138E+01 0.41573236387E+01
 0.41372737245E+01 0.41985540853E+01 0.44372440898E+01 0.49359073859E+01 0.57367406741E+01
 0.68385362174E+01 0.81955909064E+01 0.97177174083E+01 0.11273951858E+02 0.12704028947E+02
 0.13839812866E+02 0.14534360607E+02 0.14691628470E+02 0.17989863136E+02 0.16996678342E+02
 0.15453228830E+02 0.13550638991E+02 0.11503861587E+02 0.95158466574E+01 0.77513199783E+01
 0.63225262137E+01 0.52841559279E+01 0.46329269145E+01 0.43094730032E+01 0.42128418056E+01
 0.42968535146E+01 0.46015819582E+01 0.52241453973E+01 0.62229074810E+01 0.76044234241E+01
 0.93218403168E+01 0.11273951858E+02 0.13307466869E+02 0.15227803068E+02 0.16822310578E+02