    1    1    1    2
  0.4000000E+01  0.1732051E-09  0.1732051E-09  0.1732051E-09  0.5000000E-15
  1.000000000000000E-004
  CAR 
 Fe FCC                                  
      8     26     12
 
  0.6250000E-01  0.6250000E-01  0.6250000E-01  0.1562500E-01
    1       15.197636     15.197626   1.000000   1.000000
    2       16.520018     16.520019   1.000000   1.000000
    3       16.520018     16.520019   1.000000   1.000000
    4       20.708158     20.708157   1.000000   1.000000
    5       23.090465     23.090469   1.020737   1.020738
    6       23.090465     23.090469   0.780171   0.780170
    7       59.853972     59.853975   0.000000   0.000000
    8       59.853972     59.853975   0.000000   0.000000
    9       61.483930     61.483940   0.000000   0.000000
   10       69.142218     69.142208   0.000000   0.000000
   11       69.142218     69.142208   0.000000   0.000000
   12       70.060710     70.060697   0.000000   0.000000
 
  0.1875000E+00  0.6250000E-01  0.6250000E-01  0.4687500E-01
    1       13.608829     13.608828   1.000000   1.000000
    2       14.583925     14.583926   1.000000   1.000000
    3       19.022357     19.022352   1.000000   1.000000
    4       22.920542     22.920546   1.001313   1.001313
    5       24.005768     24.005773   0.607607   0.607603
    6       26.020923     26.020922  -0.015854  -0.015854
    7       57.070106     57.070103   0.000000   0.000000
    8       57.284301     57.284298   0.000000   0.000000
    9       65.727956     65.727964   0.000000   0.000000
   10       68.736232     68.736220   0.000000   0.000000
   11       70.582690     70.582682   0.000000   0.000000
   12       72.729389     72.729376   0.000000   0.000000
 
  0.3125000E+00  0.6250000E-01  0.6250000E-01  0.4687500E-01
    1       10.802286     10.802286   1.000000   1.000000
    2       13.093927     13.093928   1.000000   1.000000
    3       23.517020     23.517018   0.999983   0.999983
    4       23.894693     23.894697   0.960414   0.960412
    5       24.842971     24.842978   0.003556   0.003556
    6       31.849738     31.849735   0.000000   0.000000
    7       52.823852     52.823848   0.000000   0.000000
    8       53.474872     53.474866   0.000000   0.000000
    9       65.913926     65.913914   0.000000   0.000000
   10       70.489913     70.489913   0.000000   0.000000
   11       72.385308     72.385303   0.000000   0.000000
   12       76.612282     76.612263   0.000000   0.000000
 
  0.4375000E+00  0.6250000E-01  0.6250000E-01  0.2343750E-01
    1        9.692012      9.692011   1.000000   1.000000
    2       12.550673     12.550674   1.000000   1.000000
    3       24.352544     24.352548   0.991701   0.991700
    4       25.243192     25.243200   0.033761   0.033756
    5       25.894932     25.894931   0.000000   0.000000
    6       34.863960     34.863956   0.000000   0.000000
    7       50.119299     50.119296   0.000000   0.000000
    8       51.793596     51.793590   0.000000   0.000000
    9       64.355070     64.355057   0.000000   0.000000
   10       71.704503     71.704493   0.000000   0.000000
   11       73.770014     73.770019   0.000000   0.000000
   12       79.024613     79.024588   0.000000   0.000000
 
 -0.6250000E-01  0.6250000E-01  0.6250000E-01  0.1171875E-01
    1       14.078373     14.078363   1.000000   1.000000
    2       17.619351     17.619352   1.000000   1.000000
    3       17.619352     17.619352   1.000000   1.000000
    4       18.029593     18.029593   1.000000   1.000000
    5       22.507532     22.507535   1.000005   1.000005
    6       23.888989     23.888993   0.771066   0.771063
    7       59.221740     59.221747   0.000000   0.000000
    8       60.779583     60.779593   0.000000   0.000000
    9       60.779583     60.779593   0.000000   0.000000
   10       68.480402     68.480390   0.000000   0.000000
   11       69.148474     69.148461   0.000000   0.000000
   12       69.148475     69.148464   0.000000   0.000000
 
  0.1875000E+00  0.1875000E+00  0.6250000E-01  0.4687500E-01
    1       12.885056     12.885057   1.000000   1.000000
    2       13.884984     13.884985   1.000000   1.000000
    3       19.229026     19.229022   1.000022   1.000022
    4       23.404772     23.404776   1.037036   1.037035
    5       25.076712     25.076718  -0.014983  -0.014983
    6       32.832734     32.832732  -0.001202  -0.001202
    7       53.944685     53.944680   0.000000   0.000000
    8       54.687069     54.687064   0.000000   0.000000
    9       65.722761     65.722751   0.000000   0.000000
   10       69.103589     69.103595   0.000000   0.000000
   11       73.728911     73.728898   0.000000   0.000000
   12       74.049864     74.049851   0.000000   0.000000
 
  0.3125000E+00  0.1875000E+00  0.6250000E-01  0.9375000E-01
    1       11.896364     11.896364   1.000000   1.000000
    2       13.641574     13.641574   1.000000   1.000000
    3       20.594294     20.594293   1.000098   1.000098
    4       24.293273     24.293278   0.533457   0.533452
    5       25.631716     25.631722  -0.000271  -0.000271
    6       38.732538     38.732535   0.000000   0.000000
    7       49.892272     49.892268   0.000000   0.000000
    8       52.435024     52.435017   0.000000   0.000000
    9       62.778700     62.778691   0.000000   0.000000
   10       72.369599     72.369594   0.000000   0.000000
   11       75.401054     75.401047   0.000000   0.000000
   12       77.723450     77.723435   0.000000   0.000000
 
 -0.1875000E+00  0.1875000E+00  0.6250000E-01  0.4687500E-01
    1       14.737968     14.737965   1.000000   1.000000
    2       16.208152     16.208153   1.000000   1.000000
    3       18.703961     18.703956   1.000000   1.000000
    4       20.707026     20.707027   1.000000   1.000000
    5       21.213027     21.213030   1.114037   1.114038
    6       24.800517     24.800521   0.063267   0.063266
    7       58.307416     58.307416   0.000000   0.000000
    8       60.393764     60.393765   0.000000   0.000000
    9       64.207844     64.207854   0.000000   0.000000
   10       67.929539     67.929531   0.000000   0.000000
   11       69.304642     69.304630   0.000000   0.000000
   12       71.192930     71.192920   0.000000   0.000000
 
  0.3125000E+00  0.3125000E+00  0.6250000E-01  0.1562500E-01
    1       12.152662     12.152662   1.000000   1.000000
    2       16.905661     16.905662   1.000000   1.000000
    3       16.905662     16.905662   1.000009   1.000009
    4       25.100213     25.100219  -0.013926  -0.013927
    5       25.100213     25.100219   0.000000   0.000000
    6       45.230728     45.230723   0.000000   0.000000
    7       45.230728     45.230723   0.000000   0.000000
    8       51.574919     51.574913   0.000000   0.000000
    9       61.791274     61.791264   0.000000   0.000000
   10       75.251252     75.251240   0.000000   0.000000
   11       75.251253     75.251242   0.000000   0.000000
   12       76.887194     76.887181   0.000000   0.000000
 
 -0.3125000E+00  0.3125000E+00  0.6250000E-01  0.4687500E-01
    1       11.628601     11.628601   1.000000   1.000000
    2       14.311119     14.311119   1.000000   1.000000
    3       21.004697     21.004698   1.000046   1.000046
    4       23.455856     23.455857   1.000929   1.000929
    5       25.188253     25.188256   0.089757   0.089756
    6       27.259709     27.259708  -0.003346  -0.003346
    7       55.426953     55.426949   0.000000   0.000000
    8       55.715377     55.715374   0.000000   0.000000
    9       66.560789     66.560783   0.000000   0.000000
   10       69.751050     69.751040   0.000000   0.000000
   11       70.516182     70.516184   0.000000   0.000000
   12       76.056810     76.056794   0.000000   0.000000
 
 -0.1875000E+00  0.3125000E+00  0.6250000E-01  0.4687500E-01
    1       14.144885     14.144884   1.000000   1.000000
    2       14.925206     14.925208   1.000000   1.000000
    3       18.877943     18.877941   1.000000   1.000000
    4       20.609236     20.609239   1.000027   1.000027
    5       24.346331     24.346334   0.370956   0.370955
    6       28.053997     28.053996  -0.013743  -0.013743
    7       56.791556     56.791552   0.000000   0.000000
    8       58.167031     58.167026   0.000000   0.000000
    9       65.551749     65.551755   0.000000   0.000000
   10       67.318503     67.318493   0.000000   0.000000
   11       72.309245     72.309236   0.000000   0.000000
   12       73.974427     73.974423   0.000000   0.000000
 
 -0.4375000E+00  0.4375000E+00  0.6250000E-01  0.4687500E-01
    1        9.346598      9.346598   1.000000   1.000000
    2       13.113995     13.113996   1.000000   1.000000
    3       22.653940     22.653944   1.001964   1.001964
    4       23.943814     23.943818   0.938803   0.938801
    5       28.931313     28.931318  -0.000847  -0.000847
    6       32.051178     32.051172   0.000000   0.000000
    7       51.228532     51.228530   0.000000   0.000000
    8       52.621440     52.621434   0.000000   0.000000
    9       64.835891     64.835879   0.000000   0.000000
   10       71.159476     71.159463   0.000000   0.000000
   11       73.280143     73.280150   0.000000   0.000000
   12       77.093009     77.092989   0.000000   0.000000
 
 -0.3125000E+00  0.4375000E+00  0.6250000E-01  0.9375000E-01
    1       11.676081     11.676081   1.000000   1.000000
    2       14.118700     14.118700   1.000000   1.000000
    3       19.332110     19.332111   1.000101   1.000101
    4       22.436352     22.436355   1.032442   1.032442
    5       26.558023     26.558028  -0.011668  -0.011668
    6       34.202182     34.202179   0.000000   0.000000
    7       53.119848     53.119844   0.000000   0.000000
    8       54.696630     54.696624   0.000000   0.000000
    9       64.595168     64.595159   0.000000   0.000000
   10       68.477622     68.477616   0.000000   0.000000
   11       75.121044     75.121036   0.000000   0.000000
   12       75.463328     75.463317   0.000000   0.000000
 
 -0.4375000E+00 -0.4375000E+00  0.6250000E-01  0.4687500E-01
    1       10.548777     10.548777   1.000000   1.000000
    2       13.962544     13.962545   1.000000   1.000000
    3       19.559589     19.559591   1.000783   1.000783
    4       22.965841     22.965845   1.057885   1.057885
    5       27.910599     27.910604   0.000000   0.000000
    6       38.190061     38.190056   0.000000   0.000000
    7       49.869991     49.869989   0.000000   0.000000
    8       53.432717     53.432710   0.000000   0.000000
    9       63.209721     63.209710   0.000000   0.000000
   10       70.562429     70.562419   0.000000   0.000000
   11       73.538973     73.538959   0.000000   0.000000
   12       76.230907     76.230906   0.000000   0.000000
 
 -0.3125000E+00 -0.4375000E+00  0.6250000E-01  0.4687500E-01
    1       12.752600     12.752600   1.000000   1.000000
    2       13.886809     13.886811   1.000000   1.000000
    3       16.989924     16.989926   1.000007   1.000007
    4       23.791460     23.791463   0.982966   0.982965
    5       26.248508     26.248512   0.000000   0.000000
    6       41.715035     41.715031   0.000000   0.000000
    7       49.399069     49.399064   0.000000   0.000000
    8       52.539001     52.538996   0.000000   0.000000
    9       65.008337     65.008324   0.000000   0.000000
   10       68.214234     68.214230   0.000000   0.000000
   11       71.870963     71.870952   0.000000   0.000000
   12       80.542736     80.542729   0.000000   0.000000
 
  0.1875000E+00  0.1875000E+00  0.1875000E+00  0.1562500E-01
    1       13.759913     13.759913   1.000000   1.000000
    2       13.759913     13.759913   1.000000   1.000000
    3       18.834062     18.834059   1.000039   1.000039
    4       24.998035     24.998042   0.028113   0.028110
    5       24.998035     24.998042  -0.000611  -0.000611
    6       39.191244     39.191240   0.000000   0.000000
    7       51.437306     51.437300   0.000000   0.000000
    8       51.437306     51.437300   0.000000   0.000000
    9       61.317959     61.317952   0.000000   0.000000
   10       75.183319     75.183301   0.000000   0.000000
   11       75.183319     75.183301   0.000000   0.000000
   12       75.572163     75.572172   0.000000   0.000000
 
  0.3125000E+00  0.1875000E+00  0.1875000E+00  0.2343750E-01
    1       13.853819     13.853819   1.000000   1.000000
    2       14.585295     14.585294   1.000000   1.000000
    3       18.415174     18.415173   1.000040   1.000040
    4       25.222417     25.222424  -0.036978  -0.036978
    5       25.431922     25.431930   0.000000   0.000000
    6       43.556763     43.556758   0.000000   0.000000
    7       48.012359     48.012354   0.000000   0.000000
    8       50.438971     50.438965   0.000000   0.000000
    9       59.367308     59.367301   0.000000   0.000000
   10       75.566748     75.566731   0.000000   0.000000
   11       78.030475     78.030455   0.000000   0.000000
   12       79.207342     79.207317   0.000000   0.000000
 
 -0.1875000E+00  0.1875000E+00  0.1875000E+00  0.1171875E-01
    1       16.614072     16.614075   1.000000   1.000000
    2       17.160781     17.160775   1.000000   1.000000
    3       18.113012     18.113014   1.000000   1.000000
    4       18.113013     18.113014   1.000000   1.000000
    5       20.575699     20.575700   1.309535   1.309535
    6       28.065365     28.065366  -0.020708  -0.020708
    7       58.241516     58.241512   0.000000   0.000000
    8       62.848709     62.848697   0.000000   0.000000
    9       64.466836     64.466840   0.000000   0.000000
   10       64.466837     64.466841   0.000000   0.000000
   11       71.303806     71.303799   0.000000   0.000000
   12       71.303807     71.303799   0.000000   0.000000
 
 -0.3125000E+00  0.3125000E+00  0.1875000E+00  0.4687500E-01
    1       12.799882     12.799884   1.000000   1.000000
    2       16.326960     16.326960   1.000000   1.000000
    3       17.399993     17.399994   1.000000   1.000000
    4       20.738033     20.738035   1.000000   1.000000
    5       24.536863     24.536866   0.132261   0.132260
    6       32.500149     32.500147   0.000000   0.000000
    7       56.570192     56.570187   0.000000   0.000000
    8       58.161719     58.161712   0.000000   0.000000
    9       62.967338     62.967336   0.000000   0.000000
   10       65.750373     65.750366   0.000000   0.000000
   11       74.593900     74.593897   0.000000   0.000000
   12       74.720627     74.720613   0.000000   0.000000
 
 -0.4375000E+00  0.4375000E+00  0.1875000E+00  0.4687500E-01
    1       10.472240     10.472241   1.000000   1.000000
    2       16.228158     16.228160   1.000000   1.000000
    3       16.498810     16.498811   1.000026   1.000026
    4       21.487887     21.487890   1.008611   1.008611
    5       28.501630     28.501636   0.000000   0.000000
    6       38.267414     38.267408   0.000000   0.000000
    7       51.322264     51.322262   0.000000   0.000000
    8       56.500288     56.500281   0.000000   0.000000
    9       60.611251     60.611245   0.000000   0.000000
   10       68.306712     68.306700   0.000000   0.000000
   11       72.254120     72.254103   0.000000   0.000000
   12       76.769616     76.769614   0.000000   0.000000
 
 -0.3125000E+00  0.4375000E+00  0.1875000E+00  0.4687500E-01
    1       11.271516     11.271518   1.000000   1.000000
    2       13.969768     13.969769   1.000000   1.000000
    3       17.912577     17.912579   1.002114   1.002114
    4       22.231012     22.231014   1.002884   1.002884
    5       26.678757     26.678761  -0.001846  -0.001846
    6       38.579648     38.579644   0.000000   0.000000
    7       54.349048     54.349043   0.000000   0.000000
    8       54.990332     54.990327   0.000000   0.000000
    9       63.013748     63.013744   0.000000   0.000000
   10       63.823474     63.823462   0.000000   0.000000
   11       72.654093     72.654078   0.000000   0.000000
   12       79.217567     79.217560   0.000000   0.000000
 
 -0.4375000E+00 -0.4375000E+00  0.1875000E+00  0.4687500E-01
    1       10.788292     10.788294   1.000000   1.000000
    2       13.142358     13.142361   1.000000   1.000000
    3       17.043845     17.043846   1.004879   1.004879
    4       23.737646     23.737649   0.933575   0.933575
    5       27.749462     27.749467   0.000000   0.000000
    6       44.004600     44.004594   0.000000   0.000000
    7       49.509124     49.509121   0.000000   0.000000
    8       53.553397     53.553391   0.000000   0.000000
    9       62.335774     62.335767   0.000000   0.000000
   10       66.109135     66.109125   0.000000   0.000000
   11       70.110173     70.110157   0.000000   0.000000
   12       80.756365     80.756359   0.000000   0.000000
 
 -0.3125000E+00  0.3125000E+00  0.3125000E+00  0.1171875E-01
    1       10.244716     10.244719   1.000000   1.000000
    2       13.555344     13.555345   1.000000   1.000000
    3       21.566084     21.566086   1.001587   1.001587
    4       21.566085     21.566087   1.007080   1.007080
    5       24.559476     24.559479   0.038029   0.038029
    6       37.259840     37.259837   0.000000   0.000000
    7       58.813740     58.813737   0.000000   0.000000
    8       58.813741     58.813740   0.000000   0.000000
    9       58.875092     58.875083   0.000000   0.000000
   10       59.977084     59.977073   0.000000   0.000000
   11       75.554527     75.554506   0.000000   0.000000
   12       78.582257     78.582250   0.000000   0.000000
 
 -0.4375000E+00  0.4375000E+00  0.3125000E+00  0.4687500E-01
    1        8.654101      8.654103   1.000000   1.000000
    2       10.649275     10.649277   1.000000   1.000000
    3       22.081615     22.081617   0.990096   0.990096
    4       23.490141     23.490144   0.824332   0.824331
    5       27.917517     27.917522   0.000000   0.000000
    6       43.124219     43.124214   0.000000   0.000000
    7       51.794574     51.794571   0.000000   0.000000
    8       55.179101     55.179097   0.000000   0.000000
    9       59.419760     59.419750   0.000000   0.000000
   10       62.534915     62.534904   0.000000   0.000000
   11       73.485808     73.485789   0.000000   0.000000
   12       80.812799     80.812791   0.000000   0.000000
 
 -0.4375000E+00 -0.4375000E+00  0.3125000E+00  0.1562500E-01
    1        8.349938      8.349940   1.000000   1.000000
    2        8.349938      8.349940   1.000000   1.000000
    3       22.602541     22.602543   0.942863   0.942863
    4       27.222965     27.222968  -0.177185  -0.177186
    5       27.222966     27.222970   0.000000   0.000000
    6       48.694064     48.694057   0.000000   0.000000
    7       48.694066     48.694062   0.000000   0.000000
    8       50.739800     50.739795   0.000000   0.000000
    9       61.341258     61.341247   0.000000   0.000000
   10       61.341258     61.341249   0.000000   0.000000
   11       73.268010     73.267991   0.000000   0.000000
   12       83.944927     83.944915   0.000000   0.000000
 
 -0.4375000E+00  0.4375000E+00  0.4375000E+00  0.1171875E-01
    1        6.564508      6.564510   1.000000   1.000000
    2        7.168361      7.168363   1.000000   1.000000
    3       26.985651     26.985654   0.147055   0.147054
    4       26.985651     26.985656  -0.084128  -0.084128
    5       27.724808     27.724812   0.000000   0.000000
    6       46.791092     46.791086   0.000000   0.000000
    7       50.535269     50.535263   0.000000   0.000000
    8       50.535271     50.535268   0.000000   0.000000
    9       59.709492     59.709481   0.000000   0.000000
   10       60.467472     60.467461   0.000000   0.000000
   11       76.103881     76.103860   0.000000   0.000000
   12       83.380261     83.380248   0.000000   0.000000
