       N       E                     dE             d eps       ncg     rms          rms(c)
DAV:   1     0.307499209256E+02    0.30750E+02   -0.32955E+03  1504   0.939E+02
DAV:   2     0.108953978231E+02   -0.19855E+02   -0.19029E+02  1352   0.131E+02
DAV:   3     0.106765067708E+02   -0.21889E+00   -0.21861E+00  1492   0.139E+01
DAV:   4     0.106763716535E+02   -0.13512E-03   -0.13458E-03  1352   0.310E-01
DAV:   5     0.106763715980E+02   -0.55518E-07   -0.55218E-07  1428   0.619E-03    0.694E+01
DAV:   6     0.989815595640E+01   -0.77822E+00   -0.10350E+00  1432   0.154E+01    0.501E+01
DAV:   7     0.100153655853E+02    0.11721E+00   -0.35934E-01  1440   0.914E+00    0.306E+01
DAV:   8     0.102540847244E+02    0.23872E+00   -0.26584E-01  1440   0.666E+00    0.128E+01
DAV:   9     0.101887487041E+02   -0.65336E-01   -0.15858E-01  1508   0.628E+00    0.189E+00
DAV:  10     0.101877364957E+02   -0.10122E-02   -0.24239E-03  1356   0.721E-01    0.221E-01
DAV:  11     0.101878524639E+02    0.11597E-03   -0.13625E-04  1472   0.202E-01    0.183E-01
DAV:  12     0.101878439095E+02   -0.85544E-05   -0.25725E-05  1344   0.665E-02    0.135E-01
DAV:  13     0.101878477172E+02    0.38076E-05   -0.24522E-06  1436   0.275E-02    0.751E-02
DAV:  14     0.101878429640E+02   -0.47531E-05   -0.52520E-06  1400   0.445E-02    0.125E-02
DAV:  15     0.101878404829E+02   -0.24812E-05   -0.22208E-07   708   0.860E-03    0.488E-04
DAV:  16     0.101878405692E+02    0.86277E-07   -0.98168E-09   624   0.119E-03
   1 F= 0.10187841E+02 E0= 0.10187841E+02  d E =0.000000E+00  mag=     0.0000
