PROCAR lm decomposed
# of k-points:   26         # of bands:  12         # of ions:   1

 k-point    1 :    0.06250000 0.06250000 0.06250000     weight = 0.01562500

band   1 # energy   15.19763625 # occ.  1.00000000
 
ion      s     py     pz     px    dxy    dyz    dz2    dxz    dx2    tot
  1  2.216  0.115  0.115  0.115  0.052  0.052  0.000  0.052  0.000  2.716
 
band   2 # energy   16.52001801 # occ.  1.00000000
 
ion      s     py     pz     px    dxy    dyz    dz2    dxz    dx2    tot
  1  0.000  0.010  0.003  0.003  0.207  0.228  0.011  0.829  0.035  1.326
 
band   3 # energy   16.52001801 # occ.  1.00000000
 
ion      s     py     pz     px    dxy    dyz    dz2    dxz    dx2    tot
  1  0.000  0.000  0.008  0.008  0.636  0.615  0.035  0.014  0.011  1.326
 
band   4 # energy   20.70815763 # occ.  1.00000000
 
ion      s     py     pz     px    dxy    dyz    dz2    dxz    dx2    tot
  1  0.192  0.044  0.044  0.044  0.317  0.317  0.000  0.317  0.000  1.276
 
band   5 # energy   23.09046548 # occ.  1.02073745
 
ion      s     py     pz     px    dxy    dyz    dz2    dxz    dx2    tot
  1  0.000  0.000  0.001  0.000  0.030  0.008  0.916  0.008  0.000  0.963
 
band   6 # energy   23.09046548 # occ.  0.78017149
 
ion      s     py     pz     px    dxy    dyz    dz2    dxz    dx2    tot
  1  0.000  0.001  0.000  0.001  0.000  0.023  0.000  0.023  0.916  0.963
 
band   7 # energy   59.85397155 # occ.  0.00000000
 
ion      s     py     pz     px    dxy    dyz    dz2    dxz    dx2    tot
  1  0.000  0.073  0.012  0.027  0.056  0.127  0.131  0.345  0.689  1.460
 
band   8 # energy   59.85397155 # occ.  0.00000000
 
ion      s     py     pz     px    dxy    dyz    dz2    dxz    dx2    tot
  1  0.000  0.002  0.062  0.047  0.295  0.225  0.689  0.007  0.131  1.460
 
band   9 # energy   61.48393046 # occ.  0.00000000
 
ion      s     py     pz     px    dxy    dyz    dz2    dxz    dx2    tot
  1  0.000  0.000  0.000  0.000  0.000  0.000  0.000  0.000  0.000  0.000
 
band  10 # energy   69.14221759 # occ.  0.00000000
 
ion      s     py     pz     px    dxy    dyz    dz2    dxz    dx2    tot
  1  0.000  2.867  0.383  1.184  0.000  0.000  0.000  0.000  0.003  4.438
 
band  11 # energy   69.14221759 # occ.  0.00000000
 
ion      s     py     pz     px    dxy    dyz    dz2    dxz    dx2    tot
  1  0.000  0.089  2.573  1.772  0.000  0.000  0.003  0.000  0.000  4.438
 
band  12 # energy   70.06070992 # occ.  0.00000000
 
ion      s     py     pz     px    dxy    dyz    dz2    dxz    dx2    tot
  1  0.187  1.325  1.325  1.325  0.112  0.112  0.000  0.112  0.000  4.497
 

 k-point    2 :    0.18750000 0.06250000 0.06250000     weight = 0.04687500

band   1 # energy   13.60882871 # occ.  1.00000000
 
ion      s     py     pz     px    dxy    dyz    dz2    dxz    dx2    tot
  1  0.437  0.017  0.017  0.077  0.015  0.898  0.070  0.015  0.209  1.754
 
band   2 # energy   14.58392475 # occ.  1.00000000
 
ion      s     py     pz     px    dxy    dyz    dz2    dxz    dx2    tot
  1  0.000  0.015  0.015  0.000  0.701  0.000  0.033  0.701  0.011  1.476
 
band   3 # energy   19.02235669 # occ.  1.00000000
 
ion      s     py     pz     px    dxy    dyz    dz2    dxz    dx2    tot
  1  0.859  0.302  0.302  0.011  0.244  0.029  0.004  0.244  0.013  2.008
 
band   4 # energy   22.92054186 # occ.  1.00131325
 
ion      s     py     pz     px    dxy    dyz    dz2    dxz    dx2    tot
  1  0.011  0.001  0.001  0.001  0.012  0.213  0.185  0.012  0.554  0.989
 
band   5 # energy   24.00576805 # occ.  0.60760707
 
ion      s     py     pz     px    dxy    dyz    dz2    dxz    dx2    tot
  1  0.000  0.002  0.002  0.000  0.020  0.000  0.694  0.020  0.231  0.969
 
band   6 # energy   26.02092346 # occ. -0.01585397
 
ion      s     py     pz     px    dxy    dyz    dz2    dxz    dx2    tot
  1  0.335  0.205  0.205  0.085  0.261  0.156  0.000  0.261  0.001  1.507
 
band   7 # energy   57.07010617 # occ.  0.00000000
 
ion      s     py     pz     px    dxy    dyz    dz2    dxz    dx2    tot
  1  0.030  0.067  0.067  0.066  0.047  0.980  0.302  0.047  0.907  2.514
 
band   8 # energy   57.28430095 # occ.  0.00000000
 
ion      s     py     pz     px    dxy    dyz    dz2    dxz    dx2    tot
  1  0.000  0.139  0.139  0.000  0.238  0.000  0.478  0.238  0.159  1.391
 
band   9 # energy   65.72795560 # occ.  0.00000000
 
ion      s     py     pz     px    dxy    dyz    dz2    dxz    dx2    tot
  1  0.000  0.052  0.052  0.000  0.358  0.000  0.000  0.358  0.000  0.821
 
band  10 # energy   68.73623206 # occ.  0.00000000
 
ion      s     py     pz     px    dxy    dyz    dz2    dxz    dx2    tot
  1  0.176  0.066  0.066  2.835  0.231  0.094  0.001  0.231  0.002  3.701
 
band  11 # energy   70.58269049 # occ.  0.00000000
 
ion      s     py     pz     px    dxy    dyz    dz2    dxz    dx2    tot
  1  0.000  2.218  2.218  0.000  0.108  0.000  0.088  0.108  0.029  4.768
 
band  12 # energy   72.72938875 # occ.  0.00000000
 
ion      s     py     pz     px    dxy    dyz    dz2    dxz    dx2    tot
  1  0.288  1.499  1.499  0.802  0.022  0.044  0.079  0.022  0.236  4.491
 

 k-point    3 :    0.31250000 0.06250000 0.06250000     weight = 0.04687500

band   1 # energy   10.80228605 # occ.  1.00000000
 
ion      s     py     pz     px    dxy    dyz    dz2    dxz    dx2    tot
  1  0.364  0.004  0.004  0.087  0.003  0.925  0.129  0.003  0.387  1.907
 
band   2 # energy   13.09392733 # occ.  1.00000000
 
ion      s     py     pz     px    dxy    dyz    dz2    dxz    dx2    tot
  1  0.000  0.021  0.021  0.000  0.781  0.000  0.011  0.781  0.004  1.618
 
band   3 # energy   23.51702029 # occ.  0.99998324
 
ion      s     py     pz     px    dxy    dyz    dz2    dxz    dx2    tot
  1  0.271  0.393  0.393  0.001  0.206  0.026  0.038  0.206  0.113  1.647
 
band   4 # energy   23.89469349 # occ.  0.96041396
 
ion      s     py     pz     px    dxy    dyz    dz2    dxz    dx2    tot
  1  0.005  0.059  0.059  0.003  0.074  0.305  0.124  0.074  0.371  1.073
 
band   5 # energy   24.84297126 # occ.  0.00355604
 
ion      s     py     pz     px    dxy    dyz    dz2    dxz    dx2    tot
  1  0.000  0.001  0.001  0.000  0.006  0.000  0.728  0.006  0.243  0.986
 
band   6 # energy   31.84973824 # occ.  0.00000000
 
ion      s     py     pz     px    dxy    dyz    dz2    dxz    dx2    tot
  1  0.188  0.459  0.459  0.046  0.291  0.096  0.000  0.291  0.001  1.834
 
band   7 # energy   52.82385218 # occ.  0.00000000
 
ion      s     py     pz     px    dxy    dyz    dz2    dxz    dx2    tot
  1  0.192  0.071  0.071  0.046  0.015  1.511  0.229  0.015  0.686  2.835
 
band   8 # energy   53.47487159 # occ.  0.00000000
 
ion      s     py     pz     px    dxy    dyz    dz2    dxz    dx2    tot
  1  0.000  0.147  0.147  0.000  0.177  0.000  0.149  0.177  0.050  0.846
 
band   9 # energy   65.91392613 # occ.  0.00000000
 
ion      s     py     pz     px    dxy    dyz    dz2    dxz    dx2    tot
  1  0.183  0.017  0.017  1.862  0.150  0.006  0.004  0.150  0.012  2.400
 
band  10 # energy   70.48991286 # occ.  0.00000000
 
ion      s     py     pz     px    dxy    dyz    dz2    dxz    dx2    tot
  1  0.000  0.857  0.857  0.000  0.697  0.000  0.029  0.697  0.010  3.147
 
band  11 # energy   72.38530796 # occ.  0.00000000
 
ion      s     py     pz     px    dxy    dyz    dz2    dxz    dx2    tot
  1  0.000  1.808  1.808  0.000  0.709  0.000  0.029  0.709  0.010  5.074
 
band  12 # energy   76.61228188 # occ.  0.00000000
 
ion      s     py     pz     px    dxy    dyz    dz2    dxz    dx2    tot
  1  0.475  1.092  1.092  0.869  0.000  0.062  0.149  0.000  0.448  4.189
 

 k-point    4 :    0.43750000 0.06250000 0.06250000     weight = 0.02343750

band   1 # energy    9.69201165 # occ.  1.00000000
 
ion      s     py     pz     px    dxy    dyz    dz2    dxz    dx2    tot
  1  0.357  0.000  0.000  0.091  0.000  0.943  0.151  0.000  0.452  1.994
 
band   2 # energy   12.55067303 # occ.  1.00000000
 
ion      s     py     pz     px    dxy    dyz    dz2    dxz    dx2    tot
  1  0.000  0.023  0.023  0.000  0.815  0.000  0.000  0.815  0.000  1.675
 
band   3 # energy   24.35254359 # occ.  0.99170070
 
ion      s     py     pz     px    dxy    dyz    dz2    dxz    dx2    tot
  1  0.028  0.000  0.000  0.002  0.000  0.358  0.155  0.000  0.466  1.008
 
band   4 # energy   25.24319207 # occ.  0.03376143
 
ion      s     py     pz     px    dxy    dyz    dz2    dxz    dx2    tot
  1  0.000  0.000  0.000  0.000  0.000  0.000  0.750  0.000  0.250  1.000
 
band   5 # energy   25.89493168 # occ.  0.00000000
 
ion      s     py     pz     px    dxy    dyz    dz2    dxz    dx2    tot
  1  0.000  0.489  0.489  0.000  0.318  0.000  0.000  0.318  0.000  1.614
 
band   6 # energy   34.86395973 # occ.  0.00000000
 
ion      s     py     pz     px    dxy    dyz    dz2    dxz    dx2    tot
  1  0.000  0.661  0.661  0.000  0.335  0.000  0.000  0.335  0.000  1.991
 
band   7 # energy   50.11929900 # occ.  0.00000000
 
ion      s     py     pz     px    dxy    dyz    dz2    dxz    dx2    tot
  1  0.389  0.000  0.000  0.052  0.000  1.774  0.180  0.000  0.541  2.936
 
band   8 # energy   51.79359631 # occ.  0.00000000
 
ion      s     py     pz     px    dxy    dyz    dz2    dxz    dx2    tot
  1  0.000  0.150  0.150  0.000  0.160  0.000  0.000  0.160  0.000  0.620
 
band   9 # energy   64.35506970 # occ.  0.00000000
 
ion      s     py     pz     px    dxy    dyz    dz2    dxz    dx2    tot
  1  0.167  0.000  0.000  1.605  0.000  0.006  0.008  0.000  0.024  1.810
 
band  10 # energy   71.70450271 # occ.  0.00000000
 
ion      s     py     pz     px    dxy    dyz    dz2    dxz    dx2    tot
  1  0.000  2.203  2.203  0.000  0.246  0.000  0.000  0.246  0.000  4.898
 
band  11 # energy   73.77001419 # occ.  0.00000000
 
ion      s     py     pz     px    dxy    dyz    dz2    dxz    dx2    tot
  1  0.000  0.620  0.620  0.000  1.757  0.000  0.000  1.757  0.000  4.755
 
band  12 # energy   79.02461259 # occ.  0.00000000
 
ion      s     py     pz     px    dxy    dyz    dz2    dxz    dx2    tot
  1  0.000  1.097  1.097  0.000  0.012  0.000  0.000  0.012  0.000  2.217
 

 k-point    5 :   -0.06250000 0.06250000 0.06250000     weight = 0.01171875

band   1 # energy   14.07837321 # occ.  1.00000000
 
ion      s     py     pz     px    dxy    dyz    dz2    dxz    dx2    tot
  1  2.727  0.000  0.000  0.160  0.000  0.000  0.002  0.000  0.005  2.893
 
band   2 # energy   17.61935096 # occ.  1.00000000
 
ion      s     py     pz     px    dxy    dyz    dz2    dxz    dx2    tot
  1  0.000  0.005  0.005  0.000  0.628  0.000  0.000  0.628  0.000  1.265
 
band   3 # energy   17.61935218 # occ.  1.00000000
 
ion      s     py     pz     px    dxy    dyz    dz2    dxz    dx2    tot
  1  0.000  0.005  0.005  0.000  0.628  0.000  0.000  0.628  0.000  1.265
 
band   4 # energy   18.02959282 # occ.  1.00000000
 
ion      s     py     pz     px    dxy    dyz    dz2    dxz    dx2    tot
  1  0.000  0.000  0.000  0.000  0.000  1.237  0.000  0.000  0.000  1.237
 
band   5 # energy   22.50753185 # occ.  1.00000538
 
ion      s     py     pz     px    dxy    dyz    dz2    dxz    dx2    tot
  1  0.000  0.000  0.000  0.000  0.000  0.000  0.719  0.000  0.240  0.958
 
band   6 # energy   23.88898935 # occ.  0.77106580
 
ion      s     py     pz     px    dxy    dyz    dz2    dxz    dx2    tot
  1  0.008  0.000  0.000  0.003  0.000  0.000  0.240  0.000  0.720  0.972
 
band   7 # energy   59.22174026 # occ.  0.00000000
 
ion      s     py     pz     px    dxy    dyz    dz2    dxz    dx2    tot
  1  0.000  0.000  0.000  0.000  0.000  0.000  0.491  0.000  0.164  0.655
 
band   8 # energy   60.77958255 # occ.  0.00000000
 
ion      s     py     pz     px    dxy    dyz    dz2    dxz    dx2    tot
  1  0.000  0.001  0.001  0.000  0.115  0.000  0.000  0.115  0.000  0.230
 
band   9 # energy   60.77958341 # occ.  0.00000000
 
ion      s     py     pz     px    dxy    dyz    dz2    dxz    dx2    tot
  1  0.000  0.001  0.001  0.000  0.115  0.000  0.000  0.115  0.000  0.230
 
band  10 # energy   68.48040198 # occ.  0.00000000
 
ion      s     py     pz     px    dxy    dyz    dz2    dxz    dx2    tot
  1  0.061  0.000  0.000  4.031  0.000  0.000  0.041  0.000  0.124  4.257
 
band  11 # energy   69.14847369 # occ.  0.00000000
 
ion      s     py     pz     px    dxy    dyz    dz2    dxz    dx2    tot
  1  0.000  2.425  2.425  0.000  0.035  0.000  0.000  0.035  0.000  4.920
 
band  12 # energy   69.14847528 # occ.  0.00000000
 
ion      s     py     pz     px    dxy    dyz    dz2    dxz    dx2    tot
  1  0.000  2.425  2.425  0.000  0.035  0.000  0.000  0.035  0.000  4.920
 

 k-point    6 :    0.18750000 0.18750000 0.06250000     weight = 0.04687500

band   1 # energy   12.88505640 # occ.  1.00000000
 
ion      s     py     pz     px    dxy    dyz    dz2    dxz    dx2    tot
  1  0.139  0.043  0.007  0.043  0.560  0.403  0.096  0.403  0.000  1.694
 
band   2 # energy   13.88498421 # occ.  1.00000000
 
ion      s     py     pz     px    dxy    dyz    dz2    dxz    dx2    tot
  1  0.000  0.118  0.000  0.118  0.000  0.509  0.000  0.509  0.331  1.585
 
band   3 # energy   19.22902609 # occ.  1.00002229
 
ion      s     py     pz     px    dxy    dyz    dz2    dxz    dx2    tot
  1  0.544  0.133  0.482  0.133  0.477  0.040  0.051  0.040  0.000  1.900
 
band   4 # energy   23.40477193 # occ.  1.03703556
 
ion      s     py     pz     px    dxy    dyz    dz2    dxz    dx2    tot
  1  0.000  0.002  0.000  0.002  0.000  0.133  0.000  0.133  0.712  0.982
 
band   5 # energy   25.07671206 # occ. -0.01498293
 
ion      s     py     pz     px    dxy    dyz    dz2    dxz    dx2    tot
  1  0.021  0.001  0.011  0.001  0.001  0.060  0.857  0.060  0.000  1.012
 
band   6 # energy   32.83273430 # occ. -0.00120236
 
ion      s     py     pz     px    dxy    dyz    dz2    dxz    dx2    tot
  1  0.248  0.187  0.416  0.187  0.332  0.214  0.031  0.214  0.000  1.827
 
band   7 # energy   53.94468492 # occ.  0.00000000
 
ion      s     py     pz     px    dxy    dyz    dz2    dxz    dx2    tot
  1  0.000  0.159  0.000  0.159  0.000  0.572  0.000  0.572  0.987  2.449
 
band   8 # energy   54.68706932 # occ.  0.00000000
 
ion      s     py     pz     px    dxy    dyz    dz2    dxz    dx2    tot
  1  0.062  0.020  0.235  0.020  0.468  0.379  0.273  0.379  0.000  1.835
 
band   9 # energy   65.72276124 # occ.  0.00000000
 
ion      s     py     pz     px    dxy    dyz    dz2    dxz    dx2    tot
  1  0.435  0.709  0.054  0.709  0.167  0.120  0.003  0.120  0.000  2.318
 
band  10 # energy   69.10358909 # occ.  0.00000000
 
ion      s     py     pz     px    dxy    dyz    dz2    dxz    dx2    tot
  1  0.000  0.131  0.000  0.131  0.000  0.247  0.000  0.247  0.083  0.839
 
band  11 # energy   73.72891094 # occ.  0.00000000
 
ion      s     py     pz     px    dxy    dyz    dz2    dxz    dx2    tot
  1  0.207  0.468  3.916  0.468  0.129  0.006  0.126  0.006  0.000  5.327
 
band  12 # energy   74.04986391 # occ.  0.00000000
 
ion      s     py     pz     px    dxy    dyz    dz2    dxz    dx2    tot
  1  0.000  2.227  0.000  2.227  0.000  0.016  0.000  0.016  0.293  4.779
 

 k-point    7 :    0.31250000 0.18750000 0.06250000     weight = 0.09375000

band   1 # energy   11.89636370 # occ.  1.00000000
 
ion      s     py     pz     px    dxy    dyz    dz2    dxz    dx2    tot
  1  0.175  0.008  0.005  0.139  0.346  0.707  0.070  0.240  0.115  1.805
 
band   2 # energy   13.64157359 # occ.  1.00000000
 
ion      s     py     pz     px    dxy    dyz    dz2    dxz    dx2    tot
  1  0.021  0.117  0.052  0.157  0.321  0.220  0.015  0.554  0.228  1.685
 
band   3 # energy   20.59429407 # occ.  1.00009805
 
ion      s     py     pz     px    dxy    dyz    dz2    dxz    dx2    tot
  1  0.069  0.351  0.484  0.011  0.339  0.001  0.168  0.165  0.047  1.635
 
band   4 # energy   24.29327318 # occ.  0.53345735
 
ion      s     py     pz     px    dxy    dyz    dz2    dxz    dx2    tot
  1  0.006  0.004  0.001  0.005  0.000  0.249  0.037  0.059  0.634  0.994
 
band   5 # energy   25.63171636 # occ. -0.00027114
 
ion      s     py     pz     px    dxy    dyz    dz2    dxz    dx2    tot
  1  0.013  0.019  0.033  0.001  0.079  0.027  0.726  0.107  0.040  1.046
 
band   6 # energy   38.73253844 # occ.  0.00000000
 
ion      s     py     pz     px    dxy    dyz    dz2    dxz    dx2    tot
  1  0.066  0.377  0.567  0.051  0.470  0.100  0.090  0.368  0.003  2.093
 
band   7 # energy   49.89227236 # occ.  0.00000000
 
ion      s     py     pz     px    dxy    dyz    dz2    dxz    dx2    tot
  1  0.130  0.147  0.001  0.216  0.000  1.287  0.054  0.147  0.609  2.590
 
band   8 # energy   52.43502361 # occ.  0.00000000
 
ion      s     py     pz     px    dxy    dyz    dz2    dxz    dx2    tot
  1  0.121  0.084  0.160  0.002  0.478  0.213  0.014  0.581  0.025  1.677
 
band   9 # energy   62.77870003 # occ.  0.00000000
 
ion      s     py     pz     px    dxy    dyz    dz2    dxz    dx2    tot
  1  0.445  0.188  0.071  0.788  0.046  0.009  0.008  0.014  0.010  1.578
 
band  10 # energy   72.36959948 # occ.  0.00000000
 
ion      s     py     pz     px    dxy    dyz    dz2    dxz    dx2    tot
  1  0.001  1.231  0.711  0.094  0.154  0.081  0.002  0.369  0.210  2.853
 
band  11 # energy   75.40105373 # occ.  0.00000000
 
ion      s     py     pz     px    dxy    dyz    dz2    dxz    dx2    tot
  1  0.201  0.968  2.606  0.078  0.342  0.004  0.005  0.498  0.035  4.737
 
band  12 # energy   77.72344955 # occ.  0.00000000
 
ion      s     py     pz     px    dxy    dyz    dz2    dxz    dx2    tot
  1  0.055  1.267  0.524  1.420  0.261  0.000  0.011  0.141  0.168  3.847
 

 k-point    8 :   -0.18750000 0.18750000 0.06250000     weight = 0.04687500

band   1 # energy   14.73796784 # occ.  1.00000000
 
ion      s     py     pz     px    dxy    dyz    dz2    dxz    dx2    tot
  1  1.067  0.013  0.000  0.176  0.634  0.000  0.158  0.000  0.005  2.054
 
band   2 # energy   16.20815208 # occ.  1.00000000
 
ion      s     py     pz     px    dxy    dyz    dz2    dxz    dx2    tot
  1  0.000  0.000  0.010  0.000  0.000  0.529  0.000  0.812  0.000  1.351
 
band   3 # energy   18.70396067 # occ.  1.00000000
 
ion      s     py     pz     px    dxy    dyz    dz2    dxz    dx2    tot
  1  0.935  0.163  0.000  0.331  0.367  0.000  0.077  0.000  0.104  1.977
 
band   4 # energy   20.70702562 # occ.  1.00000000
 
ion      s     py     pz     px    dxy    dyz    dz2    dxz    dx2    tot
  1  0.000  0.000  0.030  0.000  0.000  0.654  0.000  0.408  0.000  1.092
 
band   5 # energy   21.21302718 # occ.  1.11403745
 
ion      s     py     pz     px    dxy    dyz    dz2    dxz    dx2    tot
  1  0.014  0.005  0.000  0.011  0.240  0.000  0.594  0.000  0.151  1.017
 
band   6 # energy   24.80051704 # occ.  0.06326703
 
ion      s     py     pz     px    dxy    dyz    dz2    dxz    dx2    tot
  1  0.102  0.005  0.000  0.047  0.004  0.000  0.185  0.000  0.723  1.066
 
band   7 # energy   58.30741633 # occ.  0.00000000
 
ion      s     py     pz     px    dxy    dyz    dz2    dxz    dx2    tot
  1  0.002  0.064  0.000  0.001  0.217  0.000  1.199  0.000  0.391  1.874
 
band   8 # energy   60.39376359 # occ.  0.00000000
 
ion      s     py     pz     px    dxy    dyz    dz2    dxz    dx2    tot
  1  0.028  0.007  0.000  0.211  0.596  0.000  0.201  0.000  0.230  1.273
 
band   9 # energy   64.20784448 # occ.  0.00000000
 
ion      s     py     pz     px    dxy    dyz    dz2    dxz    dx2    tot
  1  0.000  0.000  0.064  0.000  0.000  0.180  0.000  1.031  0.000  1.275
 
band  10 # energy   67.92953949 # occ.  0.00000000
 
ion      s     py     pz     px    dxy    dyz    dz2    dxz    dx2    tot
  1  0.026  1.667  0.000  1.521  0.199  0.000  0.017  0.000  0.001  3.430
 
band  11 # energy   69.30464199 # occ.  0.00000000
 
ion      s     py     pz     px    dxy    dyz    dz2    dxz    dx2    tot
  1  0.000  0.000  4.089  0.000  0.000  0.132  0.000  0.103  0.000  4.324
 
band  12 # energy   71.19292975 # occ.  0.00000000
 
ion      s     py     pz     px    dxy    dyz    dz2    dxz    dx2    tot
  1  0.230  2.471  0.000  1.130  0.024  0.000  0.066  0.000  0.011  3.932
 

 k-point    9 :    0.31250000 0.31250000 0.06250000     weight = 0.01562500

band   1 # energy   12.15266190 # occ.  1.00000000
 
ion      s     py     pz     px    dxy    dyz    dz2    dxz    dx2    tot
  1  0.116  0.042  0.042  0.042  0.505  0.505  0.000  0.505  0.000  1.757
 
band   2 # energy   16.90566103 # occ.  1.00000000
 
ion      s     py     pz     px    dxy    dyz    dz2    dxz    dx2    tot
  1  0.000  0.349  0.000  0.349  0.000  0.321  0.000  0.321  0.318  1.657
 
band   3 # energy   16.90566165 # occ.  1.00000928
 
ion      s     py     pz     px    dxy    dyz    dz2    dxz    dx2    tot
  1  0.000  0.116  0.465  0.116  0.428  0.107  0.318  0.107  0.000  1.657
 
band   4 # energy   25.10021295 # occ. -0.01392571
 
ion      s     py     pz     px    dxy    dyz    dz2    dxz    dx2    tot
  1  0.000  0.013  0.000  0.013  0.000  0.145  0.000  0.145  0.693  1.009
 
band   5 # energy   25.10021310 # occ.  0.00000000
 
ion      s     py     pz     px    dxy    dyz    dz2    dxz    dx2    tot
  1  0.000  0.004  0.018  0.004  0.193  0.048  0.693  0.048  0.000  1.009
 
band   6 # energy   45.23072767 # occ.  0.00000000
 
ion      s     py     pz     px    dxy    dyz    dz2    dxz    dx2    tot
  1  0.000  0.391  0.000  0.391  0.000  0.590  0.000  0.590  0.358  2.320
 
band   7 # energy   45.23072769 # occ.  0.00000000
 
ion      s     py     pz     px    dxy    dyz    dz2    dxz    dx2    tot
  1  0.000  0.130  0.521  0.130  0.786  0.197  0.358  0.197  0.000  2.320
 
band   8 # energy   51.57491881 # occ.  0.00000000
 
ion      s     py     pz     px    dxy    dyz    dz2    dxz    dx2    tot
  1  0.354  0.028  0.028  0.028  0.555  0.555  0.000  0.555  0.000  2.103
 
band   9 # energy   61.79127382 # occ.  0.00000000
 
ion      s     py     pz     px    dxy    dyz    dz2    dxz    dx2    tot
  1  0.482  0.304  0.304  0.304  0.063  0.063  0.000  0.063  0.000  1.582
 
band  10 # energy   75.25125184 # occ.  0.00000000
 
ion      s     py     pz     px    dxy    dyz    dz2    dxz    dx2    tot
  1  0.000  0.764  0.000  0.763  0.000  0.143  0.000  0.143  0.433  2.247
 
band  11 # energy   75.25125261 # occ.  0.00000000
 
ion      s     py     pz     px    dxy    dyz    dz2    dxz    dx2    tot
  1  0.000  0.254  1.018  0.255  0.191  0.048  0.433  0.048  0.000  2.247
 
band  12 # energy   76.88719436 # occ.  0.00000000
 
ion      s     py     pz     px    dxy    dyz    dz2    dxz    dx2    tot
  1  0.663  1.623  1.623  1.623  0.092  0.092  0.000  0.092  0.000  5.810
 

 k-point   10 :   -0.31250000 0.31250000 0.06250000     weight = 0.04687500

band   1 # energy   11.62860084 # occ.  1.00000000
 
ion      s     py     pz     px    dxy    dyz    dz2    dxz    dx2    tot
  1  0.452  0.002  0.000  0.059  0.820  0.000  0.524  0.000  0.000  1.857
 
band   2 # energy   14.31111857 # occ.  1.00000000
 
ion      s     py     pz     px    dxy    dyz    dz2    dxz    dx2    tot
  1  0.000  0.000  0.012  0.000  0.000  0.682  0.000  0.806  0.000  1.500
 
band   3 # energy   21.00469654 # occ.  1.00004635
 
ion      s     py     pz     px    dxy    dyz    dz2    dxz    dx2    tot
  1  0.265  0.149  0.000  0.193  0.060  0.000  0.289  0.000  0.422  1.378
 
band   4 # energy   23.45585593 # occ.  1.00092936
 
ion      s     py     pz     px    dxy    dyz    dz2    dxz    dx2    tot
  1  0.108  0.163  0.000  0.217  0.384  0.000  0.290  0.000  0.148  1.310
 
band   5 # energy   25.18825288 # occ.  0.08975675
 
ion      s     py     pz     px    dxy    dyz    dz2    dxz    dx2    tot
  1  0.000  0.000  0.041  0.000  0.000  0.538  0.000  0.433  0.000  1.012
 
band   6 # energy   27.25970935 # occ. -0.00334625
 
ion      s     py     pz     px    dxy    dyz    dz2    dxz    dx2    tot
  1  0.438  0.248  0.000  0.518  0.024  0.000  0.060  0.000  0.449  1.737
 
band   7 # energy   55.42695291 # occ.  0.00000000
 
ion      s     py     pz     px    dxy    dyz    dz2    dxz    dx2    tot
  1  0.078  0.164  0.000  0.014  0.971  0.000  1.331  0.000  0.178  2.736
 
band   8 # energy   55.71537739 # occ.  0.00000000
 
ion      s     py     pz     px    dxy    dyz    dz2    dxz    dx2    tot
  1  0.059  0.048  0.000  0.202  0.371  0.000  0.004  0.000  0.227  0.910
 
band   9 # energy   66.56078859 # occ.  0.00000000
 
ion      s     py     pz     px    dxy    dyz    dz2    dxz    dx2    tot
  1  0.000  0.000  1.625  0.000  0.000  0.050  0.000  1.446  0.000  3.122
 
band  10 # energy   69.75105045 # occ.  0.00000000
 
ion      s     py     pz     px    dxy    dyz    dz2    dxz    dx2    tot
  1  0.003  2.565  0.000  1.413  0.169  0.000  0.114  0.000  0.114  4.378
 
band  11 # energy   70.51618238 # occ.  0.00000000
 
ion      s     py     pz     px    dxy    dyz    dz2    dxz    dx2    tot
  1  0.000  0.000  1.395  0.000  0.000  1.113  0.000  0.629  0.000  3.137
 
band  12 # energy   76.05680970 # occ.  0.00000000
 
ion      s     py     pz     px    dxy    dyz    dz2    dxz    dx2    tot
  1  0.548  0.613  0.000  2.733  0.058  0.000  0.403  0.000  0.000  4.356
 

 k-point   11 :   -0.18750000 0.31250000 0.06250000     weight = 0.04687500

band   1 # energy   14.14488465 # occ.  1.00000000
 
ion      s     py     pz     px    dxy    dyz    dz2    dxz    dx2    tot
  1  0.413  0.004  0.004  0.101  0.406  0.281  0.030  0.406  0.090  1.734
 
band   2 # energy   14.92520592 # occ.  1.00000000
 
ion      s     py     pz     px    dxy    dyz    dz2    dxz    dx2    tot
  1  0.000  0.059  0.059  0.000  0.343  0.000  0.449  0.343  0.150  1.402
 
band   3 # energy   18.87794307 # occ.  1.00000000
 
ion      s     py     pz     px    dxy    dyz    dz2    dxz    dx2    tot
  1  0.586  0.049  0.049  0.475  0.009  0.490  0.044  0.009  0.131  1.842
 
band   4 # energy   20.60923624 # occ.  1.00002674
 
ion      s     py     pz     px    dxy    dyz    dz2    dxz    dx2    tot
  1  0.000  0.009  0.009  0.000  0.255  0.000  0.384  0.255  0.128  1.039
 
band   5 # energy   24.34633063 # occ.  0.37095647
 
ion      s     py     pz     px    dxy    dyz    dz2    dxz    dx2    tot
  1  0.011  0.029  0.029  0.034  0.180  0.328  0.065  0.180  0.196  1.054
 
band   6 # energy   28.05399681 # occ. -0.01374289
 
ion      s     py     pz     px    dxy    dyz    dz2    dxz    dx2    tot
  1  0.430  0.058  0.058  0.398  0.022  0.064  0.137  0.022  0.412  1.601
 
band   7 # energy   56.79155626 # occ.  0.00000000
 
ion      s     py     pz     px    dxy    dyz    dz2    dxz    dx2    tot
  1  0.000  0.076  0.076  0.000  0.244  0.000  1.508  0.244  0.503  2.652
 
band   8 # energy   58.16703111 # occ.  0.00000000
 
ion      s     py     pz     px    dxy    dyz    dz2    dxz    dx2    tot
  1  0.112  0.008  0.008  0.256  0.408  0.111  0.034  0.408  0.101  1.446
 
band   9 # energy   65.55174936 # occ.  0.00000000
 
ion      s     py     pz     px    dxy    dyz    dz2    dxz    dx2    tot
  1  0.000  0.194  0.194  0.000  0.730  0.000  0.079  0.730  0.026  1.953
 
band  10 # energy   67.31850317 # occ.  0.00000000
 
ion      s     py     pz     px    dxy    dyz    dz2    dxz    dx2    tot
  1  0.011  1.202  1.202  0.434  0.347  0.010  0.000  0.347  0.001  3.556
 
band  11 # energy   72.30924497 # occ.  0.00000000
 
ion      s     py     pz     px    dxy    dyz    dz2    dxz    dx2    tot
  1  0.000  1.877  1.877  0.000  0.020  0.000  0.161  0.020  0.054  4.010
 
band  12 # energy   73.97442687 # occ.  0.00000000
 
ion      s     py     pz     px    dxy    dyz    dz2    dxz    dx2    tot
  1  0.478  0.219  0.219  1.827  0.083  0.436  0.021  0.083  0.062  3.428
 

 k-point   12 :   -0.43750000 0.43750000 0.06250000     weight = 0.04687500

band   1 # energy    9.34659802 # occ.  1.00000000
 
ion      s     py     pz     px    dxy    dyz    dz2    dxz    dx2    tot
  1  0.385  0.008  0.000  0.025  0.867  0.000  0.714  0.000  0.000  1.999
 
band   2 # energy   13.11399539 # occ.  1.00000000
 
ion      s     py     pz     px    dxy    dyz    dz2    dxz    dx2    tot
  1  0.000  0.000  0.013  0.000  0.000  0.780  0.000  0.817  0.000  1.610
 
band   3 # energy   22.65393970 # occ.  1.00196375
 
ion      s     py     pz     px    dxy    dyz    dz2    dxz    dx2    tot
  1  0.056  0.146  0.000  0.139  0.118  0.000  0.201  0.000  0.537  1.198
 
band   4 # energy   23.94381392 # occ.  0.93880318
 
ion      s     py     pz     px    dxy    dyz    dz2    dxz    dx2    tot
  1  0.007  0.071  0.000  0.080  0.292  0.000  0.354  0.000  0.284  1.089
 
band   5 # energy   28.93131322 # occ. -0.00084703
 
ion      s     py     pz     px    dxy    dyz    dz2    dxz    dx2    tot
  1  0.000  0.000  0.009  0.000  0.000  0.580  0.000  0.541  0.000  1.130
 
band   6 # energy   32.05117813 # occ.  0.00000000
 
ion      s     py     pz     px    dxy    dyz    dz2    dxz    dx2    tot
  1  0.108  0.779  0.000  0.985  0.023  0.000  0.006  0.000  0.257  2.158
 
band   7 # energy   51.22853182 # occ.  0.00000000
 
ion      s     py     pz     px    dxy    dyz    dz2    dxz    dx2    tot
  1  0.351  0.067  0.000  0.008  1.706  0.000  0.836  0.000  0.012  2.980
 
band   8 # energy   52.62143994 # occ.  0.00000000
 
ion      s     py     pz     px    dxy    dyz    dz2    dxz    dx2    tot
  1  0.010  0.132  0.000  0.131  0.028  0.000  0.176  0.000  0.047  0.524
 
band   9 # energy   64.83589101 # occ.  0.00000000
 
ion      s     py     pz     px    dxy    dyz    dz2    dxz    dx2    tot
  1  0.000  0.000  1.721  0.000  0.000  0.060  0.000  0.498  0.000  2.279
 
band  10 # energy   71.15947637 # occ.  0.00000000
 
ion      s     py     pz     px    dxy    dyz    dz2    dxz    dx2    tot
  1  0.006  2.801  0.000  2.252  0.028  0.000  0.168  0.000  0.038  5.294
 
band  11 # energy   73.28014319 # occ.  0.00000000
 
ion      s     py     pz     px    dxy    dyz    dz2    dxz    dx2    tot