Fe BCC                                  
   3.50000000000000     
    -0.500000    0.500000    0.500000
     0.500000   -0.500000    0.500000
     0.500000    0.500000   -0.500000
   Fe
     1
Direct
  0.000000  0.000000  0.000000
 
   40   40   40
  185.16      180.95      168.93      150.72      128.59      104.88      81.666      60.530      42.554      28.356    
  18.114      11.547      7.9231      6.1546      5.0796      4.2667      3.6981      3.3278      3.1046      2.9874    
  2.9511      2.9874      3.1046      3.3278      3.6981      4.2667      5.0796      6.1546      7.9231      11.547    
  18.114      28.356      42.554      60.530      81.666      104.88      128.59      150.72      168.93      180.95    
  180.95      179.56      170.18      154.12      133.43      110.44      87.316      65.778      47.052      31.894    
  20.618      13.094      8.7326      6.5511      5.3675      4.4791      3.8417      3.4170      3.1535      3.0064    
  2.9457      2.9575      3.0447      3.2265      3.5383      4.0283      4.7467      5.7205      7.1089      9.8907    
  15.216      23.950      36.533      52.943      72.719      94.953      118.25      140.73      160.12      174.15    
  168.93      170.18      163.71      150.43      132.09      110.87      88.903      67.968      49.393      34.038    
  22.332      14.269      9.4041      6.8818      5.5873      4.6484      3.9582      3.4878      3.1883      3.0133    
  2.9292      2.9179      2.9766      3.1186      3.3723      3.7806      4.3935      5.2501      6.3773      8.3640    
  12.346      19.289      29.790      43.998      61.624      81.943      103.78      125.48      145.00      160.12    
  150.72      154.12      150.43      140.19      124.79      106.14      86.224      66.808      49.249      34.468    
  22.972      14.858      9.8062      7.0959      5.7211      4.7597      4.0370      3.5340      3.2058      3.0069    
  2.9018      2.8693      2.9024      3.0082      3.2082      3.5377      4.0429      4.7689      5.7353      7.1187    
  9.8487      14.943      23.132      34.742      49.665      67.372      86.906      106.87      125.48      140.73    
  128.59      133.43      132.09      124.79      112.54      96.919      79.691      62.502      46.674      33.138    
  22.442      14.754      9.8531      7.1486      5.7587      4.8024      4.0700      3.5500      3.2032      2.9861    
  2.8636      2.8129      2.8237      2.8983      3.0512      3.3098      3.7135      4.3067      5.1239      6.1779    
  7.9235      11.334      17.232      26.108      38.045      52.715      69.381      86.906      103.78      118.25    
  104.88      110.44      110.87      106.14      96.919      84.448      70.218      55.688      42.079      30.284    
  20.851      13.981      9.5324      7.0227      5.6976      4.7723      4.0527      3.5328      3.1788      2.9507    
  2.8154      2.7497      2.7420      2.7906      2.9044      3.1029      3.4170      3.8863      4.5501      5.4286    
  6.5834      8.6673      12.533      18.796      27.727      39.203      52.715      67.372      81.943      94.953    
  81.666      87.316      88.903      86.224      79.691      70.218      59.005      47.284      36.131      26.357    
  18.473      12.689      8.9070      6.7375      5.5439      4.6716      3.9854      3.4820      3.1325      2.9014    
  2.7581      2.6812      2.6586      2.6864      2.7690      2.9191      3.1590      3.5206      4.0411      4.7520    
  5.6598      6.9097      9.1949      13.201      19.351      27.727      38.045      49.665      61.624      72.719    
  60.530      65.778      67.968      66.808      62.502      55.688      47.284      38.286      29.595      21.910    
  15.682      11.099      8.0930      6.3409      5.3116      4.5088      3.8728      3.4003      3.0661      2.8395    
  2.6936      2.6092      2.5751      2.5866      2.6449      2.7576      2.9394      3.2135      3.6105      4.1634    
  4.8957      5.8050      7.0940      9.3857      13.201      18.796      26.108      34.742      43.998      52.943    
  42.554      47.052      49.393      49.249      46.674      42.079      36.131      29.595      23.189      17.486    
  12.856      9.4554      7.2236      5.8905      5.0181      4.2970      3.7236      3.2929      2.9829      2.7675    
  2.6238      2.5356      2.4931      2.4920      2.5318      2.6165      2.7545      2.9613      3.2593      3.6768    
  4.2417      4.9701      5.8551      7.0940      9.1949      12.533      17.232      23.132      29.790      36.533    
  28.356      31.894      34.038      34.468      33.138      30.284      26.357      21.910      17.486      13.523    
  10.310      7.9601      6.4104      5.4306      4.6842      4.0522      3.5487      3.1668      2.8874      2.6884    
  2.5511      2.4623      2.4143      2.4035      2.4292      2.4929      2.5991      2.7565      2.9797      3.2899    
  3.7120      4.2686      4.9701      5.8050      6.9097      8.6673      11.334      14.943      19.289      23.950    
  18.114      20.618      22.332      22.972      22.442      20.851      18.473      15.682      12.856      10.310    
  8.2480      6.7391      5.7135      4.9721      4.3308      3.7908      3.3599      3.0300      2.7845      2.6054    
  2.4776      2.3910      2.3400      2.3221      2.3369      2.3850      2.4679      2.5901      2.7596      2.9903    
  3.3007      3.7120      4.2417      4.8957      5.6598      6.5834      7.9235      9.8487      12.346      15.216    
  11.547      13.094      14.269      14.858      14.754      13.981      12.689      11.099      9.4554      7.9601    
  6.7391      5.8195      5.1233      4.5149      3.9778      3.5282      3.1683      2.8898      2.6789      2.5213    
  2.4052      2.3232      2.2715      2.2488      2.2553      2.2913      2.3572      2.4544      2.5865      2.7611    
  2.9903      3.2899      3.6768      4.1634      4.7520      5.4286      6.1779      7.1187      8.3640      9.8907    
  7.9231      8.7326      9.4041      9.8062      9.8531      9.5324      8.9070      8.0930      7.2236      6.4104    
  5.7135      5.1233      4.5789      4.0790      3.6422      3.2771      2.9831      2.7526      2.5748      2.4387    
  2.3356      2.2601      2.2098      2.1847      2.1852      2.2120      2.2649      2.3440      2.4501      2.5865    
  2.7596      2.9797      3.2593      3.6105      4.0411      4.5501      5.1239      5.7353      6.3773      7.1089    
  6.1546      6.5511      6.8818      7.0959      7.1486      7.0227      6.7375      6.3409      5.8905      5.4306    
  4.9721      4.5149      4.0790      3.6824      3.3367      3.0468      2.8110      2.6233      2.4755      2.3599    
  2.2701      2.2025      2.1558      2.1305      2.1274      2.1475      2.1906      2.2563      2.3440      2.4544    
  2.5901      2.7565      2.9613      3.2135      3.5206      3.8863      4.3067      4.7689      5.2501      5.7205    
  5.0796      5.3675      5.5873      5.7211      5.7587      5.6976      5.5439      5.3116      5.0181      4.6842    
  4.3308      3.9778      3.6422      3.3367      3.0694      2.8430      2.6563      2.5049      2.3835      2.2865    
  2.2099      2.1513      2.1101      2.0870      2.0830      2.0989      2.1350      2.1906      2.2649      2.3572    
  2.4679      2.5991      2.7545      2.9394      3.1590      3.4170      3.7135      4.0429      4.3935      4.7467    
  4.2667      4.4791      4.6484      4.7597      4.8024      4.7723      4.6716      4.5088      4.2970      4.0522    
  3.7908      3.5282      3.2771      3.0468      2.8430      2.6680      2.5209      2.3995      2.3002      2.2199    
  2.1561      2.1073      2.0734      2.0548      2.0525      2.0671      2.0989      2.1475      2.2120      2.2913    
  2.3850      2.4929      2.6165      2.7576      2.9191      3.1029      3.3098      3.5377      3.7806      4.0283    
  3.6981      3.8417      3.9582      4.0370      4.0700      4.0527      3.9854      3.8728      3.7236      3.5487    
  3.3599      3.1683      2.9831      2.8110      2.6563      2.5209      2.4051      2.3076      2.2269      2.1615    
  2.1099      2.0715      2.0462      2.0343      2.0363      2.0525      2.0830      2.1274      2.1852      2.2553    
  2.3369      2.4292      2.5318      2.6449      2.7690      2.9044      3.0512      3.2082      3.3723      3.5383    
  3.3278      3.4170      3.4878      3.5340      3.5500      3.5328      3.4820      3.4003      3.2929      3.1668    
  3.0300      2.8898      2.7526      2.6233      2.5049      2.3995      2.3076      2.2293      2.1643      2.1122    
  2.0724      2.0448      2.0293      2.0258      2.0343      2.0548      2.0870      2.1305      2.1847      2.2488    
  2.3221      2.4035      2.4920      2.5866      2.6864      2.7906      2.8983      3.0082      3.1186      3.2265    
  3.1046      3.1535      3.1883      3.2058      3.2032      3.1788      3.1325      3.0661      2.9829      2.8874    
  2.7845      2.6789      2.5748      2.4755      2.3835      2.3002      2.2269      2.1643      2.1129      2.0730    
  2.0447      2.0281      2.0231      2.0293      2.0462      2.0734      2.1101      2.1558      2.2098      2.2715    
  2.3400      2.4143      2.4931      2.5751      2.6586      2.7420      2.8237      2.9024      2.9766      3.0447    
  2.9874      3.0064      3.0133      3.0069      2.9861      2.9507      2.9014      2.8395      2.7675      2.6884    
  2.6054      2.5213      2.4387      2.3599      2.2865      2.2199      2.1615      2.1122      2.0730      2.0446    
  2.0277      2.0222      2.0281      2.0448      2.0715      2.1073      2.1513      2.2025      2.2601      2.3232    
  2.3910      2.4623      2.5356      2.6092      2.6812      2.7497      2.8129      2.8693      2.9179      2.9575    
  2.9511      2.9457      2.9292      2.9018      2.8636      2.8154      2.7581      2.6936      2.6238      2.5511    
  2.4776      2.4052      2.3356      2.2701      2.2099      2.1561      2.1099      2.0724      2.0447      2.0277    
  2.0219      2.0277      2.0447      2.0724      2.1099      2.1561      2.2099      2.2701      2.3356      2.4052    
  2.4776      2.5511      2.6238      2.6936      2.7581      2.8154      2.8636      2.9018      2.9292      2.9457    
  2.9874      2.9575      2.9179      2.8693      2.8129      2.7497      2.6812      2.6092      2.5356      2.4623    
  2.3910      2.3232      2.2601      2.2025      2.1513      2.1073      2.0715      2.0448      2.0281      2.0222    
  2.0277      2.0446      2.0730      2.1122      2.1615      2.2199      2.2865      2.3599      2.4387      2.5213    
  2.6054      2.6884      2.7675      2.8395      2.9014      2.9507      2.9861      3.0069      3.0133      3.0064    
  3.1046      3.0447      2.9766      2.9024      2.8237      2.7420      2.6586      2.5751      2.4931      2.4143    
  2.3400      2.2715      2.2098      2.1558      2.1101      2.0734      2.0462      2.0293      2.0231      2.0281    
  2.0447      2.0730      2.1129      2.1643      2.2269      2.3002      2.3835      2.4755      2.5748      2.6789    
  2.7845      2.8874      2.9829      3.0661      3.1325      3.1788      3.2032      3.2058      3.1883      3.1535    
  3.3278      3.2265      3.1186      3.0082      2.8983      2.7906      2.6864      2.5866      2.4920      2.4035    
  2.3221      2.2488      2.1847      2.1305      2.0870      2.0548      2.0343      2.0258      2.0293      2.0448    
  2.0724      2.1122      2.1643      2.2293      2.3076      2.3995      2.5049      2.6233      2.7526      2.8898    
  3.0300      3.1668      3.2929      3.4003      3.4820      3.5328      3.5500      3.5340      3.4878      3.4170    
  3.6981      3.5383      3.3723      3.2082      3.0512      2.9044      2.7690      2.6449      2.5318      2.4292    
  2.3369      2.2553      2.1852      2.1274      2.0830      2.0525      2.0363      2.0343      2.0462      2.0715    
  2.1099      2.1615      2.2269      2.3076      2.4051      2.5209      2.6563      2.8110      2.9831      3.1683    
  3.3599      3.5487      3.7236      3.8728      3.9854      4.0527      4.0700      4.0370      3.9582      3.8417    
  4.2667      4.0283      3.7806      3.5377      3.3098      3.1029      2.9191      2.7576      2.6165      2.4929    
  2.3850      2.2913      2.2120      2.1475      2.0989      2.0671      2.0525      2.0548      2.0734      2.1073    
  2.1561      2.2199      2.3002      2.3995      2.5209      2.6680      2.8430      3.0468      3.2771      3.5282    
  3.7908      4.0522      4.2970      4.5088      4.6716      4.7723      4.8024      4.7597      4.6484      4.4791    
  5.0796      4.7467      4.3935      4.0429      3.7135      3.4170      3.1590      2.9394      2.7545      2.5991    
  2.4679      2.3572      2.2649      2.1906      2.1350      2.0989      2.0830      2.0870      2.1101      2.1513    
  2.2099      2.2865      2.3835      2.5049      2.6563      2.8430      3.0694      3.3367      3.6422      3.9778    
  4.3308      4.6842      5.0181      5.3116      5.5439      5.6976      5.7587      5.7211      5.5873      5.3675    
  6.1546      5.7205      5.2501      4.7689      4.3067      3.8863      3.5206      3.2135      2.9613      2.7565    
  2.5901      2.4544      2.3440      2.2563      2.1906      2.1475      2.1274      2.1305      2.1558      2.2025    
  2.2701      2.3599      2.4755      2.6233      2.8110      3.0468      3.3367      3.6824      4.0790      4.5149    
  4.9721      5.4306      5.8905      6.3409      6.7375      7.0227      7.1486      7.0959      6.8818      6.5511    
  7.9231      7.1089      6.3773      5.7353      5.1239      4.5501      4.0411      3.6105      3.2593      2.9797    
  2.7596      2.5865      2.4501      2.3440      2.2649      2.2120      2.1852      2.1847      2.2098      2.2601    
  2.3356      2.4387      2.5748      2.7526      2.9831      3.2771      3.6422      4.0790      4.5789      5.1233    
  5.7135      6.4104      7.2236      8.0930      8.9070      9.5324      9.8531      9.8062      9.4041      8.7326    
  11.547      9.8907      8.3640      7.1187      6.1779      5.4286      4.7520      4.1634      3.6768      3.2899    
  2.9903      2.7611      2.5865      2.4544      2.3572      2.2913      2.2553      2.2488      2.2715      2.3232    
  2.4052      2.5213      2.6789      2.8898      3.1683      3.5282      3.9778      4.5149      5.1233      5.8195    
  6.7391      7.9601      9.4554      11.099      12.689      13.981      14.754      14.858      14.269      13.094    
  18.114      15.216      12.346      9.8487      7.9235      6.5834      5.6598      4.8957      4.2417      3.7120    
  3.3007      2.9903      2.7596      2.5901      2.4679      2.3850      2.3369      2.3221      2.3400      2.3910    
  2.4776      2.6054      2.7845      3.0300      3.3599      3.7908      4.3308      4.9721      5.7135      6.7391    
  8.2480      10.310      12.856      15.682      18.473      20.851      22.442      22.972      22.332      20.618    
  28.356      23.950      19.289      14.943      11.334      8.6673      6.9097      5.8050      4.9701      4.2686    
  3.7120      3.2899      2.9797      2.7565      2.5991      2.4929      2.4292      2.4035      2.4143      2.4623    
  2.5511      2.6884      2.8874      3.1668      3.5487      4.0522      4.6842      5.4306      6.4104      7.9601    
  10.310      13.523      17.486      21.910      26.357      30.284      33.138      34.468      34.038      31.894    
  42.554      36.533      29.790      23.132      17.232      12.533      9.1949      7.0940      5.8551      4.9701    
  4.2417      3.6768      3.2593      2.9613      2.7545      2.6165      2.5318      2.4920      2.4931      2.5356    
  2.6238      2.7675      2.9829      3.2929      3.7236      4.2970      5.0181      5.8905      7.2236      9.4554    
  12.856      17.486      23.189      29.595      36.131      42.079      46.674      49.249      49.393      47.052    
  60.530      52.943      43.998      34.742      26.108      18.796      13.201      9.3857      7.0940      5.8050    
  4.8957      4.1634      3.6105      3.2135      2.9394      2.7576      2.6449      2.5866      2.5751      2.6092    
  2.6936      2.8395      3.0661      3.4003      3.8728      4.5088      5.3116      6.3409      8.0930      11.099    
  15.682      21.910      29.595      38.286      47.284      55.688      62.502      66.808      67.968      65.778    
  81.666      72.719      61.624      49.665      38.045      27.727      19.351      13.201      9.1949      6.9097    
  5.6598      4.7520      4.0411      3.5206      3.1590      2.9191      2.7690      2.6864      2.6586      2.6812    
  2.7581      2.9014      3.1325      3.4820      3.9854      4.6716      5.5439      6.7375      8.9070      12.689    
  18.473      26.357      36.131      47.284      59.005      70.218      79.691      86.224      88.903      87.316    
  104.88      94.953      81.943      67.372      52.715      39.203      27.727      18.796      12.533      8.6673    
  6.5834      5.4286      4.5501      3.8863      3.4170      3.1029      2.9044      2.7906      2.7420      2.7497    
  2.8154      2.9507      3.1788      3.5328      4.0527      4.7723      5.6976      7.0227      9.5324      13.981    
  20.851      30.284      42.079      55.688      70.218      84.448      96.919      106.14      110.87      110.44    
  128.59      118.25      103.78      86.906      69.381      52.715      38.045      26.108      17.232      11.334    
  7.9235      6.1779      5.1239      4.3067      3.7135      3.3098      3.0512      2.8983      2.8237      2.8129    
  2.8636      2.9861      3.2032      3.5500      4.0700      4.8024      5.7587      7.1486      9.8531      14.754    
  22.442      33.138      46.674      62.502      79.691      96.919      112.54      124.79      132.09      133.43    
  150.72      140.73      125.48      106.87      86.906      67.372      49.665      34.742      23.132      14.943    
  9.8487      7.1187      5.7353      4.7689      4.0429      3.5377      3.2082      3.0082      2.9024      2.8693    
  2.9018      3.0069      3.2058      3.5340      4.0370      4.7597      5.7211      7.0959      9.8062      14.858    
  22.972      34.468      49.249      66.808      86.224      106.14      124.79      140.19      150.43      154.12    
  168.93      160.12      145.00      125.48      103.78      81.943      61.624      43.998      29.790      19.289    
  12.346      8.3640      6.3773      5.2501      4.3935      3.7806      3.3723      3.1186      2.9766      2.9179    
  2.9292      3.0133      3.1883      3.4878      3.9582      4.6484      5.5873      6.8818      9.4041      14.269    
  22.332      34.038      49.393      67.968      88.903      110.87      132.09      150.43      163.71      170.18    
  180.95      174.15      160.12      140.73      118.25      94.953      72.719      52.943      36.533      23.950    
  15.216      9.8907      7.1089      5.7205      4.7467      4.0283      3.5383      3.2265      3.0447      2.9575    
  2.9457      3.0064      3.1535      3.4170      3.8417      4.4791      5.3675      6.5511      8.7326      13.094    
  20.618      31.894      47.052      65.778      87.316      110.44      133.43      154.12      170.18      179.56    
  180.95      179.56      170.18      154.12      133.43      110.44      87.316      65.778      47.052      31.894    
  20.618      13.094      8.7326      6.5511      5.3675      4.4791      3.8417      3.4170      3.1535      3.0064    
  2.9457      2.9575      3.0447      3.2265      3.5383      4.0283      4.7467      5.7205      7.1089      9.8907    
  15.216      23.950      36.533      52.943      72.719      94.953      118.25      140.73      160.12      174.15    
  179.56      180.95      174.15      160.12      140.73      118.25      94.953      72.719      52.943      36.533    
  23.950      15.216      9.8907      7.1089      5.7205      4.7467      4.0283      3.5383      3.2265      3.0447    
  2.9575      2.9457      3.0064      3.1535      3.4170      3.8417      4.4791      5.3675      6.5511      8.7326    
  13.094      20.618      31.894      47.052      65.778      87.316      110.44      133.43      154.12      170.18    
  170.18      174.15      170.18      158.83      141.65      120.76      98.383      76.489      56.588      39.714    
  26.451      16.951      10.920      7.6251      6.0050      4.9704      4.1881      3.6419      3.2862      3.0713    
  2.9582      2.9232      2.9582      3.0713      3.2862      3.6419      4.1881      4.9704      6.0050      7.6251    
  10.920      16.951      26.451      39.714      56.589      76.489      98.383      120.76      141.65      158.83    
  154.12      160.12      158.83      150.43      136.08      117.62      97.137      76.570      57.478      40.972    
  27.729      18.005      11.632      8.0145      6.2074      5.1316      4.3077      3.7196      3.3278      3.0839    
  2.9472      2.8906      2.9018      2.9833      3.1523      3.4408      3.8933      4.5579      5.4652      6.6839    
  8.9802      13.439      20.909      31.848      46.281      63.803      83.584      104.35      124.38      141.65    
  133.43      140.73      141.65      136.08      124.79      109.29      91.417      72.979      55.507      40.134    
  27.587      18.194      11.887      8.1970      6.3070      5.2160      4.3757      3.7636      3.3471      3.0808    
  2.9241      2.8484      2.8384      2.8920      3.0202      3.2474      3.6108      4.1560      4.9231      5.9230    
  7.4477      10.462      15.883      24.320      35.976      50.638      67.681      86.066      104.35      120.76    
  110.44      118.25      120.76      117.62      109.29      96.919      82.036      66.255      50.998      37.359    
  26.069      17.493      11.634      8.1288      6.2861      5.2164      4.3851      3.7686      3.3407      3.0603    
  2.8888      2.7974      2.7694      2.7994      2.8929      3.0673      3.3515      3.7848      4.4094      5.2529    
  6.3408      8.2202      11.805      17.812      26.618      38.206      52.161      67.681      83.584      98.383    
  87.316      94.953      98.383      97.137      91.417      82.036      70.218      57.324      44.613      33.088    
  23.440      16.038      10.925      7.8190      6.1436      5.1331      4.3338      3.7323      3.3073      3.0223    
  2.8418      2.7387      2.6961      2.7066      2.7721      2.9032      3.1211      3.4567      3.9485      4.6319    
  5.5204      6.7051      8.8571      12.741      18.873      27.427      38.206      50.638      63.803      76.489    
  65.778      72.719      76.489      76.570      72.979      66.255      57.324      47.284      37.194      27.932    
  20.115      14.083      9.8943      7.3255      5.8984      4.9734      4.2258      3.6566      3.2477      2.9675    
  2.7844      2.6738      2.6201      2.6152      2.6584      2.7557      2.9208      3.1764      3.5534      4.0870    
  4.8044      5.7073      6.9608      9.2176      13.076      18.873      26.618      35.976      46.281      56.589    
  47.052      52.943      56.588      57.478      55.507      50.998      44.613      37.194      29.595      22.541    
  16.556      11.931      8.7183      6.7343      5.5810      4.7506      4.0695      3.5464      3.1651      2.8982    
  2.7185      2.6047      2.5431      2.5263      2.5523      2.6237      2.7487      2.9421      3.2266      3.6316    
  4.1872      4.9132      5.8046      7.0533      9.2176      12.741      17.812      24.320      31.848      39.714    
  31.894      36.533      39.714      40.972      40.134      37.359      33.088      27.932      22.541      17.486    
  13.184      9.8665      7.5682      6.1296      5.2181      4.4819      3.8773      3.4098      3.0644      2.8175    
  2.6464      2.5334      2.4671      2.4413      2.4540      2.5059      2.6011      2.7484      2.9625      3.2650    
  3.6824      4.2397      4.9503      5.8046      6.9608      8.8571      11.805      15.883      20.909      26.451    
  20.618      23.950      26.451      27.729      27.587      26.069      23.440      20.115      16.556      13.184    
  10.310      8.1011      6.5676      5.5659      4.8246      4.1859      3.6629      3.2561      2.9514      2.7292    
  2.5708      2.4619      2.3936      2.3615      2.3639      2.4010      2.4743      2.5883      2.7513      2.9772    
  3.2859      3.7000      4.2397      4.9132      5.7073      6.7051      8.2202      10.462      13.439      16.951    
  13.094      15.216      16.951      18.005      18.194      17.493      16.038      14.083      11.931      9.8665    
  8.1011      6.7391      5.7655      5.0469      4.4208      3.8811      3.4399      3.0946      2.8324      2.6372    
  2.4940      2.3918      2.3242      2.2881      2.2828      2.3084      2.3654      2.4554      2.5823      2.7538    
  2.9826      3.2859      3.6824      4.1872      4.8044      5.5204      6.3408      7.4477      8.9802      10.920    
  8.7326      9.8907      10.920      11.632      11.887      11.634      10.925      9.8943      8.7183      7.5682    
  6.5676      5.7655      5.1233      4.5466      4.0276      3.5836      3.2205      2.9339      2.7129      2.5449    
  2.4182      2.3248      2.2599      2.2221      2.2114      2.2282      2.2728      2.3453      2.4468      2.5806    
  2.7538      2.9772      3.2650      3.6316      4.0870      4.6319      5.2529      5.9230      6.6839      7.6251    
  6.5511      7.1089      7.6251      8.0145      8.1970      8.1288      7.8190      7.3255      6.7343      6.1296    
  5.5659      5.0469      4.5466      4.0790      3.6621      3.3063      3.0139      2.7805      2.5975      2.4553    
  2.3453      2.2618      2.2017      2.1645      2.1506      2.1611      2.1961      2.2555      2.3388      2.4468    
  2.5823      2.7513      2.9625      3.2266      3.5534      3.9485      4.4094      4.9231      5.4652      6.0050    
  5.3675      5.7205      6.0050      6.2074      6.3070      6.2861      6.1436      5.8984      5.5810      5.2181    
  4.8246      4.4208      4.0276      3.6621      3.3367      3.0580      2.8267      2.6392      2.4895      2.3707    
  2.2769      2.2041      2.1504      2.1159      2.1014      2.1080      2.1362      2.1856      2.2555      2.3453    
  2.4554      2.5883      2.7484      2.9421      3.1764      3.4567      3.7848      4.1560      4.5579      4.9704    
  4.4791      4.7467      4.9704      5.1316      5.2160      5.2164      5.1331      4.9734      4.7506      4.4819    
  4.1859      3.8811      3.5836      3.3063      3.0580      2.8430      2.6621      2.5128      2.3912      2.2929    
  2.2141      2.1524      2.1067      2.0771      2.0645      2.0699      2.0938      2.1362      2.1961      2.2728    
  2.3654      2.4743      2.6011      2.7487      2.9208      3.1211      3.3515      3.6108      3.8934      4.1881    
  3.8417      4.0283      4.1881      4.3077      4.3757      4.3851      4.3338      4.2258      4.0695      3.8773    
  3.6629      3.4399      3.2205      3.0139      2.8267      2.6621      2.5209      2.4022      2.3038      2.2233    
  2.1584      2.1079      2.0712      2.0485      2.0403      2.0473      2.0699      2.1080      2.1611      2.2282    
  2.3084      2.4010      2.5059      2.6237      2.7557      2.9032      3.0673      3.2474      3.4408      3.6419    
  3.4170      3.5383      3.6419      3.7196      3.7636      3.7686      3.7323      3.6566      3.5464      3.4098    
  3.2561      3.0946      2.9339      2.7805      2.6392      2.5128      2.4022      2.3076      2.2281      2.1629    
  2.1109      2.0717      2.0449      2.0306      2.0290      2.0403      2.0645      2.1014      2.1506      2.2114    
  2.2828      2.3639      2.4540      2.5523      2.6584      2.7721      2.8929      3.0202      3.1523      3.2862    
  3.1535      3.2265      3.2862      3.3278      3.3471      3.3407      3.3073      3.2477      3.1651      3.0644    
  2.9514      2.8324      2.7129      2.5975      2.4895      2.3912      2.3038      2.2281      2.1643      2.1125    
  2.0726      2.0446      2.0284      2.0238      2.0306      2.0485      2.0771      2.1159      2.1645      2.2221    
  2.2881      2.3615      2.4413      2.5263      2.6152      2.7066      2.7994      2.8920      2.9833      3.0713    
  3.0064      3.0447      3.0713      3.0839      3.0808      3.0603      3.0223      2.9675      2.8982      2.8175    
  2.7292      2.6372      2.5449      2.4553      2.3707      2.2929      2.2233      2.1629      2.1125      2.0730    
  2.0447      2.0279      2.0225      2.0284      2.0449      2.0712      2.1067      2.1504      2.2017      2.2599    
  2.3242      2.3936      2.4671      2.5431      2.6201      2.6961      2.7694      2.8384      2.9018      2.9582    
  2.9457      2.9575      2.9582      2.9472      2.9241      2.8888      2.8418      2.7844      2.7185      2.6464    
  2.5708      2.4940      2.4182      2.3453      2.2769      2.2141      2.1584      2.1109      2.0726      2.0447    
  2.0277      2.0221      2.0279      2.0446      2.0717      2.1079      2.1524      2.2041      2.2618      2.3248    
  2.3918      2.4619      2.5334      2.6047      2.6738      2.7387      2.7974      2.8484      2.8906      2.9232    
  2.9575      2.9457      2.9232      2.8906      2.8484      2.7974      2.7387      2.6738      2.6047      2.5334    