Fe BCC                                  
   3.50000000000000     
    -0.500000    0.500000    0.500000
     0.500000   -0.500000    0.500000
     0.500000    0.500000   -0.500000
   Fe
     1
Direct
  0.000000  0.000000  0.000000
 
   40   40   40
 0.18516035982E+03 0.18095151192E+03 0.16892650737E+03 0.15072305498E+03 0.12858935471E+03
 0.10488105307E+03 0.81666068849E+02 0.60530203335E+02 0.42553804272E+02 0.28355644145E+02
 0.18113533998E+02 0.11547265491E+02 0.79231491313E+01 0.61545855405E+01 0.50796354838E+01
 0.42666626075E+01 0.36980659285E+01 0.33277987327E+01 0.31045522344E+01 0.29873945501E+01
 0.29511436296E+01 0.29873945501E+01 0.31045522344E+01 0.33277987327E+01 0.36980659285E+01
 0.42666626075E+01 0.50796354838E+01 0.61545855405E+01 0.79231491313E+01 0.11547265491E+02
 0.18113533998E+02 0.28355644145E+02 0.42553804272E+02 0.60530203335E+02 0.81666068849E+02
 0.10488105307E+03 0.12858935471E+03 0.15072305498E+03 0.16892650737E+03 0.18095151192E+03
 0.18095151192E+03 0.17956107119E+03 0.17018105159E+03 0.15411601438E+03 0.13342675069E+03
 0.11044109848E+03 0.87315866910E+02 0.65777739801E+02 0.47052066137E+02 0.31893635265E+02
 0.20618282607E+02 0.13094295812E+02 0.87325730690E+01 0.65511085712E+01 0.53675064598E+01
 0.44790544577E+01 0.38417158403E+01 0.34170161910E+01 0.31534718385E+01 0.30064007222E+01
 0.29456688908E+01 0.29575233250E+01 0.30447151579E+01 0.32265066780E+01 0.35382695321E+01
 0.40282912125E+01 0.47466953384E+01 0.57205294932E+01 0.71088738948E+01 0.98907285486E+01
 0.15215932813E+02 0.23950334371E+02 0.36532847895E+02 0.52943239102E+02 0.72719391118E+02
 0.94953321430E+02 0.11825156529E+03 0.14072652015E+03 0.16012460963E+03 0.17415251483E+03
 0.16892650737E+03 0.17018105159E+03 0.16371026106E+03 0.15042827450E+03 0.13209370667E+03
 0.11087440527E+03 0.88902569299E+02 0.67967708595E+02 0.49393094896E+02 0.34038443864E+02
 0.22331538417E+02 0.14269296172E+02 0.94040842175E+01 0.68817910544E+01 0.55873016237E+01
 0.46483840332E+01 0.39581958268E+01 0.34878489245E+01 0.31883127864E+01 0.30133034312E+01
 0.29292222609E+01 0.29178621186E+01 0.29766432704E+01 0.31185912108E+01 0.33723288634E+01
 0.37806063958E+01 0.43934539087E+01 0.52501198568E+01 0.63772923464E+01 0.83640048179E+01
 0.12345667472E+02 0.19289431065E+02 0.29790165216E+02 0.43998443133E+02 0.61623677094E+02
 0.81943181230E+02 0.10377941277E+03 0.12548060305E+03 0.14499609666E+03 0.16012460963E+03
 0.15072305498E+03 0.15411601438E+03 0.15042827450E+03 0.14018949345E+03 0.12479239608E+03
 0.10613885481E+03 0.86224119075E+02 0.66808464631E+02 0.49249267230E+02 0.34468183441E+02
 0.22971735414E+02 0.14858202400E+02 0.98061524282E+01 0.70959099272E+01 0.57210837495E+01
 0.47596813796E+01 0.40370253408E+01 0.35339508279E+01 0.32058106060E+01 0.30068571813E+01
 0.29018092040E+01 0.28693454037E+01 0.29024386256E+01 0.30082254800E+01 0.32081613979E+01
 0.35377174789E+01 0.40429273077E+01 0.47688663502E+01 0.57352990523E+01 0.71187328861E+01
 0.98486857779E+01 0.14943096176E+02 0.23132426374E+02 0.34742023197E+02 0.49665070983E+02
 0.67371833393E+02 0.86905877088E+02 0.10687198778E+03 0.12548060305E+03 0.14072652015E+03
 0.12858935471E+03 0.13342675069E+03 0.13209370667E+03 0.12479239608E+03 0.11254260023E+03
 0.96918950134E+02 0.79691052245E+02 0.62502163157E+02 0.46673627878E+02 0.33138164474E+02
 0.22442314820E+02 0.14753564842E+02 0.98531001079E+01 0.71485568076E+01 0.57586795487E+01
 0.48024490899E+01 0.40700087542E+01 0.35500165408E+01 0.32031831280E+01 0.29861105439E+01
 0.28636445957E+01 0.28129210271E+01 0.28237476423E+01 0.28982864221E+01 0.30511682902E+01
 0.33098377222E+01 0.37134567253E+01 0.43067327085E+01 0.51238904214E+01 0.61779463979E+01
 0.79234515351E+01 0.11333619450E+02 0.17232465324E+02 0.26108297019E+02 0.38045131421E+02
 0.52714510966E+02 0.69381203866E+02 0.86905877088E+02 0.10377941277E+03 0.11825156529E+03
 0.10488105307E+03 0.11044109848E+03 0.11087440527E+03 0.10613885481E+03 0.96918950134E+02
 0.84448200912E+02 0.70218383854E+02 0.55688083255E+02 0.42079105983E+02 0.30284389410E+02
 0.20850691705E+02 0.13981293149E+02 0.95324459791E+01 0.70227000421E+01 0.56976281495E+01
 0.47723111468E+01 0.40527259087E+01 0.35328385019E+01 0.31787661043E+01 0.29507489981E+01
 0.28153537638E+01 0.27497351190E+01 0.27419959210E+01 0.27906186249E+01 0.29043749727E+01
 0.31029046215E+01 0.34170192097E+01 0.38863044611E+01 0.45501294943E+01 0.54286384705E+01
 0.65834377656E+01 0.86672619476E+01 0.12532676198E+02 0.18796364369E+02 0.27726670097E+02
 0.39203052267E+02 0.52714510966E+02 0.67371833393E+02 0.81943181230E+02 0.94953321430E+02
 0.81666068849E+02 0.87315866910E+02 0.88902569299E+02 0.86224119075E+02 0.79691052245E+02
 0.70218383854E+02 0.59004617286E+02 0.47283807959E+02 0.36131139922E+02 0.26357107516E+02
 0.18473348575E+02 0.12688549207E+02 0.89070200318E+01 0.67374894556E+01 0.55439465671E+01
 0.46715944705E+01 0.39853801589E+01 0.34820419437E+01 0.31325004650E+01 0.29013535633E+01
 0.27580977707E+01 0.26812475389E+01 0.26586052077E+01 0.26864163721E+01 0.27689583364E+01
 0.29190512609E+01 0.31590297310E+01 0.35206405099E+01 0.40411100885E+01 0.47520446813E+01
 0.56598311797E+01 0.69096560620E+01 0.91949101878E+01 0.13200956678E+02 0.19350801671E+02
 0.27726670097E+02 0.38045131421E+02 0.49665070983E+02 0.61623677094E+02 0.72719391118E+02
 0.60530203335E+02 0.65777739801E+02 0.67967708595E+02 0.66808464631E+02 0.62502163157E+02
 0.55688083255E+02 0.47283807959E+02 0.38285556769E+02 0.29594854975E+02 0.21910247522E+02
 0.15681681563E+02 0.11099405843E+02 0.80930289136E+01 0.63408700320E+01 0.53115570252E+01
 0.45087767949E+01 0.38727911650E+01 0.34002819592E+01 0.30661134722E+01 0.28394798680E+01
 0.26935652124E+01 0.26092219353E+01 0.25751053830E+01 0.25865801072E+01 0.26449370309E+01
 0.27576331482E+01 0.29394307954E+01 0.32134721188E+01 0.36104636500E+01 0.41634149325E+01
 0.48956802916E+01 0.58049527276E+01 0.70939925495E+01 0.93857076256E+01 0.13200956678E+02
 0.18796364369E+02 0.26108297019E+02 0.34742023197E+02 0.43998443133E+02 0.52943239102E+02
 0.42553804272E+02 0.47052066137E+02 0.49393094896E+02 0.49249267230E+02 0.46673627878E+02
 0.42079105983E+02 0.36131139922E+02 0.29594854975E+02 0.23189283775E+02 0.17485504716E+02
 0.12855526806E+02 0.94554199444E+01 0.72235812478E+01 0.58905295140E+01 0.50181302590E+01
 0.42970209503E+01 0.37235655576E+01 0.32928525177E+01 0.29829365985E+01 0.27675281544E+01
 0.26238301141E+01 0.25355962061E+01 0.24931184843E+01 0.24919610201E+01 0.25318356150E+01
 0.26164602814E+01 0.27545440505E+01 0.29613034634E+01 0.32592878029E+01 0.36767627003E+01
 0.42416680222E+01 0.49700906778E+01 0.58550864565E+01 0.70939925495E+01 0.91949101878E+01
 0.12532676198E+02 0.17232465324E+02 0.23132426374E+02 0.29790165216E+02 0.36532847895E+02
 0.28355644145E+02 0.31893635265E+02 0.34038443864E+02 0.34468183441E+02 0.33138164474E+02
 0.30284389410E+02 0.26357107516E+02 0.21910247522E+02 0.17485504716E+02 0.13522976885E+02
 0.10309911795E+02 0.79600560611E+01 0.64103764295E+01 0.54306012870E+01 0.46841586391E+01
 0.40521949486E+01 0.35486934845E+01 0.31668314673E+01 0.28874195215E+01 0.26884469530E+01
 0.25511266309E+01 0.24622901142E+01 0.24142512664E+01 0.24034725681E+01 0.24292021231E+01
 0.24929423355E+01 0.25990921291E+01 0.27564524414E+01 0.29797440551E+01 0.32899384162E+01
 0.37119747307E+01 0.42685766181E+01 0.49700906778E+01 0.58049527276E+01 0.69096560620E+01
 0.86672619476E+01 0.11333619450E+02 0.14943096176E+02 0.19289431065E+02 0.23950334371E+02
 0.18113533998E+02 0.20618282607E+02 0.22331538417E+02 0.22971735414E+02 0.22442314820E+02
 0.20850691705E+02 0.18473348575E+02 0.15681681563E+02 0.12855526806E+02 0.10309911795E+02
 0.82480227239E+01 0.67390909545E+01 0.57134740548E+01 0.49720888511E+01 0.43307534289E+01
 0.37908043783E+01 0.33599305969E+01 0.30300023746E+01 0.27844862299E+01 0.26053642594E+01
 0.24776178845E+01 0.23910283807E+01 0.23399663332E+01 0.23220976600E+01 0.23369257599E+01
 0.23849562873E+01 0.24679309441E+01 0.25900531672E+01 0.27596347177E+01 0.29902967992E+01
 0.33007261047E+01 0.37119747307E+01 0.42416680222E+01 0.48956802916E+01 0.56598311797E+01
 0.65834377656E+01 0.79234515351E+01 0.98486857779E+01 0.12345667472E+02 0.15215932813E+02
 0.11547265491E+02 0.13094295812E+02 0.14269296172E+02 0.14858202400E+02 0.14753564842E+02
 0.13981293149E+02 0.12688549207E+02 0.11099405843E+02 0.94554199444E+01 0.79600560611E+01
 0.67390909545E+01 0.58194582453E+01 0.51233164890E+01 0.45148500034E+01 0.39777591533E+01
 0.35281702944E+01 0.31683149403E+01 0.28898209168E+01 0.26789075907E+01 0.25212526621E+01
 0.24052303430E+01 0.23232431232E+01 0.22714980591E+01 0.22488415341E+01 0.22553499220E+01
 0.22913355292E+01 0.23572193574E+01 0.24543521416E+01 0.25864579327E+01 0.27610814833E+01
 0.29902967992E+01 0.32899384162E+01 0.36767627003E+01 0.41634149325E+01 0.47520446813E+01
 0.54286384705E+01 0.61779463979E+01 0.71187328861E+01 0.83640048179E+01 0.98907285486E+01
 0.79231491313E+01 0.87325730690E+01 0.94040842175E+01 0.98061524282E+01 0.98531001079E+01
 0.95324459791E+01 0.89070200318E+01 0.80930289136E+01 0.72235812478E+01 0.64103764295E+01
 0.57134740548E+01 0.51233164890E+01 0.45788511157E+01 0.40790099502E+01 0.36421516157E+01
 0.32770504020E+01 0.29830667893E+01 0.27526363446E+01 0.25748326655E+01 0.24387081205E+01
 0.23355916410E+01 0.22600779086E+01 0.22098434856E+01 0.21846726803E+01 0.21852092560E+01
 0.22119563735E+01 0.22649129475E+01 0.23439943778E+01 0.24501029995E+01 0.25864579327E+01
 0.27596347177E+01 0.29797440551E+01 0.32592878029E+01 0.36104636500E+01 0.40411100885E+01
 0.45501294943E+01 0.51238904214E+01 0.57352990523E+01 0.63772923464E+01 0.71088738948E+01
 0.61545855405E+01 0.65511085712E+01 0.68817910544E+01 0.70959099272E+01 0.71485568076E+01
 0.70227000421E+01 0.67374894556E+01 0.63408700320E+01 0.58905295140E+01 0.54306012870E+01
 0.49720888511E+01 0.45148500034E+01 0.40790099502E+01 0.36824025555E+01 0.33367439372E+01
 0.30467921531E+01 0.28109809469E+01 0.26232710357E+01 0.24755490572E+01 0.23598714731E+01
 0.22700662985E+01 0.22024703395E+01 0.21558138760E+01 0.21304714310E+01 0.21274460150E+01
 0.21474832452E+01 0.21906159622E+01 0.22562825974E+01 0.23439943778E+01 0.24543521416E+01
 0.25900531672E+01 0.27564524414E+01 0.29613034634E+01 0.32134721188E+01 0.35206405099E+01
 0.38863044611E+01 0.43067327085E+01 0.47688663502E+01 0.52501198568E+01 0.57205294932E+01
 0.50796354838E+01 0.53675064598E+01 0.55873016237E+01 0.57210837495E+01 0.57586795487E+01
 0.56976281495E+01 0.55439465671E+01 0.53115570252E+01 0.50181302590E+01 0.46841586391E+01
 0.43307534289E+01 0.39777591533E+01 0.36421516157E+01 0.33367439372E+01 0.30694092580E+01
 0.28430401760E+01 0.26562965514E+01 0.25049485486E+01 0.23834625366E+01 0.22864702902E+01
 0.22098507687E+01 0.21512649659E+01 0.21101077279E+01 0.20869878488E+01 0.20829780171E+01
 0.20989163922E+01 0.21349767251E+01 0.21906159622E+01 0.22649129475E+01 0.23572193574E+01
 0.24679309441E+01 0.25990921291E+01 0.27545440505E+01 0.29394307954E+01 0.31590297310E+01
 0.34170192097E+01 0.37134567253E+01 0.40429273077E+01 0.43934539087E+01 0.47466953384E+01
 0.42666626075E+01 0.44790544577E+01 0.46483840332E+01 0.47596813796E+01 0.48024490899E+01
 0.47723111468E+01 0.46715944705E+01 0.45087767949E+01 0.42970209503E+01 0.40521949486E+01
 0.37908043783E+01 0.35281702944E+01 0.32770504020E+01 0.30467921531E+01 0.28430401760E+01
 0.26679689979E+01 0.25209482244E+01 0.23994816187E+01 0.23002280447E+01 0.22199251945E+01
 0.21560767608E+01 0.21073099815E+01 0.20733706010E+01 0.20548079637E+01 0.20524896278E+01
 0.20671215771E+01 0.20989163922E+01 0.21474832452E+01 0.22119563735E+01 0.22913355292E+01
 0.23849562873E+01 0.24929423355E+01 0.26164602814E+01 0.27576331482E+01 0.29190512609E+01
 0.31029046215E+01 0.33098377222E+01 0.35377174789E+01 0.37806063958E+01 0.40282912125E+01
 0.36980659285E+01 0.38417158403E+01 0.39581958268E+01 0.40370253408E+01 0.40700087542E+01
 0.40527259087E+01 0.39853801589E+01 0.38727911650E+01 0.37235655576E+01 0.35486934845E+01
 0.33599305969E+01 0.31683149403E+01 0.29830667893E+01 0.28109809469E+01 0.26562965514E+01
 0.25209482244E+01 0.24050676139E+01 0.23076032574E+01 0.22269441475E+01 0.21614575198E+01
 0.21098775350E+01 0.20715072733E+01 0.20462264314E+01 0.20343348564E+01 0.20362993501E+01
 0.20524896278E+01 0.20829780171E+01 0.21274460150E+01 0.21852092560E+01 0.22553499220E+01
 0.23369257599E+01 0.24292021231E+01 0.25318356150E+01 0.26449370309E+01 0.27689583364E+01
 0.29043749727E+01 0.30511682902E+01 0.32081613979E+01 0.33723288634E+01 0.35382695321E+01
 0.33277987327E+01 0.34170161910E+01 0.34878489245E+01 0.35339508279E+01 0.35500165408E+01
 0.35328385019E+01 0.34820419437E+01 0.34002819592E+01 0.32928525177E+01 0.31668314673E+01
 0.30300023746E+01 0.28898209168E+01 0.27526363446E+01 0.26232710357E+01 0.25049485486E+01
 0.23994816187E+01 0.23076032574E+01 0.22293375263E+01 0.21643379866E+01 0.21121516876E+01
 0.20723894068E+01 0.20448019717E+01 0.20292789093E+01 0.20257954667E+01 0.20343348564E+01
 0.20548079637E+01 0.20869878488E+01 0.21304714310E+01 0.21846726803E+01 0.22488415341E+01
 0.23220976600E+01 0.24034725681E+01 0.24919610201E+01 0.25865801072E+01 0.26864163721E+01
 0.27906186249E+01 0.28982864221E+01 0.30082254800E+01 0.31185912108E+01 0.32265066780E+01
 0.31045522344E+01 0.31534718385E+01 0.31883127864E+01 0.32058106060E+01 0.32031831280E+01
 0.31787661043E+01 0.31325004650E+01 0.30661134722E+01 0.29829365985E+01 0.28874195215E+01
 0.27844862299E+01 0.26789075907E+01 0.25748326655E+01 0.24755490572E+01 0.23834625366E+01
 0.23002280447E+01 0.22269441475E+01 0.21643379866E+01 0.21128997098E+01 0.20729551367E+01
 0.20446851632E+01 0.20281128039E+01 0.20230857139E+01 0.20292789093E+01 0.20462264314E+01
 0.20733706010E+01 0.21101077279E+01 0.21558138760E+01 0.22098434856E+01 0.22714980591E+01
 0.23399663332E+01 0.24142512664E+01 0.24931184843E+01 0.25751053830E+01 0.26586052077E+01
 0.27419959210E+01 0.28237476423E+01 0.29024386256E+01 0.29766432704E+01 0.30447151579E+01
 0.29873945501E+01 0.30064007222E+01 0.30133034312E+01 0.30068571813E+01 0.29861105439E+01
 0.29507489981E+01 0.29013535633E+01 0.28394798680E+01 0.27675281544E+01 0.26884469530E+01
 0.26053642594E+01 0.25212526621E+01 0.24387081205E+01 0.23598714731E+01 0.22864702902E+01
 0.22199251945E+01 0.21614575198E+01 0.21121516876E+01 0.20729551367E+01 0.20446267133E+01
 0.20276611850E+01 0.20222222110E+01 0.20281128039E+01 0.20448019717E+01 0.20715072733E+01
 0.21073099815E+01 0.21512649659E+01 0.22024703395E+01 0.22600779086E+01 0.23232431232E+01
 0.23910283807E+01 0.24622901142E+01 0.25355962061E+01 0.26092219353E+01 0.26812475389E+01
 0.27497351190E+01 0.28129210271E+01 0.28693454037E+01 0.29178621186E+01 0.29575233250E+01
 0.29511436296E+01 0.29456688908E+01 0.29292222609E+01 0.29018092040E+01 0.28636445957E+01
 0.28153537638E+01 0.27580977707E+01 0.26935652124E+01 0.26238301141E+01 0.25511266309E+01
 0.24776178845E+01 0.24052303430E+01 0.23355916410E+01 0.22700662985E+01 0.22098507687E+01
 0.21560767608E+01 0.21098775350E+01 0.20723894068E+01 0.20446851632E+01 0.20276611850E+01
 0.20219162949E+01 0.20276611850E+01 0.20446851632E+01 0.20723894068E+01 0.21098775350E+01
 0.21560767608E+01 0.22098507687E+01 0.22700662985E+01 0.23355916410E+01 0.24052303430E+01
 0.24776178845E+01 0.25511266309E+01 0.26238301141E+01 0.26935652124E+01 0.27580977707E+01
 0.28153537638E+01 0.28636445957E+01 0.29018092040E+01 0.29292222609E+01 0.29456688908E+01
 0.29873945501E+01 0.29575233250E+01 0.29178621186E+01 0.28693454037E+01 0.28129210271E+01
 0.27497351190E+01 0.26812475389E+01 0.26092219353E+01 0.25355962061E+01 0.24622901142E+01
 0.23910283807E+01 0.23232431232E+01 0.22600779086E+01 0.22024703395E+01 0.21512649659E+01
 0.21073099815E+01 0.20715072733E+01 0.20448019717E+01 0.20281128039E+01 0.20222222110E+01
 0.20276611850E+01 0.20446267133E+01 0.20729551367E+01 0.21121516876E+01 0.21614575198E+01
 0.22199251945E+01 0.22864702902E+01 0.23598714731E+01 0.24387081205E+01 0.25212526621E+01
 0.26053642594E+01 0.26884469530E+01 0.27675281544E+01 0.28394798680E+01 0.29013535633E+01
 0.29507489981E+01 0.29861105439E+01 0.30068571813E+01 0.30133034312E+01 0.30064007222E+01
 0.31045522344E+01 0.30447151579E+01 0.29766432704E+01 0.29024386256E+01 0.28237476423E+01
 0.27419959210E+01 0.26586052077E+01 0.25751053830E+01 0.24931184843E+01 0.24142512664E+01
 0.23399663332E+01 0.22714980591E+01 0.22098434856E+01 0.21558138760E+01 0.21101077279E+01
 0.20733706010E+01 0.20462264314E+01 0.20292789093E+01 0.20230857139E+01 0.20281128039E+01
 0.20446851632E+01 0.20729551367E+01 0.21128997098E+01 0.21643379866E+01 0.22269441475E+01
 0.23002280447E+01 0.23834625366E+01 0.24755490572E+01 0.25748326655E+01 0.26789075907E+01
 0.27844862299E+01 0.28874195215E+01 0.29829365985E+01 0.30661134722E+01 0.31325004650E+01
 0.31787661043E+01 0.32031831280E+01 0.32058106060E+01 0.31883127864E+01 0.31534718385E+01
 0.33277987327E+01 0.32265066780E+01 0.31185912108E+01 0.30082254800E+01 0.28982864221E+01
 0.27906186249E+01 0.26864163721E+01 0.25865801072E+01 0.24919610201E+01 0.24034725681E+01
 0.23220976600E+01 0.22488415341E+01 0.21846726803E+01 0.21304714310E+01 0.20869878488E+01
 0.20548079637E+01 0.20343348564E+01 0.20257954667E+01 0.20292789093E+01 0.20448019717E+01
 0.20723894068E+01 0.21121516876E+01 0.21643379866E+01 0.22293375263E+01 0.23076032574E+01
 0.23994816187E+01 0.25049485486E+01 0.26232710357E+01 0.27526363446E+01 0.28898209168E+01
 0.30300023746E+01 0.31668314673E+01 0.32928525177E+01 0.34002819592E+01 0.34820419437E+01
 0.35328385019E+01 0.35500165408E+01 0.35339508279E+01 0.34878489245E+01 0.34170161910E+01
 0.36980659285E+01 0.35382695321E+01 0.33723288634E+01 0.32081613979E+01 0.30511682902E+01
 0.29043749727E+01 0.27689583364E+01 0.26449370309E+01 0.25318356150E+01 0.24292021231E+01
 0.23369257599E+01 0.22553499220E+01 0.21852092560E+01 0.21274460150E+01 0.20829780171E+01
 0.20524896278E+01 0.20362993501E+01 0.20343348564E+01 0.20462264314E+01 0.20715072733E+01
 0.21098775350E+01 0.21614575198E+01 0.22269441475E+01 0.23076032574E+01 0.24050676139E+01
 0.25209482244E+01 0.26562965514E+01 0.28109809469E+01 0.29830667893E+01 0.31683149403E+01
 0.33599305969E+01 0.35486934845E+01 0.37235655576E+01 0.38727911650E+01 0.39853801589E+01
 0.40527259087E+01 0.40700087542E+01 0.40370253408E+01 0.39581958268E+01 0.38417158403E+01
 0.42666626075E+01 0.40282912125E+01 0.37806063958E+01 0.35377174789E+01 0.33098377222E+01
 0.31029046215E+01 0.29190512609E+01 0.27576331482E+01 0.26164602814E+01 0.24929423355E+01
 0.23849562873E+01 0.22913355292E+01 0.22119563735E+01 0.21474832452E+01 0.20989163922E+01
 0.20671215771E+01 0.20524896278E+01 0.20548079637E+01 0.20733706010E+01 0.21073099815E+01
 0.21560767608E+01 0.22199251945E+01 0.23002280447E+01 0.23994816187E+01 0.25209482244E+01
 0.26679689979E+01 0.28430401760E+01 0.30467921531E+01 0.32770504020E+01 0.35281702944E+01
 0.37908043783E+01 0.40521949486E+01 0.42970209503E+01 0.45087767949E+01 0.46715944705E+01
 0.47723111468E+01 0.48024490899E+01 0.47596813796E+01 0.46483840332E+01 0.44790544577E+01
 0.50796354838E+01 0.47466953384E+01 0.43934539087E+01 0.40429273077E+01 0.37134567253E+01
 0.34170192097E+01 0.31590297310E+01 0.29394307954E+01 0.27545440505E+01 0.25990921291E+01
 0.24679309441E+01 0.23572193574E+01 0.22649129475E+01 0.21906159622E+01 0.21349767251E+01
 0.20989163922E+01 0.20829780171E+01 0.20869878488E+01 0.21101077279E+01 0.21512649659E+01
 0.22098507687E+01 0.22864702902E+01 0.23834625366E+01 0.25049485486E+01 0.26562965514E+01
 0.28430401760E+01 0.30694092580E+01 0.33367439372E+01 0.36421516157E+01 0.39777591533E+01
 0.43307534289E+01 0.46841586391E+01 0.50181302590E+01 0.53115570252E+01 0.55439465671E+01
 0.56976281495E+01 0.57586795487E+01 0.57210837495E+01 0.55873016237E+01 0.53675064598E+01
 0.61545855405E+01 0.57205294932E+01 0.52501198568E+01 0.47688663502E+01 0.43067327085E+01
 0.38863044611E+01 0.35206405099E+01 0.32134721188E+01 0.29613034634E+01 0.27564524414E+01
 0.25900531672E+01 0.24543521416E+01 0.23439943778E+01 0.22562825974E+01 0.21906159622E+01
 0.21474832452E+01 0.21274460150E+01 0.21304714310E+01 0.21558138760E+01 0.22024703395E+01
 0.22700662985E+01 0.23598714731E+01 0.24755490572E+01 0.26232710357E+01 0.28109809469E+01
 0.30467921531E+01 0.33367439372E+01 0.36824025555E+01 0.40790099502E+01 0.45148500034E+01
 0.49720888511E+01 0.54306012870E+01 0.58905295140E+01 0.63408700320E+01 0.67374894556E+01
 0.70227000421E+01 0.71485568076E+01 0.70959099272E+01 0.68817910544E+01 0.65511085712E+01
 0.79231491313E+01 0.71088738948E+01 0.63772923464E+01 0.57352990523E+01 0.51238904214E+01
 0.45501294943E+01 0.40411100885E+01 0.36104636500E+01 0.32592878029E+01 0.29797440551E+01
 0.27596347177E+01 0.25864579327E+01 0.24501029995E+01 0.23439943778E+01 0.22649129475E+01
 0.22119563735E+01 0.21852092560E+01 0.21846726803E+01 0.22098434856E+01 0.22600779086E+01
 0.23355916410E+01 0.24387081205E+01 0.25748326655E+01 0.27526363446E+01 0.29830667893E+01
 0.32770504020E+01 0.36421516157E+01 0.40790099502E+01 0.45788511157E+01 0.51233164890E+01
 0.57134740548E+01 0.64103764295E+01 0.72235812478E+01 0.80930289136E+01 0.89070200318E+01
 0.95324459791E+01 0.98531001079E+01 0.98061524282E+01 0.94040842175E+01 0.87325730690E+01
 0.11547265491E+02 0.98907285486E+01 0.83640048179E+01 0.71187328861E+01 0.61779463979E+01
 0.54286384705E+01 0.47520446813E+01 0.41634149325E+01 0.36767627003E+01 0.32899384162E+01
 0.29902967992E+01 0.27610814833E+01 0.25864579327E+01 0.24543521416E+01 0.23572193574E+01
 0.22913355292E+01 0.22553499220E+01 0.22488415341E+01 0.22714980591E+01 0.23232431232E+01
 0.24052303430E+01 0.25212526621E+01 0.26789075907E+01 0.28898209168E+01 0.31683149403E+01
 0.35281702944E+01 0.39777591533E+01 0.45148500034E+01 0.51233164890E+01 0.58194582453E+01
 0.67390909545E+01 0.79600560611E+01 0.94554199444E+01 0.11099405843E+02 0.12688549207E+02
 0.13981293149E+02 0.14753564842E+02 0.14858202400E+02 0.14269296172E+02 0.13094295812E+02
 0.18113533998E+02 0.15215932813E+02 0.12345667472E+02 0.98486857779E+01 0.79234515351E+01
 0.65834377656E+01 0.56598311797E+01 0.48956802916E+01 0.42416680222E+01 0.37119747307E+01
 0.33007261047E+01 0.29902967992E+01 0.27596347177E+01 0.25900531672E+01 0.24679309441E+01
 0.23849562873E+01 0.23369257599E+01 0.23220976600E+01 0.23399663332E+01 0.23910283807E+01
 0.24776178845E+01 0.26053642594E+01 0.27844862299E+01 0.30300023746E+01 0.33599305969E+01
 0.37908043783E+01 0.43307534289E+01 0.49720888511E+01 0.57134740548E+01 0.67390909545E+01
 0.82480227239E+01 0.10309911795E+02 0.12855526806E+02 0.15681681563E+02 0.18473348575E+02
 0.20850691705E+02 0.22442314820E+02 0.22971735414E+02 0.22331538417E+02 0.20618282607E+02
 0.28355644145E+02 0.23950334371E+02 0.19289431065E+02 0.14943096176E+02 0.11333619450E+02
 0.86672619476E+01 0.69096560620E+01 0.58049527276E+01 0.49700906778E+01 0.42685766181E+01
 0.37119747307E+01 0.32899384162E+01 0.29797440551E+01 0.27564524414E+01 0.25990921291E+01
 0.24929423355E+01 0.24292021231E+01 0.24034725681E+01 0.24142512664E+01 0.24622901142E+01
 0.25511266309E+01 0.26884469530E+01 0.28874195215E+01 0.31668314673E+01 0.35486934845E+01
 0.40521949486E+01 0.46841586391E+01 0.54306012870E+01 0.64103764295E+01 0.79600560611E+01
 0.10309911795E+02 0.13522976885E+02 0.17485504716E+02 0.21910247522E+02 0.26357107516E+02
 0.30284389410E+02 0.33138164474E+02 0.34468183441E+02 0.34038443864E+02 0.31893635265E+02
 0.42553804272E+02 0.36532847895E+02 0.29790165216E+02 0.23132426374E+02 0.17232465324E+02
 0.12532676198E+02 0.91949101878E+01 0.70939925495E+01 0.58550864565E+01 0.49700906778E+01
 0.42416680222E+01 0.36767627003E+01 0.32592878029E+01 0.29613034634E+01 0.27545440505E+01
 0.26164602814E+01 0.25318356150E+01 0.24919610201E+01 0.24931184843E+01 0.25355962061E+01
 0.26238301141E+01 0.27675281544E+01 0.29829365985E+01 0.32928525177E+01 0.37235655576E+01
 0.42970209503E+01 0.50181302590E+01 0.58905295140E+01 0.72235812478E+01 0.94554199444E+01
 0.12855526806E+02 0.17485504716E+02 0.23189283775E+02 0.29594854975E+02 0.36131139922E+02
 0.42079105983E+02 0.46673627878E+02 0.49249267230E+02 0.49393094896E+02 0.47052066137E+02
 0.60530203335E+02 0.52943239102E+02 0.43998443133E+02 0.34742023197E+02 0.26108297019E+02
 0.18796364369E+02 0.13200956678E+02 0.93857076256E+01 0.70939925495E+01 0.58049527276E+01
 0.48956802916E+01 0.41634149325E+01 0.36104636500E+01 0.32134721188E+01 0.29394307954E+01
 0.27576331482E+01 0.26449370309E+01 0.25865801072E+01 0.25751053830E+01 0.26092219353E+01
 0.26935652124E+01 0.28394798680E+01 0.30661134722E+01 0.34002819592E+01 0.38727911650E+01
 0.45087767949E+01 0.53115570252E+01 0.63408700320E+01 0.80930289136E+01 0.11099405843E+02
 0.15681681563E+02 0.21910247522E+02 0.29594854975E+02 0.38285556769E+02 0.47283807959E+02
 0.55688083255E+02 0.62502163157E+02 0.66808464631E+02 0.67967708595E+02 0.65777739801E+02
 0.81666068849E+02 0.72719391118E+02 0.61623677094E+02 0.49665070983E+02 0.38045131421E+02
 0.27726670097E+02 0.19350801671E+02 0.13200956678E+02 0.91949101878E+01 0.69096560620E+01
 0.56598311797E+01 0.47520446813E+01 0.40411100885E+01 0.35206405099E+01 0.31590297310E+01
 0.29190512609E+01 0.27689583364E+01 0.26864163721E+01 0.26586052077E+01 0.26812475389E+01
 0.27580977707E+01 0.29013535633E+01 0.31325004650E+01 0.34820419437E+01 0.39853801589E+01
 0.46715944705E+01 0.55439465671E+01 0.67374894556E+01 0.89070200318E+01 0.12688549207E+02
 0.18473348575E+02 0.26357107516E+02 0.36131139922E+02 0.47283807959E+02 0.59004617286E+02
 0.70218383854E+02 0.79691052245E+02 0.86224119075E+02 0.88902569299E+02 0.87315866910E+02
 0.10488105307E+03 0.94953321430E+02 0.81943181230E+02 0.67371833393E+02 0.52714510966E+02
 0.39203052267E+02 0.27726670097E+02 0.18796364369E+02 0.12532676198E+02 0.86672619476E+01
 0.65834377656E+01 0.54286384705E+01 0.45501294943E+01 0.38863044611E+01 0.34170192097E+01
 0.31029046215E+01 0.29043749727E+01 0.27906186249E+01 0.27419959210E+01 0.27497351190E+01
 0.28153537638E+01 0.29507489981E+01 0.31787661043E+01 0.35328385019E+01 0.40527259087E+01
 0.47723111468E+01 0.56976281495E+01 0.70227000421E+01 0.95324459791E+01 0.13981293149E+02
 0.20850691705E+02 0.30284389410E+02 0.42079105983E+02 0.55688083255E+02 0.70218383854E+02
 0.84448200912E+02 0.96918950134E+02 0.10613885481E+03 0.11087440527E+03 0.11044109848E+03
 0.12858935471E+03 0.11825156529E+03 0.10377941277E+03 0.86905877088E+02 0.69381203866E+02
 0.52714510966E+02 0.38045131421E+02 0.26108297019E+02 0.17232465324E+02 0.11333619450E+02
 0.79234515351E+01 0.61779463979E+01 0.51238904214E+01 0.43067327085E+01 0.37134567253E+01
 0.33098377222E+01 0.30511682902E+01 0.28982864221E+01 0.28237476423E+01 0.28129210271E+01
 0.28636445957E+01 0.29861105439E+01 0.32031831280E+01 0.35500165408E+01 0.40700087542E+01
 0.48024490899E+01 0.57586795487E+01 0.71485568076E+01 0.98531001079E+01 0.14753564842E+02
 0.22442314820E+02 0.33138164474E+02 0.46673627878E+02 0.62502163157E+02 0.79691052245E+02
 0.96918950134E+02 0.11254260023E+03 0.12479239608E+03 0.13209370667E+03 0.13342675069E+03
 0.15072305498E+03 0.14072652015E+03 0.12548060305E+03 0.10687198778E+03 0.86905877088E+02
 0.67371833393E+02 0.49665070983E+02 0.34742023197E+02 0.23132426374E+02 0.14943096176E+02
 0.98486857779E+01 0.71187328861E+01 0.57352990523E+01 0.47688663502E+01 0.40429273077E+01
 0.35377174789E+01 0.32081613979E+01 0.30082254800E+01 0.29024386256E+01 0.28693454037E+01
 0.29018092040E+01 0.30068571813E+01 0.32058106060E+01 0.35339508279E+01 0.40370253408E+01
 0.47596813796E+01 0.57210837495E+01 0.70959099272E+01 0.98061524282E+01 0.14858202400E+02
 0.22971735414E+02 0.34468183441E+02 0.49249267230E+02 0.66808464631E+02 0.86224119075E+02
 0.10613885481E+03 0.12479239608E+03 0.14018949345E+03 0.15042827450E+03 0.15411601438E+03
 0.16892650737E+03 0.16012460963E+03 0.14499609666E+03 0.12548060305E+03 0.10377941277E+03
 0.81943181230E+02 0.61623677094E+02 0.43998443133E+02 0.29790165216E+02 0.19289431065E+02
 0.12345667472E+02 0.83640048179E+01 0.63772923464E+01 0.52501198568E+01 0.43934539087E+01
 0.37806063958E+01 0.33723288634E+01 0.31185912108E+01 0.29766432704E+01 0.29178621186E+01
 0.29292222609E+01 0.30133034312E+01 0.31883127864E+01 0.34878489245E+01 0.39581958268E+01
 0.46483840332E+01 0.55873016237E+01 0.68817910544E+01 0.94040842175E+01 0.14269296172E+02
 0.22331538417E+02 0.34038443864E+02 0.49393094896E+02 0.67967708595E+02 0.88902569299E+02
 0.11087440527E+03 0.13209370667E+03 0.15042827450E+03 0.16371026106E+03 0.17018105159E+03
 0.18095151192E+03 0.17415251483E+03 0.16012460963E+03 0.14072652015E+03 0.11825156529E+03
 0.94953321430E+02 0.72719391118E+02 0.52943239102E+02 0.36532847895E+02 0.23950334371E+02
 0.15215932813E+02 0.98907285486E+01 0.71088738948E+01 0.57205294932E+01 0.47466953384E+01
 0.40282912125E+01 0.35382695321E+01 0.32265066780E+01 0.30447151579E+01 0.29575233250E+01
 0.29456688908E+01 0.30064007222E+01 0.31534718385E+01 0.34170161910E+01 0.38417158403E+01
 0.44790544577E+01 0.53675064598E+01 0.65511085712E+01 0.87325730690E+01 0.13094295812E+02
 0.20618282607E+02 0.31893635265E+02 0.47052066137E+02 0.65777739801E+02 0.87315866910E+02
 0.11044109848E+03 0.13342675069E+03 0.15411601438E+03 0.17018105159E+03 0.17956107119E+03
 0.18095151192E+03 0.17956107119E+03 0.17018105159E+03 0.15411601438E+03 0.13342675069E+03
 0.11044109848E+03 0.87315866910E+02 0.65777739801E+02 0.47052066137E+02 0.31893635265E+02
 0.20618282607E+02 0.13094295812E+02 0.87325730690E+01 0.65511085712E+01 0.53675064598E+01
 0.44790544577E+01 0.38417158403E+01 0.34170161910E+01 0.31534718385E+01 0.30064007222E+01
 0.29456688908E+01 0.29575233250E+01 0.30447151579E+01 0.32265066780E+01 0.35382695321E+01
 0.40282912125E+01 0.47466953384E+01 0.57205294932E+01 0.71088738948E+01 0.98907285486E+01