<?xml version="1.0" encoding="ISO-8859-1"?>
<modeling>
 <generator>
  <i name="program" type="string">vasp </i>
  <i name="version" type="string">5.4.1  </i>
  <i name="subversion" type="string">24Jun15 (build Jul 19 2016 16:50:41) complex                          parallel </i>
  <i name="platform" type="string">IFC91_ompi </i>
  <i name="date" type="string">2019 10 17 </i>
  <i name="time" type="string">11:28:32 </i>
 </generator>
 <incar>
  <i type="string" name="SYSTEM"> Fe BCC</i>
  <i type="string" name="PREC">accurate</i>
  <i type="int" name="ISPIN">     2</i>
  <i name="EDIFF">      0.00000100</i>
  <i name="ENMAX">    400.00000000</i>
  <v name="MAGMOM">      4.00000000</v>
  <i type="int" name="ISMEAR">    -5</i>
  <i type="logical" name="LORBIT"> F  </i>
  <v type="int" name="KPOINT_BSE">    -1     0     0     0</v>
 </incar>
 <kpoints>
  <generation param="Monkhorst-Pack">
   <v type="int" name="divisions">       8        8        8 </v>
   <v name="usershift">      0.00000000       0.00000000       0.00000000 </v>
   <v name="genvec1">      0.12500000       0.00000000       0.00000000 </v>
   <v name="genvec2">      0.00000000       0.12500000       0.00000000 </v>
   <v name="genvec3">      0.00000000       0.00000000       0.12500000 </v>
   <v name="shift">      0.50000000       0.50000000       0.50000000 </v>
  </generation>
  <varray name="kpointlist" >
   <v>       0.06250000       0.06250000       0.06250000 </v>
   <v>       0.18750000       0.06250000       0.06250000 </v>
   <v>       0.31250000       0.06250000       0.06250000 </v>
   <v>       0.43750000       0.06250000       0.06250000 </v>
   <v>      -0.06250000       0.06250000       0.06250000 </v>
   <v>       0.18750000       0.18750000       0.06250000 </v>
   <v>       0.31250000       0.18750000       0.06250000 </v>
   <v>      -0.18750000       0.18750000       0.06250000 </v>
   <v>       0.31250000       0.31250000       0.06250000 </v>
   <v>      -0.31250000       0.31250000       0.06250000 </v>
   <v>      -0.18750000       0.31250000       0.06250000 </v>
   <v>      -0.43750000       0.43750000       0.06250000 </v>
   <v>      -0.31250000       0.43750000       0.06250000 </v>
   <v>      -0.43750000      -0.43750000       0.06250000 </v>
   <v>      -0.31250000      -0.43750000       0.06250000 </v>
   <v>       0.18750000       0.18750000       0.18750000 </v>
   <v>       0.31250000       0.18750000       0.18750000 </v>
   <v>      -0.18750000       0.18750000       0.18750000 </v>
   <v>      -0.31250000       0.31250000       0.18750000 </v>
   <v>      -0.43750000       0.43750000       0.18750000 </v>
   <v>      -0.31250000       0.43750000       0.18750000 </v>
   <v>      -0.43750000      -0.43750000       0.18750000 </v>
   <v>      -0.31250000       0.31250000       0.31250000 </v>
   <v>      -0.43750000       0.43750000       0.31250000 </v>
   <v>      -0.43750000      -0.43750000       0.31250000 </v>
   <v>      -0.43750000       0.43750000       0.43750000 </v>
  </varray>
  <varray name="weights" >
   <v>       0.01562500 </v>
   <v>       0.04687500 </v>
   <v>       0.04687500 </v>
   <v>       0.02343750 </v>
   <v>       0.01171875 </v>
   <v>       0.04687500 </v>
   <v>       0.09375000 </v>
   <v>       0.04687500 </v>
   <v>       0.01562500 </v>
   <v>       0.04687500 </v>
   <v>       0.04687500 </v>
   <v>       0.04687500 </v>
   <v>       0.09375000 </v>
   <v>       0.04687500 </v>
   <v>       0.04687500 </v>
   <v>       0.01562500 </v>
   <v>       0.02343750 </v>
   <v>       0.01171875 </v>
   <v>       0.04687500 </v>
   <v>       0.04687500 </v>
   <v>       0.04687500 </v>
   <v>       0.04687500 </v>
   <v>       0.01171875 </v>
   <v>       0.04687500 </v>
   <v>       0.01562500 </v>
   <v>       0.01171875 </v>
  </varray>
  <varray name="tetrahedronlist"  type="int" >
   <v type="int" >        4        1        2        2        6 </v>
   <v type="int" >        8        2        2        6        6 </v>
   <v type="int" >        4        2        6        6       16 </v>
   <v type="int" >        4        2        3        6        7 </v>
   <v type="int" >        4        2        6        6        7 </v>
   <v type="int" >       12        6        6        7       16 </v>
   <v type="int" >        8        3        6        7        7 </v>
   <v type="int" >        8        6        7        7       17 </v>
   <v type="int" >        8        6        7       16       17 </v>
   <v type="int" >        4        3        4        7        7 </v>
   <v type="int" >        4        3        7        7        7 </v>
   <v type="int" >       16        7        7        7       17 </v>
   <v type="int" >        8        4        7        7        7 </v>
   <v type="int" >        4        7        7        7       16 </v>
   <v type="int" >       20        7        7       16       17 </v>
   <v type="int" >        4        3        4        6        7 </v>
   <v type="int" >        4        4        6        7        7 </v>
   <v type="int" >       16        6        7        7       16 </v>
   <v type="int" >        8        3        6        6        7 </v>
   <v type="int" >        4        6        6        6        7 </v>
   <v type="int" >        4        2        2        3        6 </v>
   <v type="int" >        8        2        3        6        6 </v>
   <v type="int" >        4        2        6        6        6 </v>
   <v type="int" >        4        2        2        2        6 </v>
   <v type="int" >        8        2        2        6       11 </v>
   <v type="int" >        4        2        6        6       11 </v>
   <v type="int" >       16        1        2        2        8 </v>
   <v type="int" >        4        2        2        2        8 </v>
   <v type="int" >       12        2        2        8       11 </v>
   <v type="int" >       16        1        2        8        8 </v>
   <v type="int" >        4        2        8        8       18 </v>
   <v type="int" >        4        2        8       11       18 </v>
   <v type="int" >       20        1        5        8        8 </v>
   <v type="int" >        4        1        8        8        8 </v>
   <v type="int" >        4        8        8        8       18 </v>
   <v type="int" >        8        5        8        8        8 </v>
   <v type="int" >        4        8        8        8       11 </v>
   <v type="int" >        4        8        8       11       18 </v>
   <v type="int" >        8        1        2        5        8 </v>
   <v type="int" >        8        2        5        8        8 </v>
   <v type="int" >        8        2        8        8       11 </v>
   <v type="int" >        4        2        2        6        8 </v>
   <v type="int" >        4        2        6        8       11 </v>
   <v type="int" >        4        6        7        9       16 </v>
   <v type="int" >       16        7        9       16       17 </v>
   <v type="int" >       12        9       16       17       17 </v>
   <v type="int" >       20        7        7        9       17 </v>
   <v type="int" >       12        7        9       17       17 </v>
   <v type="int" >        8        7        7       17       17 </v>
   <v type="int" >       12        3        6        7       16 </v>
   <v type="int" >        8        3        7        7       16 </v>
   <v type="int" >        8        3        6        6       16 </v>
   <v type="int" >        4        3        6       13       16 </v>
   <v type="int" >        4        3        7       13       16 </v>
   <v type="int" >        4        2        6        6       10 </v>
   <v type="int" >        4        3        6        6       10 </v>
   <v type="int" >        8        3        6       10       13 </v>
   <v type="int" >       12        2        6       10       11 </v>
   <v type="int" >        4        6       10       11       19 </v>
   <v type="int" >        4        6       10       13       19 </v>
   <v type="int" >        4        2        8       11       11 </v>
   <v type="int" >        4        2       10       11       11 </v>
   <v type="int" >        4       10       11       11       19 </v>
   <v type="int" >        8        8       11       11       18 </v>
   <v type="int" >        8       11       11       18       19 </v>
   <v type="int" >        4       11       11       19       19 </v>
   <v type="int" >        4        8        8       10       18 </v>
   <v type="int" >       12        8       10       11       18 </v>
   <v type="int" >       12       10       11       18       19 </v>
   <v type="int" >        4       10       11       13       18 </v>
   <v type="int" >        4       10       13       18       19 </v>
   <v type="int" >        4        2        3        8       11 </v>
   <v type="int" >        4        3        8       10       11 </v>
   <v type="int" >        8        3       10       11       13 </v>
   <v type="int" >       16        2        3        6       11 </v>
   <v type="int" >        4        3        6        7       11 </v>
   <v type="int" >        4        3        7       11       13 </v>
   <v type="int" >        4        4        7        9       17 </v>
   <v type="int" >        8        4        7        7       17 </v>
   <v type="int" >        4        4        7       14       17 </v>
   <v type="int" >        4        3        7        7       12 </v>
   <v type="int" >        8        4        7        7       12 </v>
   <v type="int" >        8        4        7       12       14 </v>
   <v type="int" >        8        3        7       12       13 </v>
   <v type="int" >        4        7       12       13       20 </v>
   <v type="int" >        4        7       12       14       20 </v>
   <v type="int" >        4        3       10       13       13 </v>
   <v type="int" >        4        3       12       13       13 </v>
   <v type="int" >        4       12       13       13       20 </v>
   <v type="int" >        8       10       13       13       19 </v>
   <v type="int" >       12       13       13       19       21 </v>
   <v type="int" >        4       13       13       20       21 </v>
   <v type="int" >        8       10       11       13       19 </v>
   <v type="int" >        8       11       13       19       19 </v>
   <v type="int" >        4       13       19       19       20 </v>
   <v type="int" >        8       13       19       20       21 </v>
   <v type="int" >        4       10       11       12       19 </v>
   <v type="int" >        4       11       12       13       19 </v>
   <v type="int" >        8       12       13       19       20 </v>
   <v type="int" >        8       10       12       13       19 </v>
   <v type="int" >        4       12       13       14       19 </v>
   <v type="int" >        4       12       14       19       20 </v>
   <v type="int" >        4        3        4       10       13 </v>
   <v type="int" >        4        4       10       12       13 </v>
   <v type="int" >       12        4       12       13       14 </v>
   <v type="int" >       12        3        4        7       13 </v>
   <v type="int" >        8        4        7        7       13 </v>
   <v type="int" >       12        4        7       13       14 </v>
   <v type="int" >        4        4       12       14       14 </v>
   <v type="int" >        4       12       14       14       20 </v>
   <v type="int" >        4       14       14       20       22 </v>
   <v type="int" >        4       12       13       15       20 </v>
   <v type="int" >        4       12       14       15       20 </v>
   <v type="int" >        8       14       15       20       22 </v>
   <v type="int" >       12       13       15       20       21 </v>
   <v type="int" >       12       15       20       21       22 </v>
   <v type="int" >        4       15       20       22       22 </v>
   <v type="int" >        4       13       13       14       21 </v>
   <v type="int" >       12       13       14       15       21 </v>
   <v type="int" >       16       14       15       21       22 </v>
   <v type="int" >        8       13       14       20       21 </v>
   <v type="int" >        4       14       20       20       21 </v>
   <v type="int" >       12       14       20       21       22 </v>
   <v type="int" >        4       12       12       13       20 </v>
   <v type="int" >        8       12       13       14       20 </v>
   <v type="int" >        8       12       14       20       20 </v>
   <v type="int" >        8       12       12       14       20 </v>
   <v type="int" >        4       12       13       20       20 </v>
   <v type="int" >       16        3        4       12       14 </v>
   <v type="int" >        8        3       12       12       14 </v>
   <v type="int" >        8        3       12       13       14 </v>
   <v type="int" >       16        3        4        7       14 </v>
   <v type="int" >        4        3        6        7       14 </v>
   <v type="int" >        4        3        6       13       14 </v>
   <v type="int" >        8       14       15       15       22 </v>
   <v type="int" >        8       15       15       22       22 </v>
   <v type="int" >        8       15       21       22       22 </v>
   <v type="int" >       12       13       14       15       22 </v>
   <v type="int" >        4       13       15       15       22 </v>
   <v type="int" >        8       13       15       21       22 </v>
   <v type="int" >       12       13       14       20       22 </v>
   <v type="int" >        4       13       19       20       22 </v>
   <v type="int" >        4       13       19       21       22 </v>
   <v type="int" >        4       10       12       14       20 </v>
   <v type="int" >        4       10       13       14       20 </v>
   <v type="int" >        8       10       13       19       20 </v>
   <v type="int" >        8       10       12       13       20 </v>
   <v type="int" >        4       10       11       13       20 </v>
   <v type="int" >        4       10       11       19       20 </v>
   <v type="int" >        4        2        3       12       13 </v>
   <v type="int" >        4        2       10       12       13 </v>
   <v type="int" >        8        2       10       11       13 </v>
   <v type="int" >       12        2        3        6       13 </v>
   <v type="int" >        4        2        2        6       13 </v>
   <v type="int" >        4        2        2       11       13 </v>
   <v type="int" >        4       11       13       15       21 </v>
   <v type="int" >        8       11       13       19       21 </v>
   <v type="int" >        4       11       18       19       21 </v>
   <v type="int" >        4        8       10       13       19 </v>
   <v type="int" >        4        8       11       13       19 </v>
   <v type="int" >        8        8       11       18       19 </v>
   <v type="int" >        8        8       10       11       19 </v>
   <v type="int" >        4        8        8       11       19 </v>
   <v type="int" >        4        8        8       18       19 </v>
   <v type="int" >        4        1        2       10       11 </v>
   <v type="int" >        4        1        8       10       11 </v>
   <v type="int" >        8        1        8        8       11 </v>
   <v type="int" >        8        1        2        2       11 </v>
   <v type="int" >       12        1        2        8       11 </v>
   <v type="int" >        4        5        8       11       18 </v>
   <v type="int" >        4        5        8        8       18 </v>
   <v type="int" >        4        1        5        8       18 </v>
   <v type="int" >        4        5        5        8        8 </v>
   <v type="int" >       12        1        5        5        8 </v>
   <v type="int" >        6        1        1        5        5 </v>
   <v type="int" >        8        1        1        5        8 </v>
   <v type="int" >        4        1        1        2        8 </v>
   <v type="int" >        4        2        3        6       16 </v>
   <v type="int" >        4        3        7       16       17 </v>
   <v type="int" >       12        7       16       17       17 </v>
   <v type="int" >        8        7       17       17       17 </v>
   <v type="int" >       12        7        7        9       16 </v>
   <v type="int" >        4        6        6        7        7 </v>
   <v type="int" >       16        3        6        7       13 </v>
   <v type="int" >       12        6        7        7       13 </v>
   <v type="int" >        4        3        6        6       11 </v>
   <v type="int" >       12        3        6       11       13 </v>
   <v type="int" >       12        2        3       10       11 </v>
   <v type="int" >        4        3       10       11       19 </v>
   <v type="int" >        4        3       11       13       19 </v>
   <v type="int" >        4        2        8       10       18 </v>
   <v type="int" >        4        2       10       11       18 </v>
   <v type="int" >        4       10       18       19       19 </v>
   <v type="int" >        4        8        8       11       11 </v>
   <v type="int" >        4        8       10       11       11 </v>
   <v type="int" >        4       10       11       11       13 </v>
   <v type="int" >        4       11       11       13       19 </v>
   <v type="int" >        4        2        6        8       10 </v>
   <v type="int" >        4        6        8       10       11 </v>
   <v type="int" >       12        6       10       11       13 </v>
   <v type="int" >        8        2        3        6       10 </v>
   <v type="int" >        4        3        6        7       10 </v>
   <v type="int" >        4        6        7       10       13 </v>
   <v type="int" >        4       16       17       17       17 </v>
   <v type="int" >        4       17       17       17       17 </v>
   <v type="int" >        4        9       17       17       17 </v>
   <v type="int" >        8        7        7       15       17 </v>
   <v type="int" >        8        7        9       15       17 </v>
   <v type="int" >        4        6        7       13       16 </v>
   <v type="int" >        4        7        7       13       16 </v>
   <v type="int" >       12        7        7       13       15 </v>
   <v type="int" >        8        6        7       13       13 </v>
   <v type="int" >        4        7       13       13       21 </v>
   <v type="int" >        4        7       13       15       21 </v>
   <v type="int" >        4        6       11       13       19 </v>
   <v type="int" >        4        6       13       13       19 </v>
   <v type="int" >        4       13       19       19       23 </v>
   <v type="int" >        4       13       19       21       23 </v>
   <v type="int" >        4       11       18       19       19 </v>
   <v type="int" >        4       11       19       19       19 </v>
   <v type="int" >        4       19       19       19       23 </v>
   <v type="int" >        4       18       19       19       19 </v>
   <v type="int" >        4       19       19       19       21 </v>
   <v type="int" >        4       19       19       21       23 </v>
   <v type="int" >        4       11       13       18       19 </v>
   <v type="int" >        4       13       18       19       19 </v>
   <v type="int" >        8       13       19       19       21 </v>
   <v type="int" >       12       11       13       13       19 </v>
   <v type="int" >        4       13       13       15       19 </v>
   <v type="int" >        4       13       15       19       21 </v>
   <v type="int" >        4        6        7       11       13 </v>
   <v type="int" >        4        7       11       13       13 </v>
   <v type="int" >        8        7       13       13       15 </v>
   <v type="int" >        4        7        7        9       13 </v>
   <v type="int" >        4        7        9       13       15 </v>
   <v type="int" >        4        7        9       14       17 </v>
   <v type="int" >       12        7        9       14       15 </v>
   <v type="int" >        4        9       14       15       22 </v>
   <v type="int" >        4        7       13       15       20 </v>
   <v type="int" >        4        7       14       15       20 </v>
   <v type="int" >        4       15       20       21       24 </v>
   <v type="int" >        4       15       20       22       24 </v>
   <v type="int" >        4       13       19       21       21 </v>
   <v type="int" >        4       13       20       21       21 </v>
   <v type="int" >        4       20       21       21       24 </v>
   <v type="int" >        8       19       21       21       23 </v>
   <v type="int" >        8       21       21       23       24 </v>
   <v type="int" >        4       21       21       24       24 </v>
   <v type="int" >        4       19       19       20       23 </v>
   <v type="int" >       12       19       20       21       23 </v>
   <v type="int" >       12       20       21       23       24 </v>
   <v type="int" >        4       20       21       22       23 </v>
   <v type="int" >        4       20       22       23       24 </v>
   <v type="int" >        4       13       14       19       21 </v>
   <v type="int" >        4       14       19       20       21 </v>
   <v type="int" >        4       14       15       15       21 </v>
   <v type="int" >       16        7       13       14       15 </v>
   <v type="int" >        8        7       14       15       15 </v>
   <v type="int" >       16        7        7        9       15 </v>
   <v type="int" >        4        7        7       15       15 </v>
   <v type="int" >        4       14       20       22       22 </v>
   <v type="int" >        8       20       22       22       24 </v>
   <v type="int" >       16       22       22       24       25 </v>
   <v type="int" >       16       20       21       22       24 </v>
   <v type="int" >        8       21       22       24       24 </v>
   <v type="int" >        4       22       24       24       24 </v>
   <v type="int" >       16       22       24       24       25 </v>
   <v type="int" >        4       20       20       21       24 </v>
   <v type="int" >       12       20       22       24       24 </v>
   <v type="int" >        8       20       20       22       24 </v>
   <v type="int" >        4       20       21       24       24 </v>
   <v type="int" >        4       13       20       20       22 </v>
   <v type="int" >        8       13       20       21       22 </v>
   <v type="int" >        4       13       13       15       22 </v>
   <v type="int" >        4       13       13       21       22 </v>
   <v type="int" >        4        6        7       14       15 </v>
   <v type="int" >        4        6       13       14       15 </v>
   <v type="int" >        4        6       13       13       15 </v>
   <v type="int" >        4        6        7        7       15 </v>
   <v type="int" >        4        3        6        7       15 </v>
   <v type="int" >        4        3        6       13       15 </v>
   <v type="int" >        8       21       22       22       25 </v>
   <v type="int" >       12       21       22       24       25 </v>
   <v type="int" >        4       21       23       24       25 </v>
   <v type="int" >        4       19       20       22       24 </v>
   <v type="int" >        4       19       21       22       24 </v>
   <v type="int" >        8       19       21       23       24 </v>
   <v type="int" >        8       19       20       21       24 </v>
   <v type="int" >        4       19       19       21       24 </v>
   <v type="int" >        4       19       19       23       24 </v>
   <v type="int" >        4       11       13       20       21 </v>
   <v type="int" >        4       11       19       20       21 </v>
   <v type="int" >        4       11       19       19       21 </v>
   <v type="int" >        4       11       13       13       21 </v>
   <v type="int" >        4       10       11       13       21 </v>
   <v type="int" >        4       10       11       19       21 </v>
   <v type="int" >        4        2        6       13       13 </v>
   <v type="int" >        4        2       11       13       13 </v>
   <v type="int" >       12        2        3       10       13 </v>
   <v type="int" >        4        2       10       10       13 </v>
   <v type="int" >        4       18       19       21       23 </v>
   <v type="int" >        4       18       19       19       23 </v>
   <v type="int" >        4       11       18       19       23 </v>
   <v type="int" >        4        8       11       19       19 </v>
   <v type="int" >        4        8       18       19       19 </v>
   <v type="int" >        4        2        8       10       19 </v>
   <v type="int" >        4        2        8       11       19 </v>
   <v type="int" >       16        2        8       10       11 </v>
   <v type="int" >        4        8        8       10       11 </v>
   <v type="int" >       12        2        8        8       10 </v>
   <v type="int" >        8        2        8       10       10 </v>
   <v type="int" >        4        8       10       10       11 </v>
   <v type="int" >        4        1        8       11       18 </v>
   <v type="int" >        4        2        8        8        8 </v>
   <v type="int" >        8        2        2        8       10 </v>
   <v type="int" >        4        2        2        3       10 </v>
   <v type="int" >        4        3        4        7       17 </v>
   <v type="int" >        4        4        7       16       17 </v>
   <v type="int" >        4        7        7        7        9 </v>
   <v type="int" >        4        4        7        7       14 </v>
   <v type="int" >        4        7        7        7       14 </v>
   <v type="int" >       12        3        4       12       13 </v>
   <v type="int" >        4        4       12       13       20 </v>
   <v type="int" >        4        4       13       14       20 </v>
   <v type="int" >        4        3       10       12       19 </v>
   <v type="int" >        4        3       12       13       19 </v>
   <v type="int" >        4       12       13       19       21 </v>
   <v type="int" >        4       12       19       20       21 </v>
   <v type="int" >        4       10       13       19       19 </v>
   <v type="int" >        8       13       13       19       20 </v>
   <v type="int" >        4       10       11       13       13 </v>
   <v type="int" >        4       10       12       13       13 </v>
   <v type="int" >        4       12       13       13       14 </v>
   <v type="int" >        4       13       13       14       20 </v>
   <v type="int" >        4        3        7       10       12 </v>
   <v type="int" >        4        7       10       12       13 </v>
   <v type="int" >        8        7       12       13       14 </v>
   <v type="int" >        8        3        4        7       12 </v>
   <v type="int" >        4        7        7       12       14 </v>
   <v type="int" >        4        7        9       15       16 </v>
   <v type="int" >       12        7        9       15       15 </v>
   <v type="int" >        8        7        7       14       15 </v>
   <v type="int" >        4        7       14       15       22 </v>
   <v type="int" >        4        7       15       15       22 </v>
   <v type="int" >        4        7       13       14       21 </v>
   <v type="int" >        4        7       14       15       21 </v>
   <v type="int" >        4       14       20       21       24 </v>
   <v type="int" >        4       14       21       22       24 </v>
   <v type="int" >        4       13       19       20       23 </v>
   <v type="int" >        4       13       20       21       23 </v>
   <v type="int" >        4       20       23       24       24 </v>
   <v type="int" >        4       19       19       21       21 </v>
   <v type="int" >        4       19       20       21       21 </v>
   <v type="int" >        4       20       21       21       22 </v>
   <v type="int" >        4       21       21       22       24 </v>
   <v type="int" >        4       13       15       19       20 </v>
   <v type="int" >        4       15       19       20       21 </v>
   <v type="int" >        8       13       14       15       20 </v>
   <v type="int" >        4       14       15       15       20 </v>
   <v type="int" >        4       15       15       20       22 </v>
   <v type="int" >        4        7        9       13       14 </v>
   <v type="int" >        4        9       13       14       15 </v>
   <v type="int" >        8        9       14       15       15 </v>
   <v type="int" >        8        7        7        9       14 </v>
   <v type="int" >        4        9       15       15       22 </v>
   <v type="int" >        4       15       22       22       25 </v>
   <v type="int" >        4       15       21       22       24 </v>
   <v type="int" >        4       15       22       22       24 </v>
   <v type="int" >        8       22       24       24       26 </v>
   <v type="int" >        8       22       24       25       26 </v>
   <v type="int" >        4       21       23       24       24 </v>
   <v type="int" >        4       21       24       24       24 </v>
   <v type="int" >        8       24       24       24       26 </v>
   <v type="int" >        4       23       24       24       24 </v>
   <v type="int" >        4       24       24       24       25 </v>
   <v type="int" >       20       24       24       25       26 </v>
   <v type="int" >        4       21       22       23       24 </v>
   <v type="int" >        4       22       23       24       24 </v>
   <v type="int" >       12       21       22       22       24 </v>
   <v type="int" >        4       22       22       22       24 </v>
   <v type="int" >        4       15       15       21       22 </v>
   <v type="int" >        4       15       22       22       22 </v>
   <v type="int" >        4       15       15       15       22 </v>
   <v type="int" >        4       14       15       22       22 </v>
   <v type="int" >        4        7       15       15       15 </v>
   <v type="int" >        4        4        7        7       15 </v>
   <v type="int" >        4        4        7       14       15 </v>
   <v type="int" >        4       22       24       25       25 </v>
   <v type="int" >        8       24       25       25       26 </v>
   <v type="int" >        6       25       25       26       26 </v>
   <v type="int" >       12       24       25       26       26 </v>
   <v type="int" >        4       24       24       26       26 </v>
   <v type="int" >        8       21       24       24       25 </v>
   <v type="int" >        4       20       21       22       25 </v>
   <v type="int" >        4       20       21       24       25 </v>
   <v type="int" >        4       13       15       22       22 </v>
   <v type="int" >        4       13       21       22       22 </v>
   <v type="int" >        4       12       13       14       22 </v>
   <v type="int" >        4       12       13       20       22 </v>
   <v type="int" >        4        3        7       14       15 </v>
   <v type="int" >        4        3       13       14       15 </v>
   <v type="int" >        4       23       24       25       26 </v>
   <v type="int" >        4       23       24       24       26 </v>
   <v type="int" >        4       21       23       24       26 </v>
   <v type="int" >        4       19       21       24       24 </v>
   <v type="int" >        4       19       23       24       24 </v>
   <v type="int" >        4       13       19       20       24 </v>
   <v type="int" >        4       13       19       21       24 </v>
   <v type="int" >        4       10       13       20       21 </v>
   <v type="int" >        4       10       19       20       21 </v>
   <v type="int" >        4        3       10       12       20 </v>
   <v type="int" >        4        3       10       13       20 </v>
   <v type="int" >        8        3       10       12       13 </v>
   <v type="int" >        4       10       10       12       13 </v>
   <v type="int" >        8        3       10       10       12 </v>
   <v type="int" >        8        3       10       12       12 </v>
   <v type="int" >        4       10       12       12       13 </v>
   <v type="int" >        4       11       19       21       23 </v>
   <v type="int" >        4        6       11       13       21 </v>
   <v type="int" >        4        2       10       13       19 </v>
   <v type="int" >        4        2       11       13       19 </v>
   <v type="int" >        8        2        6       11       13 </v>
   <v type="int" >        4        2        6        6       13 </v>
   <v type="int" >        4        3       10       10       11 </v>
   <v type="int" >        4        3       11       13       13 </v>
   <v type="int" >        4        2        2        6       10 </v>
   <v type="int" >        4        6       10       12       13 </v>
   <v type="int" >        4        3        6       10       12 </v>
   <v type="int" >        4        2        3        3       10 </v>
   <v type="int" >        4        3        3       10       12 </v>
   <v type="int" >        4        3        3        4       12 </v>
   <v type="int" >        4        3        4        7       16 </v>
   <v type="int" >        4        6        7        7        7 </v>
   <v type="int" >        4        6        6        7       13 </v>
   <v type="int" >        8        3        7        7       14 </v>
   <v type="int" >        8        3        7       13       14 </v>
   <v type="int" >        4        3       12       14       20 </v>
   <v type="int" >        4        3       13       14       20 </v>
   <v type="int" >        4        4       12       12       20 </v>
   <v type="int" >        4        4       12       14       20 </v>
   <v type="int" >        4       12       14       20       22 </v>
   <v type="int" >        4       12       20       20       22 </v>
   <v type="int" >        4       12       13       14       21 </v>
   <v type="int" >        4       12       14       20       21 </v>
   <v type="int" >        4       14       21       22       22 </v>
   <v type="int" >        4       13       13       15       20 </v>
   <v type="int" >        4       14       15       20       20 </v>
   <v type="int" >        4       15       20       20       22 </v>
   <v type="int" >        4       12       13       14       14 </v>
   <v type="int" >        4       13       14       14       20 </v>
   <v type="int" >        2       14       14       20       20 </v>
   <v type="int" >        2       12       12       14       14 </v>
   <v type="int" >        8        4        7       12       12 </v>
   <v type="int" >        4        7       12       12       14 </v>
   <v type="int" >        4        3        6        7       12 </v>
   <v type="int" >        4        6        7       12       13 </v>
   <v type="int" >        4        6        7       15       16 </v>
   <v type="int" >        8        6        7       13       15 </v>
   <v type="int" >        4        6       13       15       21 </v>
   <v type="int" >        4        7       13       14       22 </v>
   <v type="int" >        4        7       13       15       22 </v>
   <v type="int" >        4       13       20       22       24 </v>
   <v type="int" >        4       13       21       22       24 </v>
   <v type="int" >        4       14       20       20       24 </v>
   <v type="int" >        4       14       20       22       24 </v>
   <v type="int" >        4       20       22       24       25 </v>
   <v type="int" >        4       20       24       24       25 </v>
   <v type="int" >        6       22       22       24       24 </v>
   <v type="int" >        4       20       21       22       22 </v>
   <v type="int" >        2       20       20       22       22 </v>
   <v type="int" >        4        7        7       13       14 </v>
   <v type="int" >        4        3        7       13       13 </v>
   <v type="int" >        4       15       21       22       25 </v>
   <v type="int" >        4       21       24       25       26 </v>
   <v type="int" >        4       24       26       26       26 </v>
   <v type="int" >        6       24       24       25       25 </v>
   <v type="int" >        4        4        7       13       15 </v>
   <v type="int" >        4        4       13       14       15 </v>
   <v type="int" >        8        4       12       12       13 </v>
   <v type="int" >        4       25       26       26       26 </v>
   <v type="int" >        2       26       26       26       26 </v>
   <v type="int" >        4        4       12       12       14 </v>
   <v type="int" >        4       12       12       12       14 </v>
   <v type="int" >        8        4       12       12       12 </v>
   <v type="int" >        4        3        4        4       12 </v>
   <v type="int" >        4        4        4       12       12 </v>
   <v type="int" >        4        1        5        8       11 </v>
   <v type="int" >        4        1        2        6       11 </v>
   <v type="int" >        4        2        8       10       13 </v>
   <v type="int" >        4        2        8       11       13 </v>
   <v type="int" >        4        2        3        7       13 </v>
   <v type="int" >        4        2        6        7       13 </v>
   <v type="int" >        4        3       10       12       14 </v>
   <v type="int" >        4        3       10       13       14 </v>
   <v type="int" >        4        3        4        6       13 </v>
   <v type="int" >        4        4        6        7       13 </v>
   <v type="int" >        4        3       10       11       12 </v>
   <v type="int" >        4        3       11       12       13 </v>
   <v type="int" >        4        2        2        3       11 </v>
   <v type="int" >        6        2        2        8        8 </v>
   <v type="int" >        6        1        1        8        8 </v>
   <v type="int" >        4        5        5        5        8 </v>
   <v type="int" >        4        6       11       13       15 </v>
   <v type="int" >        4        6        7        9       15 </v>
   <v type="int" >        4        7       13       15       15 </v>
   <v type="int" >        4        7        7        7       15 </v>
   <v type="int" >        4        7       13       13       14 </v>
   <v type="int" >        4        3        7        7       13 </v>
   <v type="int" >        4        6       10       13       13 </v>
   <v type="int" >        4        2        6       10       10 </v>
   <v type="int" >        4        3        6       10       10 </v>
   <v type="int" >        4        2        2       10       11 </v>
   <v type="int" >        2        2        2       10       10 </v>
   <v type="int" >        4        1        8        8       10 </v>
   <v type="int" >        4        1        2        8       10 </v>
   <v type="int" >        4        2        3        8       10 </v>
   <v type="int" >        4        3        8       10       10 </v>
   <v type="int" >        4        4        7        9       14 </v>
   <v type="int" >        4        7       12       13       15 </v>
   <v type="int" >        4        7       12       14       15 </v>
   <v type="int" >        4        3        7       12       12 </v>
   <v type="int" >        4        3        3       10       13 </v>
   <v type="int" >        4        3        3       12       13 </v>
   <v type="int" >        2        3        3       12       12 </v>
   <v type="int" >        2        3        3       10       10 </v>
   <v type="int" >        4        2       10       10       12 </v>
   <v type="int" >        4        2        3       10       12 </v>
   <v type="int" >        4        3        4       10       12 </v>
   <v type="int" >        4        4       10       12       12 </v>
   <v type="int" >        4        4        4       12       14 </v>
   <v type="int" >        4        3       12       12       12 </v>
   <v type="int" >        4        3        4       12       12 </v>
   <v type="int" >        4        1        5        5        5 </v>
   <v type="int" >        2        5        5        5        5 </v>
  </varray>
  <i name="volumeweight">      0.00032552 </i>
 </kpoints>
 <parameters>
  <separator name="general" >
   <i type="string" name="SYSTEM">Fe BCC</i>
   <i type="logical" name="LCOMPAT"> F  </i>
  </separator>
  <separator name="electronic" >
   <i type="string" name="PREC">accura</i>
   <i name="ENMAX">    400.00000000</i>
   <i name="ENAUG">    511.36800000</i>
   <i name="EDIFF">      0.00000100</i>
   <i type="int" name="IALGO">    38</i>
   <i type="int" name="IWAVPR">    10</i>
   <i type="int" name="NBANDS">    12</i>
   <i name="NELECT">      8.00000000</i>
   <i type="int" name="TURBO">     0</i>
   <i type="int" name="IRESTART">     0</i>
   <i type="int" name="NREBOOT">     0</i>
   <i type="int" name="NMIN">     0</i>
   <i name="EREF">      0.00000000</i>
   <separator name="electronic smearing" >
    <i type="int" name="ISMEAR">    -5</i>
    <i name="SIGMA">      0.20000000</i>
    <i name="KSPACING">      0.50000000</i>
    <i type="logical" name="KGAMMA"> T  </i>
   </separator>
   <separator name="electronic projectors" >
    <i type="logical" name="LREAL"> F  </i>
    <v name="ROPT">      0.00000000</v>
    <i type="int" name="LMAXPAW">  -100</i>
    <i type="int" name="LMAXMIX">     2</i>
    <i type="logical" name="NLSPLINE"> F  </i>
   </separator>
   <separator name="electronic startup" >
    <i type="int" name="ISTART">     0</i>
    <i type="int" name="ICHARG">     2</i>
    <i type="int" name="INIWAV">     1</i>
   </separator>
   <separator name="electronic spin" >
    <i type="int" name="ISPIN">     2</i>
    <i type="logical" name="LNONCOLLINEAR"> F  </i>
    <v name="MAGMOM">      4.00000000</v>
    <i name="NUPDOWN">     -1.00000000</i>
    <i type="logical" name="LSORBIT"> F  </i>
    <v name="SAXIS">      0.00000000      0.00000000      1.00000000</v>
    <i type="logical" name="LSPIRAL"> F  </i>
    <v name="QSPIRAL">      0.00000000      0.00000000      0.00000000</v>
    <i type="logical" name="LZEROZ"> F  </i>
   </separator>
   <separator name="electronic exchange-correlation" >
    <i type="logical" name="LASPH"> F  </i>
    <i type="logical" name="LMETAGGA"> F  </i>
   </separator>
   <separator name="electronic convergence" >
    <i type="int" name="NELM">    60</i>
    <i type="int" name="NELMDL">    -5</i>
    <i type="int" name="NELMIN">     2</i>
    <i name="ENINI">    400.00000000</i>
    <separator name="electronic convergence detail" >
     <i type="logical" name="LDIAG"> T  </i>
     <i type="logical" name="LSUBROT"> F  </i>
     <i name="WEIMIN">      0.00000000</i>
     <i name="EBREAK">      0.00000002</i>
     <i name="DEPER">      0.30000000</i>
     <i type="int" name="NRMM">     4</i>
     <i name="TIME">      0.40000000</i>
    </separator>
   </separator>
   <separator name="electronic mixer" >
    <i name="AMIX">      0.40000000</i>
    <i name="BMIX">      1.00000000</i>
    <i name="AMIN">      0.10000000</i>
    <i name="AMIX_MAG">      1.60000000</i>
    <i name="BMIX_MAG">      1.00000000</i>
    <separator name="electronic mixer details" >
     <i type="int" name="IMIX">     4</i>
     <i type="logical" name="MIXFIRST"> F  </i>
     <i type="int" name="MAXMIX">   -45</i>
     <i name="WC">    100.00000000</i>
     <i type="int" name="INIMIX">     1</i>
     <i type="int" name="MIXPRE">     1</i>
     <i type="int" name="MREMOVE">     5</i>
    </separator>
   </separator>
   <separator name="electronic dipolcorrection" >
    <i type="logical" name="LDIPOL"> F  </i>
    <i type="logical" name="LMONO"> F  </i>
    <i type="int" name="IDIPOL">     0</i>
    <i name="EPSILON">      1.00000000</i>
    <v name="DIPOL">   -100.00000000   -100.00000000   -100.00000000</v>
    <i name="EFIELD">      0.00000000</i>
   </separator>
  </separator>
  <separator name="grids" >
   <i type="int" name="NGX">    20</i>
   <i type="int" name="NGY">    20</i>
   <i type="int" name="NGZ">    20</i>
   <i type="int" name="NGXF">    40</i>
   <i type="int" name="NGYF">    40</i>
   <i type="int" name="NGZF">    40</i>
   <i type="logical" name="ADDGRID"> F  </i>
  </separator>
  <separator name="ionic" >
   <i type="int" name="NSW">     0</i>
   <i type="int" name="IBRION">    -1</i>
   <i type="int" name="ISIF">     2</i>
   <i name="PSTRESS">      0.00000000</i>
   <i name="EDIFFG">      0.00001000</i>
   <i type="int" name="NFREE">     0</i>
   <i name="POTIM">      0.50000000</i>
   <i name="SMASS">     -3.00000000</i>
   <i name="SCALEE">      1.00000000</i>
  </separator>
  <separator name="ionic md" >
   <i name="TEBEG">      0.00010000</i>
   <i name="TEEND">      0.00010000</i>
   <i type="int" name="NBLOCK">     1</i>
   <i type="int" name="KBLOCK">     1</i>
   <i type="int" name="NPACO">   256</i>
   <i name="APACO">     16.00000000</i>
  </separator>
  <separator name="symmetry" >
   <i type="int" name="ISYM">     2</i>
   <i name="SYMPREC">      0.00001000</i>
  </separator>
  <separator name="dos" >
   <i type="logical" name="LORBIT"> F  </i>
   <v name="RWIGS">     -1.00000000</v>
   <i type="int" name="NEDOS">   301</i>
   <i name="EMIN">     10.00000000</i>
   <i name="EMAX">    -10.00000000</i>
   <i name="EFERMI">      0.00000000</i>
  </separator>
  <separator name="writing" >
   <i type="int" name="NWRITE">     2</i>
   <i type="logical" name="LWAVE"> T  </i>
   <i type="logical" name="LCHARG"> T  </i>
   <i type="logical" name="LPARD"> F  </i>
   <i type="logical" name="LVTOT"> F  </i>
   <i type="logical" name="LVHAR"> F  </i>
   <i type="logical" name="LELF"> F  </i>
   <i type="logical" name="LOPTICS"> F  </i>
   <v name="STM">      0.00000000      0.00000000      0.00000000      0.00000000      0.00000000      0.00000000      0.00000000</v>
  </separator>
  <separator name="performance" >
   <i type="int" name="NPAR">     4</i>
   <i type="int" name="NSIM">     4</i>
   <i type="int" name="NBLK">    -1</i>
   <i type="logical" name="LPLANE"> T  </i>
   <i type="logical" name="LSCALAPACK"> F  </i>
   <i type="logical" name="LSCAAWARE"> F  </i>
   <i type="logical" name="LSCALU"> F  </i>
   <i type="logical" name="LASYNC"> F  </i>
   <i type="logical" name="LORBITALREAL"> F  </i>
  </separator>
  <separator name="miscellaneous" >
   <i type="int" name="IDIOT">     3</i>
   <i type="logical" name="LMUSIC"> F  </i>
   <v name="POMASS">     55.84700000</v>
   <v name="DARWINR">      0.00000000</v>
   <v name="DARWINV">      1.00000000</v>
   <i type="logical" name="LCORR"> T  </i>
  </separator>
  <i type="logical" name="GGA_COMPAT"> T  </i>
  <i type="logical" name="LBERRY"> F  </i>
  <i type="int" name="ICORELEVEL">     0</i>
  <i type="logical" name="LDAU"> F  </i>
  <i type="int" name="I_CONSTRAINED_M">     0</i>
  <separator name="electronic exchange-correlation" >
   <i type="string" name="GGA">--</i>
   <i type="int" name="VOSKOWN">     0</i>
   <i type="logical" name="LHFCALC"> F  </i>
   <i type="string" name="PRECFOCK"></i>
   <i type="logical" name="LSYMGRAD"> F  </i>
   <i type="logical" name="LHFONE"> F  </i>
   <i type="logical" name="LRHFCALC"> F  </i>
   <i type="logical" name="LTHOMAS"> F  </i>
   <i type="logical" name="LMODELHF"> F  </i>
   <i name="ENCUT4O">     -1.00000000</i>
   <i type="int" name="EXXOEP">     0</i>
   <i type="int" name="FOURORBIT">     0</i>
   <i name="AEXX">      0.00000000</i>
   <i name="HFALPHA">      0.00000000</i>
   <i name="MCALPHA">      0.00000000</i>
   <i name="ALDAX">      1.00000000</i>
   <i name="AGGAX">      1.00000000</i>
   <i name="ALDAC">      1.00000000</i>
   <i name="AGGAC">      1.00000000</i>
   <i type="int" name="NKREDX">     1</i>
   <i type="int" name="NKREDY">     1</i>
   <i type="int" name="NKREDZ">     1</i>
   <i type="logical" name="SHIFTRED"> F  </i>
   <i type="logical" name="ODDONLY"> F  </i>
   <i type="logical" name="EVENONLY"> F  </i>
   <i type="int" name="LMAXFOCK">     0</i>
   <i type="int" name="NMAXFOCKAE">     0</i>
   <i type="logical" name="LFOCKAEDFT"> F  </i>
   <i name="HFSCREEN">      0.00000000</i>
   <i name="HFSCREENC">      0.00000000</i>
   <i type="int" name="NBANDSGWLOW">     0</i>
  </separator>
  <separator name="vdW DFT" >
   <i type="logical" name="LUSE_VDW"> F  </i>
   <i name="Zab_VDW">     -0.84910000</i>
   <i name="PARAM1">      0.12340000</i>
   <i name="PARAM2">      1.00000000</i>
   <i name="PARAM3">      0.00000000</i>
  </separator>
  <separator name="model GW" >
   <i type="int" name="MODEL_GW">     0</i>
   <i name="MODEL_EPS0">     12.86250000</i>
   <i name="MODEL_ALPHA">      1.00000000</i>
  </separator>
  <separator name="linear response parameters" >
   <i type="logical" name="LEPSILON"> F  </i>
   <i type="logical" name="LRPA"> F  </i>
   <i type="logical" name="LNABLA"> F  </i>
   <i type="logical" name="LVEL"> F  </i>
   <i type="int" name="KINTER">     0</i>
   <i name="CSHIFT">      0.10000000</i>
   <i name="OMEGAMAX">     -1.00000000</i>
   <i name="DEG_THRESHOLD">      0.00200000</i>
  </separator>
  <separator name="orbital magnetization" >
   <i type="logical" name="NUCIND"> F  </i>
   <v name="MAGPOS">      0.00000000      0.00000000      0.00000000</v>
   <i type="logical" name="LNICSALL"> T  </i>
   <i type="logical" name="ORBITALMAG"> F  </i>
   <i type="logical" name="LMAGBLOCH"> F  </i>
   <i type="logical" name="LCHIMAG"> F  </i>
   <i type="logical" name="LGAUGE"> T  </i>
   <i type="int" name="MAGATOM">     0</i>
   <v name="MAGDIPOL">      0.00000000      0.00000000      0.00000000</v>
   <v name="AVECCONST">      0.00000000      0.00000000      0.00000000</v>
  </separator>
  <separator name="response functions" >
   <i type="logical" name="LADDER"> F  </i>
   <i type="logical" name="LFXC"> F  </i>
   <i type="logical" name="LHARTREE"> T  </i>
   <i type="int" name="IBSE">     0</i>
   <v type="int" name="KPOINT">    -1     0     0     0</v>
   <i type="logical" name="LTCTE"> F  </i>
   <i type="logical" name="LTETE"> F  </i>
   <i type="logical" name="LTRIPLET"> F  </i>
   <i type="logical" name="LFXCEPS"> F  </i>
   <i type="logical" name="LFXHEG"> F  </i>
   <i type="int" name="NATURALO">     0</i>
   <i type="logical" name="L2ORDER"> F  </i>
   <i type="logical" name="LUSEW"> F  </i>
   <i name="ENCUTGW">     -2.00000000</i>
   <i name="ENCUTGWSOFT">     -2.00000000</i>
   <i name="ENCUTLF">     -1.00000000</i>
   <i type="int" name="LMAXMP2">    -1</i>
   <i name="SCISSOR">      0.00000000</i>
   <i type="int" name="NOMEGA">     0</i>
   <i type="int" name="NOMEGAR">     0</i>
   <i type="int" name="NBANDSGW">    -1</i>
   <i type="int" name="NBANDSO">    -1</i>
   <i type="int" name="NBANDSV">    -1</i>
   <i type="int" name="NELM">     1</i>
   <i type="int" name="NELMHF">     1</i>
   <i type="int" name="DIM">     3</i>
   <i type="int" name="ANTIRES">     0</i>
   <i name="OMEGAMAX">    -30.00000000</i>
   <i name="OMEGAMIN">    -30.00000000</i>
   <i name="OMEGATL">   -200.00000000</i>
   <i type="int" name="OMEGAGRID">     0</i>
   <i name="CSHIFT">     -0.10000000</i>
   <i type="logical" name="SELFENERGY"> F  </i>
   <i type="logical" name="LSPECTRAL"> F  </i>
   <i type="logical" name="LSPECTRALGW"> F  </i>
   <i type="logical" name="LSINGLES"> F  </i>
   <i type="logical" name="LFERMIGW"> F  </i>
   <i type="logical" name="ODDONLYGW"> F  </i>
   <i type="logical" name="EVENONLYGW"> F  </i>
   <i type="int" name="NKREDLFX">     1</i>
   <i type="int" name="NKREDLFY">     1</i>
   <i type="int" name="NKREDLFZ">     1</i>
   <i type="int" name="MAXMEM">  1800</i>
   <i type="int" name="TELESCOPE">     0</i>
   <i type="int" name="TAUPAR">     1</i>
   <i type="int" name="OMEGAPAR">    -1</i>
   <i name="LAMBDA">      1.00000000</i>
  </separator>
  <separator name="External order field" >
   <i name="OFIELD_KAPPA">      0.00000000</i>
   <v name="OFIELD_K">      0.00000000      0.00000000      0.00000000</v>
   <i name="OFIELD_Q6_NEAR">      0.00000000</i>
   <i name="OFIELD_Q6_FAR">      0.00000000</i>
   <i name="OFIELD_A">      0.00000000</i>
  </separator>
 </parameters>
 <atominfo>
  <atoms>       1 </atoms>
  <types>       1 </types>
  <array name="atoms" >
   <dimension dim="1">ion</dimension>
   <field type="string">element</field>
   <field type="int">atomtype</field>
   <set>
    <rc><c>Fe</c><c>   1</c></rc>
   </set>
  </array>
  <array name="atomtypes" >
   <dimension dim="1">type</dimension>
   <field type="int">atomspertype</field>
   <field type="string">element</field>
   <field>mass</field>
   <field>valence</field>
   <field type="string">pseudopotential</field>
   <set>
    <rc><c>   1</c><c>Fe</c><c>     55.84700000</c><c>      8.00000000</c><c>  PAW_PBE Fe 06Sep2000                  </c></rc>
   </set>
  </array>
 </atominfo>
 <structure name="initialpos" >
  <crystal>
   <varray name="basis" >
    <v>      -1.75000000       1.75000000       1.75000000 </v>
    <v>       1.75000000      -1.75000000       1.75000000 </v>
    <v>       1.75000000       1.75000000      -1.75000000 </v>
   </varray>
   <i name="volume">     21.43750000 </i>
   <varray name="rec_basis" >
    <v>       0.00000000       0.28571429       0.28571429 </v>
    <v>       0.28571429       0.00000000       0.28571429 </v>
    <v>       0.28571429       0.28571429       0.00000000 </v>
   </varray>
  </crystal>
  <varray name="positions" >
   <v>       0.00000000       0.00000000       0.00000000 </v>
  </varray>
 </structure>
 <calculation>
  <scstep>
   <time name="dav">    3.29    2.08</time>
   <time name="total">    3.45    2.18</time>
   <energy>
    <i name="alphaZ">     32.23966227 </i>
    <i name="ewald">   -479.12399650 </i>
    <i name="hartreedc">   -162.69988867 </i>
    <i name="XCdc">      4.51141938 </i>
    <i name="pawpsdc">    552.89180568 </i>
    <i name="pawaedc">   -560.64780826 </i>
    <i name="eentropy">      0.00000000 </i>
    <i name="bandstr">     37.88839765 </i>
    <i name="atom">    594.30652615 </i>
    <i name="e_fr_energy">     19.36611771 </i>
    <i name="e_wo_entrp">     19.36611771 </i>
    <i name="e_0_energy">     19.36611771 </i>
   </energy>
  </scstep>
  <scstep>
   <time name="dav">    3.54    2.27</time>
   <time name="total">    3.64    2.34</time>
   <energy>
    <i name="e_fr_energy">     -6.85623466 </i>
    <i name="e_wo_entrp">     -6.85623466 </i>
    <i name="e_0_energy">     -6.85623466 </i>
   </energy>
  </scstep>
  <scstep>
   <time name="dav">    4.06    2.58</time>
   <time name="total">    4.14    2.63</time>
   <energy>
    <i name="e_fr_energy">     -7.53138003 </i>
    <i name="e_wo_entrp">     -7.53138003 </i>
    <i name="e_0_energy">     -7.53138003 </i>
   </energy>
  </scstep>
  <scstep>
   <time name="dav">    3.78    2.40</time>
   <time name="total">    3.85    2.44</time>
   <energy>
    <i name="e_fr_energy">     -7.53510977 </i>
    <i name="e_wo_entrp">     -7.53510977 </i>
    <i name="e_0_energy">     -7.53510977 </i>
   </energy>
  </scstep>
  <scstep>
   <time name="dav">    3.43    2.10</time>
   <time name="total">    3.56    2.19</time>
   <energy>
    <i name="e_fr_energy">     -7.53514796 </i>
    <i name="e_wo_entrp">     -7.53514796 </i>
    <i name="e_0_energy">     -7.53514796 </i>
   </energy>
  </scstep>
  <scstep>
   <time name="dav">    3.18    1.93</time>
   <time name="total">    3.42    2.08</time>
   <energy>
    <i name="e_fr_energy">     -7.30148192 </i>
    <i name="e_wo_entrp">     -7.30148192 </i>
    <i name="e_0_energy">     -7.30148192 </i>
   </energy>
  </scstep>
  <scstep>
   <time name="dav">    3.95    2.51</time>
   <time name="total">    4.17    2.65</time>
   <energy>
    <i name="e_fr_energy">     -6.80660253 </i>
    <i name="e_wo_entrp">     -6.80660253 </i>
    <i name="e_0_energy">     -6.80660253 </i>
   </energy>
  </scstep>
  <scstep>
   <time name="dav">    4.05    2.50</time>
   <time name="total">    4.28    2.64</time>
   <energy>
    <i name="e_fr_energy">     -6.81012580 </i>
    <i name="e_wo_entrp">     -6.81012580 </i>
    <i name="e_0_energy">     -6.81012580 </i>
   </energy>
  </scstep>
  <scstep>
   <time name="dav">    3.97    2.44</time>
   <time name="total">    4.27    2.63</time>
   <energy>
    <i name="e_fr_energy">     -6.80382292 </i>
    <i name="e_wo_entrp">     -6.80382292 </i>
    <i name="e_0_energy">     -6.80382292 </i>
   </energy>
  </scstep>
  <scstep>
   <time name="dav">    3.73    2.28</time>
   <time name="total">    4.01    2.45</time>
   <energy>
    <i name="e_fr_energy">     -6.80607356 </i>
    <i name="e_wo_entrp">     -6.80607356 </i>
    <i name="e_0_energy">     -6.80607356 </i>
   </energy>
  </scstep>
  <scstep>
   <time name="dav">    4.11    2.57</time>
   <time name="total">    4.37    2.72</time>
   <energy>
    <i name="e_fr_energy">     -6.80680690 </i>
    <i name="e_wo_entrp">     -6.80680690 </i>
    <i name="e_0_energy">     -6.80680690 </i>
   </energy>
  </scstep>
  <scstep>
   <time name="dav">    4.04    2.58</time>
   <time name="total">    4.26    2.72</time>
   <energy>
    <i name="e_fr_energy">     -6.80677513 </i>
    <i name="e_wo_entrp">     -6.80677513 </i>
    <i name="e_0_energy">     -6.80677513 </i>
   </energy>
  </scstep>
  <scstep>
   <time name="dav">    3.68    2.28</time>
   <time name="total">    3.89    2.43</time>
   <energy>
    <i name="e_fr_energy">     -6.80679137 </i>
    <i name="e_wo_entrp">     -6.80679137 </i>
    <i name="e_0_energy">     -6.80679137 </i>
   </energy>
  </scstep>
  <scstep>
   <time name="dav">    3.52    2.15</time>
   <time name="total">    3.76    2.30</time>
   <energy>
    <i name="e_fr_energy">     -6.80678825 </i>
    <i name="e_wo_entrp">     -6.80678825 </i>
    <i name="e_0_energy">     -6.80678825 </i>
   </energy>
  </scstep>
  <scstep>
   <time name="dav">    2.45    1.53</time>
   <time name="total">    2.67    1.67</time>
   <energy>
    <i name="e_fr_energy">     -6.80679649 </i>
    <i name="e_wo_entrp">     -6.80679649 </i>
    <i name="e_0_energy">     -6.80679649 </i>
   </energy>
  </scstep>
  <scstep>
   <time name="dav">    2.36    1.49</time>
   <time name="total">    2.55    1.61</time>
   <energy>
    <i name="alphaZ">     32.23966227 </i>
    <i name="ewald">   -479.12399650 </i>
    <i name="hartreedc">   -146.64356763 </i>
    <i name="XCdc">      3.88547347 </i>
    <i name="pawpsdc">    575.45794473 </i>
    <i name="pawaedc">   -583.88219939 </i>
    <i name="eentropy">      0.00000000 </i>
    <i name="bandstr">     -3.04663987 </i>
    <i name="atom">    594.30652615 </i>
    <i name="e_fr_energy">     -6.80679677 </i>
    <i name="e_wo_entrp">     -6.80679677 </i>
    <i name="e_0_energy">     -6.80679677 </i>
   </energy>
  </scstep>
  <structure>
   <crystal>
    <varray name="basis" >
     <v>      -1.75000000       1.75000000       1.75000000 </v>
     <v>       1.75000000      -1.75000000       1.75000000 </v>
     <v>       1.75000000       1.75000000      -1.75000000 </v>
    </varray>
    <i name="volume">     21.43750000 </i>
    <varray name="rec_basis" >
     <v>       0.00000000       0.28571429       0.28571429 </v>
     <v>       0.28571429       0.00000000       0.28571429 </v>
     <v>       0.28571429       0.28571429       0.00000000 </v>
    </varray>
   </crystal>
   <varray name="positions" >
    <v>       0.00000000       0.00000000       0.00000000 </v>
   </varray>
  </structure>
  <varray name="forces" >
   <v>      -0.00000000       0.00000000      -0.00000000 </v>
  </varray>
  <varray name="stress" >
   <v>    -264.08659449      -0.00000000       0.00000000 </v>
   <v>       0.00000000    -264.08659449      -0.00000000 </v>
   <v>      -0.00000000       0.00000000    -264.08659449 </v>
  </varray>
  <energy>
   <i name="e_fr_energy">     -6.80679677 </i>
   <i name="e_wo_entrp">     -6.80679677 </i>
   <i name="e_0_energy">      0.00000000 </i>
  </energy>
  <time name="totalsc">   60.93   38.23</time>
  <eigenvalues>
   <array>
    <dimension dim="1">band</dimension>
    <dimension dim="2">kpoint</dimension>
    <dimension dim="3">spin</dimension>
    <field>eigene</field>
    <field>occ</field>
    <set>
     <set comment="spin 1">
      <set comment="kpoint 1">
       <r>   -3.5715    1.0000 </r>
       <r>   -1.0018    1.0000 </r>
       <r>   -1.0018    1.0000 </r>
       <r>   -0.7152    1.0000 </r>
       <r>   -0.5436    1.0000 </r>
       <r>   -0.5436    1.0000 </r>
       <r>   15.9047    0.0000 </r>
       <r>   15.9925    0.0000 </r>
       <r>   15.9925    0.0000 </r>
       <r>   20.8657    0.0000 </r>
       <r>   20.9428    0.0000 </r>
       <r>   20.9428    0.0000 </r>
      </set>
      <set comment="kpoint 2">
       <r>   -2.5231    1.0000 </r>
       <r>   -1.1358    1.0000 </r>
       <r>   -1.0217    1.0000 </r>
       <r>   -0.5640    1.0000 </r>
       <r>   -0.5099    1.0000 </r>
       <r>   -0.2995    1.0041 </r>
       <r>   11.1811    0.0000 </r>
       <r>   13.9033    0.0000 </r>
       <r>   14.1711    0.0000 </r>
       <r>   20.0789    0.0000 </r>
       <r>   20.6181    0.0000 </r>
       <r>   22.3092    0.0000 </r>
      </set>
      <set comment="kpoint 3">
       <r>   -1.7989    1.0000 </r>
       <r>   -1.2548    1.0000 </r>
       <r>   -0.5595    1.0000 </r>
       <r>   -0.4875    1.0000 </r>
       <r>   -0.4858    1.0000 </r>
       <r>    0.6714    0.9521 </r>
       <r>    6.9816    0.0000 </r>
       <r>   12.5279    0.0000 </r>
       <r>   13.0292    0.0000 </r>
       <r>   19.1892    0.0000 </r>
       <r>   20.0401    0.0000 </r>
       <r>   24.4972    0.0000 </r>
      </set>
      <set comment="kpoint 4">
       <r>   -1.7642    1.0000 </r>
       <r>   -1.3013    1.0000 </r>
       <r>   -0.4992    1.0000 </r>
       <r>   -0.4771    1.0000 </r>
       <r>   -0.2129    1.0000 </r>
       <r>    2.4875    0.0049 </r>
       <r>    4.1642    0.0000 </r>
       <r>   12.0303    0.0000 </r>
       <r>   12.6378    0.0000 </r>
       <r>   18.8904    0.0000 </r>
       <r>   19.8517    0.0000 </r>
       <r>   26.1021    0.0000 </r>
      </set>
      <set comment="kpoint 5">
       <r>   -3.9640    1.0000 </r>
       <r>   -0.9372    1.0000 </r>
       <r>   -0.9372    1.0000 </r>
       <r>   -0.9085    1.0000 </r>
       <r>   -0.5646    1.0000 </r>
       <r>   -0.5055    1.0000 </r>
       <r>   18.2437    0.0000 </r>
       <r>   18.2437    0.0000 </r>
       <r>   18.5585    0.0000 </r>
       <r>   18.6180    0.0000 </r>
       <r>   20.4419    0.0000 </r>
       <r>   20.4419    0.0000 </r>
      </set>
      <set comment="kpoint 6">
       <r>   -1.6329    1.0000 </r>
       <r>   -1.1953    1.0000 </r>
       <r>   -1.0950    1.0000 </r>
       <r>   -0.5384    1.0000 </r>
       <r>   -0.4699    1.0000 </r>
       <r>    0.6222    0.9497 </r>
       <r>    9.3775    0.0000 </r>
       <r>    9.8136    0.0000 </r>
       <r>   12.5487    0.0000 </r>
       <r>   21.3980    0.0000 </r>
       <r>   22.2923    0.0000 </r>
       <r>   24.1467    0.0000 </r>
      </set>
      <set comment="kpoint 7">
       <r>   -1.5044    1.0000 </r>
       <r>   -1.2575    1.0000 </r>
       <r>   -0.7733    1.0000 </r>
       <r>   -0.4912    1.0000 </r>
       <r>   -0.4177    1.0000 </r>
       <r>    2.5983    0.0310 </r>
       <r>    5.7815    0.0000 </r>
       <r>    8.7693    0.0000 </r>
       <r>   11.7703    0.0000 </r>
       <r>   21.1819    0.0000 </r>
       <r>   23.8258    0.0000 </r>
       <r>   24.4114    0.0000 </r>
      </set>
      <set comment="kpoint 8">
       <r>   -3.1952    1.0000 </r>
       <r>   -1.0230    1.0000 </r>
       <r>   -0.9324    1.0000 </r>
       <r>   -0.6786    1.0000 </r>
       <r>   -0.6387    1.0000 </r>
       <r>   -0.4744    1.0000 </r>
       <r>   13.4522    0.0000 </r>
       <r>   15.9149    0.0000 </r>
       <r>   16.5152    0.0000 </r>
       <r>   18.8044    0.0000 </r>
       <r>   19.3425    0.0000 </r>
       <r>   20.4516    0.0000 </r>
      </set>
      <set comment="kpoint 9">
       <r>   -1.4042    1.0000 </r>
       <r>   -1.0557    1.0000 </r>
       <r>   -1.0557    1.0000 </r>
       <r>   -0.4402    1.0000 </r>
       <r>   -0.4402    1.0000 </r>
       <r>    5.2837   -0.0118 </r>
       <r>    5.2837    0.0000 </r>
       <r>    5.4648    0.0000 </r>
       <r>   11.4179    0.0000 </r>
       <r>   23.1558    0.0000 </r>
       <r>   23.1558    0.0000 </r>
       <r>   24.9697    0.0000 </r>
      </set>
      <set comment="kpoint 10">
       <r>   -2.0935    1.0000 </r>
       <r>   -1.1553    1.0000 </r>
       <r>   -0.7872    1.0000 </r>
       <r>   -0.5449    1.0000 </r>
       <r>   -0.3117    1.0000 </r>
       <r>   -0.3041    1.0293 </r>
       <r>    8.9158    0.0000 </r>
       <r>   14.0683    0.0000 </r>
       <r>   14.9491    0.0000 </r>
       <r>   18.2039    0.0000 </r>
       <r>   18.7731    0.0000 </r>
       <r>   21.3737    0.0000 </r>
      </set>
      <set comment="kpoint 11">
       <r>   -2.2308    1.0000 </r>
       <r>   -1.0608    1.0000 </r>
       <r>   -0.9930    1.0000 </r>
       <r>   -0.6735    1.0000 </r>
       <r>   -0.4411    1.0000 </r>
       <r>   -0.2326    1.0145 </r>
       <r>   11.3826    0.0000 </r>
       <r>   11.6569    0.0000 </r>
       <r>   16.2478    0.0000 </r>
       <r>   17.5830    0.0000 </r>
       <r>   19.2435    0.0000 </r>
       <r>   22.8057    0.0000 </r>
      </set>
      <set comment="kpoint 12">
       <r>   -1.8184    1.0000 </r>
       <r>   -1.2475    1.0000 </r>
       <r>   -0.6062    1.0000 </r>
       <r>   -0.5180    1.0000 </r>
       <r>   -0.0274    1.0000 </r>
       <r>    1.4420    0.6153 </r>
       <r>    5.1326    0.0000 </r>
       <r>   13.0208    0.0000 </r>
       <r>   14.1201    0.0000 </r>
       <r>   17.6521    0.0000 </r>
       <r>   18.6204    0.0000 </r>
       <r>   23.2729    0.0000 </r>
      </set>
      <set comment="kpoint 13">
       <r>   -1.6331    1.0000 </r>
       <r>   -1.1669    1.0000 </r>
       <r>   -0.8903    1.0000 </r>
       <r>   -0.5661    1.0000 </r>
       <r>   -0.2715    1.0000 </r>
       <r>    1.0332    0.7727 </r>
       <r>    7.3214    0.0000 </r>
       <r>   10.2768    0.0000 </r>
       <r>   15.1369    0.0000 </r>
       <r>   17.7584    0.0000 </r>
       <r>   19.9337    0.0000 </r>
       <r>   22.8465    0.0000 </r>
      </set>
      <set comment="kpoint 14">
       <r>   -1.6215    1.0000 </r>
       <r>   -1.1844    1.0000 </r>
       <r>   -0.8303    1.0000 </r>
       <r>   -0.5396    1.0000 </r>
       <r>   -0.1235    1.0000 </r>
       <r>    3.1008   -0.0733 </r>
       <r>    4.3597    0.0000 </r>
       <r>    9.8263    0.0000 </r>
       <r>   14.6922    0.0000 </r>
       <r>   17.7131    0.0000 </r>
       <r>   21.7700    0.0000 </r>
       <r>   21.9893    0.0000 </r>
      </set>
      <set comment="kpoint 15">
       <r>   -1.3671    1.0000 </r>
       <r>   -1.2304    1.0000 </r>
       <r>   -1.0292    1.0000 </r>
       <r>   -0.4526    1.0000 </r>
       <r>   -0.2815    1.0000 </r>
       <r>    3.3393   -0.0377 </r>
       <r>    6.4156    0.0000 </r>
       <r>    6.5505    0.0000 </r>
       <r>   15.0794    0.0000 </r>
       <r>   18.6759    0.0000 </r>
       <r>   19.7260    0.0000 </r>
       <r>   22.2447    0.0000 </r>
      </set>
      <set comment="kpoint 16">
       <r>   -1.2526    1.0000 </r>
       <r>   -1.2526    1.0000 </r>
       <r>   -1.0786    1.0000 </r>
       <r>   -0.4804    1.0000 </r>
       <r>   -0.4804    1.0000 </r>
       <r>    2.3458    0.1027 </r>
       <r>    7.9531    0.0000 </r>
       <r>    8.6688    0.0000 </r>
       <r>    8.6688    0.0000 </r>
       <r>   25.4393    0.0000 </r>
       <r>   26.1511    0.0000 </r>
       <r>   26.1511    0.0000 </r>
      </set>
      <set comment="kpoint 17">
       <r>   -1.2683    1.0000 </r>
       <r>   -1.2629    1.0000 </r>
       <r>   -0.9407    1.0000 </r>
       <r>   -0.4696    1.0000 </r>
       <r>   -0.4686    1.0000 </r>
       <r>    4.8334   -0.0135 </r>
       <r>    5.1125    0.0000 </r>
       <r>    7.8101    0.0000 </r>
       <r>    8.2808    0.0000 </r>
       <r>   25.6084    0.0000 </r>
       <r>   26.5879    0.0000 </r>
       <r>   27.7347    0.0000 </r>
      </set>
      <set comment="kpoint 18">
       <r>   -2.4963    1.0000 </r>
       <r>   -0.8788    1.0000 </r>
       <r>   -0.8562    1.0000 </r>
       <r>   -0.8562    1.0000 </r>
       <r>   -0.6730    1.0000 </r>
       <r>   -0.3221    1.0047 </r>
       <r>   13.6321    0.0000 </r>
       <r>   13.6321    0.0000 </r>
       <r>   14.5877    0.0000 </r>
       <r>   14.9531    0.0000 </r>
       <r>   22.3488    0.0000 </r>
       <r>   22.3488    0.0000 </r>
      </set>
      <set comment="kpoint 19">
       <r>   -1.6696    1.0000 </r>
       <r>   -1.1080    1.0000 </r>
       <r>   -0.8997    1.0000 </r>
       <r>   -0.6654    1.0000 </r>
       <r>   -0.3504    1.0000 </r>
       <r>    0.3402    1.0196 </r>
       <r>    9.5771    0.0000 </r>
       <r>   11.8531    0.0000 </r>
       <r>   13.4901    0.0000 </r>
       <r>   15.7950    0.0000 </r>
       <r>   21.5302    0.0000 </r>
       <r>   22.4534    0.0000 </r>
      </set>
      <set comment="kpoint 20">
       <r>   -1.5650    1.0000 </r>
       <r>   -1.0884    1.0000 </r>
       <r>   -0.9670    1.0000 </r>
       <r>   -0.6057    1.0000 </r>
       <r>   -0.0550    1.0000 </r>
       <r>    2.4169    0.0634 </r>
       <r>    5.7475    0.0000 </r>
       <r>   10.8563    0.0000 </r>
       <r>   12.8565    0.0000 </r>
       <r>   17.9463    0.0000 </r>
       <r>   20.6891    0.0000 </r>
       <r>   20.8750    0.0000 </r>
      </set>
      <set comment="kpoint 21">
       <r>   -1.4041    1.0000 </r>
       <r>   -1.3280    1.0000 </r>
       <r>   -0.8613    1.0000 </r>
       <r>   -0.5196    1.0000 </r>
       <r>   -0.1996    1.0000 </r>
       <r>    2.0827    0.1753 </r>
       <r>    8.1958    0.0000 </r>
       <r>    8.4347    0.0000 </r>
       <r>   14.5532    0.0000 </r>
       <r>   14.9370    0.0000 </r>
       <r>   20.3329    0.0000 </r>
       <r>   21.6028    0.0000 </r>
      </set>
      <set comment="kpoint 22">
       <r>   -1.4513    1.0000 </r>
       <r>   -1.2959    1.0000 </r>
       <r>   -0.9297    1.0000 </r>
       <r>   -0.4129    1.0000 </r>
       <r>   -0.1133    1.0000 </r>
       <r>    4.5873   -0.0271 </r>
       <r>    5.0691    0.0000 </r>
       <r>    7.8600    0.0000 </r>
       <r>   14.3716    0.0000 </r>
       <r>   17.2573    0.0000 </r>
       <r>   17.3259    0.0000 </r>
       <r>   21.1047    0.0000 </r>
      </set>
      <set comment="kpoint 23">
       <r>   -1.4763    1.0000 </r>
       <r>   -1.3518    1.0000 </r>
       <r>   -0.5583    1.0000 </r>
       <r>   -0.5583    1.0000 </r>
       <r>   -0.3408    1.0000 </r>
       <r>    1.6413    0.3609 </r>
       <r>   10.0282    0.0000 </r>
       <r>   10.0282    0.0000 </r>
       <r>   12.1290    0.0000 </r>
       <r>   12.7386    0.0000 </r>
       <r>   20.4465    0.0000 </r>
       <r>   25.4453    0.0000 </r>
      </set>
      <set comment="kpoint 24">
       <r>   -1.5490    1.0000 </r>
       <r>   -1.4944    1.0000 </r>
       <r>   -0.5148    1.0000 </r>
       <r>   -0.4109    1.0000 </r>
       <r>   -0.0932    1.0000 </r>
       <r>    3.9187   -0.0205 </r>
       <r>    6.9962    0.0000 </r>
       <r>    8.9865    0.0000 </r>
       <r>   11.9027    0.0000 </r>
       <r>   13.8983    0.0000 </r>
       <r>   16.7909    0.0000 </r>
       <r>   24.9079    0.0000 </r>
      </set>
      <set comment="kpoint 25">
       <r>   -1.6005    1.0000 </r>
       <r>   -1.6005    1.0000 </r>
       <r>   -0.4727    1.0000 </r>
       <r>   -0.1384    1.0000 </r>
       <r>   -0.1384    1.0000 </r>
       <r>    6.4919    0.0000 </r>
       <r>    6.5198    0.0000 </r>
       <r>    6.5199    0.0000 </r>
       <r>   13.3551    0.0000 </r>
       <r>   13.6865    0.0000 </r>
       <r>   13.6865    0.0000 </r>
       <r>   25.1310    0.0000 </r>
      </set>
      <set comment="kpoint 26">
       <r>   -1.7026    1.0000 </r>
       <r>   -1.6984    1.0000 </r>
       <r>   -0.1518    1.0000 </r>
       <r>   -0.1518    1.0000 </r>
       <r>   -0.1069    1.0000 </r>
       <r>    6.0023    0.0000 </r>
       <r>    7.8932    0.0000 </r>
       <r>    7.8932    0.0000 </r>
       <r>   11.1600    0.0000 </r>
       <r>   11.7535    0.0000 </r>
       <r>   13.3188    0.0000 </r>
       <r>   28.5208    0.0000 </r>
      </set>
     </set>
     <set comment="spin 2">
      <set comment="kpoint 1">
       <r>   -3.5343    1.0000 </r>
       <r>    1.7289    0.0643 </r>
       <r>    1.7289   -0.0023 </r>
       <r>    2.1087    0.0000 </r>
       <r>    2.7499    0.0000 </r>
       <r>    2.7499    0.0000 </r>
       <r>   16.1423    0.0000 </r>
       <r>   16.1423    0.0000 </r>
       <r>   16.7447    0.0000 </r>
       <r>   20.2416    0.0000 </r>
       <r>   21.4363    0.0000 </r>
       <r>   21.4363    0.0000 </r>
      </set>
      <set comment="kpoint 2">
       <r>   -2.3920    1.0000 </r>
       <r>    1.5146    1.0215 </r>
       <r>    1.5792    0.8436 </r>
       <r>    2.5577    0.0000 </r>
       <r>    2.6746    0.0000 </r>
       <r>    2.8094    0.0000 </r>
       <r>   11.7110    0.0000 </r>
       <r>   14.3660    0.0000 </r>
       <r>   14.5152    0.0000 </r>
       <r>   19.9408    0.0000 </r>
       <r>   21.0413    0.0000 </r>
       <r>   22.4982    0.0000 </r>
      </set>
      <set comment="kpoint 3">
       <r>   -0.7944    1.0000 </r>
       <r>    1.3225    1.0024 </r>
       <r>    1.4660    1.0515 </r>
       <r>    2.6943    0.0000 </r>
       <r>    2.8619    0.0000 </r>
       <r>    3.1052    0.0000 </r>
       <r>    7.7954    0.0000 </r>
       <r>   13.0939    0.0000 </r>
       <r>   13.2162    0.0000 </r>
       <r>   19.2094    0.0000 </r>
       <r>   20.4692    0.0000 </r>
       <r>   24.7255    0.0000 </r>
      </set>
      <set comment="kpoint 4">
       <r>    0.0751    1.0000 </r>
       <r>    1.2473    1.0000 </r>
       <r>    1.6590    0.7699 </r>
       <r>    2.7154    0.0000 </r>
       <r>    2.8837    0.0000 </r>
       <r>    3.5452    0.0000 </r>
       <r>    5.6915    0.0000 </r>
       <r>   12.5608    0.0000 </r>
       <r>   12.8140    0.0000 </r>
       <r>   18.9530    0.0000 </r>
       <r>   20.2991    0.0000 </r>
       <r>   25.8124    0.0000 </r>
      </set>
      <set comment="kpoint 5">
       <r>   -3.9328    1.0000 </r>
       <r>    1.8285   -0.0206 </r>
       <r>    1.8285   -0.0046 </r>
       <r>    1.8772    0.0000 </r>
       <r>    2.7192    0.0000 </r>
       <r>    2.8171    0.0000 </r>
       <r>   18.2018    0.0000 </r>
       <r>   18.6467    0.0000 </r>
       <r>   18.6467    0.0000 </r>
       <r>   19.2549    0.0000 </r>
       <r>   20.5304    0.0000 </r>
       <r>   20.5304    0.0000 </r>
      </set>
      <set comment="kpoint 6">
       <r>   -1.0318    1.0000 </r>
       <r>    1.3173    1.0046 </r>
       <r>    1.3539    1.0233 </r>
       <r>    2.7025    0.0000 </r>
       <r>    2.8509    0.0000 </r>
       <r>    3.1777    0.0000 </r>
       <r>   10.0137    0.0000 </r>
       <r>   10.3031    0.0000 </r>
       <r>   12.9443    0.0000 </r>
       <r>   21.2114    0.0000 </r>
       <r>   22.6926    0.0000 </r>
       <r>   24.3256    0.0000 </r>
      </set>
      <set comment="kpoint 7">
       <r>    0.2993    1.0000 </r>
       <r>    1.1867    1.0000 </r>
       <r>    1.2844    1.0121 </r>
       <r>    2.7505    0.0000 </r>
       <r>    2.8761    0.0000 </r>
       <r>    4.1248    0.0000 </r>
       <r>    6.6979    0.0000 </r>
       <r>    9.3245    0.0000 </r>
       <r>   12.1685    0.0000 </r>
       <r>   21.1692    0.0000 </r>
       <r>   23.9841    0.0000 </r>
       <r>   24.5532    0.0000 </r>
      </set>
      <set comment="kpoint 8">
       <r>   -3.1432    1.0000 </r>
       <r>    1.6926    0.2230 </r>
       <r>    1.7770   -0.0762 </r>
       <r>    2.1681    0.0000 </r>
       <r>    2.5702    0.0000 </r>
       <r>    2.8549    0.0000 </r>
       <r>   13.8892    0.0000 </r>
       <r>   16.5122    0.0000 </r>
       <r>   16.6295    0.0000 </r>
       <r>   19.1598    0.0000 </r>
       <r>   19.5021    0.0000 </r>
       <r>   20.4695    0.0000 </r>
      </set>
      <set comment="kpoint 9">
       <r>    0.8864    1.0000 </r>
       <r>    1.1210    1.0000 </r>
       <r>    1.1210    1.0004 </r>
       <r>    2.8260    0.0000 </r>
       <r>    2.8260    0.0000 </r>
       <r>    6.1146    0.0000 </r>
       <r>    6.1146    0.0000 </r>
       <r>    6.4738    0.0000 </r>
       <r>   11.8452    0.0000 </r>
       <r>   22.9845    0.0000 </r>
       <r>   22.9845    0.0000 </r>
       <r>   25.8624    0.0000 </r>
      </set>
      <set comment="kpoint 10">
       <r>   -1.6966    1.0000 </r>
       <r>    1.4874    1.0266 </r>
       <r>    1.6061    0.7900 </r>
       <r>    2.5654    0.0000 </r>
       <r>    2.6508    0.0000 </r>
       <r>    2.8897    0.0000 </r>
       <r>    9.5750    0.0000 </r>
       <r>   14.6640    0.0000 </r>
       <r>   15.0204    0.0000 </r>
       <r>   18.4498    0.0000 </r>
       <r>   19.1091    0.0000 </r>
       <r>   21.5018    0.0000 </r>
      </set>
      <set comment="kpoint 11">
       <r>   -2.0278    1.0000 </r>
       <r>    1.6116    0.8434 </r>
       <r>    1.6329    0.5237 </r>
       <r>    2.4366    0.0000 </r>
       <r>    2.5349    0.0000 </r>
       <r>    2.9239    0.0000 </r>
       <r>   11.9784    0.0000 </r>
       <r>   12.0798    0.0000 </r>
       <r>   16.7180    0.0000 </r>
       <r>   17.5992    0.0000 </r>
       <r>   19.5368    0.0000 </r>
       <r>   22.9105    0.0000 </r>
      </set>
      <set comment="kpoint 12">
       <r>   -0.2266    1.0000 </r>
       <r>    1.3463    1.0000 </r>
       <r>    1.6492    0.6718 </r>
       <r>    2.6367    0.0000 </r>
       <r>    3.0217    0.0000 </r>
       <r>    3.0422    0.0000 </r>
       <r>    6.3044    0.0000 </r>
       <r>   13.5476    0.0000 </r>
       <r>   14.1483    0.0000 </r>
       <r>   17.9581    0.0000 </r>
       <r>   19.0150    0.0000 </r>
       <r>   23.2943    0.0000 </r>
      </set>
      <set comment="kpoint 13">
       <r>   -0.4904    1.0000 </r>
       <r>    1.3749    1.0057 </r>
       <r>    1.5144    0.9723 </r>
       <r>    2.5167    0.0000 </r>
       <r>    2.8529    0.0000 </r>
       <r>    3.2728    0.0000 </r>
       <r>    8.0797    0.0000 </r>
       <r>   10.7895    0.0000 </r>
       <r>   15.4528    0.0000 </r>
       <r>   17.9264    0.0000 </r>
       <r>   20.2024    0.0000 </r>
       <r>   23.0521    0.0000 </r>
      </set>
      <set comment="kpoint 14">
       <r>    0.3497    1.0000 </r>
       <r>    1.3854    1.0000 </r>
       <r>    1.4018    1.0957 </r>
       <r>    2.5733    0.0000 </r>
       <r>    2.9444    0.0000 </r>
       <r>    4.0616    0.0000 </r>
       <r>    5.7674    0.0000 </r>
       <r>   10.3261    0.0000 </r>
       <r>   14.9621    0.0000 </r>
       <r>   17.9708    0.0000 </r>
       <r>   21.6469    0.0000 </r>
       <r>   22.4725    0.0000 </r>
      </set>
[...]
       </set>
       <set comment="band 5">
        <r>  0.0033  0.0002  0.0002  0.0021  0.0805  0.3014  0.1223  0.0805  0.3669 </r>
       </set>
       <set comment="band 6">
        <r>  0.0719  0.0149  0.0149  0.0850  0.1162  0.1130  0.0491  0.1162  0.1474 </r>
       </set>
       <set comment="band 7">
        <r>  0.3418  0.0309  0.0309  0.0310  0.0374  0.0735  0.0030  0.0374  0.0091 </r>
       </set>
       <set comment="band 8">
        <r>  0.0000  0.1149  0.1149  0.0000  0.0987  0.0000  0.0959  0.0987  0.0320 </r>
       </set>
       <set comment="band 9">
        <r>  0.0070  0.1358  0.1358  0.0902  0.0216  0.0369  0.0000  0.0216  0.0001 </r>
       </set>
       <set comment="band 10">
        <r>  0.0000  0.0380  0.0380  0.0000  0.0124  0.0000  0.1438  0.0124  0.0479 </r>
       </set>
       <set comment="band 11">
        <r>  0.0583  0.0241  0.0241  0.0037  0.0238  0.0630  0.0349  0.0238  0.1048 </r>
       </set>
       <set comment="band 12">
        <r>  0.1217  0.0255  0.0255  0.1679  0.0678  0.0446  0.0139  0.0678  0.0418 </r>
       </set>
      </set>
      <set comment="kpoint 16">
       <set comment="band 1">
        <r>  0.1192  0.0368  0.0368  0.0368  0.0943  0.0943  0.0000  0.0943  0.0000 </r>
       </set>
       <set comment="band 2">
        <r>  0.0000  0.0145  0.0022  0.0110  0.0603  0.2954  0.0042  0.3892  0.0304 </r>
       </set>
       <set comment="band 3">
        <r>  0.0000  0.0040  0.0162  0.0075  0.4363  0.2012  0.0304  0.1074  0.0042 </r>
       </set>
       <set comment="band 4">
        <r>  0.0000  0.0000  0.0000  0.0000  0.0029  0.0196  0.0841  0.0251  0.8302 </r>
       </set>
       <set comment="band 5">
        <r>  0.0000  0.0000  0.0000  0.0000  0.0289  0.0122  0.8302  0.0067  0.0841 </r>
       </set>
       <set comment="band 6">
        <r>  0.0640  0.0185  0.0185  0.0185  0.2371  0.2371  0.0000  0.2371  0.0000 </r>
       </set>
       <set comment="band 7">
        <r>  0.4067  0.0533  0.0533  0.0533  0.0000  0.0000  0.0000  0.0000  0.0000 </r>
       </set>
       <set comment="band 8">
        <r>  0.0000  0.1133  0.0167  0.0867  0.0189  0.0979  0.0023  0.1279  0.0178 </r>
       </set>
       <set comment="band 9">
        <r>  0.0000  0.0312  0.1278  0.0578  0.1442  0.0652  0.0178  0.0352  0.0023 </r>
       </set>
       <set comment="band 10">
        <r>  0.0000  0.0000  0.0000  0.0000  0.0000  0.0000  0.0000  0.0000  0.0000 </r>
       </set>
       <set comment="band 11">
        <r>  0.0000  0.0032  0.0057  0.0014  0.1089  0.0270  0.0563  0.0621  0.0120 </r>
       </set>
       <set comment="band 12">
        <r>  0.0000  0.0036  0.0012  0.0055  0.0232  0.1050  0.0120  0.0699  0.0563 </r>
       </set>
      </set>
      <set comment="kpoint 17">
       <set comment="band 1">
        <r>  0.0278  0.0000  0.0000  0.0490  0.0000  0.6111  0.0090  0.0000  0.0270 </r>
       </set>
       <set comment="band 2">
        <r>  0.0000  0.0158  0.0158  0.0000  0.3836  0.0000  0.0000  0.3836  0.0000 </r>
       </set>
       <set comment="band 3">
        <r>  0.0000  0.0482  0.0482  0.0000  0.2925  0.0000  0.0000  0.2925  0.0000 </r>
       </set>
       <set comment="band 4">
        <r>  0.0002  0.0000  0.0000  0.0000  0.0000  0.0561  0.2267  0.0000  0.6802 </r>
       </set>
       <set comment="band 5">
        <r>  0.0000  0.0000  0.0000  0.0000  0.0000  0.0000  0.7239  0.0000  0.2413 </r>
       </set>
       <set comment="band 6">
        <r>  0.0000  0.0945  0.0945  0.0000  0.2112  0.0000  0.0000  0.2112  0.0000 </r>
       </set>
       <set comment="band 7">
        <r>  0.3592  0.0000  0.0000  0.0364  0.0000  0.2469  0.0033  0.0000  0.0099 </r>
       </set>
       <set comment="band 8">
        <r>  0.2185  0.0000  0.0000  0.1932  0.0000  0.1090  0.0027  0.0000  0.0081 </r>
       </set>
       <set comment="band 9">
        <r>  0.0000  0.1079  0.1079  0.0000  0.1357  0.0000  0.0000  0.1357  0.0000 </r>
       </set>
       <set comment="band 10">
        <r>  0.0000  0.0007  0.0007  0.0000  0.0658  0.0000  0.0000  0.0658  0.0000 </r>
       </set>
       <set comment="band 11">
        <r>  0.0177  0.0000  0.0000  0.1453  0.0000  0.0029  0.0603  0.0000  0.1807 </r>
       </set>
       <set comment="band 12">
        <r>  0.0000  0.0315  0.0315  0.0000  0.0171  0.0000  0.0000  0.0171  0.0000 </r>
       </set>
      </set>
      <set comment="kpoint 18">
       <set comment="band 1">
        <r>  0.2975  0.0000  0.0000  0.0617  0.0000  0.0000  0.0039  0.0000  0.0116 </r>
       </set>
       <set comment="band 2">
        <r>  0.0000  0.0040  0.0040  0.0000  0.4486  0.0000  0.0000  0.4486  0.0000 </r>
       </set>
       <set comment="band 3">
        <r>  0.0000  0.0040  0.0040  0.0000  0.4486  0.0000  0.0000  0.4486  0.0000 </r>
       </set>
       <set comment="band 4">
        <r>  0.0000  0.0000  0.0000  0.0000  0.0000  0.9395  0.0000  0.0000  0.0000 </r>
       </set>
       <set comment="band 5">
        <r>  0.0000  0.0000  0.0000  0.0000  0.0000  0.0000  0.6675  0.0000  0.2225 </r>
       </set>
       <set comment="band 6">
        <r>  0.0095  0.0000  0.0000  0.0012  0.0000  0.0000  0.2368  0.0000  0.7104 </r>
       </set>
       <set comment="band 7">
        <r>  0.0000  0.1649  0.1649  0.0000  0.0965  0.0000  0.0000  0.0965  0.0000 </r>
       </set>
       <set comment="band 8">
        <r>  0.0000  0.1649  0.1649  0.0000  0.0965  0.0000  0.0000  0.0965  0.0000 </r>
       </set>
       <set comment="band 9">
        <r>  0.0000  0.0000  0.0000  0.0000  0.0000  0.0000  0.1922  0.0000  0.0641 </r>
       </set>
       <set comment="band 10">
        <r>  0.2055  0.0000  0.0000  0.2737  0.0000  0.0000  0.0002  0.0000  0.0006 </r>
       </set>
       <set comment="band 11">
        <r>  0.0000  0.0905  0.1446  0.0000  0.0214  0.0000  0.0000  0.0342  0.0000 </r>
       </set>
       <set comment="band 12">
        <r>  0.0000  0.1446  0.0905  0.0000  0.0342  0.0000  0.0000  0.0214  0.0000 </r>
       </set>
      </set>
      <set comment="kpoint 19">
       <set comment="band 1">
        <r>  0.2215  0.0044  0.0000  0.0917  0.0195  0.0000  0.0232  0.0000  0.0452 </r>
       </set>
       <set comment="band 2">
        <r>  0.0002  0.0126  0.0000  0.0034  0.3195  0.0000  0.3312  0.0000  0.1627 </r>
       </set>
       <set comment="band 3">
        <r>  0.0000  0.0000  0.0084  0.0000  0.0000  0.2527  0.0000  0.6362  0.0000 </r>
       </set>
       <set comment="band 4">
        <r>  0.0000  0.0055  0.0000  0.0018  0.5242  0.0000  0.3381  0.0000  0.0382 </r>
       </set>
       <set comment="band 5">
        <r>  0.0000  0.0000  0.0028  0.0000  0.0000  0.6936  0.0000  0.2581  0.0000 </r>
       </set>
       <set comment="band 6">
        <r>  0.0352  0.0015  0.0000  0.0096  0.0093  0.0000  0.1851  0.0000  0.6857 </r>
       </set>
       <set comment="band 7">
        <r>  0.1060  0.1869  0.0000  0.0391  0.1342  0.0000  0.0314  0.0000  0.0219 </r>
       </set>
       <set comment="band 8">
        <r>  0.0000  0.0000  0.3599  0.0000  0.0000  0.0036  0.0000  0.1524  0.0000 </r>
       </set>
       <set comment="band 9">
        <r>  0.1210  0.0123  0.0000  0.0907  0.0002  0.0000  0.1494  0.0000  0.0119 </r>
       </set>
       <set comment="band 10">
        <r>  0.0511  0.1564  0.0000  0.0550  0.0400  0.0000  0.0553  0.0000  0.0610 </r>
       </set>
       <set comment="band 11">
        <r>  0.0000  0.0000  0.1284  0.0000  0.0000  0.2167  0.0000  0.0902  0.0000 </r>
       </set>
       <set comment="band 12">
        <r>  0.0704  0.1209  0.0000  0.0126  0.0816  0.0000  0.0497  0.0000  0.0369 </r>
       </set>
      </set>
      <set comment="kpoint 20">
       <set comment="band 1">
        <r>  0.1042  0.0011  0.0000  0.0579  0.1972  0.0000  0.1719  0.0000  0.0574 </r>
       </set>
       <set comment="band 2">
        <r>  0.0001  0.0440  0.0000  0.0306  0.0931  0.0000  0.1382  0.0000  0.3840 </r>
       </set>
       <set comment="band 3">
        <r>  0.0000  0.0000  0.0084  0.0000  0.0000  0.3893  0.0000  0.4918  0.0000 </r>
       </set>
       <set comment="band 4">
        <r>  0.0090  0.0032  0.0000  0.0004  0.4165  0.0000  0.4823  0.0000  0.0029 </r>
       </set>
       <set comment="band 5">
        <r>  0.0000  0.0000  0.0008  0.0000  0.0000  0.5522  0.0000  0.4237  0.0000 </r>
       </set>
       <set comment="band 6">
        <r>  0.0548  0.0333  0.0000  0.0742  0.0755  0.0000  0.0438  0.0000  0.4750 </r>
       </set>
       <set comment="band 7">
        <r>  0.2105  0.1095  0.0000  0.0087  0.2116  0.0000  0.0555  0.0000  0.0334 </r>
       </set>
       <set comment="band 8">
        <r>  0.0000  0.0000  0.3838  0.0000  0.0000  0.0275  0.0000  0.0865  0.0000 </r>
       </set>
       <set comment="band 9">
        <r>  0.1253  0.0362  0.0000  0.0608  0.0004  0.0000  0.1703  0.0000  0.0014 </r>
       </set>
       <set comment="band 10">
        <r>  0.0211  0.1750  0.0000  0.0207  0.0127  0.0000  0.0501  0.0000  0.1145 </r>
       </set>
       <set comment="band 11">
        <r>  0.0002  0.0605  0.0000  0.2048  0.0015  0.0000  0.1009  0.0000  0.0953 </r>
       </set>
       <set comment="band 12">
        <r>  0.0000  0.0000  0.1114  0.0000  0.0000  0.1974  0.0000  0.1465  0.0000 </r>
       </set>
      </set>
      <set comment="kpoint 21">
       <set comment="band 1">
        <r>  0.1091  0.0027  0.0027  0.0902  0.0360  0.0000  0.0607  0.0360  0.1820 </r>
       </set>
       <set comment="band 2">
        <r>  0.0000  0.0088  0.0088  0.0000  0.0828  0.0000  0.4549  0.0828  0.1516 </r>
       </set>
       <set comment="band 3">
        <r>  0.0031  0.0061  0.0061  0.0041  0.2382  0.3099  0.0171  0.2382  0.0512 </r>
       </set>
       <set comment="band 4">
        <r>  0.0000  0.0045  0.0045  0.0000  0.3528  0.0000  0.1561  0.3528  0.0520 </r>
       </set>
       <set comment="band 5">
        <r>  0.0066  0.0001  0.0001  0.0014  0.1041  0.5899  0.0380  0.1041  0.1141 </r>
       </set>
       <set comment="band 6">
        <r>  0.0846  0.0052  0.0052  0.0585  0.0661  0.0462  0.1176  0.0661  0.3528 </r>
       </set>
       <set comment="band 7">
        <r>  0.2093  0.0842  0.0842  0.0345  0.0489  0.0159  0.0037  0.0489  0.0112 </r>
       </set>
       <set comment="band 8">
        <r>  0.0000  0.1347  0.1347  0.0000  0.0646  0.0000  0.0853  0.0646  0.0284 </r>
       </set>
       <set comment="band 9">
        <r>  0.0000  0.0397  0.0397  0.0000  0.0112  0.0000  0.1864  0.0112  0.0621 </r>
       </set>
       <set comment="band 10">
        <r>  0.1338  0.1082  0.1082  0.0708  0.0078  0.0008  0.0129  0.0078  0.0388 </r>
       </set>
       <set comment="band 11">
        <r>  0.0006  0.0318  0.0318  0.1550  0.0118  0.0453  0.0388  0.0118  0.1164 </r>
       </set>
       <set comment="band 12">
        <r>  0.1290  0.0081  0.0081  0.0570  0.0619  0.0966  0.0076  0.0619  0.0228 </r>
       </set>
      </set>
      <set comment="kpoint 22">
       <set comment="band 1">
        <r>  0.0290  0.0114  0.0079  0.0114  0.2019  0.0006  0.4578  0.0006  0.0000 </r>
       </set>
       <set comment="band 2">
        <r>  0.0000  0.0345  0.0000  0.0345  0.0000  0.0216  0.0000  0.0216  0.5676 </r>
       </set>
       <set comment="band 3">
        <r>  0.0188  0.0002  0.0099  0.0002  0.1122  0.3202  0.0783  0.3202  0.0000 </r>
       </set>
       <set comment="band 4">
        <r>  0.0055  0.0019  0.0034  0.0019  0.4564  0.1106  0.2395  0.1106  0.0000 </r>
       </set>
       <set comment="band 5">
        <r>  0.0000  0.0027  0.0000  0.0027  0.0000  0.4297  0.0000  0.4297  0.0992 </r>
       </set>
       <set comment="band 6">
        <r>  0.0000  0.1174  0.0000  0.1174  0.0000  0.0398  0.0000  0.0398  0.2749 </r>
       </set>
       <set comment="band 7">
        <r>  0.2736  0.0364  0.0064  0.0364  0.2144  0.0034  0.0804  0.0034  0.0000 </r>
       </set>
       <set comment="band 8">
        <r>  0.0956  0.0085  0.2325  0.0085  0.0017  0.0512  0.0710  0.0512  0.0000 </r>
       </set>
       <set comment="band 9">
        <r>  0.0671  0.0192  0.1325  0.0192  0.0004  0.0050  0.1674  0.0050  0.0000 </r>
       </set>
       <set comment="band 10">
        <r>  0.0000  0.0375  0.0000  0.0375  0.0000  0.0014  0.0000  0.0014  0.2369 </r>
       </set>
       <set comment="band 11">
        <r>  0.0813  0.1746  0.0266  0.1746  0.0067  0.0016  0.0892  0.0016  0.0000 </r>
       </set>
       <set comment="band 12">
        <r>  0.1322  0.0003  0.0226  0.0003  0.0815  0.1099  0.0000  0.1099  0.0000 </r>
       </set>
      </set>
      <set comment="kpoint 23">
       <set comment="band 1">
        <r>  0.1207  0.0000  0.0000  0.1031  0.0000  0.0000  0.0655  0.0000  0.1965 </r>
       </set>
       <set comment="band 2">
        <r>  0.0000  0.0000  0.0000  0.0000  0.0000  0.0000  0.6111  0.0000  0.2037 </r>
       </set>
       <set comment="band 3">
        <r>  0.0000  0.0084  0.0084  0.0000  0.4448  0.0000  0.0000  0.4448  0.0000 </r>
       </set>
       <set comment="band 4">
        <r>  0.0000  0.0084  0.0084  0.0000  0.4448  0.0000  0.0000  0.4448  0.0000 </r>
       </set>
       <set comment="band 5">
        <r>  0.0000  0.0000  0.0000  0.0000  0.0000  0.9594  0.0000  0.0000  0.0000 </r>
       </set>
       <set comment="band 6">
        <r>  0.1023  0.0000  0.0000  0.0478  0.0000  0.0000  0.1666  0.0000  0.4998 </r>
       </set>
       <set comment="band 7">
        <r>  0.0000  0.1828  0.1828  0.0000  0.0658  0.0000  0.0000  0.0658  0.0000 </r>
       </set>
       <set comment="band 8">
        <r>  0.0000  0.1828  0.1828  0.0000  0.0658  0.0000  0.0000  0.0658  0.0000 </r>
       </set>
       <set comment="band 9">
        <r>  0.3509  0.0000  0.0000  0.1099  0.0000  0.0000  0.0174  0.0000  0.0521 </r>
       </set>
       <set comment="band 10">
        <r>  0.0000  0.0000  0.0000  0.0000  0.0000  0.0000  0.2777  0.0000  0.0926 </r>
       </set>
       <set comment="band 11">
        <r>  0.0666  0.0000  0.0000  0.2100  0.0000  0.0000  0.0483  0.0000  0.1450 </r>
       </set>
       <set comment="band 12">
        <r>  0.0000  0.0000  0.0000  0.0000  0.0000  0.4285  0.0000  0.0000  0.0000 </r>
       </set>
      </set>
      <set comment="kpoint 24">
       <set comment="band 1">
        <r>  0.0227  0.0013  0.0000  0.0511  0.0216  0.0000  0.2084  0.0000  0.3592 </r>
       </set>
       <set comment="band 2">
        <r>  0.0005  0.0105  0.0000  0.0007  0.0260  0.0000  0.4594  0.0000  0.2711 </r>
       </set>
       <set comment="band 3">
        <r>  0.0000  0.0000  0.0137  0.0000  0.0000  0.3192  0.0000  0.5829  0.0000 </r>
       </set>
       <set comment="band 4">
        <r>  0.0124  0.0114  0.0000  0.0021  0.7940  0.0000  0.0849  0.0000  0.0037 </r>
       </set>
       <set comment="band 5">
        <r>  0.0000  0.0000  0.0008  0.0000  0.0000  0.6376  0.0000  0.3355  0.0000 </r>
       </set>
       <set comment="band 6">
        <r>  0.1235  0.0108  0.0000  0.1531  0.0470  0.0000  0.0556  0.0000  0.2280 </r>
       </set>
       <set comment="band 7">
        <r>  0.1131  0.2377  0.0000  0.0045  0.0985  0.0000  0.0255  0.0000  0.0501 </r>
       </set>
       <set comment="band 8">
        <r>  0.0000  0.0000  0.3797  0.0000  0.0000  0.0154  0.0000  0.0750  0.0000 </r>
       </set>
       <set comment="band 9">
        <r>  0.1828  0.0099  0.0000  0.0261  0.0001  0.0000  0.2601  0.0000  0.0002 </r>
       </set>
       <set comment="band 10">
        <r>  0.1030  0.1108  0.0000  0.0129  0.0090  0.0000  0.0471  0.0000  0.1633 </r>
       </set>
       <set comment="band 11">
        <r>  0.1170  0.0134  0.0000  0.1853  0.0036  0.0000  0.0532  0.0000  0.1169 </r>
       </set>
       <set comment="band 12">
        <r>  0.0000  0.0000  0.0801  0.0000  0.0000  0.1970  0.0000  0.1244  0.0000 </r>
       </set>
      </set>
      <set comment="kpoint 25">
       <set comment="band 1">
        <r>  0.0000  0.0030  0.0119  0.0030  0.0068  0.0017  0.7159  0.0017  0.0000 </r>
       </set>
       <set comment="band 2">
        <r>  0.0000  0.0089  0.0000  0.0089  0.0000  0.0051  0.0000  0.0051  0.7159 </r>
       </set>
       <set comment="band 3">
        <r>  0.0122  0.0050  0.0050  0.0050  0.2917  0.2917  0.0000  0.2917  0.0000 </r>
       </set>
       <set comment="band 4">
        <r>  0.0000  0.0031  0.0000  0.0031  0.0000  0.4663  0.0000  0.4663  0.0208 </r>
       </set>
       <set comment="band 5">
        <r>  0.0000  0.0010  0.0042  0.0010  0.6217  0.1554  0.0208  0.1554  0.0000 </r>
       </set>
       <set comment="band 6">
        <r>  0.0000  0.0521  0.2085  0.0521  0.0251  0.0063  0.1404  0.0063  0.0000 </r>
       </set>
       <set comment="band 7">
        <r>  0.0000  0.1564  0.0000  0.1564  0.0000  0.0189  0.0000  0.0189  0.1404 </r>
       </set>
       <set comment="band 8">
        <r>  0.2740  0.0562  0.0562  0.0562  0.0336  0.0336  0.0000  0.0336  0.0000 </r>
       </set>
       <set comment="band 9">
        <r>  0.0000  0.0100  0.0398  0.0100  0.0015  0.0004  0.3207  0.0004  0.0000 </r>
       </set>
       <set comment="band 10">
        <r>  0.0000  0.0299  0.0000  0.0299  0.0000  0.0011  0.0000  0.0011  0.3207 </r>
       </set>
       <set comment="band 11">
        <r>  0.4107  0.0839  0.0839  0.0839  0.0030  0.0030  0.0000  0.0030  0.0000 </r>
       </set>
       <set comment="band 12">
        <r>  0.0319  0.0262  0.0262  0.0262  0.0903  0.0903  0.0000  0.0903  0.0000 </r>
       </set>
      </set>
      <set comment="kpoint 26">
       <set comment="band 1">
        <r>  0.0013  0.0000  0.0000  0.0124  0.0000  0.0000  0.1817  0.0000  0.5452 </r>
       </set>
       <set comment="band 2">
        <r>  0.0000  0.0000  0.0000  0.0000  0.0000  0.0000  0.5747  0.0000  0.1916 </r>
       </set>
       <set comment="band 3">
        <r>  0.0000  0.0034  0.0034  0.0000  0.4752  0.0000  0.0000  0.4752  0.0000 </r>
       </set>
       <set comment="band 4">
        <r>  0.0000  0.0034  0.0034  0.0000  0.4752  0.0000  0.0000  0.4752  0.0000 </r>
       </set>
       <set comment="band 5">
        <r>  0.0000  0.0000  0.0000  0.0000  0.0000  0.9745  0.0000  0.0000  0.0000 </r>
       </set>
       <set comment="band 6">
        <r>  0.0959  0.0000  0.0000  0.2787  0.0000  0.0000  0.0258  0.0000  0.0773 </r>
       </set>
       <set comment="band 7">
        <r>  0.0000  0.1973  0.1973  0.0000  0.0157  0.0000  0.0000  0.0157  0.0000 </r>
       </set>
       <set comment="band 8">
        <r>  0.0000  0.1973  0.1973  0.0000  0.0157  0.0000  0.0000  0.0157  0.0000 </r>
       </set>
       <set comment="band 9">
        <r>  0.4406  0.0000  0.0000  0.0157  0.0000  0.0000  0.0392  0.0000  0.1176 </r>
       </set>
       <set comment="band 10">
        <r>  0.0000  0.0000  0.0000  0.0000  0.0000  0.0000  0.3286  0.0000  0.1095 </r>
       </set>
       <set comment="band 11">
        <r>  0.1852  0.0000  0.0000  0.1051  0.0000  0.0000  0.0542  0.0000  0.1626 </r>
       </set>
       <set comment="band 12">
        <r>  0.0000  0.0000  0.0000  0.0000  0.0000  0.1622  0.0000  0.0000  0.0000 </r>
       </set>
      </set>
     </set>
    </set>
   </array>
  </projected>
 </calculation>
 <structure name="finalpos" >
  <crystal>
   <varray name="basis" >
    <v>      -1.75000000       1.75000000       1.75000000 </v>
    <v>       1.75000000      -1.75000000       1.75000000 </v>
    <v>       1.75000000       1.75000000      -1.75000000 </v>
   </varray>
   <i name="volume">     21.43750000 </i>
   <varray name="rec_basis" >
    <v>       0.00000000       0.28571429       0.28571429 </v>
    <v>       0.28571429       0.00000000       0.28571429 </v>
    <v>       0.28571429       0.28571429       0.00000000 </v>
   </varray>
  </crystal>
  <varray name="positions" >
   <v>       0.00000000       0.00000000       0.00000000 </v>
  </varray>
 </structure>
</modeling>
