Si beta-tin                             
   2.60000000000000     
     1.004457   -0.000000    0.000000
    -0.502229    0.869885    0.000000
     0.000000    0.000000    1.618530
    S
     2
Direct
  0.000000  0.000000  0.000000
  0.333333  0.666667  0.500000
 
   36   36   60
 -4.2645     -3.8857     -2.7937     -1.1162     0.95378      3.1868      5.3525      7.2533      8.7501      9.7736    
  10.324      10.459      10.281      9.9177      9.4992      9.1201      8.8211      8.6299      8.5641      8.6299    
  8.8211      9.1201      9.4992      9.9177      10.281      10.459      10.324      9.7736      8.7501      7.2533    
  5.3525      3.1868     0.95378     -1.1162     -2.7937     -3.8857     -3.8857     -3.8857     -3.1487     -1.7617    
 0.11303      2.2621      4.4535      6.4723      8.1504      9.3850      10.144      10.458      10.410      10.116    
  9.7065      9.3004      8.9574      8.7096      8.5798      8.5798      8.7096      8.9574      9.3004      9.7065    
  10.116      10.410      10.458      10.144      9.3850      8.1504      6.4723      4.4535      2.2621     0.11303    
 -1.7617     -3.1487     -2.7937     -3.1520     -2.7937     -1.7617     -.17957      1.7672      3.8592      5.8776    
  7.6364      9.0057      9.9228      10.391      10.468      10.256      9.8752      9.4531      9.0742      8.7760    
  8.5857      8.5203      8.5857      8.7760      9.0742      9.4531      9.8752      10.256      10.468      10.391    
  9.9228      9.0057      7.6364      5.8776      3.8592      1.7672     -.17958     -1.7617     -1.1162     -1.7712    
 -1.7712     -1.1162     0.11303      1.7672      3.6514      5.5564      7.2904      8.7056      9.7144      10.293    
  10.475      10.342      10.002      9.5769      9.1704      8.8291      8.5835      8.4551      8.4551      8.5835    
  8.8291      9.1704      9.5769      10.002      10.342      10.475      10.293      9.7144      8.7056      7.2904    
  5.5564      3.6514      1.7672     0.11303     0.95378     0.95936E-01 -.20275     0.95938E-01 0.95378      2.2621    
  3.8592      5.5564      7.1683      8.5401      9.5668      10.202      10.456      10.387      10.089      9.6722    
  9.2461      8.8699      8.5758      8.3887      8.3246      8.3887      8.5758      8.8699      9.2461      9.6722    
  10.089      10.387      10.456      10.202      9.5668      8.5401      7.1683      5.5564      3.8592      2.2621    
  3.1868      2.2371      1.7285      1.7285      2.2371      3.1868      4.4535      5.8776      7.2903      8.5401    
  9.5136      10.148      10.433      10.406      10.142      9.7398      9.3028      8.8999      8.5652      8.3258    
  8.2011      8.2011      8.3258      8.5652      8.8999      9.3028      9.7398      10.142      10.406      10.433    
  10.148      9.5136      8.5401      7.2904      5.8776      4.4535      5.3525      4.4216      3.8057      3.5902    
  3.8057      4.4216      5.3525      6.4723      7.6364      8.7056      9.5668      10.148      10.423      10.412    
  10.170      9.7824      9.3418      8.9208      8.5544      8.2705      8.0910      8.0296      8.0910      8.2705    
  8.5544      8.9208      9.3418      9.7824      10.170      10.412      10.423      10.148      9.5668      8.7056    
  7.6364      6.4723      7.2533      6.4351      5.8119      5.4751      5.4750      5.8119      6.4351      7.2533    
  8.1504      9.0057      9.7144      10.202      10.433      10.412      10.179      9.8027      9.3645      8.9340    
  8.5454      8.2263      7.9998      7.8822      7.8822      7.9998      8.2263      8.5454      8.9340      9.3645    
  9.8027      10.179      10.412      10.433      10.202      9.7144      9.0057      8.1504      8.7501      8.1098    
  7.5619      7.1932      7.0632      7.1932      7.5619      8.1098      8.7501      9.3850      9.9228      10.293    
  10.456      10.406      10.170      9.8027      9.3720      8.9404      8.5395      8.1956      7.9317      7.7658    
  7.7091      7.7658      7.9317      8.1956      8.5395      8.9404      9.3720      9.8027      10.170      10.406    
  10.456      10.293      9.9228      9.3850      9.7736      9.3428      8.9260      8.5976      8.4169      8.4169    
  8.5976      8.9260      9.3428      9.7736      10.144      10.391      10.475      10.387      10.142      9.7824    
  9.3645      8.9404      8.5374      8.1799      7.8897      7.6852      7.5796      7.5796      7.6852      7.8897    
  8.1799      8.5374      8.9404      9.3645      9.7824      10.142      10.387      10.475      10.391      10.144    
  10.324      10.101      9.8407      9.6001      9.4314      9.3708      9.4314      9.6001      9.8407      10.101    
  10.324      10.458      10.468      10.342      10.089      9.7398      9.3418      8.9340      8.5395      8.1799    
  7.8755      7.6441      7.4994      7.4502      7.4994      7.6441      7.8755      8.1799      8.5395      8.9340    
  9.3418      9.7398      10.089      10.342      10.468      10.458      10.459      10.415      10.308      10.176    
  10.059      9.9914      9.9914      10.059      10.176      10.308      10.415      10.459      10.410      10.256    
  10.002      9.6722      9.3028      8.9208      8.5454      8.1956      7.8897      7.6441      7.4723      7.3839    
  7.3839      7.4723      7.6441      7.8897      8.1956      8.5454      8.9208      9.3028      9.6722      10.002    
  10.256      10.410      10.281      10.368      10.386      10.357      10.309      10.267      10.251      10.267    
  10.309      10.357      10.386      10.368      10.281      10.116      9.8752      9.5769      9.2461      8.8999    
  8.5544      8.2263      7.9317      7.6852      7.4994      7.3839      7.3447      7.3839      7.4994      7.6852    
  7.9317      8.2263      8.5544      8.8999      9.2461      9.5769      9.8752      10.116      9.9177      10.074    
  10.173      10.223      10.238      10.235      10.229      10.229      10.235      10.238      10.223      10.173    
  10.074      9.9177      9.7065      9.4531      9.1704      8.8699      8.5652      8.2706      7.9998      7.7658    
  7.5796      7.4502      7.3839      7.3839      7.4502      7.5796      7.7658      7.9998      8.2705      8.5652    
  8.8699      9.1704      9.4531      9.7065      9.4992      9.6650      9.7935      9.8828      9.9376      9.9665    
  9.9790      9.9823      9.9790      9.9665      9.9376      9.8828      9.7934      9.6650      9.4992      9.3004    
  9.0742      8.8291      8.5758      8.3258      8.0910      7.8822      7.7091      7.5796      7.4994      7.4723    
  7.4994      7.5796      7.7091      7.8822      8.0910      8.3258      8.5758      8.8291      9.0742      9.3004    
  9.1201      9.2590      9.3715      9.4577      9.5198      9.5606      9.5841      9.5946      9.5946      9.5841    
  9.5606      9.5198      9.4577      9.3715      9.2590      9.1201      8.9574      8.7760      8.5835      8.3887    
  8.2011      8.0296      7.8822      7.7658      7.6852      7.6441      7.6441      7.6852      7.7658      7.8822    
  8.0296      8.2011      8.3887      8.5835      8.7760      8.9574      8.8211      8.9160      8.9926      9.0508    
  9.0925      9.1205      9.1378      9.1470      9.1499      9.1470      9.1378      9.1205      9.0925      9.0508    
  8.9926      8.9160      8.8211      8.7096      8.5857      8.4551      8.3246      8.2011      8.0910      7.9998    
  7.9317      7.8897      7.8755      7.8897      7.9317      7.9998      8.0910      8.2011      8.3246      8.4551    
  8.5857      8.7096      8.6299      8.6682      8.6943      8.7091      8.7151      8.7151      8.7121      8.7087    
  8.7065      8.7065      8.7087      8.7121      8.7151      8.7151      8.7091      8.6943      8.6682      8.6299    
  8.5798      8.5203      8.4551      8.3887      8.3258      8.2706      8.2263      8.1956      8.1799      8.1799    
  8.1956      8.2263      8.2705      8.3258      8.3887      8.4551      8.5203      8.5798      8.5641      8.5384    
  8.5039      8.4632      8.4200      8.3784      8.3420      8.3139      8.2962      8.2902      8.2962      8.3139    
  8.3420      8.3784      8.4200      8.4632      8.5039      8.5384      8.5641      8.5798      8.5857      8.5835    
  8.5758      8.5652      8.5544      8.5454      8.5395      8.5374      8.5395      8.5454      8.5544      8.5652    
  8.5758      8.5835      8.5857      8.5798      8.6299      8.5384      8.4385      8.3346      8.2325      8.1376    
  8.0554      7.9902      7.9451      7.9221      7.9221      7.9451      7.9902      8.0554      8.1376      8.2325    
  8.3346      8.4385      8.5384      8.6299      8.7096      8.7760      8.8291      8.8699      8.8999      8.9208    
  8.9340      8.9404      8.9404      8.9340      8.9208      8.8999      8.8699      8.8291      8.7760      8.7096    
  8.8211      8.6682      8.5039      8.3346      8.1681      8.0122      7.8743      7.7607      7.6762      7.6242    
  7.6067      7.6242      7.6762      7.7607      7.8743      8.0122      8.1681      8.3346      8.5039      8.6682    
  8.8211      8.9574      9.0742      9.1704      9.2461      9.3028      9.3418      9.3645      9.3720      9.3645    
  9.3418      9.3028      9.2461      9.1704      9.0742      8.9574      9.1201      8.9160      8.6943      8.4632    
  8.2325      8.0122      7.8124      7.6416      7.5073      7.4147      7.3675      7.3675      7.4147      7.5073    
  7.6416      7.8124      8.0122      8.2325      8.4632      8.6943      8.9160      9.1201      9.3004      9.4531    
  9.5769      9.6722      9.7398      9.7824      9.8027      9.8027      9.7824      9.7398      9.6722      9.5769    
  9.4531      9.3004      9.4992      9.2590      8.9926      8.7091      8.4200      8.1376      7.8743      7.6416    
  7.4497      7.3066      7.2183      7.1885      7.2183      7.3066      7.4497      7.6416      7.8743      8.1376    
  8.4200      8.7091      8.9926      9.2590      9.4992      9.7065      9.8752      10.002      10.089      10.142    
  10.170      10.179      10.170      10.142      10.089      10.002      9.8752      9.7065      9.9177      9.6650    
  9.3715      9.0508      8.7151      8.3784      8.0554      7.7607      7.5073      7.3066      7.1676      7.0966    
  7.0966      7.1676      7.3066      7.5073      7.7607      8.0554      8.3784      8.7151      9.0508      9.3715    
  9.6650      9.9177      10.116      10.256      10.342      10.387      10.406      10.412      10.412      10.406    
  10.387      10.342      10.256      10.116      10.281      10.074      9.7934      9.4577      9.0925      8.7151    
  8.3420      7.9902      7.6762      7.4147      7.2183      7.0966      7.0553      7.0966      7.2183      7.4147    
  7.6762      7.9902      8.3420      8.7151      9.0925      9.4577      9.7934      10.074      10.281      10.410    
  10.468      10.475      10.456      10.433      10.423      10.433      10.456      10.475      10.468      10.410    
  10.459      10.368      10.173      9.8828      9.5198      9.1205      8.7121      8.3139      7.9451      7.6242    
  7.3675      7.1885      7.0966      7.0966      7.1885      7.3675      7.6242      7.9451      8.3139      8.7121    
  9.1205      9.5198      9.8828      10.173      10.368      10.459      10.458      10.391      10.293      10.202    
  10.148      10.148      10.202      10.293      10.391      10.458      10.324      10.415      10.386      10.223    
  9.9376      9.5606      9.1378      8.7087      8.2962      7.9221      7.6066      7.3675      7.2183      7.1676    
  7.2183      7.3675      7.6067      7.9221      8.2962      8.7087      9.1378      9.5606      9.9376      10.223    
  10.386      10.415      10.324      10.144      9.9228      9.7144      9.5668      9.5136      9.5668      9.7144    
  9.9228      10.144      9.7736      10.101      10.308      10.357      10.238      9.9665      9.5841      9.1470    
  8.7065      8.2902      7.9221      7.6242      7.4147      7.3066      7.3066      7.4147      7.6242      7.9221    
  8.2902      8.7065      9.1470      9.5841      9.9665      10.238      10.357      10.308      10.101      9.7736    
  9.3850      9.0057      8.7056      8.5401      8.5401      8.7056      9.0057      9.3850      8.7501      9.3428    
  9.8407      10.176      10.309      10.235      9.9790      9.5946      9.1499      8.7065      8.2962      7.9451    
  7.6762      7.5073      7.4497      7.5073      7.6762      7.9451      8.2962      8.7065      9.1499      9.5946    
  9.9790      10.235      10.309      10.176      9.8407      9.3428      8.7501      8.1504      7.6364      7.2903    
  7.1683      7.2904      7.6364      8.1504      7.2533      8.1098      8.9260      9.6001      10.059      10.267    
  10.229      9.9823      9.5946      9.1470      8.7087      8.3139      7.9902      7.7607      7.6416      7.6416    
  7.7607      7.9902      8.3139      8.7087      9.1470      9.5946      9.9823      10.229      10.267      10.059    
  9.6001      8.9260      8.1098      7.2533      6.4723      5.8776      5.5564      5.5564      5.8776      6.4723    
  5.3525      6.4351      7.5619      8.5976      9.4314      9.9914      10.251      10.229      9.9790      9.5841    
  9.1378      8.7121      8.3420      8.0554      7.8743      7.8124      7.8743      8.0554      8.3420      8.7121    
  9.1378      9.5841      9.9790      10.229      10.251      9.9914      9.4314      8.5976      7.5619      6.4351    
  5.3525      4.4535      3.8592      3.6514      3.8592      4.4535      3.1868      4.4216      5.8119      7.1932    
  8.4169      9.3708      9.9914      10.267      10.235      9.9665      9.5606      9.1205      8.7151      8.3784    
  8.1376      8.0122      8.0122      8.1376      8.3784      8.7151      9.1205      9.5606      9.9665      10.235    
  10.267      9.9914      9.3708      8.4169      7.1932      5.8119      4.4216      3.1868      2.2621      1.7672    
  1.7672      2.2621     0.95378      2.2371      3.8057      5.4750      7.0632      8.4169      9.4314      10.059    
  10.309      10.238      9.9376      9.5198      9.0925      8.7151      8.4200      8.2325      8.1681      8.2325    
  8.4200      8.7151      9.0925      9.5198      9.9376      10.238      10.309      10.059      9.4314      8.4169    
  7.0632      5.4750      3.8057      2.2371     0.95378     0.11303     -.17957     0.11303     -1.1162     0.95935E-01
  1.7285      3.5902      5.4750      7.1932      8.5976      9.6001      10.176      10.357      10.223      9.8828    
  9.4577      9.0508      8.7091      8.4632      8.3346      8.3346      8.4632      8.7091      9.0508      9.4577    
  9.8828      10.223      10.357      10.176      9.6001      8.5976      7.1932      5.4751      3.5902      1.7285    
 0.95938E-01 -1.1162     -1.7617     -1.7617     -2.7937     -1.7712     -.20275      1.7285      3.8057      5.8119    
  7.5619      8.9260      9.8407      10.308      10.386      10.173      9.7934      9.3715      8.9926      8.6943    
  8.5039      8.4385      8.5039      8.6943      8.9926      9.3715      9.7935      10.173      10.386      10.308    
  9.8407      8.9260      7.5619      5.8119      3.8057      1.7285     -.20275     -1.7712     -2.7937     -3.1487    
 -3.8857     -3.1520     -1.7712     0.95935E-01  2.2371      4.4216      6.4351      8.1098      9.3428      10.101    
  10.415      10.368      10.074      9.6650      9.2590      8.9160      8.6682      8.5384      8.5384      8.6682    
  8.9160      9.2590      9.6650      10.074      10.368      10.415      10.101      9.3428      8.1098      6.4351    
  4.4216      2.2371     0.95936E-01 -1.7712     -3.1520     -3.8857     -3.8951     -3.5239     -2.4543     -.81191    
  1.2134      3.3961      5.5102      7.3622      8.8157      9.8036      10.326      10.443      10.254      9.8843    
  9.4645      9.0854      8.7865      8.5955      8.5299      8.5955      8.7865      9.0854      9.4645      9.8843    
  10.254      10.443      10.326      9.8036      8.8157      7.3622      5.5102      3.3961      1.2134     -.81191    
 -2.4543     -3.5239     -3.5239     -3.5239     -2.8021     -1.4442     0.39019      2.4914      4.6317      6.6002    
  8.2324      9.4279      10.156      10.447      10.384      10.082      9.6697      9.2634      8.9205      8.6730    
  8.5433      8.5433      8.6730      8.9205      9.2634      9.6697      10.082      10.384      10.447      10.156    
  9.4279      8.2324      6.6002      4.6317      2.4914     0.39019     -1.4442     -2.8021     -2.4543     -2.8051    
 -2.4543     -1.4442     0.10363      2.0070      4.0505      6.0195      7.7317      9.0600      9.9434      10.386    
  10.446      10.222      9.8371      9.4141      9.0353      8.7374      8.5473      8.4820      8.5473      8.7374    
  9.0353      9.4141      9.8371      10.222      10.446      10.386      9.9434      9.0600      7.7317      6.0195    
  4.0505      2.0070     0.10363     -1.4442     -.81191     -1.4526     -1.4526     -.81191     0.39020      2.0070    
  3.8473      5.7057      7.3941      8.7681      9.7421      10.293      10.456      10.310      9.9631      9.5363    
  9.1298      8.7888      8.5436      8.4154      8.4154      8.5436      8.7888      9.1298      9.5363      9.9631    
  10.310      10.456      10.293      9.7421      8.7681      7.3941      5.7057      3.8473      2.0070     0.39019    
  1.2134     0.37500     0.83043E-01 0.37500      1.2134      2.4914      4.0505      5.7057      7.2750      8.6071    
  9.5991      10.206      10.439      10.356      10.050      9.6304      9.2042      8.8282      8.5346      8.3479    
  8.2839      8.3479      8.5346      8.8282      9.2042      9.6304      10.050      10.356      10.439      10.206    
  9.5991      8.6071      7.2750      5.7057      4.0505      2.4914      3.3961      2.4692      1.9726      1.9726    
  2.4692      3.3961      4.6317      6.0195      7.3941      8.6070      9.5475      10.154      10.418      10.376    
  10.104      9.6974      9.2598      8.8572      8.5231      8.2842      8.1597      8.1597      8.2842      8.5231    
  8.8572      9.2598      9.6974      10.104      10.376      10.418      10.154      9.5475      8.6071      7.3941    
  6.0195      4.6317      5.5102      4.6033      4.0029      3.7928      4.0028      4.6033      5.5102      6.6002    
  7.7317      8.7681      9.5991      10.154      10.409      10.383      10.132      9.7395      9.2980      8.8774    
  8.5116      8.2283      8.0493      7.9880      8.0493      8.2283      8.5116      8.8774      9.2980      9.7395    
  10.132      10.383      10.409      10.154      9.5991      8.7681      7.7317      6.6002      7.3622      6.5671    
  5.9609      5.6331      5.6331      5.9609      6.5671      7.3622      8.2324      9.0600      9.7421      10.206    
  10.418      10.383      10.141      9.7597      9.3204      8.8901      8.5021      8.1838      7.9579      7.8407    
  7.8407      7.9579      8.1838      8.5021      8.8901      9.3204      9.7597      10.141      10.383      10.418    
  10.206      9.7421      9.0600      8.2324      8.8157      8.1963      7.6652      7.3074      7.1813      7.3074    
  7.6652      8.1963      8.8157      9.4279      9.9434      10.293      10.439      10.376      10.132      9.7597    
  9.3277      8.8962      8.4959      8.1528      7.8897      7.7244      7.6679      7.7244      7.8897      8.1528    
  8.4959      8.8962      9.3277      9.7597      10.132      10.376      10.439      10.293      9.9434      9.4279    
  9.8036      9.3903      8.9889      8.6719      8.4972      8.4972      8.6718      8.9889      9.3903      9.8036    
  10.156      10.386      10.456      10.356      10.104      9.7395      9.3204      8.8962      8.4938      8.1370    
  7.8477      7.6440      7.5387      7.5387      7.6440      7.8477      8.1370      8.4938      8.8962      9.3204    
  9.7395      10.104      10.356      10.456      10.386      10.156      10.326      10.118      9.8703      9.6403    
  9.4785      9.4203      9.4785      9.6403      9.8703      10.118      10.326      10.447      10.446      10.310    
  10.050      9.6974      9.2980      8.8901      8.4959      8.1370      7.8335      7.6029      7.4588      7.4098    
  7.4588      7.6029      7.8335      8.1370      8.4959      8.8901      9.2980      9.6974      10.050      10.310    
  10.446      10.447      10.443      10.409      10.312      10.189      10.079      10.015      10.015      10.079    
  10.189      10.312      10.409      10.443      10.384      10.222      9.9631      9.6304      9.2598      8.8774    
  8.5021      8.1528      7.8477      7.6029      7.4318      7.3438      7.3438      7.4318      7.6029      7.8477    
  8.1528      8.5021      8.8774      9.2598      9.6304      9.9631      10.222      10.384      10.254      10.347    
  10.372      10.351      10.308      10.271      10.256      10.271      10.308      10.351      10.372      10.347    
  10.254      10.082      9.8371      9.5363      9.2042      8.8572      8.5116      8.1838      7.8897      7.6440    
  7.4588      7.3438      7.3047      7.3438      7.4588      7.6440      7.8897      8.1838      8.5116      8.8572    
  9.2042      9.5363      9.8371      10.082      9.8843      10.045      10.150      10.204      10.224      10.224    
  10.220      10.220      10.224      10.224      10.204      10.150      10.045      9.8843      9.6697      9.4141    
  9.1298      8.8282      8.5231      8.2283      7.9579      7.7243      7.5387      7.4098      7.3438      7.3438    
  7.4098      7.5387      7.7244      7.9579      8.2283      8.5231      8.8282      9.1298      9.4141      9.6697    
  9.4645      9.6329      9.7647      9.8576      9.9159      9.9477      9.9622      9.9661      9.9622      9.9477    
  9.9159      9.8576      9.7646      9.6329      9.4645      9.2634      9.0353      8.7888      8.5346      8.2842    
  8.0493      7.8407      7.6679      7.5387      7.4588      7.4318      7.4588      7.5387      7.6679      7.8407    
  8.0493      8.2842      8.5346      8.7888      9.0353      9.2634      9.0854      9.2267      9.3418      9.4306    
  9.4953      9.5383      9.5636      9.5750      9.5750      9.5636      9.5383      9.4953      9.4306      9.3418    
  9.2267      9.0854      8.9205      8.7374      8.5436      8.3479      8.1597      7.9880      7.8407      7.7243    
  7.6440      7.6029      7.6029      7.6440      7.7244      7.8407      7.9880      8.1597      8.3479      8.5436    
  8.7374      8.9205      8.7865      8.8839      8.9629      9.0237      9.0678      9.0980      9.1169      9.1272    
  9.1305      9.1272      9.1169      9.0980      9.0678      9.0237      8.9629      8.8839      8.7865      8.6730    
  8.5473      8.4154      8.2839      8.1597      8.0493      7.9579      7.8897      7.8477      7.8335      7.8477    
  7.8897      7.9579      8.0493      8.1597      8.2839      8.4154      8.5473      8.6730      8.5955      8.6363    
  8.6650      8.6824      8.6908      8.6931      8.6920      8.6899      8.6884      8.6884      8.6899      8.6920    
  8.6931      8.6908      8.6824      8.6650      8.6363      8.5955      8.5433      8.4820      8.4154      8.3479    
  8.2842      8.2283      8.1838      8.1528      8.1370      8.1370      8.1528      8.1838      8.2283      8.2842    
  8.3479      8.4154      8.4820      8.5433      8.5299      8.5067      8.4748      8.4369      8.3963      8.3571    
  8.3228      8.2962      8.2796      8.2739      8.2796      8.2962      8.3228      8.3571      8.3963      8.4369    
  8.4748      8.5067      8.5299      8.5433      8.5473      8.5436      8.5346      8.5231      8.5116      8.5021    
  8.4959      8.4938      8.4959      8.5021      8.5116      8.5231      8.5346      8.5436      8.5473      8.5433    
  8.5955      8.5067      8.4095      8.3085      8.2091      8.1169      8.0371      7.9737      7.9299      7.9075    
  7.9075      7.9299      7.9737      8.0371      8.1169      8.2091      8.3085      8.4095      8.5067      8.5955    
  8.6730      8.7374      8.7888      8.8282      8.8572      8.8774      8.8901      8.8962      8.8962      8.8901    
  8.8774      8.8572      8.8282      8.7888      8.7374      8.6730      8.7865      8.6363      8.4748      8.3085    
  8.1450      7.9919      7.8565      7.7450      7.6621      7.6112      7.5940      7.6112      7.6621      7.7450    
  7.8565      7.9919      8.1450      8.3085      8.4748      8.6363      8.7865      8.9205      9.0353      9.1298    
  9.2042      9.2598      9.2980      9.3204      9.3277      9.3204      9.2980      9.2598      9.2042      9.1298    
  9.0353      8.9205      9.0854      8.8839      8.6650      8.4369      8.2091      7.9919      7.7948      7.6265    
  7.4940      7.4028      7.3563      7.3563      7.4028      7.4940      7.6265      7.7948      7.9919      8.2091    
  8.4369      8.6650      8.8839      9.0854      9.2634      9.4141      9.5363      9.6304      9.6974      9.7395    
  9.7597      9.7597      9.7395      9.6974      9.6304      9.5363      9.4141      9.2634      9.4645      9.2267    
  8.9629      8.6824      8.3963      8.1169      7.8565      7.6265      7.4367      7.2953      7.2081      7.1786    
  7.2081      7.2953      7.4367      7.6265      7.8565      8.1169      8.3963      8.6824      8.9629      9.2267    
  9.4645      9.6697      9.8371      9.9631      10.050      10.104      10.132      10.141      10.132      10.104    
  10.050      9.9631      9.8371      9.6697      9.8843      9.6329      9.3418      9.0237      8.6908      8.3571    
  8.0371      7.7450      7.4940      7.2953      7.1577      7.0873      7.0873      7.1577      7.2953      7.4940    
  7.7450      8.0371      8.3571      8.6908      9.0237      9.3418      9.6329      9.8843      10.082      10.222    
  10.310      10.356      10.376      10.383      10.383      10.376      10.356      10.310      10.222      10.082    
  10.254      10.045      9.7647      9.4306      9.0678      8.6931      8.3228      7.9737      7.6621      7.4028    
  7.2081      7.0873      7.0464      7.0873      7.2081      7.4028      7.6621      7.9737      8.3228      8.6931    
  9.0678      9.4306      9.7646      10.045      10.254      10.384      10.446      10.456      10.439      10.418    
  10.409      10.418      10.439      10.456      10.446      10.384      10.443      10.347      10.150      9.8576    
  9.4953      9.0980      8.6920      8.2962      7.9299      7.6112      7.3563      7.1786      7.0873      7.0873    
  7.1786      7.3563      7.6112      7.9299      8.2962      8.6920      9.0980      9.4953      9.8576      10.150    
  10.347      10.443      10.447      10.386      10.293      10.206      10.154      10.154      10.206      10.293    
  10.386      10.447      10.326      10.409      10.372      10.204      9.9159      9.5383      9.1169      8.6899    
  8.2796      7.9075      7.5940      7.3563      7.2081      7.1577      7.2081      7.3563      7.5940      7.9075    
  8.2796      8.6899      9.1169      9.5383      9.9159      10.204      10.372      10.409      10.326      10.156    
  9.9434      9.7421      9.5991      9.5475      9.5991      9.7421      9.9434      10.156      9.8036      10.118    
  10.312      10.351      10.224      9.9477      9.5636      9.1272      8.6884      8.2739      7.9075      7.6112    
  7.4028      7.2953      7.2953      7.4028      7.6112      7.9075      8.2739      8.6884      9.1272      9.5636    
  9.9477      10.224      10.351      10.312      10.118      9.8036      9.4279      9.0600      8.7681      8.6070    
  8.6071      8.7681      9.0600      9.4279      8.8157      9.3903      9.8703      10.189      10.308      10.224    
  9.9622      9.5750      9.1305      8.6884      8.2796      7.9299      7.6621      7.4940      7.4367      7.4940    
  7.6621      7.9299      8.2796      8.6884      9.1305      9.5750      9.9622      10.224      10.308      10.189    
  9.8703      9.3903      8.8157      8.2324      7.7317      7.3941      7.2750      7.3941      7.7317      8.2324    
  7.3622      8.1963      8.9889      9.6403      10.079      10.271      10.220      9.9661      9.5750      9.1272    
  8.6899      8.2962      7.9737      7.7450      7.6265      7.6265      7.7450      7.9737      8.2962      8.6899    
  9.1272      9.5750      9.9661      10.220      10.271      10.079      9.6403      8.9889      8.1963      7.3622    
  6.6002      6.0195      5.7057      5.7057      6.0195      6.6002      5.5102      6.5671      7.6652      8.6719    
  9.4785      10.015      10.256      10.220      9.9622      9.5636      9.1169      8.6920      8.3228      8.0371    
  7.8565      7.7948      7.8565      8.0371      8.3228      8.6920      9.1169      9.5636      9.9622      10.220    
  10.256      10.015      9.4785      8.6718      7.6652      6.5671      5.5102      4.6317      4.0505      3.8473    
  4.0505      4.6317      3.3961      4.6033      5.9609      7.3074      8.4972      9.4203      10.015      10.271    
  10.224      9.9477      9.5383      9.0980      8.6931      8.3571      8.1169      7.9919      7.9919      8.1169    
  8.3571      8.6931      9.0980      9.5383      9.9477      10.224      10.271      10.015      9.4203      8.4972    
  7.3074      5.9609      4.6033      3.3961      2.4914      2.0070      2.0070      2.4914      1.2134      2.4692    