Si beta-tin                             
   2.60000000000000     
     1.009069   -0.000000    0.000000
    -0.504534    0.873879    0.000000
     0.000000    0.000000    1.603769
    S
     2
Direct
 -0.000000  0.000000 -0.000000
  0.333333  0.666667  0.500000
 
   36   36   60
 -.42644593109E+01 -.38794956045E+01 -.27710723530E+01 -.10721201336E+01 0.10173184949E+01
 0.32608282827E+01 0.54227510796E+01 0.73034838471E+01 0.87648668984E+01 0.97415063745E+01
 0.10238871747E+02 0.10321982766E+02 0.10098626701E+02 0.96998216194E+01 0.92585217353E+01
 0.88630246729E+01 0.85521819739E+01 0.83539714120E+01 0.82859168013E+01 0.83539714204E+01
 0.85521819798E+01 0.88630246613E+01 0.92585216978E+01 0.96998215618E+01 0.10098626646E+02
 0.10321982742E+02 0.10238871780E+02 0.97415064744E+01 0.87648670510E+01 0.73034840187E+01
 0.54227512292E+01 0.32608283773E+01 0.10173185227E+01 -.10721201595E+01 -.27710724012E+01
 -.38794956399E+01 -.38794956399E+01 -.38794954608E+01 -.31319271950E+01 -.17273643933E+01
 0.16605096362E+00 0.23280088895E+01 0.45206343098E+01 0.65254200012E+01 0.81739335391E+01
 0.93659924111E+01 0.10073834476E+02 0.10334973037E+02 0.10237842428E+02 0.99035369409E+01
 0.94658162131E+01 0.90412417674E+01 0.86843296210E+01 0.84273030861E+01 0.82929241666E+01
 0.82929241514E+01 0.84273030319E+01 0.86843295085E+01 0.90412415837E+01 0.94658159684E+01
 0.99035366731E+01 0.10237842191E+02 0.10334972879E+02 0.10073834405E+02 0.93659923894E+01
 0.81739334841E+01 0.65254198176E+01 0.45206339308E+01 0.23280083136E+01 0.16605026888E+00
 -.17273650659E+01 -.31319276842E+01 -.27710724012E+01 -.31339017490E+01 -.27710718478E+01
 -.17273640904E+01 -.13058281310E+00 0.18277481736E+01 0.39224785948E+01 0.59305121654E+01
 0.76641957705E+01 0.89950053460E+01 0.98638931811E+01 0.10279228334E+02 0.10305886484E+02
 0.10049108669E+02 0.96356615775E+01 0.91923664832E+01 0.87978233044E+01 0.84885220963E+01
 0.82915857461E+01 0.82240143685E+01 0.82915856850E+01 0.84885219669E+01 0.87978231031E+01
 0.91923662242E+01 0.96356612991E+01 0.10049108425E+02 0.10305886318E+02 0.10279228253E+02
 0.98638931337E+01 0.89950052284E+01 0.76641954570E+01 0.59305115589E+01 0.39224776766E+01
 0.18277470321E+01 -.13058399088E+00 -.17273650659E+01 -.10721201595E+01 -.17328955426E+01
 -.17328952316E+01 -.10721192985E+01 0.16605148555E+00 0.18277483469E+01 0.37130833940E+01
 0.56083862243E+01 0.73195903961E+01 0.86993168218E+01 0.96625406359E+01 0.10189883988E+02
 0.10320930251E+02 0.10141009291E+02 0.97642575083E+01 0.93148918450E+01 0.88913781220E+01
 0.85375116482E+01 0.82836135014E+01 0.81511318973E+01 0.81511318704E+01 0.82836134232E+01
 0.85375115286E+01 0.88913779840E+01 0.93148917265E+01 0.97642574534E+01 0.10141009331E+02
 0.10320930381E+02 0.10189884149E+02 0.96625407170E+01 0.86993166866E+01 0.73195899278E+01
 0.56083853768E+01 0.37130822276E+01 0.18277470321E+01 0.16605026888E+00 0.10173185227E+01
 0.15606857237E+00 -.14412190657E+00 0.15606906737E+00 0.10173193868E+01 0.23280093347E+01
 0.39224786212E+01 0.56083860574E+01 0.71978660238E+01 0.85356980026E+01 0.95187340419E+01
 0.10104067454E+02 0.10306883177E+02 0.10190778793E+02 0.98533623482E+01 0.94092585944E+01
 0.89651842134E+01 0.85751853747E+01 0.82714551747E+01 0.80788093993E+01 0.80128274543E+01
 0.80788094105E+01 0.82714551964E+01 0.85751854117E+01 0.89651842832E+01 0.94092587272E+01
 0.98533625760E+01 0.10190779128E+02 0.10306883591E+02 0.10104067864E+02 0.95187343270E+01
 0.85356980307E+01 0.71978657023E+01 0.56083853768E+01 0.39224776766E+01 0.23280083136E+01
 0.32608283773E+01 0.23134872396E+01 0.18052172376E+01 0.18052173720E+01 0.23134875900E+01
 0.32608288057E+01 0.45206342673E+01 0.59305116653E+01 0.73195897458E+01 0.85356975967E+01
 0.94667049739E+01 0.10052494399E+02 0.10287109418E+02 0.10212877903E+02 0.99089941144E+01
 0.94767163608E+01 0.90203595227E+01 0.86029829997E+01 0.82577435262E+01 0.80115704537E+01
 0.78835519037E+01 0.78835519645E+01 0.80115706157E+01 0.82577437400E+01 0.86029832149E+01
 0.90203597180E+01 0.94767165579E+01 0.99089943683E+01 0.10212878270E+02 0.10287109919E+02
 0.10052494990E+02 0.94667055521E+01 0.85356980307E+01 0.73195899278E+01 0.59305115589E+01
 0.45206339308E+01 0.54227512292E+01 0.45022028850E+01 0.38914915040E+01 0.36776402389E+01
 0.38914914278E+01 0.45022026815E+01 0.54227508290E+01 0.65254191811E+01 0.76641946139E+01
 0.86993157443E+01 0.95187334419E+01 0.10052494311E+02 0.10278474355E+02 0.10220175984E+02
 0.99384772893E+01 0.95193462508E+01 0.90583728635E+01 0.86223998254E+01 0.82448259243E+01
 0.79533865913E+01 0.77695137461E+01 0.77066915201E+01 0.77695139452E+01 0.79533869053E+01
 0.82448262249E+01 0.86224000020E+01 0.90583728778E+01 0.95193461594E+01 0.99384772227E+01
 0.10220176092E+02 0.10278474741E+02 0.10052494990E+02 0.95187343270E+01 0.86993166866E+01
 0.76641954570E+01 0.65254198176E+01 0.73034840187E+01 0.65041626893E+01 0.58927661483E+01
 0.55616189594E+01 0.55616187389E+01 0.58927655056E+01 0.65041616841E+01 0.73034827594E+01
 0.81739321280E+01 0.89950039654E+01 0.96625397341E+01 0.10104067298E+02 0.10287109812E+02
 0.10220176377E+02 0.99475820054E+01 0.95397869195E+01 0.90805699985E+01 0.86346649752E+01
 0.82344859304E+01 0.79073552351E+01 0.76758260191E+01 0.75559143476E+01 0.75559144481E+01
 0.76758262691E+01 0.79073555026E+01 0.82344860602E+01 0.86346648574E+01 0.90805696210E+01
 0.95397863819E+01 0.99475814908E+01 0.10220176092E+02 0.10287109919E+02 0.10104067864E+02
 0.96625407170E+01 0.89950052284E+01 0.81739334841E+01 0.87648670510E+01 0.81510481172E+01
 0.76219410639E+01 0.72643239417E+01 0.71380109103E+01 0.72643232262E+01 0.76219397908E+01
 0.81510465604E+01 0.87648655298E+01 0.93659911898E+01 0.98638924436E+01 0.10189884026E+02
 0.10306883962E+02 0.10212878974E+02 0.99384780579E+01 0.95397871623E+01 0.90878626489E+01
 0.86405987980E+01 0.82278785288E+01 0.78756183236E+01 0.76063373350E+01 0.74374373772E+01
 0.73798892982E+01 0.74374374386E+01 0.76063374120E+01 0.78756183372E+01 0.82278783903E+01
 0.86405984393E+01 0.90878620524E+01 0.95397863819E+01 0.99384772227E+01 0.10212878270E+02
 0.10306883591E+02 0.10189884149E+02 0.98638931337E+01 0.93659923894E+01 0.97415064744E+01
 0.93424918421E+01 0.89504066280E+01 0.86387003762E+01 0.84664204670E+01 0.84664200617E+01
 0.86386992950E+01 0.89504052260E+01 0.93424905655E+01 0.97415057040E+01 0.10073834333E+02
 0.10279228837E+02 0.10320931392E+02 0.10190780252E+02 0.99089953353E+01 0.95193468260E+01
 0.90805699918E+01 0.86405986225E+01 0.82256140372E+01 0.78594579748E+01 0.75636561586E+01
 0.73559019626E+01 0.72487642132E+01 0.72487641494E+01 0.73559018015E+01 0.75636559707E+01
 0.78594578189E+01 0.82256139096E+01 0.86405984393E+01 0.90805696210E+01 0.95193461594E+01
 0.99089943683E+01 0.10190779128E+02 0.10320930381E+02 0.10279228253E+02 0.10073834405E+02
 0.10238871780E+02 0.10050377950E+02 0.98185702356E+01 0.95992555913E+01 0.94436033323E+01
 0.93874334459E+01 0.94436028023E+01 0.95992547991E+01 0.98185695991E+01 0.10050377854E+02
 0.10238872409E+02 0.10334974135E+02 0.10305887870E+02 0.10141010750E+02 0.98533635135E+01
 0.94767168797E+01 0.90583726952E+01 0.86346644514E+01 0.82278780684E+01 0.78594577736E+01
 0.75492689844E+01 0.73143735982E+01 0.71679024457E+01 0.71181355406E+01 0.71679021913E+01
 0.73143732428E+01 0.75492687491E+01 0.78594578189E+01 0.82278783903E+01 0.86346648574E+01
 0.90583728778E+01 0.94767165579E+01 0.98533625760E+01 0.10141009331E+02 0.10305886318E+02
 0.10334972879E+02 0.10321982742E+02 0.10311848548E+02 0.10234082851E+02 0.10125700641E+02
 0.10025797073E+02 0.99667191778E+01 0.99667191524E+01 0.10025797081E+02 0.10125700888E+02
 0.10234083543E+02 0.10311849762E+02 0.10321984343E+02 0.10237843856E+02 0.10049109750E+02
 0.97642581160E+01 0.94092586152E+01 0.90203589783E+01 0.86223989782E+01 0.82344851493E+01
 0.78756178286E+01 0.75636559385E+01 0.73143735396E+01 0.71405807881E+01 0.70513360026E+01
 0.70513358516E+01 0.71405804371E+01 0.73143732428E+01 0.75636559707E+01 0.78756183372E+01
 0.82344860602E+01 0.86224000020E+01 0.90203597180E+01 0.94092587272E+01 0.97642574534E+01
 0.10049108425E+02 0.10237842191E+02 0.10098626646E+02 0.10215060227E+02 0.10261190072E+02
 0.10256664779E+02 0.10227048610E+02 0.10197220997E+02 0.10185107863E+02 0.10197221515E+02
 0.10227049605E+02 0.10256666153E+02 0.10261191655E+02 0.10215061781E+02 0.10098627898E+02
 0.99035373798E+01 0.96356613215E+01 0.93148910839E+01 0.89651831606E+01 0.86029819131E+01
 0.82448250664E+01 0.79073547277E+01 0.76063371047E+01 0.73559018751E+01 0.71679024402E+01
 0.70513360490E+01 0.70118398264E+01 0.70513358516E+01 0.71679021913E+01 0.73559018015E+01
 0.76063374120E+01 0.79073555026E+01 0.82448262249E+01 0.86029832149E+01 0.89651842832E+01
 0.93148917265E+01 0.96356612991E+01 0.99035366731E+01 0.96998215618E+01 0.98809645126E+01
 0.10004736891E+02 0.10076770029E+02 0.10109963405E+02 0.10120111039E+02 0.10121141323E+02
 0.10121141760E+02 0.10120112231E+02 0.10109965026E+02 0.10076771648E+02 0.10004738100E+02
 0.98809650380E+01 0.96998213270E+01 0.94658150912E+01 0.91923649579E+01 0.88913766275E+01
 0.85751842225E+01 0.82577428766E+01 0.79533864111E+01 0.76758260920E+01 0.74374374721E+01
 0.72487642747E+01 0.71181356582E+01 0.70513360490E+01 0.70513360026E+01 0.71181355406E+01
 0.72487641494E+01 0.74374374386E+01 0.76758262691E+01 0.79533869053E+01 0.82577437400E+01
 0.85751854117E+01 0.88913779840E+01 0.91923662242E+01 0.94658159684E+01 0.92585216978E+01
 0.94432949035E+01 0.95913434403E+01 0.96997972949E+01 0.97715385185E+01 0.98137395172E+01
 0.98347177623E+01 0.98409095555E+01 0.98347185485E+01 0.98137407672E+01 0.97715397160E+01
 0.96997979315E+01 0.95913432098E+01 0.94432938093E+01 0.92585200350E+01 0.90412398105E+01
 0.87978216606E+01 0.85375106867E+01 0.82714549847E+01 0.80115708589E+01 0.77695143742E+01
 0.75559148274E+01 0.73798895118E+01 0.72487642747E+01 0.71679024402E+01 0.71405807881E+01
 0.71679024457E+01 0.72487642132E+01 0.73798892982E+01 0.75559144481E+01 0.77695139452E+01
 0.80115706157E+01 0.82714551964E+01 0.85375115286E+01 0.87978231031E+01 0.90412415837E+01
 0.88630246613E+01 0.90186558587E+01 0.91478627811E+01 0.92499101094E+01 0.93261900850E+01
 0.93789630970E+01 0.94112260248E+01 0.94263018134E+01 0.94263020287E+01 0.94112265244E+01
 0.93789635116E+01 0.93261899985E+01 0.92499092613E+01 0.91478612041E+01 0.90186538872E+01
 0.88630228081E+01 0.86843282636E+01 0.84885216079E+01 0.82836139197E+01 0.80788104591E+01
 0.78835531336E+01 0.77066924345E+01 0.75559148274E+01 0.74374374721E+01 0.73559018751E+01
 0.73143735396E+01 0.73143735982E+01 0.73559019626E+01 0.74374373772E+01 0.75559143476E+01
 0.77066915201E+01 0.78835519645E+01 0.80788094105E+01 0.82836134232E+01 0.84885219669E+01
 0.86843295085E+01 0.85521819798E+01 0.86616285961E+01 0.87530093569E+01 0.88256972871E+01
 0.88807094969E+01 0.89200688572E+01 0.89460957184E+01 0.89608144029E+01 0.89655656374E+01
 0.89608142952E+01 0.89460953763E+01 0.89200681120E+01 0.88807082639E+01 0.88256956653E+01
 0.87530076469E+01 0.86616272178E+01 0.85521813196E+01 0.84273032869E+01 0.82915867741E+01
 0.81511334562E+01 0.80128290706E+01 0.78835531336E+01 0.77695143742E+01 0.76758260920E+01
 0.76063371047E+01 0.75636559385E+01 0.75492689844E+01 0.75636561586E+01 0.76063373350E+01
 0.76758260191E+01 0.77695137461E+01 0.78835519037E+01 0.80128274543E+01 0.81511318704E+01
 0.82915856850E+01 0.84273030319E+01 0.83539714204E+01 0.84044939440E+01 0.84433957387E+01
 0.84711307717E+01 0.84893435986E+01 0.85002989217E+01 0.85062947312E+01 0.85092276726E+01
 0.85103797288E+01 0.85103794958E+01 0.85092269941E+01 0.85062936781E+01 0.85002976348E+01
 0.84893422970E+01 0.84711297302E+01 0.84433952283E+01 0.84044941478E+01 0.83539723588E+01
 0.82929256508E+01 0.82240160956E+01 0.81511334562E+01 0.80788104591E+01 0.80115708589E+01
 0.79533864111E+01 0.79073547277E+01 0.78756178286E+01 0.78594577736E+01 0.78594579748E+01
 0.78756183236E+01 0.79073552351E+01 0.79533865913E+01 0.80115704537E+01 0.80788093993E+01
 0.81511318973E+01 0.82240143685E+01 0.82929241514E+01 0.82859168013E+01 0.82700519786E+01
 0.82462370272E+01 0.82166842584E+01 0.81844906775E+01 0.81530461806E+01 0.81254601731E+01
 0.81041714998E+01 0.80908109966E+01 0.80862657065E+01 0.80908104537E+01 0.81041705835E+01
 0.81254591743E+01 0.81530454284E+01 0.81844904463E+01 0.82166846911E+01 0.82462380964E+01
 0.82700534953E+01 0.82859184666E+01 0.82929256508E+01 0.82915867741E+01 0.82836139197E+01
 0.82714549847E+01 0.82577428766E+01 0.82448250664E+01 0.82344851493E+01 0.82278780684E+01
 0.82256140372E+01 0.82278785288E+01 0.82344859304E+01 0.82448259243E+01 0.82577435262E+01
 0.82714551747E+01 0.82836135014E+01 0.82915857461E+01 0.82929241666E+01 0.83539714120E+01
 0.82700519535E+01 0.81785859867E+01 0.80839053443E+01 0.79911162832E+01 0.79054334623E+01
 0.78315497909E+01 0.77732030173E+01 0.77330140605E+01 0.77125605761E+01 0.77125603578E+01
 0.77330135244E+01 0.77732024701E+01 0.78315495995E+01 0.79054339005E+01 0.79911174156E+01
 0.80839069925E+01 0.81785877903E+01 0.82700534953E+01 0.83539723588E+01 0.84273032869E+01
 0.84885216079E+01 0.85375106867E+01 0.85751842225E+01 0.86029819131E+01 0.86223989782E+01
 0.86346644514E+01 0.86405986225E+01 0.86405987980E+01 0.86346649752E+01 0.86223998254E+01
 0.86029829997E+01 0.85751853747E+01 0.85375116482E+01 0.84885220963E+01 0.84273030861E+01
 0.85521819739E+01 0.84044938707E+01 0.82462369493E+01 0.80839053104E+01 0.79248829049E+01
 0.77766685570E+01 0.76461447745E+01 0.75390448439E+01 0.74596931582E+01 0.74109972200E+01
 0.73945911445E+01 0.74109970224E+01 0.74596929771E+01 0.75390449963E+01 0.76461455104E+01
 0.77766699113E+01 0.79248846422E+01 0.80839069925E+01 0.82462380964E+01 0.84044941478E+01
 0.85521813196E+01 0.86843282636E+01 0.87978216606E+01 0.88913766275E+01 0.89651831606E+01
 0.90203589783E+01 0.90583726952E+01 0.90805699918E+01 0.90878626489E+01 0.90805699985E+01
 0.90583728635E+01 0.90203595227E+01 0.89651842134E+01 0.88913781220E+01 0.87978233044E+01
 0.86843296210E+01 0.88630246729E+01 0.86616284804E+01 0.84433955883E+01 0.82166841605E+01
 0.79911162888E+01 0.77766686228E+01 0.75828046338E+01 0.74178023537E+01 0.72883483175E+01
 0.71993820929E+01 0.71541139621E+01 0.71541139350E+01 0.71993820946E+01 0.72883485440E+01
 0.74178029848E+01 0.75828056946E+01 0.77766699113E+01 0.79911174156E+01 0.82166846911E+01
 0.84433952283E+01 0.86616272178E+01 0.88630228081E+01 0.90412398105E+01 0.91923649579E+01
 0.93148910839E+01 0.94092586152E+01 0.94767168797E+01 0.95193468260E+01 0.95397871623E+01
 0.95397869195E+01 0.95193462508E+01 0.94767163608E+01 0.94092585944E+01 0.93148918450E+01
 0.91923664832E+01 0.90412417674E+01 0.92585217353E+01 0.90186557115E+01 0.87530091484E+01
 0.84711306234E+01 0.81844906794E+01 0.79054336295E+01 0.76461449968E+01 0.74178024742E+01
 0.72299835094E+01 0.70903154679E+01 0.70043038124E+01 0.69752644576E+01 0.70043038834E+01
 0.70903156606E+01 0.72299838732E+01 0.74178029848E+01 0.76461455104E+01 0.79054339005E+01
 0.81844904463E+01 0.84711297302E+01 0.87530076469E+01 0.90186538872E+01 0.92585200350E+01
 0.94658150912E+01 0.96356613215E+01 0.97642581160E+01 0.98533635135E+01 0.99089953353E+01
 0.99384780579E+01 0.99475820054E+01 0.99384772893E+01 0.99089941144E+01 0.98533623482E+01
 0.97642575083E+01 0.96356615775E+01 0.94658162131E+01 0.96998216194E+01 0.94432947400E+01
 0.91478625422E+01 0.88256971180E+01 0.84893435918E+01 0.81530463770E+01 0.78315501282E+01
 0.75390451419E+01 0.72883484226E+01 0.70903154237E+01 0.69534280449E+01 0.68835045737E+01
 0.68835046554E+01 0.69534282543E+01 0.70903156606E+01 0.72883485440E+01 0.75390449963E+01
 0.78315495995E+01 0.81530454284E+01 0.84893422970E+01 0.88256956653E+01 0.91478612041E+01
 0.94432938093E+01 0.96998213270E+01 0.99035373798E+01 0.10049109750E+02 0.10141010750E+02
 0.10190780252E+02 0.10212878974E+02 0.10220176377E+02 0.10220175984E+02 0.10212877903E+02
 0.10190778793E+02 0.10141009291E+02 0.10049108669E+02 0.99035369409E+01 0.10098626701E+02
 0.98809643482E+01 0.95913432096E+01 0.92499099662E+01 0.88807094978E+01 0.85002990771E+01
 0.81254604642E+01 0.77732033301E+01 0.74596933054E+01 0.71993819876E+01 0.70043035784E+01
 0.68835044174E+01 0.68426028559E+01 0.68835046554E+01 0.70043038834E+01 0.71993820946E+01
 0.74596929771E+01 0.77732024701E+01 0.81254591743E+01 0.85002976348E+01 0.88807082639E+01
 0.92499092613E+01 0.95913432098E+01 0.98809650380E+01 0.10098627898E+02 0.10237843856E+02
 0.10305887870E+02 0.10320931392E+02 0.10306883962E+02 0.10287109812E+02 0.10278474355E+02
 0.10287109418E+02 0.10306883177E+02 0.10320930251E+02 0.10305886484E+02 0.10237842428E+02
 0.10321982766E+02 0.10215060071E+02 0.10004736707E+02 0.96997972321E+01 0.93261901389E+01
 0.89200689493E+01 0.85062948431E+01 0.81041716384E+01 0.77330141435E+01 0.74109971144E+01
 0.71541136537E+01 0.69752641002E+01 0.68835044174E+01 0.68835045737E+01 0.69752644576E+01
 0.71541139350E+01 0.74109970224E+01 0.77330135244E+01 0.81041705835E+01 0.85062936781E+01
 0.89200681120E+01 0.93261899985E+01 0.96997979315E+01 0.10004738100E+02 0.10215061781E+02
 0.10321984343E+02 0.10334974135E+02 0.10279228837E+02 0.10189884026E+02 0.10104067298E+02
 0.10052494311E+02 0.10052494399E+02 0.10104067454E+02 0.10189883988E+02 0.10279228334E+02
 0.10334973037E+02 0.10238871747E+02 0.10311848397E+02 0.10261189955E+02 0.10076770088E+02
 0.97715386881E+01 0.93789631745E+01 0.89460956169E+01 0.85092275077E+01 0.80908108993E+01
 0.77125605132E+01 0.73945909889E+01 0.71541136537E+01 0.70043035784E+01 0.69534280449E+01
 0.70043038124E+01 0.71541139621E+01 0.73945911445E+01 0.77125603578E+01 0.80908104537E+01
 0.85092269941E+01 0.89460953763E+01 0.93789635116E+01 0.97715397160E+01 0.10076771648E+02
 0.10261191655E+02 0.10311849762E+02 0.10238872409E+02 0.10073834333E+02 0.98638924436E+01
 0.96625397341E+01 0.95187334419E+01 0.94667049739E+01 0.95187340419E+01 0.96625406359E+01
 0.98638931811E+01 0.10073834476E+02 0.97415063745E+01 0.10050377782E+02 0.10234082783E+02
 0.10256664960E+02 0.10109963740E+02 0.98137396836E+01 0.94112258002E+01 0.89608139269E+01
 0.85103793650E+01 0.80862656625E+01 0.77125605132E+01 0.74109971144E+01 0.71993819876E+01
 0.70903154237E+01 0.70903154679E+01 0.71993820929E+01 0.74109972200E+01 0.77125605761E+01
 0.80862657065E+01 0.85103794958E+01 0.89608142952E+01 0.94112265244E+01 0.98137407672E+01
 0.10109965026E+02 0.10256666153E+02 0.10234083543E+02 0.10050377854E+02 0.97415057040E+01
 0.93659911898E+01 0.89950039654E+01 0.86993157443E+01 0.85356975967E+01 0.85356980026E+01
 0.86993168218E+01 0.89950053460E+01 0.93659924111E+01 0.87648668984E+01 0.93424916206E+01
 0.98185701567E+01 0.10125700887E+02 0.10227049109E+02 0.10120111403E+02 0.98347175965E+01
 0.94263011540E+01 0.89655649862E+01 0.85103793650E+01 0.80908108993E+01 0.77330141435E+01
 0.74596933054E+01 0.72883484226E+01 0.72299835094E+01 0.72883483175E+01 0.74596931582E+01
 0.77330140605E+01 0.80908109966E+01 0.85103797288E+01 0.89655656374E+01 0.94263020287E+01
 0.98347185485E+01 0.10120112231E+02 0.10227049605E+02 0.10125700888E+02 0.98185695991E+01
 0.93424905655E+01 0.87648655298E+01 0.81739321280E+01 0.76641946139E+01 0.73195897458E+01
 0.71978660238E+01 0.73195903961E+01 0.76641957705E+01 0.81739335391E+01 0.73034838471E+01
 0.81510478006E+01 0.89504064420E+01 0.95992557854E+01 0.10025797662E+02 0.10197221608E+02
 0.10121141411E+02 0.98409089335E+01 0.94263011540E+01 0.89608139269E+01 0.85092275077E+01
 0.81041716384E+01 0.77732033301E+01 0.75390451419E+01 0.74178024742E+01 0.74178023537E+01
 0.75390448439E+01 0.77732030173E+01 0.81041714998E+01 0.85092276726E+01 0.89608144029E+01
 0.94263018134E+01 0.98409095555E+01 0.10121141760E+02 0.10197221515E+02 0.10025797081E+02
 0.95992547991E+01 0.89504052260E+01 0.81510465604E+01 0.73034827594E+01 0.65254191811E+01
 0.59305116653E+01 0.56083860574E+01 0.56083862243E+01 0.59305121654E+01 0.65254200012E+01
 0.54227510796E+01 0.65041622475E+01 0.76219406702E+01 0.86387003706E+01 0.94436038663E+01
 0.99667199875E+01 0.10185108329E+02 0.10121141411E+02 0.98347175965E+01 0.94112258002E+01
 0.89460956169E+01 0.85062948431E+01 0.81254604642E+01 0.78315501282E+01 0.76461449968E+01
 0.75828046338E+01 0.76461447745E+01 0.78315497909E+01 0.81254601731E+01 0.85062947312E+01
 0.89460957184E+01 0.94112260248E+01 0.98347177623E+01 0.10121141323E+02 0.10185107863E+02
 0.99667191524E+01 0.94436028023E+01 0.86386992950E+01 0.76219397908E+01 0.65041616841E+01
 0.54227508290E+01 0.45206342673E+01 0.39224786212E+01 0.37130833940E+01 0.39224785948E+01
 0.45206343098E+01 0.32608282827E+01 0.45022023160E+01 0.58927654812E+01 0.72643236056E+01
 0.84664207690E+01 0.93874343052E+01 0.99667199875E+01 0.10197221608E+02 0.10120111403E+02
 0.98137396836E+01 0.93789631745E+01 0.89200689493E+01 0.85002990771E+01 0.81530463770E+01
 0.79054336295E+01 0.77766686228E+01 0.77766685570E+01 0.79054334623E+01 0.81530461806E+01
 0.85002989217E+01 0.89200688572E+01 0.93789630970E+01 0.98137395172E+01 0.10120111039E+02
 0.10197220997E+02 0.99667191778E+01 0.93874334459E+01 0.84664200617E+01 0.72643232262E+01
 0.58927655056E+01 0.45022026815E+01 0.32608288057E+01 0.23280093347E+01 0.18277483469E+01
 0.18277481736E+01 0.23280088895E+01 0.10173184949E+01 0.23134865805E+01 0.38914905695E+01
 0.55616182327E+01 0.71380108343E+01 0.84664207690E+01 0.94436038663E+01 0.10025797662E+02
 0.10227049109E+02 0.10109963740E+02 0.97715386881E+01 0.93261901389E+01 0.88807094978E+01
 0.84893435918E+01 0.81844906794E+01 0.79911162888E+01 0.79248829049E+01 0.79911162832E+01
 0.81844906775E+01 0.84893435986E+01 0.88807094969E+01 0.93261900850E+01 0.97715385185E+01
 0.10109963405E+02 0.10227048610E+02 0.10025797073E+02 0.94436033323E+01 0.84664204670E+01
 0.71380109103E+01 0.55616187389E+01 0.38914914278E+01 0.23134875900E+01 0.10173193868E+01
 0.16605148555E+00 -.13058281310E+00 0.16605096362E+00 -.10721201336E+01 0.15606789840E+00
 0.18052161305E+01 0.36776391719E+01 0.55616182327E+01 0.72643236056E+01 0.86387003706E+01
 0.95992557854E+01 0.10125700887E+02 0.10256664960E+02 0.10076770088E+02 0.96997972321E+01
 0.92499099662E+01 0.88256971180E+01 0.84711306234E+01 0.82166841605E+01 0.80839053104E+01
 0.80839053443E+01 0.82166842584E+01 0.84711307717E+01 0.88256972871E+01 0.92499101094E+01
 0.96997972949E+01 0.10076770029E+02 0.10256664779E+02 0.10125700641E+02 0.95992555913E+01
 0.86387003762E+01 0.72643239417E+01 0.55616189594E+01 0.36776402389E+01 0.18052173720E+01
 0.15606906737E+00 -.10721192985E+01 -.17273640904E+01 -.17273643933E+01 -.27710723530E+01
 -.17328961316E+01 -.14412301433E+00 0.18052161305E+01 0.38914905695E+01 0.58927654812E+01
 0.76219406702E+01 0.89504064420E+01 0.98185701567E+01 0.10234082783E+02 0.10261189955E+02
 0.10004736707E+02 0.95913432096E+01 0.91478625422E+01 0.87530091484E+01 0.84433955883E+01
 0.82462369493E+01 0.81785859867E+01 0.82462370272E+01 0.84433957387E+01 0.87530093569E+01
 0.91478627811E+01 0.95913434403E+01 0.10004736891E+02 0.10261190072E+02 0.10234082851E+02
 0.98185702356E+01 0.89504066280E+01 0.76219410639E+01 0.58927661483E+01 0.38914915040E+01
 0.18052172376E+01 -.14412190657E+00 -.17328952316E+01 -.27710718478E+01 -.31319271950E+01
 -.38794956045E+01 -.31339021526E+01 -.17328961316E+01 0.15606789840E+00 0.23134865805E+01
 0.45022023160E+01 0.65041622475E+01 0.81510478006E+01 0.93424916206E+01 0.10050377782E+02
 0.10311848397E+02 0.10215060071E+02 0.98809643482E+01 0.94432947400E+01 0.90186557115E+01
 0.86616284804E+01 0.84044938707E+01 0.82700519535E+01 0.82700519786E+01 0.84044939440E+01
 0.86616285961E+01 0.90186558587E+01 0.94432949035E+01 0.98809645126E+01 0.10215060227E+02
 0.10311848548E+02 0.10050377950E+02 0.93424918421E+01 0.81510481172E+01 0.65041626893E+01
 0.45022028850E+01 0.23134872396E+01 0.15606857237E+00 -.17328955426E+01 -.31339017490E+01
 -.38794954608E+01 -.39063784792E+01 -.35288509344E+01 -.24420981547E+01 -.77714936009E+00
 0.12690142740E+01 0.34638833238E+01 0.55759975943E+01 0.74095958928E+01 0.88294804728E+01
 0.97720901812E+01 0.10243622784E+02 0.10308909357E+02 0.10074863215E+02 0.96711618546E+01
 0.92289249833E+01 0.88334757272E+01 0.85229092248E+01 0.83249623960E+01 0.82570121116E+01
 0.83249624076E+01 0.85229092365E+01 0.88334757231E+01 0.92289249536E+01 0.96711618038E+01
 0.10074863163E+02 0.10308909334E+02 0.10243622816E+02 0.97720902770E+01 0.88294806199E+01
 0.74095960589E+01 0.55759977394E+01 0.34638834156E+01 0.12690143009E+01 -.77714938547E+00
 -.24420982018E+01 -.35288509690E+01 -.35288509690E+01 -.35288507945E+01 -.27960196771E+01
 -.14196171050E+01 0.43477812112E+00 0.25504403090E+01 0.46936368279E+01 0.66499324574E+01
 0.82542976259E+01 0.94089064568E+01 0.10087218410E+02 0.10326962004E+02 0.10216001046E+02
 0.98742976353E+01 0.94341220632E+01 0.90093928994E+01 0.86527006288E+01 0.83959835029E+01
 0.82618086644E+01 0.82618086532E+01 0.83959834596E+01 0.86527005314E+01 0.90093927311E+01
 0.94341218303E+01 0.98742973731E+01 0.10216000808E+02 0.10326961838E+02 0.10087218328E+02
 0.94089064252E+01 0.82542975653E+01 0.66499322751E+01 0.46936364579E+01 0.25504397485E+01
 0.43477744486E+00 -.14196177600E+01 -.27960201538E+01 -.24420982018E+01 -.27976260828E+01
 -.24420976616E+01 -.14196168084E+01 0.14400093258E+00 0.20603578377E+01 0.41081886761E+01
 0.60684738112E+01 0.77572154975E+01 0.90486586257E+01 0.98854369552E+01 0.10276557952E+02
 0.10286675159E+02 0.10020163065E+02 0.96024801024E+01 0.91585416112E+01 0.87641398454E+01
 0.84551799292E+01 0.82585464258E+01 0.81910925131E+01 0.82585463731E+01 0.84551798137E+01
 0.87641396591E+01 0.91585413633E+01 0.96024798275E+01 0.10020162815E+02 0.10286674981E+02
 0.10276557855E+02 0.98854368942E+01 0.90486585017E+01 0.77572151883E+01 0.60684732203E+01
 0.41081877830E+01 0.20603567266E+01 0.14399978470E+00 -.14196177600E+01 -.77714938547E+00
 -.14241261380E+01 -.14241258334E+01 -.77714854290E+00 0.43477863387E+00 0.20603580087E+01
 0.39031766771E+01 0.57534472626E+01 0.74208103853E+01 0.87609133839E+01 0.96907865588E+01
 0.10192089733E+02 0.10304549486E+02 0.10112934235E+02 0.97303063402E+01 0.92794332807E+01
 0.88559642190E+01 0.85024571768E+01 0.82489591218E+01 0.81167266876E+01 0.81167266634E+01
 0.82489590503E+01 0.85024570644E+01 0.88559640846E+01 0.92794331587E+01 0.97303062737E+01
 0.10112934257E+02 0.10304549596E+02 0.10192089878E+02 0.96907866328E+01 0.87609132532E+01
 0.74208099338E+01 0.57534464419E+01 0.39031755430E+01 0.20603567266E+01 0.43477744486E+00
 0.12690143009E+01 0.42662226773E+00 0.13294259413E+00 0.42662275437E+00 0.12690151491E+01
 0.25504407478E+01 0.41081887029E+01 0.57534470984E+01 0.73019253905E+01 0.86015171729E+01
 0.95513820087E+01 0.10109985698E+02 0.10293005065E+02 0.10163795932E+02 0.98191614722E+01
 0.93725258174E+01 0.89283703147E+01 0.85387328176E+01 0.82354936840E+01 0.80432389720E+01
 0.79774037615E+01 0.80432389834E+01 0.82354937046E+01 0.85387328500E+01 0.89283703745E+01
 0.93725259346E+01 0.98191616805E+01 0.10163796247E+02 0.10293005463E+02 0.10109986101E+02
 0.95513822953E+01 0.86015172124E+01 0.73019250885E+01 0.57534464419E+01 0.41081877830E+01
 0.25504397485E+01 0.34638834156E+01 0.25385561871E+01 0.20419245297E+01 0.20419246628E+01
 0.25385565337E+01 0.34638838384E+01 0.46936367876E+01 0.60684733197E+01 0.74208097460E+01
 0.86015167747E+01 0.95008869866E+01 0.10060417722E+02 0.10274944290E+02 0.10186859774E+02
 0.98748351929E+01 0.94391642731E+01 0.89824721543E+01 0.85654385148E+01 0.82207663875E+01
 0.79751271114E+01 0.78474236918E+01 0.78474237508E+01 0.79751272682E+01 0.82207665931E+01
 0.85654387195E+01 0.89824723374E+01 0.94391644577E+01 0.98748354352E+01 0.10186860132E+02
 0.10274944785E+02 0.10060418310E+02 0.95008875655E+01 0.86015172124E+01 0.74208099338E+01
 0.60684732203E+01 0.46936364579E+01 0.55759977394E+01 0.46785481321E+01 0.40828198704E+01
 0.38741601430E+01 0.40828197971E+01 0.46785479353E+01 0.55759973499E+01 0.66499316534E+01
 0.77572143624E+01 0.87609123279E+01 0.95513814235E+01 0.10060417639E+02 0.10266917518E+02
 0.10194717129E+02 0.99044421517E+01 0.94813430972E+01 0.90197294162E+01 0.85840554994E+01
 0.82070994794E+01 0.79163234094E+01 0.77329418803E+01 0.76702994439E+01 0.77329420746E+01
 0.79163237160E+01 0.82070997733E+01 0.85840556731E+01 0.90197294329E+01 0.94813430125E+01
 0.99044420932E+01 0.10194717242E+02 0.10266917905E+02 0.10060418310E+02 0.95513822953E+01
 0.87609132532E+01 0.77572151883E+01 0.66499322751E+01 0.74095960589E+01 0.66325575431E+01
 0.60376005049E+01 0.57151851502E+01 0.57151849337E+01 0.60375998743E+01 0.66325565591E+01
 0.74095948295E+01 0.82542962452E+01 0.90486572757E+01 0.96907856807E+01 0.10109985552E+02
 0.10274944679E+02 0.10194717512E+02 0.99136056698E+01 0.95015898238E+01 0.90414778977E+01
 0.85957978301E+01 0.81962492105E+01 0.78698804692E+01 0.76390070146E+01 0.75194696440E+01
 0.75194697417E+01 0.76390072586E+01 0.78698807324E+01 0.81962493435E+01 0.85957977265E+01
 0.90414775444E+01 0.95015893153E+01 0.99136051812E+01 0.10194717242E+02 0.10274944785E+02
 0.10109986101E+02 0.96907866328E+01 0.90486585017E+01 0.82542975653E+01 0.88294806199E+01
 0.82356606494E+01 0.77227553069E+01 0.73757043310E+01 0.72530628358E+01 0.73757036275E+01
 0.77227540576E+01 0.82356591269E+01 0.88294791402E+01 0.94089052682E+01 0.98854362404E+01
 0.10192089776E+02 0.10293005837E+02 0.10186860819E+02 0.99044428959E+01 0.95015900565E+01
 0.90486219017E+01 0.86014736340E+01 0.81893465837E+01 0.78378975383E+01 0.75694016607E+01
 0.74010606322E+01 0.73437140798E+01 0.74010606886E+01 0.75694017320E+01 0.78378975521E+01
 0.81893464571E+01 0.86014733010E+01 0.90486213415E+01 0.95015893153E+01 0.99044420932E+01
 0.10186860132E+02 0.10293005463E+02 0.10192089878E+02 0.98854368942E+01 0.94089064252E+01
 0.97720902770E+01 0.93898742576E+01 0.90124630714E+01 0.87116525525E+01 0.85451822085E+01
 0.85451818104E+01 0.87116514919E+01 0.90124616994E+01 0.93898730149E+01 0.97720895381E+01