   2   2   0   0
  0.1242808E+02  0.2600000E-09  0.2600000E-09  0.4245774E-09  0.5000000E-15
  1.000000000000000E-004
  CAR 
 Si beta-tin                             
     25.82049234     -4.77563363  301     12.33302071      1.00000000
     -4.776  0.0000E+00  0.0000E+00
     -4.674  0.0000E+00  0.0000E+00
     -4.572  0.0000E+00  0.0000E+00
     -4.470  0.0000E+00  0.0000E+00
     -4.368  0.0000E+00  0.0000E+00
     -4.266  0.0000E+00  0.0000E+00
     -4.164  0.0000E+00  0.0000E+00
     -4.062  0.0000E+00  0.0000E+00
     -3.960  0.8064E-18  0.8224E-19
     -3.858  0.4133E-13  0.4216E-14
     -3.756  0.2841E-09  0.2898E-10
     -3.654  0.2598E-06  0.2653E-07
     -3.552  0.3291E-04  0.3383E-05
     -3.450  0.6182E-03  0.6643E-04
     -3.348  0.1891E-02  0.2593E-03
     -3.246  0.1001E-02  0.3613E-03
     -3.144  0.1539E-03  0.3770E-03
     -3.042  0.1010E-02  0.4800E-03
     -2.940  0.3191E-02  0.8055E-03
     -2.838  0.2511E-02  0.1062E-02
     -2.736  0.4761E-03  0.1110E-02
     -2.634  0.2778E-03  0.1138E-02
     -2.532  0.1540E-02  0.1296E-02
     -2.430  0.1559E-02  0.1455E-02
     -2.328  0.6797E-03  0.1524E-02
     -2.226  0.2849E-02  0.1814E-02
     -2.124  0.3441E-02  0.2165E-02
     -2.022  0.1844E-02  0.2353E-02
     -1.920  0.2268E-02  0.2585E-02
     -1.818  0.3478E-02  0.2939E-02
     -1.716  0.5438E-02  0.3494E-02
     -1.614  0.3593E-02  0.3860E-02
     -1.512  0.1858E-02  0.4050E-02
     -1.410  0.1245E-02  0.4177E-02
     -1.308  0.1917E-02  0.4372E-02
     -1.206  0.7933E-03  0.4453E-02
     -1.104  0.1735E-02  0.4630E-02
     -1.002  0.3908E-02  0.5029E-02
     -0.900  0.2767E-02  0.5311E-02
     -0.798  0.3923E-02  0.5711E-02
     -0.696  0.3014E-02  0.6019E-02
     -0.594  0.5237E-02  0.6553E-02
     -0.492  0.5146E-02  0.7078E-02
     -0.390  0.2565E-02  0.7339E-02
     -0.288  0.1414E-02  0.7483E-02
     -0.186  0.1956E-02  0.7683E-02
     -0.084  0.9043E-03  0.7775E-02
      0.018  0.9993E-03  0.7877E-02
      0.120  0.3631E-02  0.8247E-02
      0.222  0.3053E-02  0.8559E-02
      0.324  0.3683E-02  0.8934E-02
      0.426  0.5159E-02  0.9461E-02
      0.528  0.9572E-02  0.1044E-01
      0.630  0.8504E-02  0.1130E-01
      0.732  0.1712E-02  0.1148E-01
      0.834  0.1060E-02  0.1159E-01
      0.936  0.4945E-02  0.1209E-01
      1.038  0.4306E-02  0.1253E-01
      1.140  0.1537E-02  0.1269E-01
      1.242  0.3515E-02  0.1305E-01
      1.344  0.2859E-02  0.1334E-01
      1.446  0.3129E-02  0.1366E-01
      1.548  0.5254E-02  0.1419E-01
      1.650  0.7765E-02  0.1498E-01
      1.752  0.8132E-02  0.1581E-01
      1.854  0.5285E-02  0.1635E-01
      1.956  0.2915E-02  0.1665E-01
      2.058  0.1695E-02  0.1682E-01
      2.159  0.1765E-02  0.1700E-01
      2.261  0.1755E-02  0.1718E-01
      2.363  0.6676E-02  0.1786E-01
      2.465  0.5742E-02  0.1845E-01
      2.567  0.2082E-02  0.1866E-01
      2.669  0.2900E-02  0.1896E-01
      2.771  0.6245E-02  0.1959E-01
      2.873  0.8766E-02  0.2049E-01
      2.975  0.4276E-02  0.2092E-01
      3.077  0.2062E-02  0.2113E-01
      3.179  0.3144E-02  0.2145E-01
      3.281  0.3314E-02  0.2179E-01
      3.383  0.2246E-02  0.2202E-01
      3.485  0.8195E-02  0.2286E-01
      3.587  0.8450E-02  0.2372E-01
      3.689  0.5881E-02  0.2432E-01
      3.791  0.5307E-02  0.2486E-01
      3.893  0.5612E-02  0.2543E-01
      3.995  0.6859E-02  0.2613E-01
      4.097  0.4349E-02  0.2657E-01
      4.199  0.3531E-02  0.2693E-01
      4.301  0.2645E-02  0.2720E-01
      4.403  0.1763E-02  0.2738E-01
      4.505  0.2378E-02  0.2763E-01
      4.607  0.9849E-02  0.2863E-01
      4.709  0.1071E-01  0.2972E-01
      4.811  0.6343E-02  0.3037E-01
      4.913  0.8399E-02  0.3123E-01
      5.015  0.1284E-01  0.3254E-01
      5.117  0.8357E-02  0.3339E-01
      5.219  0.2810E-02  0.3368E-01
      5.321  0.6668E-03  0.3374E-01
      5.423  0.1754E-02  0.3392E-01
      5.525  0.1962E-02  0.3412E-01
      5.627  0.3575E-02  0.3449E-01
      5.729  0.7982E-02  0.3530E-01
      5.831  0.7732E-02  0.3609E-01
      5.933  0.2448E-02  0.3634E-01
      6.035  0.5150E-02  0.3686E-01
      6.137  0.1240E-01  0.3813E-01
      6.239  0.9257E-02  0.3907E-01
      6.341  0.3033E-02  0.3938E-01
      6.443  0.4316E-02  0.3982E-01
      6.545  0.4035E-02  0.4023E-01
      6.647  0.1513E-02  0.4039E-01
      6.749  0.2850E-02  0.4068E-01
      6.851  0.7942E-02  0.4149E-01
      6.953  0.1032E-01  0.4254E-01
      7.055  0.4145E-02  0.4296E-01
      7.157  0.3601E-02  0.4333E-01
      7.259  0.9150E-02  0.4427E-01
      7.361  0.7741E-02  0.4505E-01
      7.463  0.5354E-02  0.4560E-01
      7.565  0.5654E-02  0.4618E-01
      7.667  0.4901E-02  0.4668E-01
      7.769  0.5951E-02  0.4728E-01
      7.871  0.7607E-02  0.4806E-01
      7.973  0.7747E-02  0.4885E-01
      8.075  0.7441E-02  0.4961E-01
      8.177  0.3729E-02  0.4999E-01
      8.279  0.3191E-02  0.5031E-01
      8.381  0.5875E-02  0.5091E-01
      8.483  0.7036E-02  0.5163E-01
      8.585  0.9948E-02  0.5265E-01
      8.687  0.1516E-01  0.5419E-01
      8.789  0.5977E-02  0.5480E-01
      8.891  0.3208E-02  0.5513E-01
      8.993  0.7329E-02  0.5588E-01
      9.095  0.9065E-02  0.5680E-01
      9.197  0.6701E-02  0.5748E-01
      9.299  0.2550E-02  0.5774E-01
      9.401  0.1722E-02  0.5792E-01
      9.503  0.7648E-02  0.5870E-01
      9.605  0.1049E-01  0.5977E-01
      9.707  0.6643E-02  0.6045E-01
      9.809  0.5927E-02  0.6105E-01
      9.911  0.9441E-02  0.6201E-01
     10.012  0.7375E-02  0.6277E-01
     10.114  0.5882E-02  0.6337E-01
     10.216  0.1045E-01  0.6443E-01
     10.318  0.1198E-01  0.6565E-01
     10.420  0.1007E-01  0.6668E-01
     10.522  0.9121E-02  0.6761E-01
     10.624  0.8170E-02  0.6844E-01
     10.726  0.8291E-02  0.6929E-01
     10.828  0.6906E-02  0.6999E-01
     10.930  0.6315E-02  0.7064E-01
     11.032  0.7324E-02  0.7139E-01
     11.134  0.3632E-02  0.7176E-01
     11.236  0.2202E-02  0.7198E-01
     11.338  0.3257E-02  0.7231E-01
     11.440  0.9511E-02  0.7328E-01
     11.542  0.1445E-01  0.7476E-01
     11.644  0.9527E-02  0.7573E-01
     11.746  0.8612E-02  0.7661E-01
     11.848  0.4358E-02  0.7705E-01
     11.950  0.5282E-02  0.7759E-01
     12.052  0.9067E-02  0.7851E-01
     12.154  0.4264E-02  0.7895E-01
     12.256  0.4194E-02  0.7938E-01
     12.358  0.8219E-02  0.8021E-01
     12.460  0.5715E-02  0.8080E-01
     12.562  0.6245E-02  0.8143E-01
     12.664  0.1039E-01  0.8249E-01
     12.766  0.9528E-02  0.8347E-01
     12.868  0.4451E-02  0.8392E-01
     12.970  0.7243E-02  0.8466E-01
     13.072  0.9714E-02  0.8565E-01
     13.174  0.4461E-02  0.8610E-01
     13.276  0.3929E-02  0.8651E-01
     13.378  0.5259E-02  0.8704E-01
     13.480  0.8431E-02  0.8790E-01
     13.582  0.1353E-01  0.8928E-01
     13.684  0.1134E-01  0.9044E-01
     13.786  0.1293E-01  0.9176E-01
     13.888  0.1164E-01  0.9294E-01
     13.990  0.5902E-02  0.9355E-01
     14.092  0.4465E-02  0.9400E-01
     14.194  0.7377E-02  0.9475E-01
     14.296  0.5731E-02  0.9534E-01
     14.398  0.8494E-02  0.9620E-01
     14.500  0.1199E-01  0.9743E-01
     14.602  0.1296E-01  0.9875E-01
     14.704  0.1110E-01  0.9988E-01
     14.806  0.1531E-01  0.1014E+00
     14.908  0.1097E-01  0.1026E+00
     15.010  0.6604E-02  0.1032E+00
     15.112  0.5962E-02  0.1038E+00
     15.214  0.4619E-02  0.1043E+00
     15.316  0.2617E-02  0.1046E+00
     15.418  0.1882E-02  0.1048E+00
     15.520  0.1557E-02  0.1049E+00
     15.622  0.6687E-02  0.1056E+00
     15.724  0.1068E-01  0.1067E+00
     15.826  0.1698E-01  0.1084E+00
     15.928  0.1796E-01  0.1103E+00
     16.030  0.1490E-01  0.1118E+00
     16.132  0.1262E-01  0.1131E+00
     16.234  0.5339E-02  0.1136E+00
     16.336  0.7212E-02  0.1144E+00
     16.438  0.8952E-02  0.1153E+00
     16.540  0.6283E-02  0.1159E+00
     16.642  0.9997E-02  0.1169E+00
     16.744  0.9433E-02  0.1179E+00
     16.846  0.7091E-02  0.1186E+00
     16.948  0.6449E-02  0.1193E+00
     17.050  0.8114E-02  0.1201E+00
     17.152  0.6835E-02  0.1208E+00
     17.254  0.8829E-02  0.1217E+00
     17.356  0.7551E-02  0.1225E+00
     17.458  0.9533E-02  0.1234E+00
     17.560  0.8694E-02  0.1243E+00
     17.662  0.6483E-02  0.1250E+00
     17.764  0.6960E-02  0.1257E+00
     17.865  0.7067E-02  0.1264E+00
     17.967  0.9292E-02  0.1274E+00
     18.069  0.1147E-01  0.1285E+00
     18.171  0.1405E-01  0.1300E+00
     18.273  0.1330E-01  0.1313E+00
     18.375  0.8036E-02  0.1321E+00
     18.477  0.4131E-02  0.1326E+00
     18.579  0.3118E-02  0.1329E+00
     18.681  0.9104E-02  0.1338E+00
     18.783  0.1403E-01  0.1352E+00
     18.885  0.8670E-02  0.1361E+00
     18.987  0.5894E-02  0.1367E+00
     19.089  0.6099E-02  0.1373E+00
     19.191  0.6515E-02  0.1380E+00
     19.293  0.5441E-02  0.1386E+00
     19.395  0.3177E-02  0.1389E+00
     19.497  0.4893E-02  0.1394E+00
     19.599  0.7894E-02  0.1402E+00
     19.701  0.8749E-02  0.1411E+00
     19.803  0.1658E-01  0.1428E+00
     19.905  0.2042E-01  0.1449E+00
     20.007  0.1397E-01  0.1463E+00
     20.109  0.6606E-02  0.1470E+00
     20.211  0.3171E-02  0.1473E+00
     20.313  0.6211E-02  0.1479E+00
     20.415  0.5239E-02  0.1485E+00
     20.517  0.2563E-02  0.1487E+00
     20.619  0.2103E-02  0.1489E+00
     20.721  0.2204E-02  0.1492E+00
     20.823  0.2549E-02  0.1494E+00
     20.925  0.8038E-02  0.1502E+00
     21.027  0.1538E-01  0.1518E+00
     21.129  0.1095E-01  0.1529E+00
     21.231  0.5986E-02  0.1535E+00
     21.333  0.8598E-02  0.1544E+00
     21.435  0.8088E-02  0.1552E+00
     21.537  0.5490E-02  0.1558E+00
     21.639  0.1289E-02  0.1559E+00
     21.741  0.1685E-03  0.1559E+00
     21.843  0.1114E-02  0.1561E+00
     21.945  0.1850E-02  0.1562E+00
     22.047  0.6582E-03  0.1563E+00
     22.149  0.1953E-02  0.1565E+00
     22.251  0.5482E-02  0.1571E+00
     22.353  0.3041E-02  0.1574E+00
     22.455  0.3399E-03  0.1574E+00
     22.557  0.6637E-03  0.1575E+00
     22.659  0.2802E-02  0.1578E+00
     22.761  0.3347E-02  0.1581E+00
     22.863  0.2865E-02  0.1584E+00
     22.965  0.3055E-02  0.1587E+00
     23.067  0.1571E-02  0.1589E+00
     23.169  0.4568E-03  0.1589E+00
     23.271  0.1539E-02  0.1591E+00
     23.373  0.1555E-02  0.1592E+00
     23.475  0.2693E-03  0.1593E+00
     23.577  0.7341E-05  0.1593E+00
     23.679  0.2986E-07  0.1593E+00
     23.781  0.6631E-06  0.1593E+00
     23.883  0.6088E-04  0.1593E+00
     23.985  0.8411E-03  0.1594E+00
     24.087  0.1920E-02  0.1595E+00
     24.189  0.7599E-03  0.1596E+00
     24.291  0.1375E-03  0.1596E+00
     24.393  0.1000E-02  0.1597E+00
     24.495  0.1891E-02  0.1599E+00
     24.597  0.6182E-03  0.1600E+00
     24.699  0.3291E-04  0.1600E+00
     24.801  0.2598E-06  0.1600E+00
     24.903  0.2841E-09  0.1600E+00
     25.005  0.4133E-13  0.1600E+00
     25.107  0.8064E-18  0.1600E+00
     25.209  0.0000E+00  0.1600E+00
     25.311  0.0000E+00  0.1600E+00
     25.413  0.0000E+00  0.1600E+00
     25.515  0.0000E+00  0.1600E+00
     25.617  0.0000E+00  0.1600E+00
     25.719  0.0000E+00  0.1600E+00
     25.820  0.0000E+00  0.1600E+00
