    2    2  100    1
  0.1242808E+02  0.2600000E-09  0.2600000E-09  0.4245774E-09  0.5000000E-15
  1.000000000000000E-004
  CAR 
 Si beta-tin                             
      8     36      8
 
  0.8333333E-01  0.8333333E-01  0.8333333E-01  0.1851852E-01
    1       -2.994734   1.000000
    2        3.835313   1.000000
    3        6.508158   1.000000
    4       16.796158   0.000000
    5       17.165419   0.000000
    6       22.702065   0.000000
    7       22.953723   0.000000
    8       23.271600   0.000000
 
  0.2500000E+00  0.8333333E-01  0.8333333E-01  0.3703704E-01
    1       -1.056589   1.000000
    2        5.691455   1.000000
    3        8.296347   1.000000
    4       10.339765   1.000000
    5       14.534323   0.000000
    6       16.731717   0.000000
    7       19.032719   0.000000
    8       21.044593   0.000000
 
  0.4166667E+00  0.8333333E-01  0.8333333E-01  0.3703704E-01
    1        2.360874   1.000000
    2        4.677014   1.000000
    3        9.000586   1.000000
    4       10.954735   1.000000
    5       11.994259   0.999999
    6       13.454676   0.000000
    7       14.127232   0.000000
    8       19.942440   0.000000
 
 -0.4166667E+00  0.8333333E-01  0.8333333E-01  0.3703704E-01
    1        0.477519   1.000000
    2        6.918482   1.000000
    3        7.530238   1.000000
    4        9.844281   1.000000
    5       13.586442   0.000000
    6       14.179905   0.000000
    7       16.396477   0.000000
    8       20.300535   0.000000
 
 -0.2500000E+00  0.8333333E-01  0.8333333E-01  0.3703704E-01
    1       -2.216920   1.000000
    2        4.582808   1.000000
    3        7.240995   1.000000
    4       13.519562   0.000000
    5       15.613503   0.000000
    6       19.757918   0.000000
    7       21.466053   0.000000
    8       22.228201   0.000000
 
 -0.8333333E-01  0.8333333E-01  0.8333333E-01  0.1851852E-01
    1       -3.384901   1.000000
    2        3.459783   1.000000
    3        6.138489   1.000000
    4       18.614701   0.000000
    5       19.827576   0.000000
    6       21.872537   0.000000
    7       24.032739   0.000000
    8       24.429759   0.000000
 
  0.2500000E+00  0.2500000E+00  0.8333333E-01  0.1851852E-01
    1        1.619673   1.000000
    2        7.773724   1.000000
    3        8.626877   1.000000
    4        8.654561   1.000000
    5       10.959648   1.000000
    6       14.528812   0.000000
    7       15.335821   0.000000
    8       17.420860   0.000000
 
  0.4166667E+00  0.2500000E+00  0.8333333E-01  0.3703704E-01
    1        3.490073   1.000000
    2        5.765805   1.000000
    3        8.022412   1.000000
    4       10.138672   1.000000
    5       12.010899   0.999997
    6       13.001524   0.000000
    7       14.378241   0.000000
    8       15.738043   0.000000
 
 -0.4166667E+00  0.2500000E+00  0.8333333E-01  0.3703704E-01
    1        0.096060   1.000000
    2        6.772724   1.000000
    3        8.915819   1.000000
    4        9.689258   1.000000
    5       11.417995   1.000000
    6       15.626354   0.000000
    7       17.416459   0.000000
    8       18.737429   0.000000
 
 -0.2500000E+00  0.2500000E+00  0.8333333E-01  0.1851852E-01
    1       -1.829319   1.000000
    2        4.954182   1.000000
    3        7.600728   1.000000
    4       11.753673   1.000000
    5       17.168942   0.000000
    6       18.039260   0.000000
    7       19.476679   0.000000
    8       20.512537   0.000000
 
  0.4166667E+00  0.4166667E+00  0.8333333E-01  0.1851852E-01
    1        3.634448   1.000000
    2        4.161537   1.000000
    3       10.001766   1.000000
    4       10.723565   1.000000
    5       10.729232   1.000000
    6       13.306363   0.000000
    7       13.312118   0.000000
    8       17.404530   0.000000
 
 -0.4166667E+00  0.4166667E+00  0.8333333E-01  0.1851852E-01
    1        1.236669   1.000000
    2        5.759318   1.000000
    3        7.958449   1.000000
    4       10.480649   1.000000
    5       12.544785   0.001373
    6       14.960526   0.000000
    7       15.821693   0.000000
    8       18.171663   0.000000
 
  0.8333333E-01  0.8333333E-01  0.2500000E+00  0.1851852E-01
    1       -2.531544   1.000000
    2        1.586812   1.000000
    3        9.564836   1.000000
    4       17.203039   0.000000
    5       17.504740   0.000000
    6       20.686728   0.000000
    7       20.969926   0.000000
    8       21.422656   0.000000
 
  0.2500000E+00  0.8333333E-01  0.2500000E+00  0.3703704E-01
    1       -0.598007   1.000000
    2        3.475893   1.000000
    3       10.545882   1.000000
    4       11.473256   1.000000
    5       14.497976   0.000000
    6       15.153114   0.000000
    7       18.756793   0.000000
    8       21.307743   0.000000
 
  0.4166667E+00  0.8333333E-01  0.2500000E+00  0.3703704E-01
    1        2.810180   1.000000
    2        5.094812   1.000000
    3        6.883997   1.000000
    4        9.102026   1.000000
    5       13.793314   0.000000
    6       14.801577   0.000000
    7       16.621447   0.000000
    8       18.193859   0.000000
 
 -0.4166667E+00  0.8333333E-01  0.2500000E+00  0.3703704E-01
    1        0.932319   1.000000
    2        4.955810   1.000000
    3        7.759411   1.000000
    4       11.476544   1.000000
    5       13.012983   0.000000
    6       14.372584   0.000000
    7       17.923657   0.000000
    8       19.536450   0.000000
 
 -0.2500000E+00  0.8333333E-01  0.2500000E+00  0.3703704E-01
    1       -1.755573   1.000000
    2        2.345697   1.000000
    3       10.264015   1.000000
    4       13.939078   0.000000
    5       15.995362   0.000000
    6       17.770193   0.000000
    7       19.831111   0.000000
    8       21.290291   0.000000
 
 -0.8333333E-01  0.8333333E-01  0.2500000E+00  0.1851852E-01
    1       -2.920789   1.000000
    2        1.205919   1.000000
    3        9.206871   1.000000
    4       18.946182   0.000000
    5       20.222401   0.000000
    6       20.343960   0.000000
    7       22.624440   0.000000
    8       22.847733   0.000000
 
  0.2500000E+00  0.2500000E+00  0.2500000E+00  0.1851852E-01
    1        2.071328   1.000000
    2        6.044750   1.000000
    3        8.657907   1.000000
    4        9.079682   1.000000
    5       12.542007   0.001561
    6       12.577102   0.000278
    7       14.621176   0.000000
    8       20.023904   0.000000
 
  0.4166667E+00  0.2500000E+00  0.2500000E+00  0.3703704E-01
    1        3.934968   1.000000
    2        6.171321   1.000000
    3        7.886710   1.000000
    4        8.618311   1.000000
    5       10.230069   1.000000
    6       12.341133   0.454333
    7       16.021461   0.000000
    8       18.120690   0.000000
 
 -0.4166667E+00  0.2500000E+00  0.2500000E+00  0.3703704E-01
    1        0.551804   1.000000
    2        4.593905   1.000000
    3        9.548362   1.000000
    4       11.697054   1.000000
    5       12.321182   0.566485
    6       13.771071   0.000000
    7       15.848407   0.000000
    8       20.953721   0.000000
 
 -0.2500000E+00  0.2500000E+00  0.2500000E+00  0.1851852E-01
    1       -1.368861   1.000000
    2        2.723545   1.000000
    3       10.576159   1.000000
    4       12.213023   0.955154
    5       16.033398   0.000000
    6       17.569238   0.000000
    7       19.661674   0.000000
    8       21.155111   0.000000
 
  0.4166667E+00  0.4166667E+00  0.2500000E+00  0.1851852E-01
    1        4.079580   1.000000
    2        4.596494   1.000000
    3        8.081853   1.000000
    4        8.605729   1.000000
    5       11.092277   1.000000
    6       14.566681   0.000000
    7       16.047168   0.000000
    8       16.987942   0.000000
 
 -0.4166667E+00  0.4166667E+00  0.2500000E+00  0.1851852E-01
    1        1.689458   1.000000
    2        5.595303   1.000000
    3        6.390785   1.000000
    4       10.156335   1.000000
    5       13.676871   0.000000
    6       16.222810   0.000000
    7       17.670690   0.000000
    8       18.613538   0.000000
 
  0.8333333E-01  0.8333333E-01  0.4166667E+00  0.1851852E-01
    1       -1.608596   1.000000
    2       -0.232538   1.000000
    3       12.975778   0.000000
    4       16.555014   0.000000
    5       18.004584   0.000000
    6       18.667050   0.000000
    7       19.326297   0.000000
    8       19.843094   0.000000
 
  0.2500000E+00  0.8333333E-01  0.4166667E+00  0.3703704E-01
    1        0.315693   1.000000
    2        1.677415   1.000000
    3       11.504071   1.000000
    4       12.708494   0.000000
    5       14.826130   0.000000
    6       15.814443   0.000000
    7       17.254546   0.000000
    8       18.749727   0.000000
 
  0.4166667E+00  0.8333333E-01  0.4166667E+00  0.3703704E-01
    1        3.701232   1.000000
    2        4.982113   1.000000
    3        6.119079   1.000000
    4        7.379882   1.000000
    5       14.712883   0.000000
    6       15.859863   0.000000
    7       18.175337   0.000000
    8       20.003564   0.000000
 
 -0.4166667E+00  0.8333333E-01  0.4166667E+00  0.3703704E-01
    1        1.838009   1.000000
    2        3.185831   1.000000
    3        8.621476   1.000000
    4        9.908852   1.000000
    5       15.014607   0.000000
    6       15.830828   0.000000
    7       16.975260   0.000000
    8       19.836394   0.000000
 
 -0.2500000E+00  0.8333333E-01  0.4166667E+00  0.3703704E-01
    1       -0.836291   1.000000
    2        0.534180   1.000000
    3       13.545311   0.000000
    4       14.744293   0.000000
    5       16.076684   0.000000
    6       16.607714   0.000000
    7       17.973594   0.000000
    8       18.349263   0.000000
 
 -0.8333333E-01  0.8333333E-01  0.4166667E+00  0.1851852E-01
    1       -1.996007   1.000000
    2       -0.617198   1.000000
    3       12.643405   0.000006
    4       16.373927   0.000000
    5       19.894398   0.000000
    6       21.010557   0.000000
    7       21.068392   0.000000
    8       22.185192   0.000000
 
  0.2500000E+00  0.2500000E+00  0.4166667E+00  0.1851852E-01
    1        2.970172   1.000000
    2        4.305172   1.000000
    3        9.482876   1.000000
    4        9.879551   1.000000
    5       10.903203   1.000000
    6       11.262351   1.000000
    7       17.565406   0.000000
    8       20.861278   0.000000
 
  0.4166667E+00  0.2500000E+00  0.4166667E+00  0.3703704E-01
    1        4.814807   1.000000
    2        6.059452   1.000000
    3        7.229628   1.000000
    4        8.420316   1.000000
    5        9.487881   1.000000
    6       10.717239   1.000000
    7       19.173283   0.000000
    8       20.958738   0.000000
 
 -0.4166667E+00  0.2500000E+00  0.4166667E+00  0.3703704E-01
    1        1.459634   1.000000
    2        2.811655   1.000000
    3       10.416907   1.000000
    4       11.641583   1.000000
    5       12.683540   0.000000
    6       13.805139   0.000000
    7       16.324640   0.000000
    8       19.733003   0.000000
 
 -0.2500000E+00  0.2500000E+00  0.4166667E+00  0.1851852E-01
    1       -0.451434   1.000000
    2        0.916179   1.000000
    3       12.876322   0.000000
    4       13.692680   0.000000
    5       14.782589   0.000000
    6       17.759077   0.000000
    7       18.369590   0.000000
    8       19.568145   0.000000
 
  0.4166667E+00  0.4166667E+00  0.4166667E+00  0.1851852E-01
    1        4.947698   1.000000
    2        5.408303   1.000000
    3        6.429562   1.000000
    4        6.885513   1.000000
    5       11.937953   1.000000
    6       13.180253   0.000000
    7       19.203661   0.000000
    8       19.855473   0.000000
 
 -0.4166667E+00  0.4166667E+00  0.4166667E+00  0.1851852E-01
    1        2.590333   1.000000
    2        3.926495   1.000000
    3        7.164206   1.000000
    4        8.462829   1.000000
    5       16.843947   0.000000
    6       17.025411   0.000000
    7       18.229174   0.000000
    8       18.890938   0.000000
