 vasp.5.4.1 24Jun15 (build Jul 19 2016 16:50:41) complex                        
  
 executed on           IFC91_ompi date 2019.10.10  11:14:07
 running on    4 total cores
 distrk:  each k-point on    4 cores,    1 groups
 distr:  one band on NCORES_PER_BAND=   1 cores,    4 groups


--------------------------------------------------------------------------------------------------------


 INCAR:
 POTCAR:    PAW_PBE Si 05Jan2001                  
 POTCAR:    PAW_PBE Si 05Jan2001                  
   VRHFIN = Si: s2p2                                                            
   LEXCH  = PE                                                                  
   EATOM  =   103.0669 eV,    7.5752 Ry                                         
                                                                                
   TITEL  = PAW_PBE Si 05Jan2001                                                
   LULTRA =        F    use ultrasoft PP ?                                      
   IUNSCR =        1    unscreen: 0-lin 1-nonlin 2-no                           
   RPACOR =    1.500    partial core radius                                     
   POMASS =   28.085; ZVAL   =    4.000    mass and valenz                      
   RCORE  =    1.900    outmost cutoff radius                                   
   RWIGS  =    2.480; RWIGS  =    1.312    wigner-seitz radius (au A)           
   ENMAX  =  245.345; ENMIN  =  184.009 eV                                      
   ICORE  =        2    local potential                                         
   LCOR   =        T    correct aug charges                                     
   LPAW   =        T    paw PP                                                  
   EAUG   =  322.069                                                            
   DEXC   =    0.000                                                            
   RMAX   =    1.950    core radius for proj-oper                               
   RAUG   =    1.300    factor for augmentation sphere                          
   RDEP   =    1.993    radius for radial grids                                 
   RDEPT  =    1.837    core radius for aug-charge                              
                                                                                
   Atomic configuration                                                         
    6 entries                                                                   
     n  l   j            E        occ.                                          
     1  0  0.50     -1785.8828   2.0000                                         
     2  0  0.50      -139.4969   2.0000                                         
     2  1  1.50       -95.5546   6.0000                                         
     3  0  0.50       -10.8127   2.0000                                         
     3  1  0.50        -4.0811   2.0000                                         
     3  2  1.50        -4.0817   0.0000                                         
   Description                                                                  
     l       E           TYP  RCUT    TYP  RCUT                                 
     0    -10.8127223     23  1.900                                             
     0     -7.6451159     23  1.900                                             
     1     -4.0811372     23  1.900                                             
     1      2.4879257     23  1.900                                             
     2     -4.0817478      7  1.900                                             
  local pseudopotential read in
  partial core-charges read in
  partial kinetic energy density read in
  atomic valenz-charges read in
  non local Contribution for L=           0  read in
    real space projection operators read in
  non local Contribution for L=           0  read in
    real space projection operators read in
  non local Contribution for L=           1  read in
    real space projection operators read in
  non local Contribution for L=           1  read in
    real space projection operators read in
    PAW grid and wavefunctions read in
 
   number of l-projection  operators is LMAX  =           4
   number of lm-projection operators is LMMAX =           8
 
  PAW_PBE Si 05Jan2001                  :
 energy of atom  1       EATOM= -103.0669
 kinetic energy error for atom=    0.0009 (will be added to EATOM!!)
 
 
 POSCAR: Si HCP                                  
  positions in direct lattice
  No initial velocities read in
 exchange correlation table for  LEXCH =        8
   RHO(1)=    0.500       N(1)  =     2000
   RHO(2)=  100.500       N(2)  =     4000
 


--------------------------------------------------------------------------------------------------------


 ion  position               nearest neighbor table
   1  0.000  0.000  0.000-   2 2.60   2 2.60   2 2.60   2 2.60   2 2.60   2 2.60
   2  0.333  0.667  0.500-   1 2.60   1 2.60   1 2.60   1 2.60   1 2.60   1 2.60
 
  LATTYP: Found a hexagonal cell.
 ALAT       =     2.6000000000
 C/A-ratio  =     1.6329900000
  
  Lattice vectors:
  
 A1 = (   2.6000000000,   0.0000000000,   0.0000000000)
 A2 = (  -1.3000000000,   2.2516660498,   0.0000000000)
 A3 = (   0.0000000000,   0.0000000000,   4.2457740000)


Analysis of symmetry for initial positions (statically):
=====================================================================
 Subroutine PRICEL returns:
 Original cell was already a primitive cell.
 

 Routine SETGRP: Setting up the symmetry group for a 
 hexagonal supercell.


 Subroutine GETGRP returns: Found 24 space group operations
 (whereof 12 operations were pure point group operations)
 out of a pool of 24 trial point group operations.


The static configuration has the point symmetry D_3h.
 The point group associated with its full space group is D_6h.


Analysis of symmetry for dynamics (positions and initial velocities):
=====================================================================
 Subroutine PRICEL returns:
 Original cell was already a primitive cell.
 

 Routine SETGRP: Setting up the symmetry group for a 
 hexagonal supercell.


 Subroutine GETGRP returns: Found 24 space group operations
 (whereof 12 operations were pure point group operations)
 out of a pool of 24 trial point group operations.


The dynamic configuration has the point symmetry D_3h.
 The point group associated with its full space group is D_6h.


 Subroutine INISYM returns: Found 24 space group operations
 (whereof 12 operations are pure point group operations),
 and found     1 'primitive' translations

 
 
 KPOINTS: K-Points                                

Automatic generation of k-mesh.
Space group operators:
 irot       det(A)        alpha          n_x          n_y          n_z        tau_x        tau_y        tau_z
    1     1.000000     0.000000     1.000000     0.000000     0.000000     0.000000     0.000000     0.000000
    2    -1.000000    60.000000     0.000000     0.000000    -1.000000     0.000000     0.000000     0.000000
    3     1.000000   120.000000     0.000000     0.000000    -1.000000     0.000000     0.000000     0.000000
    4    -1.000000   180.000000     0.000000     0.000000     1.000000     0.000000     0.000000     0.000000
    5     1.000000   120.000000     0.000000     0.000000     1.000000     0.000000     0.000000     0.000000
    6    -1.000000    60.000000     0.000000     0.000000     1.000000     0.000000     0.000000     0.000000
    7    -1.000000   180.000000     1.000000     0.000000     0.000000     0.000000     0.000000     0.000000
    8     1.000000   180.000000     0.866025    -0.500000     0.000000     0.000000     0.000000     0.000000
    9    -1.000000   180.000000     0.500000    -0.866025     0.000000     0.000000     0.000000     0.000000
   10     1.000000   180.000000     0.000000     1.000000     0.000000     0.000000     0.000000     0.000000
   11    -1.000000   180.000000    -0.500000    -0.866025     0.000000     0.000000     0.000000     0.000000
   12     1.000000   180.000000     0.866025     0.500000     0.000000     0.000000     0.000000     0.000000
   13    -1.000000     0.000000     1.000000     0.000000     0.000000     0.333333     0.666667     0.500000
   14     1.000000    60.000000     0.000000     0.000000    -1.000000     0.333333     0.666667     0.500000
   15    -1.000000   120.000000     0.000000     0.000000    -1.000000     0.333333     0.666667     0.500000
   16     1.000000   180.000000     0.000000     0.000000     1.000000     0.333333     0.666667     0.500000
   17    -1.000000   120.000000     0.000000     0.000000     1.000000     0.333333     0.666667     0.500000
   18     1.000000    60.000000     0.000000     0.000000     1.000000     0.333333     0.666667     0.500000
   19     1.000000   180.000000     1.000000     0.000000     0.000000     0.333333     0.666667     0.500000
   20    -1.000000   180.000000     0.866025    -0.500000     0.000000     0.333333     0.666667     0.500000
   21     1.000000   180.000000     0.500000    -0.866025     0.000000     0.333333     0.666667     0.500000
   22    -1.000000   180.000000     0.000000     1.000000     0.000000     0.333333     0.666667     0.500000
   23     1.000000   180.000000    -0.500000    -0.866025     0.000000     0.333333     0.666667     0.500000
   24    -1.000000   180.000000     0.866025     0.500000     0.000000     0.333333     0.666667     0.500000
 
 Subroutine IBZKPT returns following result:
 ===========================================
 
 Found     36 irreducible k-points:
 
 Following reciprocal coordinates:
            Coordinates               Weight
  0.083333  0.083333  0.083333     96.000000
  0.250000  0.083333  0.083333    192.000000
  0.416667  0.083333  0.083333    192.000000
 -0.416667  0.083333  0.083333    192.000000
 -0.250000  0.083333  0.083333    192.000000
 -0.083333  0.083333  0.083333     96.000000
  0.250000  0.250000  0.083333     96.000000
  0.416667  0.250000  0.083333    192.000000
 -0.416667  0.250000  0.083333    192.000000
 -0.250000  0.250000  0.083333     96.000000
  0.416667  0.416667  0.083333     96.000000
 -0.416667  0.416667  0.083333     96.000000
  0.083333  0.083333  0.250000     96.000000
  0.250000  0.083333  0.250000    192.000000
  0.416667  0.083333  0.250000    192.000000
 -0.416667  0.083333  0.250000    192.000000
 -0.250000  0.083333  0.250000    192.000000
 -0.083333  0.083333  0.250000     96.000000
  0.250000  0.250000  0.250000     96.000000
  0.416667  0.250000  0.250000    192.000000
 -0.416667  0.250000  0.250000    192.000000
 -0.250000  0.250000  0.250000     96.000000
  0.416667  0.416667  0.250000     96.000000
 -0.416667  0.416667  0.250000     96.000000
  0.083333  0.083333  0.416667     96.000000
  0.250000  0.083333  0.416667    192.000000
  0.416667  0.083333  0.416667    192.000000
 -0.416667  0.083333  0.416667    192.000000
 -0.250000  0.083333  0.416667    192.000000
 -0.083333  0.083333  0.416667     96.000000
  0.250000  0.250000  0.416667     96.000000
  0.416667  0.250000  0.416667    192.000000
 -0.416667  0.250000  0.416667    192.000000
 -0.250000  0.250000  0.416667     96.000000
  0.416667  0.416667  0.416667     96.000000
 -0.416667  0.416667  0.416667     96.000000
 
 Following cartesian coordinates:
            Coordinates               Weight
  0.083333  0.144338  0.051031     96.000000
  0.250000  0.240563  0.051031    192.000000
  0.416667  0.336788  0.051031    192.000000
 -0.416667 -0.144338  0.051031    192.000000
 -0.250000 -0.048113  0.051031    192.000000
 -0.083333  0.048113  0.051031     96.000000
  0.250000  0.433013  0.051031     96.000000
  0.416667  0.529238  0.051031    192.000000
 -0.416667  0.048113  0.051031    192.000000
 -0.250000  0.144338  0.051031     96.000000
  0.416667  0.721688  0.051031     96.000000
 -0.416667  0.240563  0.051031     96.000000
  0.083333  0.144338  0.153093     96.000000
  0.250000  0.240563  0.153093    192.000000
  0.416667  0.336788  0.153093    192.000000
 -0.416667 -0.144338  0.153093    192.000000
 -0.250000 -0.048113  0.153093    192.000000
 -0.083333  0.048113  0.153093     96.000000
  0.250000  0.433013  0.153093     96.000000
  0.416667  0.529238  0.153093    192.000000
 -0.416667  0.048113  0.153093    192.000000
 -0.250000  0.144338  0.153093     96.000000
  0.416667  0.721688  0.153093     96.000000
 -0.416667  0.240563  0.153093     96.000000
  0.083333  0.144338  0.255156     96.000000
  0.250000  0.240563  0.255156    192.000000
  0.416667  0.336788  0.255156    192.000000
 -0.416667 -0.144338  0.255156    192.000000
 -0.250000 -0.048113  0.255156    192.000000
 -0.083333  0.048113  0.255156     96.000000
  0.250000  0.433013  0.255156     96.000000
  0.416667  0.529238  0.255156    192.000000
 -0.416667  0.048113  0.255156    192.000000
 -0.250000  0.144338  0.255156     96.000000
  0.416667  0.721688  0.255156     96.000000
 -0.416667  0.240563  0.255156     96.000000
 


--------------------------------------------------------------------------------------------------------




 Dimension of arrays:
   k-points           NKPTS =     36   k-points in BZ     NKDIM =     36   number of bands    NBANDS=      8
   number of dos      NEDOS =    301   number of ions     NIONS =      2
   non local maximal  LDIM  =      4   non local SUM 2l+1 LMDIM =      8
   total plane-waves  NPLWV =   9720
   max r-space proj   IRMAX =      1   max aug-charges    IRDMAX=  13273
   dimension x,y,z NGX =    18 NGY =   18 NGZ =   30
   dimension x,y,z NGXF=    36 NGYF=   36 NGZF=   60
   support grid    NGXF=    36 NGYF=   36 NGZF=   60
   ions per type =               2
 NGX,Y,Z   is equivalent  to a cutoff of  11.51, 11.51, 11.75 a.u.
 NGXF,Y,Z  is equivalent  to a cutoff of  23.02, 23.02, 23.49 a.u.


 I would recommend the setting:
   dimension x,y,z NGX =    18 NGY =   18 NGZ =   29
 SYSTEM =  Si beta-tin                             
 POSCAR =  Si HCP                                  

 Startparameter for this run:
   NWRITE =      2    write-flag & timer
   PREC   = accura    normal or accurate (medium, high low for compatibility)
   ISTART =      0    job   : 0-new  1-cont  2-samecut
   ICHARG =      2    charge: 1-file 2-atom 10-const
   ISPIN  =      1    spin polarized calculation?
   LNONCOLLINEAR =      F non collinear calculations
   LSORBIT =      F    spin-orbit coupling
   INIWAV =      1    electr: 0-lowe 1-rand  2-diag
   LASPH  =      F    aspherical Exc in radial PAW
   METAGGA=      F    non-selfconsistent MetaGGA calc.

 Electronic Relaxation 1
   ENCUT  =  450.0 eV  33.07 Ry    5.75 a.u.   4.50  4.50  7.34*2*pi/ulx,y,z
   ENINI  =  450.0     initial cutoff
   ENAUG  =  322.1 eV  augmentation charge cutoff
   NELM   =     60;   NELMIN=  2; NELMDL= -5     # of ELM steps 
   EDIFF  = 0.1E-04   stopping-criterion for ELM
   LREAL  =      F    real-space projection
   NLSPLINE    = F    spline interpolate recip. space projectors
   LCOMPAT=      F    compatible to vasp.4.4
   GGA_COMPAT  = T    GGA compatible to vasp.4.4-vasp.4.6
   LMAXPAW     = -100 max onsite density
   LMAXMIX     =    2 max onsite mixed and CHGCAR
   VOSKOWN=      0    Vosko Wilk Nusair interpolation
   ROPT   =    0.00000
 Ionic relaxation
   EDIFFG = -.1E-01   stopping-criterion for IOM
   NSW    =    100    number of steps for IOM
   NBLOCK =      1;   KBLOCK =    100    inner block; outer block 
   IBRION =      2    ionic relax: 0-MD 1-quasi-New 2-CG
   NFREE  =      1    steps in history (QN), initial steepest desc. (CG)
   ISIF   =      4    stress and relaxation
   IWAVPR =     11    prediction:  0-non 1-charg 2-wave 3-comb
   ISYM   =      2    0-nonsym 1-usesym 2-fastsym
   LCORR  =      T    Harris-Foulkes like correction to forces

   POTIM  = 0.5000    time-step for ionic-motion
   TEIN   =    0.0    initial temperature
   TEBEG  =    0.0;   TEEND  =   0.0 temperature during run
   SMASS  =  -3.00    Nose mass-parameter (am)
   estimated Nose-frequenzy (Omega)   =  0.10E-29 period in steps =****** mass=  -0.154E-27a.u.
   SCALEE = 1.0000    scale energy and forces
   NPACO  =    256;   APACO  = 16.0  distance and # of slots for P.C.
   PSTRESS=    0.0 pullay stress

  Mass of Ions in am
   POMASS =  28.09
  Ionic Valenz
   ZVAL   =   4.00
  Atomic Wigner-Seitz radii
   RWIGS  =  -1.00
  virtual crystal weights 
   VCA    =   1.00
   NELECT =       8.0000    total number of electrons
   NUPDOWN=      -1.0000    fix difference up-down

 DOS related values:
   EMIN   =  10.00;   EMAX   =-10.00  energy-range for DOS
   EFERMI =   0.00
   ISMEAR =     0;   SIGMA  =   0.10  broadening in eV -4-tet -1-fermi 0-gaus

 Electronic relaxation 2 (details)
   IALGO  =     38    algorithm
   LDIAG  =      T    sub-space diagonalisation (order eigenvalues)
   LSUBROT=      F    optimize rotation matrix (better conditioning)
   TURBO    =      0    0=normal 1=particle mesh
   IRESTART =      0    0=no restart 2=restart with 2 vectors
   NREBOOT  =      0    no. of reboots
   NMIN     =      0    reboot dimension
   EREF     =   0.00    reference energy to select bands
   IMIX   =      4    mixing-type and parameters
     AMIX     =   0.40;   BMIX     =  1.00
     AMIX_MAG =   1.60;   BMIX_MAG =  1.00
     AMIN     =   0.10
     WC   =   100.;   INIMIX=   1;  MIXPRE=   1;  MAXMIX= -45

 Intra band minimization:
   WEIMIN = 0.0010     energy-eigenvalue tresh-hold
   EBREAK =  0.31E-06  absolut break condition
   DEPER  =   0.30     relativ break condition  

   TIME   =   0.40     timestep for ELM

  volume/ion in A,a.u.               =      12.43        83.87
  Fermi-wavevector in a.u.,A,eV,Ry     =   1.121915  2.120113 17.125572  1.258694
  Thomas-Fermi vector in A             =   2.258572
 
 Write flags
   LWAVE  =      T    write WAVECAR
   LCHARG =      T    write CHGCAR
   LVTOT  =      F    write LOCPOT, total local potential
   LVHAR  =      F    write LOCPOT, Hartree potential only
   LELF   =      F    write electronic localiz. function (ELF)
   LORBIT =      0    0 simple, 1 ext, 2 COOP (PROOUT)


 Dipole corrections
   LMONO  =      F    monopole corrections only (constant potential shift)
   LDIPOL =      F    correct potential (dipole corrections)
   IDIPOL =      0    1-x, 2-y, 3-z, 4-all directions 
   EPSILON=  1.0000000 bulk dielectric constant

 Exchange correlation treatment:
   GGA     =    --    GGA type
   LEXCH   =     8    internal setting for exchange type
   VOSKOWN=      0    Vosko Wilk Nusair interpolation
   LHFCALC =     F    Hartree Fock is set to
   LHFONE  =     F    Hartree Fock one center treatment
   AEXX    =    0.0000 exact exchange contribution

 Linear response parameters
   LEPSILON=     F    determine dielectric tensor
   LRPA    =     F    only Hartree local field effects (RPA)
   LNABLA  =     F    use nabla operator in PAW spheres
   LVEL    =     F    velocity operator in full k-point grid
   LINTERFAST=   F  fast interpolation
   KINTER  =     0    interpolate to denser k-point grid
   CSHIFT  =0.1000    complex shift for real part using Kramers Kronig
   OMEGAMAX=  -1.0    maximum frequency
   DEG_THRESHOLD= 0.2000000E-02 threshold for treating states as degnerate
   RTIME   =    0.100 relaxation time in fs

 Orbital magnetization related:
   ORBITALMAG=     F  switch on orbital magnetization
   LCHIMAG   =     F  perturbation theory with respect to B field
   DQ        =  0.001000  dq finite difference perturbation B field



--------------------------------------------------------------------------------------------------------


 conjugate gradient relaxation of ions
 charge density and potential will be updated during run
 non-spin polarized calculation
 Variant of blocked Davidson
 Davidson routine will perform the subspace rotation
 perform sub-space diagonalisation
    after iterative eigenvector-optimisation
 modified Broyden-mixing scheme, WC =      100.0
 initial mixing is a Kerker type mixing with AMIX =  0.4000 and BMIX =      1.0000
 Hartree-type preconditioning will be used
 using additional bands            4
 reciprocal scheme for non local part
 use partial core corrections
 calculate Harris-corrections to forces 
   (improved forces if not selfconsistent)
 use gradient corrections 
 use of overlap-Matrix (Vanderbilt PP)
 Gauss-broadening in eV      SIGMA  =   0.10


--------------------------------------------------------------------------------------------------------


  energy-cutoff  :      450.00
  volume of cell :       24.86
      direct lattice vectors                 reciprocal lattice vectors
     2.600000000  0.000000000  0.000000000     0.384615385  0.222057796  0.000000000
    -1.300000000  2.251666050  0.000000000     0.000000000  0.444115592  0.000000000
     0.000000000  0.000000000  4.245774000     0.000000000  0.000000000  0.235528316

  length of vectors
     2.600000000  2.600000000  4.245774000     0.444115592  0.444115592  0.235528316


 
 k-points in units of 2pi/SCALE and weight: K-Points                                
   0.08333333  0.14433757  0.05103114       0.019
   0.25000000  0.24056261  0.05103114       0.037
   0.41666667  0.33678766  0.05103114       0.037
  -0.41666667 -0.14433757  0.05103114       0.037
  -0.25000000 -0.04811252  0.05103114       0.037
  -0.08333333  0.04811252  0.05103114       0.019
   0.25000000  0.43301270  0.05103114       0.019
   0.41666667  0.52923775  0.05103114       0.037
  -0.41666667  0.04811252  0.05103114       0.037
  -0.25000000  0.14433757  0.05103114       0.019
   0.41666667  0.72168784  0.05103114       0.019
  -0.41666667  0.24056261  0.05103114       0.019
   0.08333333  0.14433757  0.15309341       0.019
   0.25000000  0.24056261  0.15309341       0.037
   0.41666667  0.33678766  0.15309341       0.037
  -0.41666667 -0.14433757  0.15309341       0.037
  -0.25000000 -0.04811252  0.15309341       0.037
  -0.08333333  0.04811252  0.15309341       0.019
   0.25000000  0.43301270  0.15309341       0.019
   0.41666667  0.52923775  0.15309341       0.037
  -0.41666667  0.04811252  0.15309341       0.037
  -0.25000000  0.14433757  0.15309341       0.019
   0.41666667  0.72168784  0.15309341       0.019
  -0.41666667  0.24056261  0.15309341       0.019
   0.08333333  0.14433757  0.25515568       0.019
   0.25000000  0.24056261  0.25515568       0.037
   0.41666667  0.33678766  0.25515568       0.037
  -0.41666667 -0.14433757  0.25515568       0.037
  -0.25000000 -0.04811252  0.25515568       0.037
  -0.08333333  0.04811252  0.25515568       0.019
   0.25000000  0.43301270  0.25515568       0.019
   0.41666667  0.52923775  0.25515568       0.037
  -0.41666667  0.04811252  0.25515568       0.037
  -0.25000000  0.14433757  0.25515568       0.019
   0.41666667  0.72168784  0.25515568       0.019
  -0.41666667  0.24056261  0.25515568       0.019
 
 k-points in reciprocal lattice and weights: K-Points                                
   0.08333333  0.08333333  0.08333333       0.019
   0.25000000  0.08333333  0.08333333       0.037
   0.41666667  0.08333333  0.08333333       0.037
  -0.41666667  0.08333333  0.08333333       0.037
  -0.25000000  0.08333333  0.08333333       0.037
  -0.08333333  0.08333333  0.08333333       0.019
   0.25000000  0.25000000  0.08333333       0.019
   0.41666667  0.25000000  0.08333333       0.037
  -0.41666667  0.25000000  0.08333333       0.037
  -0.25000000  0.25000000  0.08333333       0.019
   0.41666667  0.41666667  0.08333333       0.019
  -0.41666667  0.41666667  0.08333333       0.019
   0.08333333  0.08333333  0.25000000       0.019
   0.25000000  0.08333333  0.25000000       0.037
   0.41666667  0.08333333  0.25000000       0.037
  -0.41666667  0.08333333  0.25000000       0.037
  -0.25000000  0.08333333  0.25000000       0.037
  -0.08333333  0.08333333  0.25000000       0.019
   0.25000000  0.25000000  0.25000000       0.019
   0.41666667  0.25000000  0.25000000       0.037
  -0.41666667  0.25000000  0.25000000       0.037
  -0.25000000  0.25000000  0.25000000       0.019
   0.41666667  0.41666667  0.25000000       0.019
  -0.41666667  0.41666667  0.25000000       0.019
   0.08333333  0.08333333  0.41666667       0.019
   0.25000000  0.08333333  0.41666667       0.037
   0.41666667  0.08333333  0.41666667       0.037
  -0.41666667  0.08333333  0.41666667       0.037
  -0.25000000  0.08333333  0.41666667       0.037
  -0.08333333  0.08333333  0.41666667       0.019
   0.25000000  0.25000000  0.41666667       0.019
   0.41666667  0.25000000  0.41666667       0.037
  -0.41666667  0.25000000  0.41666667       0.037
  -0.25000000  0.25000000  0.41666667       0.019
   0.41666667  0.41666667  0.41666667       0.019
  -0.41666667  0.41666667  0.41666667       0.019
 
 position of ions in fractional coordinates (direct lattice) 
   0.00000000  0.00000000  0.00000000
   0.33333333  0.66666667  0.50000000
 
 position of ions in cartesian coordinates  (Angst):
   0.00000000  0.00000000  0.00000000
  -0.00000000  1.50111070  2.12288700
 


--------------------------------------------------------------------------------------------------------


 k-point  1 :   0.0833 0.0833 0.0833  plane waves:     555
 k-point  2 :   0.2500 0.0833 0.0833  plane waves:     539
 k-point  3 :   0.4167 0.0833 0.0833  plane waves:     533
 k-point  4 :  -0.4167 0.0833 0.0833  plane waves:     534
 k-point  5 :  -0.2500 0.0833 0.0833  plane waves:     550
 k-point  6 :  -0.0833 0.0833 0.0833  plane waves:     550
 k-point  7 :   0.2500 0.2500 0.0833  plane waves:     531
 k-point  8 :   0.4167 0.2500 0.0833  plane waves:     536
 k-point  9 :  -0.4167 0.2500 0.0833  plane waves:     534
 k-point 10 :  -0.2500 0.2500 0.0833  plane waves:     550
 k-point 11 :   0.4167 0.4167 0.0833  plane waves:     532
 k-point 12 :  -0.4167 0.4167 0.0833  plane waves:     538
 k-point 13 :   0.0833 0.0833 0.2500  plane waves:     543
 k-point 14 :   0.2500 0.0833 0.2500  plane waves:     545
 k-point 15 :   0.4167 0.0833 0.2500  plane waves:     534
 k-point 16 :  -0.4167 0.0833 0.2500  plane waves:     537
 k-point 17 :  -0.2500 0.0833 0.2500  plane waves:     544
 k-point 18 :  -0.0833 0.0833 0.2500  plane waves:     547
 k-point 19 :   0.2500 0.2500 0.2500  plane waves:     530
 k-point 20 :   0.4167 0.2500 0.2500  plane waves:     535
 k-point 21 :  -0.4167 0.2500 0.2500  plane waves:     536
 k-point 22 :  -0.2500 0.2500 0.2500  plane waves:     546
 k-point 23 :   0.4167 0.4167 0.2500  plane waves:     533
 k-point 24 :  -0.4167 0.4167 0.2500  plane waves:     535
 k-point 25 :   0.0833 0.0833 0.4167  plane waves:     547
 k-point 26 :   0.2500 0.0833 0.4167  plane waves:     541
 k-point 27 :   0.4167 0.0833 0.4167  plane waves:     529
 k-point 28 :  -0.4167 0.0833 0.4167  plane waves:     537
 k-point 29 :  -0.2500 0.0833 0.4167  plane waves:     545
 k-point 30 :  -0.0833 0.0833 0.4167  plane waves:     539
 k-point 31 :   0.2500 0.2500 0.4167  plane waves:     534
 k-point 32 :   0.4167 0.2500 0.4167  plane waves:     536
 k-point 33 :  -0.4167 0.2500 0.4167  plane waves:     539
 k-point 34 :  -0.2500 0.2500 0.4167  plane waves:     541
 k-point 35 :   0.4167 0.4167 0.4167  plane waves:     536
 k-point 36 :  -0.4167 0.4167 0.4167  plane waves:     534

 maximum and minimum number of plane-waves per node :       555      529

 maximum number of plane-waves:       555
 maximum index in each direction: 
   IXMAX=    4   IYMAX=    4   IZMAX=    7
   IXMIN=   -4   IYMIN=   -4   IZMIN=   -7

 NGX is ok and might be reduce to  18
 NGY is ok and might be reduce to  18
 NGZ is ok and might be reduce to  30

 serial   3D FFT for wavefunctions
 parallel 3D FFT for charge:
    minimum data exchange during FFTs selected (reduces bandwidth)


 total amount of memory used by VASP on root node    34023. kBytes
========================================================================

   base      :      30000. kBytes
   nonl-proj :       1298. kBytes
   fftplans  :        714. kBytes
   grid      :       1347. kBytes
   one-center:          6. kBytes
   wavefun   :        658. kBytes
 
     INWAV:  cpu time    0.0000: real time    0.0000
 Broyden mixing: mesh for mixing (old mesh)
   NGX =  9   NGY =  9   NGZ = 15
  (NGX  = 36   NGY  = 36   NGZ  = 60)
  gives a total of   1215 points

 initial charge density was supplied:
 charge density of overlapping atoms calculated
 number of electron       8.0000000 magnetization 
 keeping initial charge density in first step


--------------------------------------------------------------------------------------------------------


 Maximum index for augmentation-charges         3119 (set IRDMAX)


--------------------------------------------------------------------------------------------------------


 First call to EWALD:  gamma=   0.607
 Maximum number of real-space cells 3x 3x 2
 Maximum number of reciprocal cells 3x 3x 4

 FEWALD executed in parallel
    FEWALD:  cpu time    0.0060: real time    0.0027


----------------------------------------- Iteration    1(   1)  ---------------------------------------


    POTLOK:  cpu time    0.0220: real time    0.0230
    SETDIJ:  cpu time    0.0050: real time    0.0044
     EDDAV:  cpu time    1.3548: real time    0.8692
       DOS:  cpu time    0.0160: real time    0.0098
    --------------------------------------------
      LOOP:  cpu time    1.3988: real time    0.9084

 eigenvalue-minimisations  :   584
 total energy-change (2. order) : 0.3541455E+01  (-0.3356642E+03)
 number of electron       8.0000000 magnetization 
 augmentation part        8.0000000 magnetization 

 Free energy of the ion-electron system (eV)
  ---------------------------------------------------
  alpha Z        PSCENC =         5.41726767
  Ewald energy   TEWEN  =      -287.27449391
  -Hartree energ DENC   =        -0.69021224
  -exchange      EXHF   =         0.00000000
  -V(xc)+E(xc)   XCENC  =       -16.76973270
  PAW double counting   =       176.24759923     -141.06103558
  entropy T*S    EENTRO =        -0.00611361
  eigenvalues    EBANDS =        61.54624893
  atomic energy  EATOM  =       206.13192747
  Solvation  Ediel_sol  =         0.00000000
  ---------------------------------------------------
  free energy    TOTEN  =         3.54145527 eV

  energy without entropy =        3.54756888  energy(sigma->0) =        3.54451207


--------------------------------------------------------------------------------------------------------




----------------------------------------- Iteration    1(   2)  ---------------------------------------


     EDDAV:  cpu time    2.2727: real time    1.3644
       DOS:  cpu time    0.0070: real time    0.0040
    --------------------------------------------
      LOOP:  cpu time    2.2827: real time    1.3701

 eigenvalue-minimisations  :   840
 total energy-change (2. order) :-0.1311946E+02  (-0.1258414E+02)
 number of electron       8.0000000 magnetization 
 augmentation part        8.0000000 magnetization 

 Free energy of the ion-electron system (eV)
  ---------------------------------------------------
  alpha Z        PSCENC =         5.41726767
  Ewald energy   TEWEN  =      -287.27449391
  -Hartree energ DENC   =        -0.69021224
  -exchange      EXHF   =         0.00000000
  -V(xc)+E(xc)   XCENC  =       -16.76973270
  PAW double counting   =       176.24759923     -141.06103558
  entropy T*S    EENTRO =        -0.00278315
  eigenvalues    EBANDS =        48.42345846
  atomic energy  EATOM  =       206.13192747
  Solvation  Ediel_sol  =         0.00000000
  ---------------------------------------------------
  free energy    TOTEN  =        -9.57800475 eV

  energy without entropy =       -9.57522159  energy(sigma->0) =       -9.57661317


--------------------------------------------------------------------------------------------------------




----------------------------------------- Iteration    1(   3)  ---------------------------------------


     EDDAV:  cpu time    2.2137: real time    1.3884
       DOS:  cpu time    0.0020: real time    0.0010
    --------------------------------------------
      LOOP:  cpu time    2.2177: real time    1.3915

 eigenvalue-minimisations  :   800
 total energy-change (2. order) :-0.1469730E+00  (-0.1460304E+00)
 number of electron       8.0000000 magnetization 
 augmentation part        8.0000000 magnetization 

 Free energy of the ion-electron system (eV)
  ---------------------------------------------------
  alpha Z        PSCENC =         5.41726767
  Ewald energy   TEWEN  =      -287.27449391
  -Hartree energ DENC   =        -0.69021224
  -exchange      EXHF   =         0.00000000
  -V(xc)+E(xc)   XCENC  =       -16.76973270
  PAW double counting   =       176.24759923     -141.06103558
  entropy T*S    EENTRO =        -0.00202000
  eigenvalues    EBANDS =        48.27572234
  atomic energy  EATOM  =       206.13192747
  Solvation  Ediel_sol  =         0.00000000
  ---------------------------------------------------
  free energy    TOTEN  =        -9.72497772 eV

  energy without entropy =       -9.72295771  energy(sigma->0) =       -9.72396771


--------------------------------------------------------------------------------------------------------




----------------------------------------- Iteration    1(   4)  ---------------------------------------


     EDDAV:  cpu time    1.9977: real time    1.2259
       DOS:  cpu time    0.0020: real time    0.0011
    --------------------------------------------
      LOOP:  cpu time    2.0037: real time    1.2297

 eigenvalue-minimisations  :   832
 total energy-change (2. order) :-0.3729942E-03  (-0.3729534E-03)
 number of electron       8.0000000 magnetization 
 augmentation part        8.0000000 magnetization 

 Free energy of the ion-electron system (eV)
  ---------------------------------------------------
  alpha Z        PSCENC =         5.41726767
  Ewald energy   TEWEN  =      -287.27449391
  -Hartree energ DENC   =        -0.69021224
  -exchange      EXHF   =         0.00000000
  -V(xc)+E(xc)   XCENC  =       -16.76973270
  PAW double counting   =       176.24759923     -141.06103558
  entropy T*S    EENTRO =        -0.00203502
  eigenvalues    EBANDS =        48.27536437
  atomic energy  EATOM  =       206.13192747
  Solvation  Ediel_sol  =         0.00000000
  ---------------------------------------------------
  free energy    TOTEN  =        -9.72535071 eV

  energy without entropy =       -9.72331569  energy(sigma->0) =       -9.72433320


--------------------------------------------------------------------------------------------------------




----------------------------------------- Iteration    1(   5)  ---------------------------------------


     EDDAV:  cpu time    2.3376: real time    1.5060
       DOS:  cpu time    0.0010: real time    0.0010
    CHARGE:  cpu time    0.0330: real time    0.0208
    MIXING:  cpu time    0.0010: real time    0.0006
    --------------------------------------------
      LOOP:  cpu time    2.3746: real time    1.5311

 eigenvalue-minimisations  :   832
 total energy-change (2. order) :-0.1735225E-06  (-0.1736042E-06)
 number of electron       8.0000001 magnetization 
 augmentation part       -0.4681176 magnetization 

 Broyden mixing:
  rms(total) = 0.50314E+00    rms(broyden)= 0.50314E+00
  rms(prec ) = 0.55661E+00
  weight for this iteration     100.00

 Free energy of the ion-electron system (eV)
  ---------------------------------------------------
  alpha Z        PSCENC =         5.41726767
  Ewald energy   TEWEN  =      -287.27449391
  -Hartree energ DENC   =        -0.69021224
  -exchange      EXHF   =         0.00000000
  -V(xc)+E(xc)   XCENC  =       -16.76973270
  PAW double counting   =       176.24759923     -141.06103558
  entropy T*S    EENTRO =        -0.00203502
  eigenvalues    EBANDS =        48.27536419
  atomic energy  EATOM  =       206.13192747
  Solvation  Ediel_sol  =         0.00000000
  ---------------------------------------------------
  free energy    TOTEN  =        -9.72535088 eV

  energy without entropy =       -9.72331587  energy(sigma->0) =       -9.72433337


--------------------------------------------------------------------------------------------------------




----------------------------------------- Iteration    1(   6)  ---------------------------------------


    POTLOK:  cpu time    0.0480: real time    0.0348
    SETDIJ:  cpu time    0.0030: real time    0.0018
     EDDAV:  cpu time    1.4888: real time    0.9180
       DOS:  cpu time    0.0030: real time    0.0010
    CHARGE:  cpu time    0.0190: real time    0.0112
    MIXING:  cpu time    0.0020: real time    0.0009
    --------------------------------------------
      LOOP:  cpu time    1.5668: real time    0.9706

 eigenvalue-minimisations  :   688
 total energy-change (2. order) : 0.3244398E-01  (-0.7424994E-03)
 number of electron       8.0000001 magnetization 
 augmentation part       -0.4721007 magnetization 

 Broyden mixing:
  rms(total) = 0.27977E+00    rms(broyden)= 0.27977E+00
  rms(prec ) = 0.31429E+00
  weight for this iteration     100.00

 eigenvalues of (default mixing * dielectric matrix)
  average eigenvalue GAMMA=   2.2443
  2.2443

 Free energy of the ion-electron system (eV)
  ---------------------------------------------------
  alpha Z        PSCENC =         5.41726767
  Ewald energy   TEWEN  =      -287.27449391
  -Hartree energ DENC   =        -0.61325552
  -exchange      EXHF   =         0.00000000
  -V(xc)+E(xc)   XCENC  =       -16.69680994
  PAW double counting   =       410.14655551     -374.98664128
  entropy T*S    EENTRO =        -0.00197934
  eigenvalues    EBANDS =        48.18452244
  atomic energy  EATOM  =       206.13192747
  Solvation  Ediel_sol  =         0.00000000
  ---------------------------------------------------
  free energy    TOTEN  =        -9.69290690 eV

  energy without entropy =       -9.69092756  energy(sigma->0) =       -9.69191723


--------------------------------------------------------------------------------------------------------




----------------------------------------- Iteration    1(   7)  ---------------------------------------


    POTLOK:  cpu time    0.0340: real time    0.0211
    SETDIJ:  cpu time    0.0170: real time    0.0114
     EDDAV:  cpu time    2.0137: real time    1.2434
       DOS:  cpu time    0.0030: real time    0.0010
    CHARGE:  cpu time    0.0230: real time    0.0137
    MIXING:  cpu time    0.0020: real time    0.0029
    --------------------------------------------
      LOOP:  cpu time    2.0977: real time    1.2964

 eigenvalue-minimisations  :   816
 total energy-change (2. order) : 0.1908790E-01  (-0.1474637E-02)
 number of electron       8.0000001 magnetization 
 augmentation part       -0.4778423 magnetization 

 Broyden mixing:
  rms(total) = 0.17321E-01    rms(broyden)= 0.17321E-01
  rms(prec ) = 0.21852E-01
  weight for this iteration     100.00

 eigenvalues of (default mixing * dielectric matrix)
  average eigenvalue GAMMA=   2.4827
  2.4827  2.4827

 Free energy of the ion-electron system (eV)
  ---------------------------------------------------
  alpha Z        PSCENC =         5.41726767
  Ewald energy   TEWEN  =      -287.27449391
  -Hartree energ DENC   =        -0.56580668
  -exchange      EXHF   =         0.00000000
  -V(xc)+E(xc)   XCENC  =       -16.58434358
  PAW double counting   =       881.87310491     -846.75773873
  entropy T*S    EENTRO =        -0.00191065
  eigenvalues    EBANDS =        48.08817449
  atomic energy  EATOM  =       206.13192747
  Solvation  Ediel_sol  =         0.00000000
  ---------------------------------------------------
  free energy    TOTEN  =        -9.67381900 eV

  energy without entropy =       -9.67190835  energy(sigma->0) =       -9.67286368


--------------------------------------------------------------------------------------------------------




----------------------------------------- Iteration    1(   8)  ---------------------------------------


    POTLOK:  cpu time    0.0500: real time    0.0293
    SETDIJ:  cpu time    0.0040: real time    0.0024
     EDDAV:  cpu time    1.8067: real time    1.1256
       DOS:  cpu time    0.0020: real time    0.0010
    CHARGE:  cpu time    0.0310: real time    0.0192
    MIXING:  cpu time    0.0030: real time    0.0009
    --------------------------------------------
      LOOP:  cpu time    1.9017: real time    1.1811

 eigenvalue-minimisations  :   848
 total energy-change (2. order) : 0.1778030E-03  (-0.1135292E-04)
 number of electron       8.0000001 magnetization 
 augmentation part       -0.4782272 magnetization 

 Broyden mixing:
  rms(total) = 0.18228E-02    rms(broyden)= 0.18227E-02
  rms(prec ) = 0.26188E-02
  weight for this iteration     100.00

 eigenvalues of (default mixing * dielectric matrix)
  average eigenvalue GAMMA=   2.0156
  0.9371  2.7057  2.4040

 Free energy of the ion-electron system (eV)
  ---------------------------------------------------
  alpha Z        PSCENC =         5.41726767
  Ewald energy   TEWEN  =      -287.27449391
  -Hartree energ DENC   =        -0.57214845
  -exchange      EXHF   =         0.00000000
  -V(xc)+E(xc)   XCENC  =       -16.56941157
  PAW double counting   =       856.37448091     -821.27470613
  entropy T*S    EENTRO =        -0.00190707
  eigenvalues    EBANDS =        48.09534988
  atomic energy  EATOM  =       206.13192747
  Solvation  Ediel_sol  =         0.00000000
  ---------------------------------------------------
  free energy    TOTEN  =        -9.67364120 eV

  energy without entropy =       -9.67173413  energy(sigma->0) =       -9.67268767


--------------------------------------------------------------------------------------------------------




----------------------------------------- Iteration    1(   9)  ---------------------------------------


    POTLOK:  cpu time    0.0350: real time    0.0217
    SETDIJ:  cpu time    0.0020: real time    0.0021
     EDDAV:  cpu time    1.5348: real time    0.9660
       DOS:  cpu time    0.0020: real time    0.0009
    --------------------------------------------
      LOOP:  cpu time    1.5788: real time    0.9933

 eigenvalue-minimisations  :   512
 total energy-change (2. order) : 0.6747300E-06  (-0.2565691E-06)
 number of electron       8.0000001 magnetization 
 augmentation part       -0.4782272 magnetization 

 Free energy of the ion-electron system (eV)
  ---------------------------------------------------
  alpha Z        PSCENC =         5.41726767
  Ewald energy   TEWEN  =      -287.27449391
  -Hartree energ DENC   =        -0.57284470
  -exchange      EXHF   =         0.00000000
  -V(xc)+E(xc)   XCENC  =       -16.56718894
  PAW double counting   =       856.16467719     -821.06651391
  entropy T*S    EENTRO =        -0.00190630
  eigenvalues    EBANDS =        48.09543490
  atomic energy  EATOM  =       206.13192747
  Solvation  Ediel_sol  =         0.00000000
  ---------------------------------------------------
  free energy    TOTEN  =        -9.67364053 eV

  energy without entropy =       -9.67173423  energy(sigma->0) =       -9.67268738


--------------------------------------------------------------------------------------------------------




 average (electrostatic) potential at core
  the test charge radii are     0.9892
  (the norm of the test charge is              1.0000)
       1 -77.7446       2 -77.7446
 
 
 
 E-fermi :  12.2700     XC(G=0): -11.8210     alpha+bet :-19.2986


 k-point     1 :       0.0833    0.0833    0.0833
  band No.  band energies     occupation 
      1      -2.9838      2.00000
      2       3.6076      2.00000
      3       6.1831      2.00000
      4      17.1987      0.00000
      5      17.4959      0.00000
      6      22.8597      0.00000
      7      23.0721      0.00000
      8      23.3132      0.00000

 k-point     2 :       0.2500    0.0833    0.0833
  band No.  band energies     occupation 
      1      -1.0096      2.00000
      2       5.5041      2.00000
      3       8.0201      2.00000
      4      10.5731      2.00000
      5      14.8423      0.00000
      6      16.7632      0.00000
      7      18.9758      0.00000
      8      21.0728      0.00000

 k-point     3 :       0.4167    0.0833    0.0833
  band No.  band energies     occupation 
      1       2.4753      2.00000
      2       4.8120      2.00000
      3       8.9012      2.00000
      4      10.7994      2.00000
      5      11.8385      2.00000
      6      13.5441      0.00000
      7      14.1549      0.00000
      8      19.9822      0.00000

 k-point     4 :      -0.4167    0.0833    0.0833
  band No.  band energies     occupation 
      1       0.5532      2.00000
      2       6.8499      2.00000
      3       7.6301      2.00000
      4       9.5913      2.00000
      5      13.6626      0.00000
      6      14.3712      0.00000
      7      16.2779      0.00000
      8      20.3392      0.00000

 k-point     5 :      -0.2500    0.0833    0.0833
  band No.  band energies     occupation 
      1      -2.1915      2.00000
      2       4.3714      2.00000
      3       6.9307      2.00000
      4      13.8265      0.00000
      5      15.9470      0.00000
      6      19.8381      0.00000
      7      21.5047      0.00000
      8      22.3429      0.00000

 k-point     6 :      -0.0833    0.0833    0.0833
  band No.  band energies     occupation 
      1      -3.3812      2.00000
      2       3.2238      2.00000
      3       5.8065      2.00000
      4      19.0221      0.00000
      5      20.2796      0.00000
      6      22.1264      0.00000
      7      24.0240      0.00000
      8      24.5588      0.00000

 k-point     7 :       0.2500    0.2500    0.0833
  band No.  band energies     occupation 
      1       1.7166      2.00000
      2       7.7916      2.00000
      3       8.7161      2.00000
      4       8.8200      2.00000
      5      10.7308      2.00000
      6      14.6014      0.00000
      7      15.2102      0.00000
      8      17.2744      0.00000

 k-point     8 :       0.4167    0.2500    0.0833
  band No.  band energies     occupation 
      1       3.6253      2.00000
      2       5.9271      2.00000
      3       8.1944      2.00000
      4      10.0778      2.00000
      5      11.8717      2.00000
      6      12.9168      0.00000
      7      14.2473      0.00000
      8      15.6051      0.00000

 k-point     9 :      -0.4167    0.2500    0.0833
  band No.  band energies     occupation 
      1       0.1644      2.00000
      2       6.6105      2.00000
      3       8.9049      2.00000
      4       9.6673      2.00000
      5      11.6612      2.00000
      6      15.6507      0.00000
      7      17.3729      0.00000
      8      18.6575      0.00000

 k-point    10 :      -0.2500    0.2500    0.0833
  band No.  band energies     occupation 
      1      -1.7967      2.00000
      2       4.7508      2.00000
      3       7.2992      2.00000
      4      12.0233      1.99951
      5      17.5690      0.00000
      6      18.0758      0.00000
      7      19.7783      0.00000
      8      20.4839      0.00000

 k-point    11 :       0.4167    0.4167    0.0833
  band No.  band energies     occupation 
      1       3.8013      2.00000
      2       4.2604      2.00000
      3      10.0094      2.00000
      4      10.5533      2.00000
      5      10.9169      2.00000
      6      13.1174      0.00000
      7      13.1628      0.00000
      8      17.3856      0.00000

 k-point    12 :      -0.4167    0.4167    0.0833
  band No.  band energies     occupation 
      1       1.3271      2.00000
      2       5.9065      2.00000
      3       7.8395      2.00000
      4      10.2388      2.00000
      5      12.4677      0.00518
      6      14.8105      0.00000
      7      16.2004      0.00000
      8      18.4789      0.00000

 k-point    13 :       0.0833    0.0833    0.2500
  band No.  band energies     occupation 
      1      -2.5372      2.00000
      2       1.4357      2.00000
      3       9.1390      2.00000
      4      17.5890      0.00000
      5      17.7626      0.00000
      6      20.1892      0.00000
      7      21.0928      0.00000
      8      21.5972      0.00000

 k-point    14 :       0.2500    0.0833    0.2500
  band No.  band energies     occupation 
      1      -0.5675      2.00000
      2       3.3623      2.00000
      3      10.5924      2.00000
      4      11.2799      2.00000
      5      14.6153      0.00000
      6      15.4215      0.00000
      7      18.9046      0.00000
      8      21.0792      0.00000

 k-point    15 :       0.4167    0.0833    0.2500
  band No.  band energies     occupation 
      1       2.9079      2.00000
      2       5.2065      2.00000
      3       6.8553      2.00000
      4       9.0820      2.00000
      5      13.9370      0.00000
      6      14.6351      0.00000
      7      16.4219      0.00000
      8      18.2565      0.00000

 k-point    16 :      -0.4167    0.0833    0.2500
  band No.  band energies     occupation 
      1       0.9915      2.00000
      2       4.8724      2.00000
      3       7.9337      2.00000
      4      11.4461      2.00000
      5      12.7510      0.00000
      6      14.6437      0.00000
      7      18.0008      0.00000
      8      19.3715      0.00000

 k-point    17 :      -0.2500    0.0833    0.2500
  band No.  band energies     occupation 
      1      -1.7467      2.00000
      2       2.2097      2.00000
      3       9.8582      2.00000
      4      14.2239      0.00000
      5      16.3009      0.00000
      6      17.9280      0.00000
      7      19.9896      0.00000
      8      20.7468      0.00000

 k-point    18 :      -0.0833    0.0833    0.2500
  band No.  band energies     occupation 
      1      -2.9337      2.00000
      2       1.0472      2.00000
      3       8.7726      2.00000
      4      19.1235      0.00000
      5      19.8952      0.00000
      6      20.6588      0.00000
      7      22.8671      0.00000
      8      23.1518      0.00000

 k-point    19 :       0.2500    0.2500    0.2500
  band No.  band energies     occupation 
      1       2.1518      2.00000
      2       5.9847      2.00000
      3       8.8865      2.00000
      4       9.2269      2.00000
      5      12.4758      0.00361
      6      12.6555      0.00000
      7      14.3883      0.00000
      8      19.7879      0.00000

 k-point    20 :       0.4167    0.2500    0.2500
  band No.  band energies     occupation 
      1       4.0535      2.00000
      2       6.3079      2.00000
      3       7.8948      2.00000
      4       8.7683      2.00000
      5      10.2524      2.00000
      6      12.3674      0.16834
      7      15.7330      0.00000
      8      17.8594      0.00000

 k-point    21 :      -0.4167    0.2500    0.2500
  band No.  band energies     occupation 
      1       0.6037      2.00000
      2       4.5025      2.00000
      3       9.7518      2.00000
      4      11.7774      2.00000
      5      12.1679      1.85135
      6      13.8289      0.00000
      7      15.9176      0.00000
      8      20.6969      0.00000

 k-point    22 :      -0.2500    0.2500    0.2500
  band No.  band energies     occupation 
      1      -1.3528      2.00000
      2       2.5950      2.00000
      3      10.1945      2.00000
      4      12.4494      0.01119
      5      16.1457      0.00000
      6      17.9536      0.00000
      7      19.7676      0.00000
      8      21.3883      0.00000

 k-point    23 :       0.4167    0.4167    0.2500
  band No.  band energies     occupation 
      1       4.2295      2.00000
      2       4.6777      2.00000
      3       8.1061      2.00000
      4       8.5412      2.00000
      5      11.3198      2.00000
      6      14.5768      0.00000
      7      15.7642      0.00000
      8      16.7668      0.00000

 k-point    24 :      -0.4167    0.4167    0.2500
  band No.  band energies     occupation 
      1       1.7634      2.00000
      2       5.5466      2.00000
      3       6.5198      2.00000
      4      10.1537      2.00000
      5      13.3483      0.00000
      6      16.5860      0.00000
      7      17.4765      0.00000
      8      18.8357      0.00000

 k-point    25 :       0.0833    0.0833    0.4167
  band No.  band energies     occupation 
      1      -1.6472      2.00000
      2      -0.3199      2.00000
      3      12.4430      0.01440
      4      15.9790      0.00000
      5      18.3558      0.00000
      6      18.9004      0.00000
      7      19.6264      0.00000
      8      20.0906      0.00000

 k-point    26 :       0.2500    0.0833    0.4167
  band No.  band energies     occupation 
      1       0.3135      2.00000
      2       1.6268      2.00000
      3      11.6890      2.00000
      4      12.8034      0.00000
      5      14.4536      0.00000
      6      16.0164      0.00000
      7      17.4205      0.00000
      8      18.2444      0.00000

 k-point    27 :       0.4167    0.0833    0.4167
  band No.  band energies     occupation 
      1       3.7658      2.00000
      2       4.9984      2.00000
      3       6.2147      2.00000
      4       7.4264      2.00000
      5      14.9557      0.00000
      6      16.0141      0.00000
      7      17.8024      0.00000
      8      19.6319      0.00000

 k-point    28 :      -0.4167    0.0833    0.4167
  band No.  band energies     occupation 
      1       1.8646      2.00000
      2       3.1642      2.00000
      3       8.7650      2.00000
      4      10.0022      2.00000
      5      15.1708      0.00000
      6      15.7136      0.00000
      7      16.9376      0.00000
      8      19.3470      0.00000

 k-point    29 :      -0.2500    0.0833    0.4167
  band No.  band energies     occupation 
      1      -0.8603      2.00000
      2       0.4616      2.00000
      3      13.0737      0.00000
      4      14.9343      0.00000
      5      16.2650      0.00000
      6      16.5421      0.00000
      7      17.8116      0.00000
      8      18.5361      0.00000

 k-point    30 :      -0.0833    0.0833    0.4167
  band No.  band energies     occupation 
      1      -2.0419      2.00000
      2      -0.7120      2.00000
      3      12.0980      1.98497
      4      15.7255      0.00000
      5      20.2584      0.00000
      6      21.3894      0.00000
      7      21.4153      0.00000
      8      22.5417      0.00000

 k-point    31 :       0.2500    0.2500    0.4167
  band No.  band energies     occupation 
      1       3.0180      2.00000
      2       4.3049      2.00000
      3       9.6793      2.00000
      4       9.9886      2.00000
      5      11.0738      2.00000
      6      11.3301      2.00000
      7      17.1275      0.00000
      8      20.3194      0.00000

 k-point    32 :       0.4167    0.2500    0.4167
  band No.  band energies     occupation 
      1       4.9000      2.00000
      2       6.0986      2.00000
      3       7.3469      2.00000
      4       8.4883      2.00000
      5       9.6424      2.00000
      6      10.8181      2.00000
      7      18.7605      0.00000
      8      20.5384      0.00000

 k-point    33 :      -0.4167    0.2500    0.4167
  band No.  band energies     occupation 
      1       1.4789      2.00000
      2       2.7827      2.00000
      3      10.5943      2.00000
      4      11.7654      2.00000
      5      12.8726      0.00000
      6      13.9096      0.00000
      7      15.9322      0.00000
      8      19.1605      0.00000

 k-point    34 :      -0.2500    0.2500    0.4167
  band No.  band energies     occupation 
      1      -0.4681      2.00000
      2       0.8510      2.00000
      3      12.9600      0.00000
      4      13.5133      0.00000
      5      14.7550      0.00000
      6      17.2120      0.00000
      7      18.7222      0.00000
      8      19.8717      0.00000

 k-point    35 :       0.4167    0.4167    0.4167
  band No.  band energies     occupation 
      1       5.0608      2.00000
      2       5.4526      2.00000
      3       6.5135      2.00000
      4       6.8961      2.00000
      5      12.1361      1.94174
      6      13.3253      0.00000
      7      18.7991      0.00000
      8      19.4440      0.00000

 k-point    36 :      -0.4167    0.4167    0.4167
  band No.  band energies     occupation 
      1       2.6316      2.00000
      2       3.9195      2.00000
      3       7.2815      2.00000
      4       8.5311      2.00000
      5      16.4310      0.00000
      6      17.3573      0.00000
      7      18.5128      0.00000
      8      18.9219      0.00000


--------------------------------------------------------------------------------------------------------


 soft charge-density along one line, spin component           1
         0         1         2         3         4         5         6         7         8         9
 total charge-density along one line
 
 pseudopotential strength for first ion, spin component:           1
 17.729  24.731   0.000   0.000  -0.000   0.000   0.000  -0.000
 24.731  34.503   0.000   0.000  -0.000   0.000   0.000  -0.000
  0.000   0.000   4.065  -0.000   0.000   7.570  -0.000   0.000
  0.000   0.000  -0.000   4.065   0.000  -0.000   7.570   0.000
 -0.000  -0.000   0.000   0.000   4.065   0.000   0.000   7.570
  0.000   0.000   7.570  -0.000   0.000  14.110  -0.000   0.000
  0.000   0.000  -0.000   7.570   0.000  -0.000  14.110   0.000
 -0.000  -0.000   0.000   0.000   7.570   0.000   0.000  14.110
 total augmentation occupancy for first ion, spin component:           1
  6.190  -2.784   0.000   0.000   0.000  -0.000   0.000   0.000
 -2.784   1.656   0.000   0.000  -0.000  -0.000   0.000   0.000
 -0.000   0.000   2.898   0.000   0.000  -0.738   0.000   0.000
  0.000   0.000  -0.000   2.899  -0.000   0.000  -0.739   0.000
  0.000   0.000   0.000  -0.000   2.898   0.000   0.000  -0.738
  0.000   0.000  -0.738  -0.000   0.000   0.205  -0.000   0.000
  0.000   0.000  -0.000  -0.739  -0.000   0.000   0.205   0.000
 -0.000  -0.000   0.000   0.000  -0.738   0.000  -0.000   0.205


------------------------ aborting loop because EDIFF is reached ----------------------------------------


    CHARGE:  cpu time    0.0310: real time    0.0192
    FORLOC:  cpu time    0.0020: real time    0.0005
    FORNL :  cpu time    0.0340: real time    0.0209
    STRESS:  cpu time    0.2900: real time    0.1809
    FORCOR:  cpu time    0.0530: real time    0.0304
    FORHAR:  cpu time    0.0130: real time    0.0077
    MIXING:  cpu time    0.0100: real time    0.0073
    OFIELD:  cpu time    0.0000: real time    0.0000

  FORCE on cell =-STRESS in cart. coord.  units (eV):
  Direction    XX          YY          ZZ          XY          YZ          ZX
  --------------------------------------------------------------------------------------
  Alpha Z     5.41727     5.41727     5.41727
  Ewald     -95.82376   -95.82376   -95.62717    -0.00000     0.00000    -0.00000
  Hartree     0.18546     0.18546     0.20189    -0.00000    -0.00000    -0.00000
  E(xc)     -26.43749   -26.43749   -26.46362    -0.00000    -0.00000    -0.00000
  Local      -7.41644    -7.41644    -7.72707    -0.00001    -0.00000    -0.00000
  n-local    74.63163    78.86793    77.34182    -1.27691     0.16423    -0.76896
  augment   -12.15047   -12.15047   -12.14310     0.00001    -0.00000     0.00000
  Kinetic    78.72406    45.99770    61.33333    11.05853     0.03596     0.12905
  Fock        0.00000     0.00000     0.00000     0.00000     0.00000     0.00000
  -------------------------------------------------------------------------------------
  Total       2.88522     2.88522     2.33335     0.00000     0.00000     0.00000
  in kB     185.97542   185.97542   150.40310     0.00000     0.00000     0.00000
  external pressure =      174.12 kB  Pullay stress =        0.00 kB


 VOLUME and BASIS-vectors are now :
 -----------------------------------------------------------------------------
  energy-cutoff  :      450.00
  volume of cell :       24.86
      direct lattice vectors                 reciprocal lattice vectors
     2.600000000  0.000000000  0.000000000     0.384615385  0.222057796  0.000000000
    -1.300000000  2.251666050  0.000000000     0.000000000  0.444115592  0.000000000
     0.000000000  0.000000000  4.245774000     0.000000000  0.000000000  0.235528316

  length of vectors
     2.600000000  2.600000000  4.245774000     0.444115592  0.444115592  0.235528316


 FORCES acting on ions
    electron-ion (+dipol)            ewald-force                    non-local-force                 convergence-correction
 -----------------------------------------------------------------------------------------------
   -.287E-08 0.166E-08 0.390E-14   -.102E-12 0.716E-13 -.472E-14   -.772E-16 0.520E-16 0.000E+00   0.453E-09 -.262E-09 0.306E-14
   0.287E-08 -.166E-08 -.147E-13   0.103E-12 -.726E-13 0.472E-14   0.815E-16 -.538E-16 0.000E+00   -.453E-09 0.262E-09 -.303E-14
 -----------------------------------------------------------------------------------------------
   -.707E-14 -.347E-14 -.108E-13   0.490E-15 -.105E-14 0.000E+00   0.434E-17 -.173E-17 0.000E+00   -.840E-16 -.739E-16 0.220E-16
 
 
 POSITION                                       TOTAL-FORCE (eV/Angst)
 -----------------------------------------------------------------------------------
      0.00000      0.00000      0.00000        -0.000000      0.000000      0.000000
     -0.00000      1.50111      2.12289         0.000000      0.000000      0.000000
 -----------------------------------------------------------------------------------
    total drift:                               -0.000000     -0.000000     -0.000000


--------------------------------------------------------------------------------------------------------



  FREE ENERGIE OF THE ION-ELECTRON SYSTEM (eV)
  ---------------------------------------------------
  free  energy   TOTEN  =        -9.67364053 eV

  energy  without entropy=       -9.67173423  energy(sigma->0) =       -9.67268738
 


--------------------------------------------------------------------------------------------------------


    POTLOK:  cpu time    0.0510: real time    0.0304


--------------------------------------------------------------------------------------------------------




--------------------------------------------------------------------------------------------------------


    WAVPRE:  cpu time    0.0010: real time    0.0019
 FEWALD executed in parallel
    FEWALD:  cpu time    0.0010: real time    0.0001
    GENKIN:  cpu time    0.0060: real time    0.0064
    ORTHCH:  cpu time    0.1550: real time    0.1180
     LOOP+:  cpu time   18.7172: real time   12.1019


----------------------------------------- Iteration    2(   1)  ---------------------------------------


    POTLOK:  cpu time    0.0650: real time    0.0391
    SETDIJ:  cpu time    0.0170: real time    0.0123
     EDDAV:  cpu time    2.2747: real time    1.4323
       DOS:  cpu time    0.0020: real time    0.0011
    CHARGE:  cpu time    0.0270: real time    0.0164
    MIXING:  cpu time    0.0030: real time    0.0011
    --------------------------------------------
      LOOP:  cpu time    2.3906: real time    1.5037

 eigenvalue-minimisations  :   896
 total energy-change (2. order) :-0.3981533E-02  (-0.9199824E-02)
 number of electron       8.0000000 magnetization 
 augmentation part       -0.4786678 magnetization 

 Broyden mixing:
  rms(total) = 0.18651E-01    rms(broyden)= 0.18651E-01
  rms(prec ) = 0.43707E-01
  weight for this iteration     100.00

 Free energy of the ion-electron system (eV)
  ---------------------------------------------------
  alpha Z        PSCENC =         5.41726767
  Ewald energy   TEWEN  =      -287.26568599
  -Hartree energ DENC   =        -0.57290934
  -exchange      EXHF   =         0.00000000
  -V(xc)+E(xc)   XCENC  =       -16.56752406
  PAW double counting   =       857.09709084     -821.99825941
  entropy T*S    EENTRO =        -0.00440460
  eigenvalues    EBANDS =        48.08487468
  atomic energy  EATOM  =       206.13192747
  Solvation  Ediel_sol  =         0.00000000
  ---------------------------------------------------
  free energy    TOTEN  =        -9.67762273 eV

  energy without entropy =       -9.67321814  energy(sigma->0) =       -9.67542043


--------------------------------------------------------------------------------------------------------




----------------------------------------- Iteration    2(   2)  ---------------------------------------


    POTLOK:  cpu time    0.0400: real time    0.0249
    SETDIJ:  cpu time    0.0080: real time    0.0042
     EDDAV:  cpu time    1.6408: real time    1.0685
       DOS:  cpu time    0.0030: real time    0.0010
    CHARGE:  cpu time    0.0380: real time    0.0241
    MIXING:  cpu time    0.0060: real time    0.0046
    --------------------------------------------
      LOOP:  cpu time    1.7397: real time    1.1297

 eigenvalue-minimisations  :   688
 total energy-change (2. order) : 0.7437639E-03  (-0.1534965E-03)
 number of electron       8.0000000 magnetization 
 augmentation part       -0.4787255 magnetization 

 Broyden mixing:
  rms(total) = 0.10242E-01    rms(broyden)= 0.10242E-01
  rms(prec ) = 0.24446E-01
  weight for this iteration     100.00

 eigenvalues of (default mixing * dielectric matrix)
  average eigenvalue GAMMA=   2.0369
  2.0369

 Free energy of the ion-electron system (eV)
  ---------------------------------------------------
  alpha Z        PSCENC =         5.41726767
  Ewald energy   TEWEN  =      -287.26568599
  -Hartree energ DENC   =        -0.57362681
  -exchange      EXHF   =         0.00000000
  -V(xc)+E(xc)   XCENC  =       -16.56754179
  PAW double counting   =       857.07704468     -821.97839341
  entropy T*S    EENTRO =        -0.00440229
  eigenvalues    EBANDS =        48.08653149
  atomic energy  EATOM  =       206.13192747
  Solvation  Ediel_sol  =         0.00000000
  ---------------------------------------------------
  free energy    TOTEN  =        -9.67687897 eV

  energy without entropy =       -9.67247668  energy(sigma->0) =       -9.67467783


--------------------------------------------------------------------------------------------------------




----------------------------------------- Iteration    2(   3)  ---------------------------------------


    POTLOK:  cpu time    0.0460: real time    0.0287
    SETDIJ:  cpu time    0.0060: real time    0.0023
     EDDAV:  cpu time    2.2927: real time    1.4565
       DOS:  cpu time    0.0020: real time    0.0010
    CHARGE:  cpu time    0.0270: real time    0.0185
    MIXING:  cpu time    0.0020: real time    0.0010
    --------------------------------------------
      LOOP:  cpu time    2.3796: real time    1.5107

 eigenvalue-minimisations  :   848
 total energy-change (2. order) : 0.3708598E-03  (-0.8902422E-04)
 number of electron       8.0000000 magnetization 
 augmentation part       -0.4786881 magnetization 

 Broyden mixing:
  rms(total) = 0.81474E-03    rms(broyden)= 0.81471E-03
  rms(prec ) = 0.12824E-02
  weight for this iteration     100.00

 eigenvalues of (default mixing * dielectric matrix)
  average eigenvalue GAMMA=   1.6294
  1.0473  2.2114

 Free energy of the ion-electron system (eV)
  ---------------------------------------------------
  alpha Z        PSCENC =         5.41726767
  Ewald energy   TEWEN  =      -287.26568599
  -Hartree energ DENC   =        -0.57534942
  -exchange      EXHF   =         0.00000000
  -V(xc)+E(xc)   XCENC  =       -16.56756852
  PAW double counting   =       856.54369655     -821.44549563
  entropy T*S    EENTRO =        -0.00440002
  eigenvalues    EBANDS =        48.08909977
  atomic energy  EATOM  =       206.13192747
  Solvation  Ediel_sol  =         0.00000000
  ---------------------------------------------------
  free energy    TOTEN  =        -9.67650811 eV

  energy without entropy =       -9.67210809  energy(sigma->0) =       -9.67430810


--------------------------------------------------------------------------------------------------------




----------------------------------------- Iteration    2(   4)  ---------------------------------------


    POTLOK:  cpu time    0.0540: real time    0.0369
    SETDIJ:  cpu time    0.0030: real time    0.0018
     EDDAV:  cpu time    1.2548: real time    0.8392
       DOS:  cpu time    0.0020: real time    0.0008
    --------------------------------------------
      LOOP:  cpu time    1.3178: real time    0.8825

 eigenvalue-minimisations  :   616
 total energy-change (2. order) :-0.2887768E-05  (-0.2785398E-05)
 number of electron       8.0000000 magnetization 
 augmentation part       -0.4786881 magnetization 

 Free energy of the ion-electron system (eV)
  ---------------------------------------------------
  alpha Z        PSCENC =         5.41726767
  Ewald energy   TEWEN  =      -287.26568599
  -Hartree energ DENC   =        -0.57513444
  -exchange      EXHF   =         0.00000000
  -V(xc)+E(xc)   XCENC  =       -16.56760265
  PAW double counting   =       856.60917028     -821.51096416
  entropy T*S    EENTRO =        -0.00440016
  eigenvalues    EBANDS =        48.08891098
  atomic energy  EATOM  =       206.13192747
  Solvation  Ediel_sol  =         0.00000000
  ---------------------------------------------------
  free energy    TOTEN  =        -9.67651100 eV

  energy without entropy =       -9.67211083  energy(sigma->0) =       -9.67431092


--------------------------------------------------------------------------------------------------------




 average (electrostatic) potential at core
  the test charge radii are     0.9892
  (the norm of the test charge is              1.0000)
       1 -77.7438       2 -77.7438
 
 
 
 E-fermi :  12.3114     XC(G=0): -11.8210     alpha+bet :-19.2986


 k-point     1 :       0.0833    0.0833    0.0833
  band No.  band energies     occupation 
      1      -2.9888      2.00000
      2       3.7206      2.00000
      3       6.3402      2.00000
      4      17.0002      0.00000
      5      17.3337      0.00000
      6      22.7856      0.00000
      7      23.0513      0.00000
      8      23.2935      0.00000

 k-point     2 :       0.2500    0.0833    0.0833
  band No.  band energies     occupation 
      1      -1.0325      2.00000
      2       5.5972      2.00000
      3       8.1539      2.00000
      4      10.4573      2.00000
      5      14.6911      0.00000
      6      16.7483      0.00000
      7      19.0004      0.00000
      8      21.0600      0.00000

 k-point     3 :       0.4167    0.0833    0.0833
  band No.  band energies     occupation 
      1       2.4193      2.00000
      2       4.7457      2.00000
      3       8.9511      2.00000
      4      10.8752      2.00000
      5      11.9145      2.00000
      6      13.5189      0.00000
      7      14.1174      0.00000
      8      19.9634      0.00000

 k-point     4 :      -0.4167    0.0833    0.0833
  band No.  band energies     occupation 
      1       0.5162      2.00000
      2       6.8927      2.00000
      3       7.5731      2.00000
      4       9.7125      2.00000
      5      13.6365      0.00000
      6      14.2664      0.00000
      7      16.3326      0.00000
      8      20.3210      0.00000

 k-point     5 :      -0.2500    0.0833    0.0833
  band No.  band energies     occupation 
      1      -2.2037      2.00000
      2       4.4764      2.00000
      3       7.0806      2.00000
      4      13.6754      0.00000
      5      15.7827      0.00000
      6      19.8005      0.00000
      7      21.4843      0.00000
      8      22.3335      0.00000

 k-point     6 :      -0.0833    0.0833    0.0833
  band No.  band energies     occupation 
      1      -3.3827      2.00000
      2       3.3409      2.00000
      3       5.9670      2.00000
      4      18.8221      0.00000
      5      20.0568      0.00000
      6      22.0166      0.00000
      7      24.2797      0.00000
      8      24.2865      0.00000

 k-point     7 :       0.2500    0.2500    0.0833
  band No.  band energies     occupation 
      1       1.6691      2.00000
      2       7.7932      2.00000
      3       8.6630      2.00000
      4       8.7386      2.00000
      5      10.8398      2.00000
      6      14.5651      0.00000
      7      15.2722      0.00000
      8      17.3442      0.00000

 k-point     8 :       0.4167    0.2500    0.0833
  band No.  band energies     occupation 
      1       3.5590      2.00000
      2       5.8480      2.00000
      3       8.1102      2.00000
      4      10.1082      2.00000
      5      11.9402      2.00000
      6      12.9560      0.00000
      7      14.3092      0.00000
      8      15.6693      0.00000

 k-point     9 :      -0.4167    0.2500    0.0833
  band No.  band energies     occupation 
      1       0.1310      2.00000
      2       6.6914      2.00000
      3       8.9290      2.00000
      4       9.6568      2.00000
      5      11.5408      2.00000
      6      15.6399      0.00000
      7      17.3920      0.00000
      8      18.6959      0.00000

 k-point    10 :      -0.2500    0.2500    0.0833
  band No.  band energies     occupation 
      1      -1.8124      2.00000
      2       4.8518      2.00000
      3       7.4448      2.00000
      4      11.8904      2.00000
      5      17.3716      0.00000
      6      18.0594      0.00000
      7      19.6315      0.00000
      8      20.4940      0.00000

 k-point    11 :       0.4167    0.4167    0.0833
  band No.  band energies     occupation 
      1       3.7192      2.00000
      2       4.2120      2.00000
      3      10.0077      2.00000
      4      10.6411      2.00000
      5      10.8203      2.00000
      6      13.2069      0.00000
      7      13.2327      0.00000
      8      17.3954      0.00000

 k-point    12 :      -0.4167    0.4167    0.0833
  band No.  band energies     occupation 
      1       1.2829      2.00000
      2       5.8348      2.00000
      3       7.8982      2.00000
      4      10.3549      2.00000
      5      12.5063      0.00586
      6      14.8811      0.00000
      7      16.0135      0.00000
      8      18.3273      0.00000

 k-point    13 :       0.0833    0.0833    0.2500
  band No.  band energies     occupation 
      1      -2.5341      2.00000
      2       1.5101      2.00000
      3       9.3466      2.00000
      4      17.3986      0.00000
      5      17.6415      0.00000
      6      20.4751      0.00000
      7      20.9898      0.00000
      8      21.5114      0.00000

 k-point    14 :       0.2500    0.0833    0.2500
  band No.  band energies     occupation 
      1      -0.5823      2.00000
      2       3.4182      2.00000
      3      10.5940      2.00000
      4      11.3487      2.00000
      5      14.5596      0.00000
      6      15.2868      0.00000
      7      18.8316      0.00000
      8      21.2323      0.00000

 k-point    15 :       0.4167    0.0833    0.2500
  band No.  band energies     occupation 
      1       2.8601      2.00000
      2       5.1518      2.00000
      3       6.8691      2.00000
      4       9.0915      2.00000
      5      13.8848      0.00000
      6      14.6968      0.00000
      7      16.5209      0.00000
      8      18.2216      0.00000

 k-point    16 :      -0.4167    0.0833    0.2500
  band No.  band energies     occupation 
      1       0.9626      2.00000
      2       4.9135      2.00000
      3       7.8479      2.00000
      4      11.4641      2.00000
      5      12.8768      0.00000
      6      14.5078      0.00000
      7      17.9652      0.00000
      8      19.4487      0.00000

 k-point    17 :      -0.2500    0.0833    0.2500
  band No.  band energies     occupation 
      1      -1.7508      2.00000
      2       2.2767      2.00000
      3      10.0561      2.00000
      4      14.0837      0.00000
      5      16.1508      0.00000
      6      17.8508      0.00000
      7      19.9131      0.00000
      8      21.0266      0.00000

 k-point    18 :      -0.0833    0.0833    0.2500
  band No.  band energies     occupation 
      1      -2.9270      2.00000
      2       1.1254      2.00000
      3       8.9843      2.00000
      4      19.0832      0.00000
      5      20.0759      0.00000
      6      20.4437      0.00000
      7      22.7478      0.00000
      8      22.9938      0.00000

 k-point    19 :       0.2500    0.2500    0.2500
  band No.  band energies     occupation 
      1       2.1124      2.00000
      2       6.0144      2.00000
      3       8.7738      2.00000
      4       9.1545      2.00000
      5      12.5276      0.00224
      6      12.5990      0.00005
      7      14.4982      0.00000
      8      19.9026      0.00000

 k-point    20 :       0.4167    0.2500    0.2500
  band No.  band energies     occupation 
      1       3.9954      2.00000
      2       6.2412      2.00000
      3       7.8913      2.00000
      4       8.6938      2.00000
      5      10.2408      2.00000
      6      12.3535      0.55164
      7      15.8726      0.00000
      8      17.9857      0.00000

 k-point    21 :      -0.4167    0.2500    0.2500
  band No.  band energies     occupation 
      1       0.5784      2.00000
      2       4.5475      2.00000
      3       9.6523      2.00000
      4      11.7667      2.00000
      5      12.2148      1.82808
      6      13.7976      0.00000
      7      15.8822      0.00000
      8      20.8240      0.00000

 k-point    22 :      -0.2500    0.2500    0.2500
  band No.  band energies     occupation 
      1      -1.3604      2.00000
      2       2.6583      2.00000
      3      10.3820      2.00000
      4      12.3313      0.77822
      5      16.0903      0.00000
      6      17.7639      0.00000
      7      19.7347      0.00000
      8      21.2731      0.00000

 k-point    23 :       0.4167    0.4167    0.2500
  band No.  band energies     occupation 
      1       4.1557      2.00000
      2       4.6380      2.00000
      3       8.0937      2.00000
      4       8.5731      2.00000
      5      11.2077      2.00000
      6      14.5733      0.00000
      7      15.9010      0.00000
      8      16.8713      0.00000

 k-point    24 :      -0.4167    0.4167    0.2500
  band No.  band energies     occupation 
      1       1.7272      2.00000
      2       5.5718      2.00000
      3       6.4550      2.00000
      4      10.1549      2.00000
      5      13.5078      0.00000
      6      16.4067      0.00000
      7      17.5753      0.00000
      8      18.7219      0.00000

 k-point    25 :       0.0833    0.0833    0.4167
  band No.  band energies     occupation 
      1      -1.6280      2.00000
      2      -0.2768      2.00000
      3      12.7033      0.00000
      4      16.2668      0.00000
      5      18.1825      0.00000
      6      18.7810      0.00000
      7      19.4765      0.00000
      8      19.9684      0.00000

 k-point    26 :       0.2500    0.0833    0.4167
  band No.  band energies     occupation 
      1       0.3147      2.00000
      2       1.6518      2.00000
      3      11.5986      2.00000
      4      12.7604      0.00000
      5      14.6357      0.00000
      6      15.9178      0.00000
      7      17.3396      0.00000
      8      18.4844      0.00000

 k-point    27 :       0.4167    0.0833    0.4167
  band No.  band energies     occupation 
      1       3.7342      2.00000
      2       4.9905      2.00000
      3       6.1674      2.00000
      4       7.4032      2.00000
      5      14.8366      0.00000
      6      15.9408      0.00000
      7      17.9812      0.00000
      8      19.8159      0.00000

 k-point    28 :      -0.4167    0.0833    0.4167
  band No.  band energies     occupation 
      1       1.8516      2.00000
      2       3.1749      2.00000
      3       8.6943      2.00000
      4       9.9561      2.00000
[...]

 k-point     2 :       0.2500    0.0833    0.0833
  band No.  band energies     occupation 
      1      -1.0566      2.00000
      2       5.6915      2.00000
      3       8.2963      2.00000
      4      10.3398      2.00000
      5      14.5343      0.00000
      6      16.7317      0.00000
      7      19.0327      0.00000
      8      21.0446      0.00000

 k-point     3 :       0.4167    0.0833    0.0833
  band No.  band energies     occupation 
      1       2.3609      2.00000
      2       4.6770      2.00000
      3       9.0006      2.00000
      4      10.9547      2.00000
      5      11.9943      2.00000
      6      13.4547      0.00000
      7      14.1272      0.00000
      8      19.9424      0.00000

 k-point     4 :      -0.4167    0.0833    0.0833
  band No.  band energies     occupation 
      1       0.4775      2.00000
      2       6.9185      2.00000
      3       7.5302      2.00000
      4       9.8443      2.00000
      5      13.5864      0.00000
      6      14.1799      0.00000
      7      16.3965      0.00000
      8      20.3005      0.00000

 k-point     5 :      -0.2500    0.0833    0.0833
  band No.  band energies     occupation 
      1      -2.2169      2.00000
      2       4.5828      2.00000
      3       7.2410      2.00000
      4      13.5196      0.00000
      5      15.6135      0.00000
      6      19.7579      0.00000
      7      21.4661      0.00000
      8      22.2282      0.00000

 k-point     6 :      -0.0833    0.0833    0.0833
  band No.  band energies     occupation 
      1      -3.3849      2.00000
      2       3.4598      2.00000
      3       6.1385      2.00000
      4      18.6147      0.00000
      5      19.8276      0.00000
      6      21.8725      0.00000
      7      24.0327      0.00000
      8      24.4298      0.00000

 k-point     7 :       0.2500    0.2500    0.0833
  band No.  band energies     occupation 
      1       1.6197      2.00000
      2       7.7737      2.00000
      3       8.6269      2.00000
      4       8.6546      2.00000
      5      10.9596      2.00000
      6      14.5288      0.00000
      7      15.3358      0.00000
      8      17.4209      0.00000

 k-point     8 :       0.4167    0.2500    0.0833
  band No.  band energies     occupation 
      1       3.4901      2.00000
      2       5.7658      2.00000
      3       8.0224      2.00000
      4      10.1387      2.00000
      5      12.0109      1.99999
      6      13.0015      0.00000
      7      14.3782      0.00000
      8      15.7380      0.00000

 k-point     9 :      -0.4167    0.2500    0.0833
  band No.  band energies     occupation 
      1       0.0961      2.00000
      2       6.7727      2.00000
      3       8.9158      2.00000
      4       9.6893      2.00000
      5      11.4180      2.00000
      6      15.6264      0.00000
      7      17.4165      0.00000
      8      18.7374      0.00000

 k-point    10 :      -0.2500    0.2500    0.0833
  band No.  band energies     occupation 
      1      -1.8293      2.00000
      2       4.9542      2.00000
      3       7.6007      2.00000
      4      11.7537      2.00000
      5      17.1689      0.00000
      6      18.0393      0.00000
      7      19.4767      0.00000
      8      20.5125      0.00000

 k-point    11 :       0.4167    0.4167    0.0833
  band No.  band energies     occupation 
      1       3.6344      2.00000
      2       4.1615      2.00000
      3      10.0018      2.00000
      4      10.7236      2.00000
      5      10.7292      2.00000
      6      13.3064      0.00000
      7      13.3121      0.00000
      8      17.4045      0.00000

 k-point    12 :      -0.4167    0.4167    0.0833
  band No.  band energies     occupation 
      1       1.2367      2.00000
      2       5.7593      2.00000
      3       7.9584      2.00000
      4      10.4806      2.00000
      5      12.5448      0.00275
      6      14.9605      0.00000
      7      15.8217      0.00000
      8      18.1717      0.00000

 k-point    13 :       0.0833    0.0833    0.2500
  band No.  band energies     occupation 
      1      -2.5315      2.00000
      2       1.5868      2.00000
      3       9.5648      2.00000
      4      17.2030      0.00000
      5      17.5047      0.00000
      6      20.6867      0.00000
      7      20.9699      0.00000
      8      21.4227      0.00000

 k-point    14 :       0.2500    0.0833    0.2500
  band No.  band energies     occupation 
      1      -0.5980      2.00000
      2       3.4759      2.00000
      3      10.5459      2.00000
      4      11.4733      2.00000
      5      14.4980      0.00000
      6      15.1531      0.00000
      7      18.7568      0.00000
      8      21.3077      0.00000

 k-point    15 :       0.4167    0.0833    0.2500
  band No.  band energies     occupation 
      1       2.8102      2.00000
      2       5.0948      2.00000
      3       6.8840      2.00000
      4       9.1020      2.00000
      5      13.7933      0.00000
      6      14.8016      0.00000
      7      16.6214      0.00000
      8      18.1939      0.00000

 k-point    16 :      -0.4167    0.0833    0.2500
  band No.  band energies     occupation 
      1       0.9323      2.00000
      2       4.9558      2.00000
      3       7.7594      2.00000
      4      11.4765      2.00000
      5      13.0130      0.00000
      6      14.3726      0.00000
      7      17.9237      0.00000
      8      19.5364      0.00000

 k-point    17 :      -0.2500    0.0833    0.2500
  band No.  band energies     occupation 
      1      -1.7556      2.00000
      2       2.3457      2.00000
      3      10.2640      2.00000
      4      13.9391      0.00000
      5      15.9954      0.00000
      6      17.7702      0.00000
      7      19.8311      0.00000
      8      21.2903      0.00000

 k-point    18 :      -0.0833    0.0833    0.2500
  band No.  band energies     occupation 
      1      -2.9208      2.00000
      2       1.2059      2.00000
      3       9.2069      2.00000
      4      18.9462      0.00000
      5      20.2224      0.00000
      6      20.3440      0.00000
      7      22.6244      0.00000
      8      22.8477      0.00000

 k-point    19 :       0.2500    0.2500    0.2500
  band No.  band energies     occupation 
      1       2.0713      2.00000
      2       6.0448      2.00000
      3       8.6579      2.00000
      4       9.0797      2.00000
      5      12.5420      0.00312
      6      12.5771      0.00056
      7      14.6212      0.00000
      8      20.0239      0.00000

 k-point    20 :       0.4167    0.2500    0.2500
  band No.  band energies     occupation 
      1       3.9350      2.00000
      2       6.1713      2.00000
      3       7.8867      2.00000
      4       8.6183      2.00000
      5      10.2301      2.00000
      6      12.3411      0.90867
      7      16.0215      0.00000
      8      18.1207      0.00000

 k-point    21 :      -0.4167    0.2500    0.2500
  band No.  band energies     occupation 
      1       0.5518      2.00000
      2       4.5939      2.00000
      3       9.5484      2.00000
      4      11.6971      2.00000
      5      12.3212      1.13297
      6      13.7711      0.00000
      7      15.8484      0.00000
      8      20.9537      0.00000

 k-point    22 :      -0.2500    0.2500    0.2500
  band No.  band energies     occupation 
      1      -1.3689      2.00000
      2       2.7235      2.00000
      3      10.5762      2.00000
      4      12.2130      1.91031
      5      16.0334      0.00000
      6      17.5692      0.00000
      7      19.6617      0.00000
      8      21.1551      0.00000

 k-point    23 :       0.4167    0.4167    0.2500
  band No.  band energies     occupation 
      1       4.0796      2.00000
      2       4.5965      2.00000
      3       8.0819      2.00000
      4       8.6057      2.00000
      5      11.0923      2.00000
      6      14.5667      0.00000
      7      16.0472      0.00000
      8      16.9879      0.00000

 k-point    24 :      -0.4167    0.4167    0.2500
  band No.  band energies     occupation 
      1       1.6895      2.00000
      2       5.5953      2.00000
      3       6.3908      2.00000
      4      10.1563      2.00000
      5      13.6769      0.00000
      6      16.2228      0.00000
      7      17.6707      0.00000
      8      18.6135      0.00000

 k-point    25 :       0.0833    0.0833    0.4167
  band No.  band energies     occupation 
      1      -1.6086      2.00000
      2      -0.2325      2.00000
      3      12.9758      0.00000
      4      16.5550      0.00000
      5      18.0046      0.00000
      6      18.6670      0.00000
      7      19.3263      0.00000
      8      19.8431      0.00000

 k-point    26 :       0.2500    0.0833    0.4167
  band No.  band energies     occupation 
      1       0.3157      2.00000
      2       1.6774      2.00000
      3      11.5041      2.00000
      4      12.7085      0.00000
      5      14.8261      0.00000
      6      15.8144      0.00000
      7      17.2545      0.00000
      8      18.7497      0.00000

 k-point    27 :       0.4167    0.0833    0.4167
  band No.  band energies     occupation 
      1       3.7012      2.00000
      2       4.9821      2.00000
      3       6.1191      2.00000
      4       7.3799      2.00000
      5      14.7129      0.00000
      6      15.8599      0.00000
      7      18.1753      0.00000
      8      20.0036      0.00000

 k-point    28 :      -0.4167    0.0833    0.4167
  band No.  band energies     occupation 
      1       1.8380      2.00000
      2       3.1858      2.00000
      3       8.6215      2.00000
      4       9.9089      2.00000
      5      15.0146      0.00000
      6      15.8308      0.00000
      7      16.9753      0.00000
      8      19.8364      0.00000

 k-point    29 :      -0.2500    0.0833    0.4167
  band No.  band energies     occupation 
      1      -0.8363      2.00000
      2       0.5342      2.00000
      3      13.5453      0.00000
      4      14.7443      0.00000
      5      16.0767      0.00000
      6      16.6077      0.00000
      7      17.9736      0.00000
      8      18.3493      0.00000

 k-point    30 :      -0.0833    0.0833    0.4167
  band No.  band energies     occupation 
      1      -1.9960      2.00000
      2      -0.6172      2.00000
      3      12.6434      0.00001
      4      16.3739      0.00000
      5      19.8944      0.00000
      6      21.0106      0.00000
      7      21.0684      0.00000
      8      22.1852      0.00000

 k-point    31 :       0.2500    0.2500    0.4167
  band No.  band energies     occupation 
      1       2.9702      2.00000
      2       4.3052      2.00000
      3       9.4829      2.00000
      4       9.8796      2.00000
      5      10.9032      2.00000
      6      11.2624      2.00000
      7      17.5654      0.00000
      8      20.8613      0.00000

 k-point    32 :       0.4167    0.2500    0.4167
  band No.  band energies     occupation 
      1       4.8148      2.00000
      2       6.0595      2.00000
      3       7.2296      2.00000
      4       8.4203      2.00000
      5       9.4879      2.00000
      6      10.7172      2.00000
      7      19.1733      0.00000
      8      20.9587      0.00000

 k-point    33 :      -0.4167    0.2500    0.4167
  band No.  band energies     occupation 
      1       1.4596      2.00000
      2       2.8117      2.00000
      3      10.4169      2.00000
      4      11.6416      2.00000
      5      12.6835      0.00000
      6      13.8051      0.00000
      7      16.3246      0.00000
      8      19.7330      0.00000

 k-point    34 :      -0.2500    0.2500    0.4167
  band No.  band energies     occupation 
      1      -0.4514      2.00000
      2       0.9162      2.00000
      3      12.8763      0.00000
      4      13.6927      0.00000
      5      14.7826      0.00000
      6      17.7591      0.00000
      7      18.3696      0.00000
      8      19.5681      0.00000

 k-point    35 :       0.4167    0.4167    0.4167
  band No.  band energies     occupation 
      1       4.9477      2.00000
      2       5.4083      2.00000
      3       6.4296      2.00000
      4       6.8855      2.00000
      5      11.9380      2.00000
      6      13.1803      0.00000
      7      19.2037      0.00000
      8      19.8555      0.00000

 k-point    36 :      -0.4167    0.4167    0.4167
  band No.  band energies     occupation 
      1       2.5903      2.00000
      2       3.9265      2.00000
      3       7.1642      2.00000
      4       8.4628      2.00000
      5      16.8439      0.00000
      6      17.0254      0.00000
      7      18.2292      0.00000
      8      18.8909      0.00000


--------------------------------------------------------------------------------------------------------


 soft charge-density along one line, spin component           1
         0         1         2         3         4         5         6         7         8         9
 total charge-density along one line
 
 pseudopotential strength for first ion, spin component:           1
 17.729  24.731  -0.000   0.000   0.000  -0.000   0.000   0.000
 24.731  34.503  -0.000   0.000   0.000  -0.000   0.000   0.000
 -0.000  -0.000   4.065  -0.000   0.000   7.570  -0.000   0.000
  0.000   0.000  -0.000   4.065   0.000  -0.000   7.570   0.000
  0.000   0.000   0.000   0.000   4.065   0.000   0.000   7.570
 -0.000  -0.000   7.570  -0.000   0.000  14.110  -0.000   0.000
  0.000   0.000  -0.000   7.570   0.000  -0.000  14.110   0.000
  0.000   0.000   0.000   0.000   7.570   0.000   0.000  14.110
 total augmentation occupancy for first ion, spin component:           1
  6.188  -2.783  -0.000   0.000  -0.000   0.000   0.000   0.000
 -2.783   1.659   0.000   0.000   0.000   0.000   0.000   0.000
  0.000   0.000   2.858   0.000   0.000  -0.726   0.000   0.000
  0.000   0.000   0.000   2.976  -0.000   0.000  -0.764  -0.000
  0.000   0.000   0.000  -0.000   2.858   0.000   0.000  -0.726
  0.000  -0.000  -0.726   0.000   0.000   0.202   0.000   0.000
  0.000   0.000   0.000  -0.764  -0.000   0.000   0.213   0.000
  0.000   0.000   0.000   0.000  -0.726   0.000   0.000   0.202


------------------------ aborting loop because EDIFF is reached ----------------------------------------


    CHARGE:  cpu time    0.0200: real time    0.0128
    FORLOC:  cpu time    0.0010: real time    0.0005
    FORNL :  cpu time    0.0360: real time    0.0256
    STRESS:  cpu time    0.3000: real time    0.1830
    FORCOR:  cpu time    0.0400: real time    0.0214
    FORHAR:  cpu time    0.0110: real time    0.0064
    MIXING:  cpu time    0.0040: real time    0.0018
    OFIELD:  cpu time    0.0000: real time    0.0000

  FORCE on cell =-STRESS in cart. coord.  units (eV):
  Direction    XX          YY          ZZ          XY          YZ          ZX
  --------------------------------------------------------------------------------------
  Alpha Z     5.41727     5.41727     5.41727
  Ewald     -96.85210   -96.85210   -93.53833    -0.00000     0.00000     0.00000
  Hartree     0.15701     0.15701     0.26837    -0.00000    -0.00000    -0.00000
  E(xc)     -26.42742   -26.42742   -26.49239    -0.00000    -0.00000    -0.00000
  Local      -6.40249    -6.40250    -9.83291    -0.00001     0.00000    -0.00000
  n-local    74.56935    78.61098    77.88057    -1.12536     0.13842    -0.72761
  augment   -12.15269   -12.15268   -12.19216     0.00001    -0.00000     0.00000
  Kinetic    78.41972    46.39269    61.22004    10.22090     0.05059     0.65425
  Fock        0.00000     0.00000     0.00000     0.00000     0.00000     0.00000
  -------------------------------------------------------------------------------------
  Total       2.73595     2.73595     2.73045    -0.00000     0.00000     0.00000
  in kB     176.35383   176.35383   175.99936    -0.00000     0.00000     0.00000
  external pressure =      176.24 kB  Pullay stress =        0.00 kB


 VOLUME and BASIS-vectors are now :
 -----------------------------------------------------------------------------
  energy-cutoff  :      450.00
  volume of cell :       24.86
      direct lattice vectors                 reciprocal lattice vectors
     2.623579079 -0.000000000  0.000000000     0.381158703  0.220062080 -0.000000000
    -1.311789540  2.272086132  0.000000000     0.000000000  0.440124160 -0.000000000
     0.000000000  0.000000000  4.169800248    -0.000000000 -0.000000000  0.239819641

  length of vectors
     2.623579079  2.623579079  4.169800248     0.440124160  0.440124160  0.239819641


 FORCES acting on ions
    electron-ion (+dipol)            ewald-force                    non-local-force                 convergence-correction
 -----------------------------------------------------------------------------------------------
   -.170E-08 0.983E-09 0.452E-14   -.119E-12 0.908E-13 -.393E-14   0.173E-16 -.486E-16 0.000E+00   0.430E-10 -.248E-10 -.395E-15
   0.170E-08 -.983E-09 -.175E-13   0.120E-12 -.903E-13 0.394E-14   -.373E-16 0.486E-16 0.000E+00   -.430E-10 0.248E-10 0.394E-15
 -----------------------------------------------------------------------------------------------
   -.969E-14 -.412E-14 -.130E-13   0.101E-14 0.487E-15 0.348E-17   -.199E-16 0.000E+00 0.000E+00   0.148E-15 0.693E-16 -.984E-18
 
 
 POSITION                                       TOTAL-FORCE (eV/Angst)
 -----------------------------------------------------------------------------------
     -0.00000      0.00000     -0.00000         0.000000     -0.000000      0.000000
     -0.00000      1.51472      2.08490        -0.000000      0.000000      0.000000
 -----------------------------------------------------------------------------------
    total drift:                               -0.000000     -0.000000     -0.000000


--------------------------------------------------------------------------------------------------------



  FREE ENERGIE OF THE ION-ELECTRON SYSTEM (eV)
  ---------------------------------------------------
  free  energy   TOTEN  =        -9.67907758 eV

  energy  without entropy=       -9.67466573  energy(sigma->0) =       -9.67687166
 
 d Force = 0.0000000E+00[ 0.000E+00, 0.000E+00]  d Energy = 0.8646559E-05-0.865E-05
 d Force = 0.0000000E+00[ 0.000E+00, 0.000E+00]  d Ewald  =-0.1556716E-02 0.156E-02


--------------------------------------------------------------------------------------------------------


    POTLOK:  cpu time    0.0490: real time    0.0394


--------------------------------------------------------------------------------------------------------




--------------------------------------------------------------------------------------------------------


  
 reached required accuracy - stopping structural energy minimisation
 writing wavefunctions
     LOOP+:  cpu time    3.3195: real time    2.1336
    4ORBIT:  cpu time    0.0000: real time    0.0000

 total amount of memory used by VASP on root node    34023. kBytes
========================================================================

   base      :      30000. kBytes
   nonl-proj :       1298. kBytes
   fftplans  :        714. kBytes
   grid      :       1347. kBytes
   one-center:          6. kBytes
   wavefun   :        658. kBytes
 
  
  
 General timing and accounting informations for this job:
 ========================================================
  
                  Total CPU time used (sec):       66.498
                            User time (sec):       60.842
                          System time (sec):        5.656
                         Elapsed time (sec):       44.470
  
                   Maximum memory used (kb):       36736.
                   Average memory used (kb):           0.
  
                          Minor page faults:        61880
                          Major page faults:            7
                 Voluntary context switches:         1128
