 running on    4 total cores
 distrk:  each k-point on    4 cores,    1 groups
 distr:  one band on    1 cores,    4 groups
 using from now: INCAR     
 vasp.5.4.1 24Jun15 (build Jul 19 2016 16:50:41) complex                        
  
 POSCAR found :  1 types and       2 ions
 LDA part: xc-table for Pade appr. of Perdew
 POSCAR, INCAR and KPOINTS ok, starting setup
 FFT: planning ...
 WAVECAR not read
 entering main loop
       N       E                     dE             d eps       ncg     rms          rms(c)
DAV:   1     0.354145527046E+01    0.35415E+01   -0.33566E+03   584   0.728E+02
DAV:   2    -0.957800474895E+01   -0.13119E+02   -0.12584E+02   840   0.765E+01
DAV:   3    -0.972497771539E+01   -0.14697E+00   -0.14603E+00   800   0.954E+00
DAV:   4    -0.972535070963E+01   -0.37299E-03   -0.37295E-03   832   0.439E-01
DAV:   5    -0.972535088316E+01   -0.17352E-06   -0.17360E-06   832   0.784E-03    0.503E+00
DAV:   6    -0.969290690231E+01    0.32444E-01   -0.74250E-03   688   0.559E-01    0.280E+00
DAV:   7    -0.967381900401E+01    0.19088E-01   -0.14746E-02   816   0.790E-01    0.173E-01
DAV:   8    -0.967364120096E+01    0.17780E-03   -0.11353E-04   848   0.935E-02    0.182E-02
DAV:   9    -0.967364052623E+01    0.67473E-06   -0.25657E-06   512   0.124E-02
   1 F= -.96736405E+01 E0= -.96726874E+01  d E =-.967364E+01
 curvature:   0.00 expect dE= 0.000E+00 dE for cont linesearch  0.000E+00
 trial: gam= 0.00000 g(F)=  0.681E-51 g(S)=  0.490E-02 ort = 0.000E+00 (trialstep = 0.100E+01)
 search vector abs. value=  0.490E-02
 bond charge predicted
       N       E                     dE             d eps       ncg     rms          rms(c)
DAV:   1    -0.967762273363E+01   -0.39815E-02   -0.91998E-02   896   0.191E+00    0.187E-01
DAV:   2    -0.967687896975E+01    0.74376E-03   -0.15350E-03   688   0.337E-01    0.102E-01
DAV:   3    -0.967650810991E+01    0.37086E-03   -0.89024E-04   848   0.174E-01    0.815E-03
DAV:   4    -0.967651099767E+01   -0.28878E-05   -0.27854E-05   616   0.459E-02
   2 F= -.96765110E+01 E0= -.96743109E+01  d E =-.287047E-02
 trial-energy change:   -0.002870  1 .order   -0.004243   -0.004898   -0.003589
 step:   3.7413(harm=  3.7413)  dis= 0.00000  next Energy=    -9.682802 (dE=-0.916E-02)
 bond charge predicted
       N       E                     dE             d eps       ncg     rms          rms(c)
DAV:   1    -0.967618407695E+01    0.32403E-03   -0.65617E-01   888   0.514E+00    0.510E-01
DAV:   2    -0.967094100313E+01    0.52431E-02   -0.10762E-02   664   0.885E-01    0.279E-01
DAV:   3    -0.966836359760E+01    0.25774E-02   -0.60680E-03   848   0.452E-01    0.227E-02
DAV:   4    -0.966838303936E+01   -0.19442E-04   -0.18660E-04   608   0.120E-01    0.182E-02
DAV:   5    -0.966838510515E+01   -0.20658E-05   -0.13772E-06   568   0.115E-02
   3 F= -.96683851E+01 E0= -.96669951E+01  d E =0.525542E-02
 curvature:  -1.87 expect dE=-0.650E-01 dE for cont linesearch -0.650E-01
 ZBRENT: interpolating
 opt :   1.5913  next Energy=    -9.677572 (dE=-0.393E-02)
 bond charge predicted
       N       E                     dE             d eps       ncg     rms          rms(c)
DAV:   1    -0.968364799466E+01   -0.15265E-01   -0.40697E-01   896   0.395E+00    0.401E-01
DAV:   2    -0.968021473186E+01    0.34333E-02   -0.65488E-03   696   0.689E-01    0.220E-01
DAV:   3    -0.967853188979E+01    0.16828E-02   -0.40457E-03   840   0.371E-01    0.173E-02
DAV:   4    -0.967854550448E+01   -0.13615E-04   -0.12834E-04   624   0.991E-02    0.142E-02
DAV:   5    -0.967854727767E+01   -0.17732E-05   -0.71129E-07   504   0.909E-03
   4 F= -.96785473E+01 E0= -.96763460E+01  d E =-.490675E-02
 curvature:  -0.03 expect dE=-0.353E-04 dE for cont linesearch -0.353E-04
 ZBRENT: interpolating
 opt :   2.5782  next Energy=    -9.679904 (dE=-0.626E-02)
 bond charge predicted
       N       E                     dE             d eps       ncg     rms          rms(c)
DAV:   1    -0.967907425977E+01   -0.52876E-03   -0.85980E-02   896   0.184E+00    0.183E-01
DAV:   2    -0.967838360975E+01    0.69065E-03   -0.14003E-03   664   0.319E-01    0.100E-01
DAV:   3    -0.967804148764E+01    0.34212E-03   -0.81582E-04   848   0.166E-01    0.798E-03
DAV:   4    -0.967804414013E+01   -0.26525E-05   -0.25459E-05   592   0.442E-02
   5 F= -.96780441E+01 E0= -.96760302E+01  d E =-.440361E-02
 curvature:  -1.17 expect dE=-0.343E-02 dE for cont linesearch -0.343E-02
 ZBRENT: interpolating
 opt :   1.9722  next Energy=    -9.679001 (dE=-0.536E-02)
 bond charge predicted
       N       E                     dE             d eps       ncg     rms          rms(c)
DAV:   1    -0.967946769280E+01   -0.14262E-02   -0.32576E-02   880   0.112E+00    0.113E-01
DAV:   2    -0.967920015615E+01    0.26754E-03   -0.52813E-04   672   0.196E-01    0.617E-02
DAV:   3    -0.967906790084E+01    0.13226E-03   -0.31602E-04   848   0.103E-01    0.480E-03
DAV:   4    -0.967906893628E+01   -0.10354E-05   -0.96770E-06   416   0.275E-02
   6 F= -.96790689E+01 E0= -.96768551E+01  d E =-.542841E-02
 curvature:  -0.15 expect dE=-0.308E-05 dE for cont linesearch -0.308E-05
 ZBRENT: interpolating
 opt :   2.0253  next Energy=    -9.679078 (dE=-0.544E-02)
 bond charge predicted
       N       E                     dE             d eps       ncg     rms          rms(c)
DAV:   1    -0.967907981327E+01   -0.11912E-04   -0.25050E-04   880   0.985E-02    0.102E-02
DAV:   2    -0.967907758283E+01    0.22304E-05   -0.42025E-06   392   0.177E-02
   7 F= -.96790776E+01 E0= -.96768717E+01  d E =-.543706E-02
 curvature:  -0.45 expect dE=-0.218E-06 dE for cont linesearch -0.218E-06
 trial: gam=-0.00987 g(F)=  0.549E-51 g(S)=  0.486E-06 ort = 0.488E-04 (trialstep = 0.121E+01)
 search vector abs. value=  0.148E-09
 reached required accuracy - stopping structural energy minimisation
 writing wavefunctions
