<?xml version="1.0" encoding="ISO-8859-1"?>
<modeling>
 <generator>
  <i name="program" type="string">vasp </i>
  <i name="version" type="string">5.4.1  </i>
  <i name="subversion" type="string">24Jun15 (build Jul 19 2016 16:50:41) complex                          parallel </i>
  <i name="platform" type="string">IFC91_ompi </i>
  <i name="date" type="string">2019 10 10 </i>
  <i name="time" type="string">11:14:07 </i>
 </generator>
 <incar>
  <i type="string" name="SYSTEM"> Si beta-tin</i>
  <i type="string" name="PREC">accurate</i>
  <i type="int" name="IBRION">     2</i>
  <i name="EDIFF">      0.00001000</i>
  <i name="EDIFFG">     -0.01000000</i>
  <i type="int" name="NSW">   100</i>
  <i type="int" name="ISIF">     4</i>
  <i name="ENMAX">    450.00000000</i>
  <i type="int" name="ISMEAR">     0</i>
  <i name="SIGMA">      0.10000000</i>
  <v type="int" name="KPOINT_BSE">    -1     0     0     0</v>
 </incar>
 <kpoints>
  <generation param="Monkhorst-Pack">
   <v type="int" name="divisions">       6        6        6 </v>
   <v name="usershift">      0.00000000       0.00000000       0.00000000 </v>
   <v name="genvec1">      0.16666667      -0.00000000       0.00000000 </v>
   <v name="genvec2">      0.00000000       0.16666667       0.00000000 </v>
   <v name="genvec3">      0.00000000       0.00000000       0.16666667 </v>
   <v name="shift">      0.50000000       0.50000000       0.50000000 </v>
  </generation>
  <varray name="kpointlist" >
   <v>       0.08333333       0.08333333       0.08333333 </v>
   <v>       0.25000000       0.08333333       0.08333333 </v>
   <v>       0.41666667       0.08333333       0.08333333 </v>
   <v>      -0.41666667       0.08333333       0.08333333 </v>
   <v>      -0.25000000       0.08333333       0.08333333 </v>
   <v>      -0.08333333       0.08333333       0.08333333 </v>
   <v>       0.25000000       0.25000000       0.08333333 </v>
   <v>       0.41666667       0.25000000       0.08333333 </v>
   <v>      -0.41666667       0.25000000       0.08333333 </v>
   <v>      -0.25000000       0.25000000       0.08333333 </v>
   <v>       0.41666667       0.41666667       0.08333333 </v>
   <v>      -0.41666667       0.41666667       0.08333333 </v>
   <v>       0.08333333       0.08333333       0.25000000 </v>
   <v>       0.25000000       0.08333333       0.25000000 </v>
   <v>       0.41666667       0.08333333       0.25000000 </v>
   <v>      -0.41666667       0.08333333       0.25000000 </v>
   <v>      -0.25000000       0.08333333       0.25000000 </v>
   <v>      -0.08333333       0.08333333       0.25000000 </v>
   <v>       0.25000000       0.25000000       0.25000000 </v>
   <v>       0.41666667       0.25000000       0.25000000 </v>
   <v>      -0.41666667       0.25000000       0.25000000 </v>
   <v>      -0.25000000       0.25000000       0.25000000 </v>
   <v>       0.41666667       0.41666667       0.25000000 </v>
   <v>      -0.41666667       0.41666667       0.25000000 </v>
   <v>       0.08333333       0.08333333       0.41666667 </v>
   <v>       0.25000000       0.08333333       0.41666667 </v>
   <v>       0.41666667       0.08333333       0.41666667 </v>
   <v>      -0.41666667       0.08333333       0.41666667 </v>
   <v>      -0.25000000       0.08333333       0.41666667 </v>
   <v>      -0.08333333       0.08333333       0.41666667 </v>
   <v>       0.25000000       0.25000000       0.41666667 </v>
   <v>       0.41666667       0.25000000       0.41666667 </v>
   <v>      -0.41666667       0.25000000       0.41666667 </v>
   <v>      -0.25000000       0.25000000       0.41666667 </v>
   <v>       0.41666667       0.41666667       0.41666667 </v>
   <v>      -0.41666667       0.41666667       0.41666667 </v>
  </varray>
  <varray name="weights" >
   <v>       0.01851852 </v>
   <v>       0.03703704 </v>
   <v>       0.03703704 </v>
   <v>       0.03703704 </v>
   <v>       0.03703704 </v>
   <v>       0.01851852 </v>
   <v>       0.01851852 </v>
   <v>       0.03703704 </v>
   <v>       0.03703704 </v>
   <v>       0.01851852 </v>
   <v>       0.01851852 </v>
   <v>       0.01851852 </v>
   <v>       0.01851852 </v>
   <v>       0.03703704 </v>
   <v>       0.03703704 </v>
   <v>       0.03703704 </v>
   <v>       0.03703704 </v>
   <v>       0.01851852 </v>
   <v>       0.01851852 </v>
   <v>       0.03703704 </v>
   <v>       0.03703704 </v>
   <v>       0.01851852 </v>
   <v>       0.01851852 </v>
   <v>       0.01851852 </v>
   <v>       0.01851852 </v>
   <v>       0.03703704 </v>
   <v>       0.03703704 </v>
   <v>       0.03703704 </v>
   <v>       0.03703704 </v>
   <v>       0.01851852 </v>
   <v>       0.01851852 </v>
   <v>       0.03703704 </v>
   <v>       0.03703704 </v>
   <v>       0.01851852 </v>
   <v>       0.01851852 </v>
   <v>       0.01851852 </v>
  </varray>
 </kpoints>
 <parameters>
  <separator name="general" >
   <i type="string" name="SYSTEM">Si beta-tin</i>
   <i type="logical" name="LCOMPAT"> F  </i>
  </separator>
  <separator name="electronic" >
   <i type="string" name="PREC">accura</i>
   <i name="ENMAX">    450.00000000</i>
   <i name="ENAUG">    322.06900000</i>
   <i name="EDIFF">      0.00001000</i>
   <i type="int" name="IALGO">    38</i>
   <i type="int" name="IWAVPR">    11</i>
   <i type="int" name="NBANDS">     8</i>
   <i name="NELECT">      8.00000000</i>
   <i type="int" name="TURBO">     0</i>
   <i type="int" name="IRESTART">     0</i>
   <i type="int" name="NREBOOT">     0</i>
   <i type="int" name="NMIN">     0</i>
   <i name="EREF">      0.00000000</i>
   <separator name="electronic smearing" >
    <i type="int" name="ISMEAR">     0</i>
    <i name="SIGMA">      0.10000000</i>
    <i name="KSPACING">      0.50000000</i>
    <i type="logical" name="KGAMMA"> T  </i>
   </separator>
   <separator name="electronic projectors" >
    <i type="logical" name="LREAL"> F  </i>
    <v name="ROPT">      0.00000000</v>
    <i type="int" name="LMAXPAW">  -100</i>
    <i type="int" name="LMAXMIX">     2</i>
    <i type="logical" name="NLSPLINE"> F  </i>
   </separator>
   <separator name="electronic startup" >
    <i type="int" name="ISTART">     0</i>
    <i type="int" name="ICHARG">     2</i>
    <i type="int" name="INIWAV">     1</i>
   </separator>
   <separator name="electronic spin" >
    <i type="int" name="ISPIN">     1</i>
    <i type="logical" name="LNONCOLLINEAR"> F  </i>
    <v name="MAGMOM">      1.00000000      1.00000000</v>
    <i name="NUPDOWN">     -1.00000000</i>
    <i type="logical" name="LSORBIT"> F  </i>
    <v name="SAXIS">      0.00000000      0.00000000      1.00000000</v>
    <i type="logical" name="LSPIRAL"> F  </i>
    <v name="QSPIRAL">      0.00000000      0.00000000      0.00000000</v>
    <i type="logical" name="LZEROZ"> F  </i>
   </separator>
   <separator name="electronic exchange-correlation" >
    <i type="logical" name="LASPH"> F  </i>
    <i type="logical" name="LMETAGGA"> F  </i>
   </separator>
   <separator name="electronic convergence" >
    <i type="int" name="NELM">    60</i>
    <i type="int" name="NELMDL">    -5</i>
    <i type="int" name="NELMIN">     2</i>
    <i name="ENINI">    450.00000000</i>
    <separator name="electronic convergence detail" >
     <i type="logical" name="LDIAG"> T  </i>
     <i type="logical" name="LSUBROT"> F  </i>
     <i name="WEIMIN">      0.00100000</i>
     <i name="EBREAK">      0.00000031</i>
     <i name="DEPER">      0.30000000</i>
     <i type="int" name="NRMM">     4</i>
     <i name="TIME">      0.40000000</i>
    </separator>
   </separator>
   <separator name="electronic mixer" >
    <i name="AMIX">      0.40000000</i>
    <i name="BMIX">      1.00000000</i>
    <i name="AMIN">      0.10000000</i>
    <i name="AMIX_MAG">      1.60000000</i>
    <i name="BMIX_MAG">      1.00000000</i>
    <separator name="electronic mixer details" >
     <i type="int" name="IMIX">     4</i>
     <i type="logical" name="MIXFIRST"> F  </i>
     <i type="int" name="MAXMIX">   -45</i>
     <i name="WC">    100.00000000</i>
     <i type="int" name="INIMIX">     1</i>
     <i type="int" name="MIXPRE">     1</i>
     <i type="int" name="MREMOVE">     5</i>
    </separator>
   </separator>
   <separator name="electronic dipolcorrection" >
    <i type="logical" name="LDIPOL"> F  </i>
    <i type="logical" name="LMONO"> F  </i>
    <i type="int" name="IDIPOL">     0</i>
    <i name="EPSILON">      1.00000000</i>
    <v name="DIPOL">   -100.00000000   -100.00000000   -100.00000000</v>
    <i name="EFIELD">      0.00000000</i>
   </separator>
  </separator>
  <separator name="grids" >
   <i type="int" name="NGX">    18</i>
   <i type="int" name="NGY">    18</i>
   <i type="int" name="NGZ">    30</i>
   <i type="int" name="NGXF">    36</i>
   <i type="int" name="NGYF">    36</i>
   <i type="int" name="NGZF">    60</i>
   <i type="logical" name="ADDGRID"> F  </i>
  </separator>
  <separator name="ionic" >
   <i type="int" name="NSW">   100</i>
   <i type="int" name="IBRION">     2</i>
   <i type="int" name="ISIF">     4</i>
   <i name="PSTRESS">      0.00000000</i>
   <i name="EDIFFG">     -0.01000000</i>
   <i type="int" name="NFREE">     1</i>
   <i name="POTIM">      0.50000000</i>
   <i name="SMASS">     -3.00000000</i>
   <i name="SCALEE">      1.00000000</i>
  </separator>
  <separator name="ionic md" >
   <i name="TEBEG">      0.00010000</i>
   <i name="TEEND">      0.00010000</i>
   <i type="int" name="NBLOCK">     1</i>
   <i type="int" name="KBLOCK">   100</i>
   <i type="int" name="NPACO">   256</i>
   <i name="APACO">     16.00000000</i>
  </separator>
  <separator name="symmetry" >
   <i type="int" name="ISYM">     2</i>
   <i name="SYMPREC">      0.00001000</i>
  </separator>
  <separator name="dos" >
   <i type="logical" name="LORBIT"> F  </i>
   <v name="RWIGS">     -1.00000000</v>
   <i type="int" name="NEDOS">   301</i>
   <i name="EMIN">     10.00000000</i>
   <i name="EMAX">    -10.00000000</i>
   <i name="EFERMI">      0.00000000</i>
  </separator>
  <separator name="writing" >
   <i type="int" name="NWRITE">     2</i>
   <i type="logical" name="LWAVE"> T  </i>
   <i type="logical" name="LCHARG"> T  </i>
   <i type="logical" name="LPARD"> F  </i>
   <i type="logical" name="LVTOT"> F  </i>
   <i type="logical" name="LVHAR"> F  </i>
   <i type="logical" name="LELF"> F  </i>
   <i type="logical" name="LOPTICS"> F  </i>
   <v name="STM">      0.00000000      0.00000000      0.00000000      0.00000000      0.00000000      0.00000000      0.00000000</v>
  </separator>
  <separator name="performance" >
   <i type="int" name="NPAR">     4</i>
   <i type="int" name="NSIM">     4</i>
   <i type="int" name="NBLK">    -1</i>
   <i type="logical" name="LPLANE"> T  </i>
   <i type="logical" name="LSCALAPACK"> F  </i>
   <i type="logical" name="LSCAAWARE"> F  </i>
   <i type="logical" name="LSCALU"> F  </i>
   <i type="logical" name="LASYNC"> F  </i>
   <i type="logical" name="LORBITALREAL"> F  </i>
  </separator>
  <separator name="miscellaneous" >
   <i type="int" name="IDIOT">     3</i>
   <i type="logical" name="LMUSIC"> F  </i>
   <v name="POMASS">     28.08500000</v>
   <v name="DARWINR">      0.00000000</v>
   <v name="DARWINV">      1.00000000</v>
   <i type="logical" name="LCORR"> T  </i>
  </separator>
  <i type="logical" name="GGA_COMPAT"> T  </i>
  <i type="logical" name="LBERRY"> F  </i>
  <i type="int" name="ICORELEVEL">     0</i>
  <i type="logical" name="LDAU"> F  </i>
  <i type="int" name="I_CONSTRAINED_M">     0</i>
  <separator name="electronic exchange-correlation" >
   <i type="string" name="GGA">--</i>
   <i type="int" name="VOSKOWN">     0</i>
   <i type="logical" name="LHFCALC"> F  </i>
   <i type="string" name="PRECFOCK"></i>
   <i type="logical" name="LSYMGRAD"> F  </i>
   <i type="logical" name="LHFONE"> F  </i>
   <i type="logical" name="LRHFCALC"> F  </i>
   <i type="logical" name="LTHOMAS"> F  </i>
   <i type="logical" name="LMODELHF"> F  </i>
   <i name="ENCUT4O">     -1.00000000</i>
   <i type="int" name="EXXOEP">     0</i>
   <i type="int" name="FOURORBIT">     0</i>
   <i name="AEXX">      0.00000000</i>
   <i name="HFALPHA">      0.00000000</i>
   <i name="MCALPHA">      0.00000000</i>
   <i name="ALDAX">      1.00000000</i>
   <i name="AGGAX">      1.00000000</i>
   <i name="ALDAC">      1.00000000</i>
   <i name="AGGAC">      1.00000000</i>
   <i type="int" name="NKREDX">     1</i>
   <i type="int" name="NKREDY">     1</i>
   <i type="int" name="NKREDZ">     1</i>
   <i type="logical" name="SHIFTRED"> F  </i>
   <i type="logical" name="ODDONLY"> F  </i>
   <i type="logical" name="EVENONLY"> F  </i>
   <i type="int" name="LMAXFOCK">     0</i>
   <i type="int" name="NMAXFOCKAE">     0</i>
   <i type="logical" name="LFOCKAEDFT"> F  </i>
   <i name="HFSCREEN">      0.00000000</i>
   <i name="HFSCREENC">      0.00000000</i>
   <i type="int" name="NBANDSGWLOW">     0</i>
  </separator>
  <separator name="vdW DFT" >
   <i type="logical" name="LUSE_VDW"> F  </i>
   <i name="Zab_VDW">     -0.84910000</i>
   <i name="PARAM1">      0.12340000</i>
   <i name="PARAM2">      1.00000000</i>
   <i name="PARAM3">      0.00000000</i>
  </separator>
  <separator name="model GW" >
   <i type="int" name="MODEL_GW">     0</i>
   <i name="MODEL_EPS0">      7.45685083</i>
   <i name="MODEL_ALPHA">      1.00000000</i>
  </separator>
  <separator name="linear response parameters" >
   <i type="logical" name="LEPSILON"> F  </i>
   <i type="logical" name="LRPA"> F  </i>
   <i type="logical" name="LNABLA"> F  </i>
   <i type="logical" name="LVEL"> F  </i>
   <i type="int" name="KINTER">     0</i>
   <i name="CSHIFT">      0.10000000</i>
   <i name="OMEGAMAX">     -1.00000000</i>
   <i name="DEG_THRESHOLD">      0.00200000</i>
  </separator>
  <separator name="orbital magnetization" >
   <i type="logical" name="NUCIND"> F  </i>
   <v name="MAGPOS">      0.00000000      0.00000000      0.00000000</v>
   <i type="logical" name="LNICSALL"> T  </i>
   <i type="logical" name="ORBITALMAG"> F  </i>
   <i type="logical" name="LMAGBLOCH"> F  </i>
   <i type="logical" name="LCHIMAG"> F  </i>
   <i type="logical" name="LGAUGE"> T  </i>
   <i type="int" name="MAGATOM">     0</i>
   <v name="MAGDIPOL">      0.00000000      0.00000000      0.00000000</v>
   <v name="AVECCONST">      0.00000000      0.00000000      0.00000000</v>
  </separator>
  <separator name="response functions" >
   <i type="logical" name="LADDER"> F  </i>
   <i type="logical" name="LFXC"> F  </i>
   <i type="logical" name="LHARTREE"> T  </i>
   <i type="int" name="IBSE">     0</i>
   <v type="int" name="KPOINT">    -1     0     0     0</v>
   <i type="logical" name="LTCTE"> F  </i>
   <i type="logical" name="LTETE"> F  </i>
   <i type="logical" name="LTRIPLET"> F  </i>
   <i type="logical" name="LFXCEPS"> F  </i>
   <i type="logical" name="LFXHEG"> F  </i>
   <i type="int" name="NATURALO">     0</i>
   <i type="logical" name="L2ORDER"> F  </i>
   <i type="logical" name="LUSEW"> F  </i>
   <i name="ENCUTGW">     -2.00000000</i>
   <i name="ENCUTGWSOFT">     -2.00000000</i>
   <i name="ENCUTLF">     -1.00000000</i>
   <i type="int" name="LMAXMP2">    -1</i>
   <i name="SCISSOR">      0.00000000</i>
   <i type="int" name="NOMEGA">     0</i>
   <i type="int" name="NOMEGAR">     0</i>
   <i type="int" name="NBANDSGW">    -1</i>
   <i type="int" name="NBANDSO">    -1</i>
   <i type="int" name="NBANDSV">    -1</i>
   <i type="int" name="NELM">     1</i>
   <i type="int" name="NELMHF">     1</i>
   <i type="int" name="DIM">     3</i>
   <i type="int" name="ANTIRES">     0</i>
   <i name="OMEGAMAX">    -30.00000000</i>
   <i name="OMEGAMIN">    -30.00000000</i>
   <i name="OMEGATL">   -200.00000000</i>
   <i type="int" name="OMEGAGRID">     0</i>
   <i name="CSHIFT">     -0.10000000</i>
   <i type="logical" name="SELFENERGY"> F  </i>
   <i type="logical" name="LSPECTRAL"> F  </i>
   <i type="logical" name="LSPECTRALGW"> F  </i>
   <i type="logical" name="LSINGLES"> F  </i>
   <i type="logical" name="LFERMIGW"> F  </i>
   <i type="logical" name="ODDONLYGW"> F  </i>
   <i type="logical" name="EVENONLYGW"> F  </i>
   <i type="int" name="NKREDLFX">     1</i>
   <i type="int" name="NKREDLFY">     1</i>
   <i type="int" name="NKREDLFZ">     1</i>
   <i type="int" name="MAXMEM">  1800</i>
   <i type="int" name="TELESCOPE">     0</i>
   <i type="int" name="TAUPAR">     1</i>
   <i type="int" name="OMEGAPAR">    -1</i>
   <i name="LAMBDA">      1.00000000</i>
  </separator>
  <separator name="External order field" >
   <i name="OFIELD_KAPPA">      0.00000000</i>
   <v name="OFIELD_K">      0.00000000      0.00000000      0.00000000</v>
   <i name="OFIELD_Q6_NEAR">      0.00000000</i>
   <i name="OFIELD_Q6_FAR">      0.00000000</i>
   <i name="OFIELD_A">      0.00000000</i>
  </separator>
 </parameters>
 <atominfo>
  <atoms>       2 </atoms>
  <types>       1 </types>
  <array name="atoms" >
   <dimension dim="1">ion</dimension>
   <field type="string">element</field>
   <field type="int">atomtype</field>
   <set>
    <rc><c> S</c><c>   1</c></rc>
    <rc><c> S</c><c>   1</c></rc>
   </set>
  </array>
  <array name="atomtypes" >
   <dimension dim="1">type</dimension>
   <field type="int">atomspertype</field>
   <field type="string">element</field>
   <field>mass</field>
   <field>valence</field>
   <field type="string">pseudopotential</field>
   <set>
    <rc><c>   2</c><c> S</c><c>     28.08500000</c><c>      4.00000000</c><c>  PAW_PBE Si 05Jan2001                  </c></rc>
   </set>
  </array>
 </atominfo>
 <structure name="initialpos" >
  <crystal>
   <varray name="basis" >
    <v>       2.60000000       0.00000000       0.00000000 </v>
    <v>      -1.30000000       2.25166605       0.00000000 </v>
    <v>       0.00000000       0.00000000       4.24577400 </v>
   </varray>
   <i name="volume">     24.85616944 </i>
   <varray name="rec_basis" >
    <v>       0.38461538       0.22205780       0.00000000 </v>
    <v>       0.00000000       0.44411559       0.00000000 </v>
    <v>       0.00000000       0.00000000       0.23552832 </v>
   </varray>
  </crystal>
  <varray name="positions" >
   <v>       0.00000000       0.00000000       0.00000000 </v>
   <v>       0.33333333       0.66666667       0.50000000 </v>
  </varray>
 </structure>
 <calculation>
  <scstep>
   <time name="dav">    1.35    0.87</time>
   <time name="total">    1.40    0.91</time>
   <energy>
    <i name="alphaZ">      5.41726767 </i>
    <i name="ewald">   -287.27449391 </i>
    <i name="hartreedc">     -0.69021224 </i>
    <i name="XCdc">    -16.76973270 </i>
    <i name="pawpsdc">    176.24759923 </i>
    <i name="pawaedc">   -141.06103558 </i>
    <i name="eentropy">     -0.00611361 </i>
    <i name="bandstr">     61.54624893 </i>
    <i name="atom">    206.13192747 </i>
    <i name="e_fr_energy">      3.54145527 </i>
    <i name="e_wo_entrp">      3.54756888 </i>
    <i name="e_0_energy">      3.54451207 </i>
   </energy>
  </scstep>
  <scstep>
   <time name="dav">    2.27    1.36</time>
   <time name="total">    2.28    1.37</time>
   <energy>
    <i name="e_fr_energy">     -9.57800475 </i>
    <i name="e_wo_entrp">     -9.57522159 </i>
    <i name="e_0_energy">     -9.57661317 </i>
   </energy>
  </scstep>
  <scstep>
   <time name="dav">    2.21    1.39</time>
   <time name="total">    2.22    1.39</time>
   <energy>
    <i name="e_fr_energy">     -9.72497772 </i>
    <i name="e_wo_entrp">     -9.72295771 </i>
    <i name="e_0_energy">     -9.72396771 </i>
   </energy>
  </scstep>
  <scstep>
   <time name="dav">    2.00    1.23</time>
   <time name="total">    2.00    1.23</time>
   <energy>
    <i name="e_fr_energy">     -9.72535071 </i>
    <i name="e_wo_entrp">     -9.72331569 </i>
    <i name="e_0_energy">     -9.72433320 </i>
   </energy>
  </scstep>
  <scstep>
   <time name="dav">    2.34    1.51</time>
   <time name="total">    2.37    1.53</time>
   <energy>
    <i name="e_fr_energy">     -9.72535088 </i>
    <i name="e_wo_entrp">     -9.72331587 </i>
    <i name="e_0_energy">     -9.72433337 </i>
   </energy>
  </scstep>
  <scstep>
   <time name="dav">    1.49    0.92</time>
   <time name="total">    1.57    0.97</time>
   <energy>
    <i name="e_fr_energy">     -9.69290690 </i>
    <i name="e_wo_entrp">     -9.69092756 </i>
    <i name="e_0_energy">     -9.69191723 </i>
   </energy>
  </scstep>
  <scstep>
   <time name="dav">    2.01    1.24</time>
   <time name="total">    2.10    1.30</time>
   <energy>
    <i name="e_fr_energy">     -9.67381900 </i>
    <i name="e_wo_entrp">     -9.67190835 </i>
    <i name="e_0_energy">     -9.67286368 </i>
   </energy>
  </scstep>
  <scstep>
   <time name="dav">    1.81    1.13</time>
   <time name="total">    1.90    1.18</time>
   <energy>
    <i name="e_fr_energy">     -9.67364120 </i>
    <i name="e_wo_entrp">     -9.67173413 </i>
    <i name="e_0_energy">     -9.67268767 </i>
   </energy>
  </scstep>
  <scstep>
   <time name="dav">    1.53    0.97</time>
   <time name="total">    1.58    0.99</time>
   <energy>
    <i name="alphaZ">      5.41726767 </i>
    <i name="ewald">   -287.27449391 </i>
    <i name="hartreedc">     -0.57284470 </i>
    <i name="XCdc">    -16.56718894 </i>
    <i name="pawpsdc">    856.16467719 </i>
    <i name="pawaedc">   -821.06651391 </i>
    <i name="eentropy">     -0.00190630 </i>
    <i name="bandstr">     48.09543490 </i>
    <i name="atom">    206.13192747 </i>
    <i name="e_fr_energy">     -9.67364053 </i>
    <i name="e_wo_entrp">     -9.67173423 </i>
    <i name="e_0_energy">     -9.67268738 </i>
   </energy>
  </scstep>
  <structure>
   <crystal>
    <varray name="basis" >
     <v>       2.60000000       0.00000000       0.00000000 </v>
     <v>      -1.30000000       2.25166605       0.00000000 </v>
     <v>       0.00000000       0.00000000       4.24577400 </v>
    </varray>
    <i name="volume">     24.85616944 </i>
    <varray name="rec_basis" >
     <v>       0.38461538       0.22205780       0.00000000 </v>
     <v>       0.00000000       0.44411559       0.00000000 </v>
     <v>       0.00000000       0.00000000       0.23552832 </v>
    </varray>
   </crystal>
   <varray name="positions" >
    <v>       0.00000000       0.00000000       0.00000000 </v>
    <v>       0.33333333       0.66666667       0.50000000 </v>
   </varray>
  </structure>
  <varray name="forces" >
   <v>      -0.00000000       0.00000000       0.00000000 </v>
   <v>       0.00000000       0.00000000       0.00000000 </v>
  </varray>
  <varray name="stress" >
   <v>     185.97541869      -0.00000000       0.00000000 </v>
   <v>       0.00000000     185.97541869       0.00000000 </v>
   <v>       0.00000000       0.00000000     150.40310330 </v>
  </varray>
  <energy>
   <i name="e_fr_energy">     -9.67364053 </i>
   <i name="e_wo_entrp">     -9.67268738 </i>
   <i name="e_0_energy">     -0.00190630 </i>
  </energy>
  <time name="totalsc">   18.72   12.10</time>
 </calculation>
 <calculation>
  <scstep>
   <time name="dav">    2.27    1.43</time>
   <time name="total">    2.39    1.50</time>
   <energy>
    <i name="alphaZ">      5.41726767 </i>
    <i name="ewald">   -287.26568599 </i>
    <i name="hartreedc">     -0.57290934 </i>
    <i name="XCdc">    -16.56752406 </i>
    <i name="pawpsdc">    857.09709084 </i>
    <i name="pawaedc">   -821.99825941 </i>
    <i name="eentropy">     -0.00440460 </i>
    <i name="bandstr">     48.08487468 </i>
    <i name="atom">    206.13192747 </i>
    <i name="e_fr_energy">     -9.67762273 </i>
    <i name="e_wo_entrp">     -9.67321814 </i>
    <i name="e_0_energy">     -9.67542043 </i>
   </energy>
  </scstep>
  <scstep>
   <time name="dav">    1.64    1.07</time>
   <time name="total">    1.74    1.13</time>
   <energy>
    <i name="e_fr_energy">     -9.67687897 </i>
    <i name="e_wo_entrp">     -9.67247668 </i>
    <i name="e_0_energy">     -9.67467783 </i>
   </energy>
  </scstep>
  <scstep>
   <time name="dav">    2.29    1.46</time>
   <time name="total">    2.38    1.51</time>
   <energy>
    <i name="e_fr_energy">     -9.67650811 </i>
    <i name="e_wo_entrp">     -9.67210809 </i>
    <i name="e_0_energy">     -9.67430810 </i>
   </energy>
  </scstep>
  <scstep>
   <time name="dav">    1.25    0.84</time>
   <time name="total">    1.32    0.88</time>
   <energy>
    <i name="alphaZ">      5.41726767 </i>
    <i name="ewald">   -287.26568599 </i>
    <i name="hartreedc">     -0.57513444 </i>
    <i name="XCdc">    -16.56760265 </i>
    <i name="pawpsdc">    856.60917028 </i>
    <i name="pawaedc">   -821.51096416 </i>
    <i name="eentropy">     -0.00440016 </i>
    <i name="bandstr">     48.08891098 </i>
    <i name="atom">    206.13192747 </i>
    <i name="e_fr_energy">     -9.67651100 </i>
    <i name="e_wo_entrp">     -9.67211083 </i>
    <i name="e_0_energy">     -9.67431092 </i>
   </energy>
  </scstep>
  <structure>
   <crystal>
    <varray name="basis" >
     <v>       2.61158847      -0.00000000       0.00000000 </v>
     <v>      -1.30579424       2.26170196       0.00000000 </v>
     <v>       0.00000000       0.00000000       4.20817783 </v>
    </varray>
    <i name="volume">     24.85616944 </i>
    <varray name="rec_basis" >
     <v>       0.38290872       0.22107245      -0.00000000 </v>
     <v>       0.00000000       0.44214491      -0.00000000 </v>
     <v>      -0.00000000      -0.00000000       0.23763254 </v>
    </varray>
   </crystal>
   <varray name="positions" >
    <v>      -0.00000000       0.00000000       0.00000000 </v>
    <v>       0.33333333       0.66666667       0.50000000 </v>
   </varray>
  </structure>
  <varray name="forces" >
   <v>       0.00000000       0.00000000       0.00000000 </v>
   <v>      -0.00000000       0.00000000       0.00000000 </v>
  </varray>
  <varray name="stress" >
   <v>     184.16678341       0.00000000       0.00000000 </v>
   <v>       0.00000000     184.16678341       0.00000000 </v>
   <v>       0.00000000       0.00000000     158.10238245 </v>
  </varray>
  <energy>
   <i name="e_fr_energy">     -9.67651100 </i>
   <i name="e_wo_entrp">     -9.67431092 </i>
   <i name="e_0_energy">     -0.00440016 </i>
  </energy>
  <time name="totalsc">    8.53    5.54</time>
 </calculation>
 <calculation>
  <scstep>
   <time name="dav">    1.67    1.21</time>
   <time name="total">    1.76    1.29</time>
   <energy>
    <i name="alphaZ">      5.41726767 </i>
    <i name="ewald">   -287.17224170 </i>
    <i name="hartreedc">     -0.57655540 </i>
    <i name="XCdc">    -16.56842306 </i>
    <i name="pawpsdc">    856.72086031 </i>
    <i name="pawaedc">   -821.62263826 </i>
    <i name="eentropy">     -0.00299595 </i>
    <i name="bandstr">     47.99661485 </i>
    <i name="atom">    206.13192747 </i>
    <i name="e_fr_energy">     -9.67618408 </i>
    <i name="e_wo_entrp">     -9.67318812 </i>
    <i name="e_0_energy">     -9.67468610 </i>
   </energy>
  </scstep>
  <scstep>
   <time name="dav">    1.58    1.05</time>
   <time name="total">    1.69    1.12</time>
   <energy>
    <i name="e_fr_energy">     -9.67094100 </i>
    <i name="e_wo_entrp">     -9.66804291 </i>
    <i name="e_0_energy">     -9.66949195 </i>
   </energy>
  </scstep>
  <scstep>
   <time name="dav">    1.77    1.10</time>
   <time name="total">    1.87    1.17</time>
   <energy>
    <i name="e_fr_energy">     -9.66836360 </i>
    <i name="e_wo_entrp">     -9.66558745 </i>
    <i name="e_0_energy">     -9.66697552 </i>
   </energy>
  </scstep>
  <scstep>
   <time name="dav">    1.58    1.00</time>
   <time name="total">    1.69    1.07</time>
   <energy>
    <i name="e_fr_energy">     -9.66838304 </i>
    <i name="e_wo_entrp">     -9.66560446 </i>
    <i name="e_0_energy">     -9.66699375 </i>
   </energy>
  </scstep>
  <scstep>
   <time name="dav">    1.45    0.92</time>
   <time name="total">    1.49    0.95</time>
   <energy>
    <i name="alphaZ">      5.41726767 </i>
    <i name="ewald">   -287.17224170 </i>
    <i name="hartreedc">     -0.60849986 </i>
    <i name="XCdc">    -16.56496343 </i>
    <i name="pawpsdc">    858.67506707 </i>
    <i name="pawaedc">   -823.57722322 </i>
    <i name="eentropy">     -0.00278000 </i>
    <i name="bandstr">     48.03306089 </i>
    <i name="atom">    206.13192747 </i>
    <i name="e_fr_energy">     -9.66838511 </i>
    <i name="e_wo_entrp">     -9.66560511 </i>
    <i name="e_0_energy">     -9.66699511 </i>
   </energy>
  </scstep>
  <structure>
   <crystal>
    <varray name="basis" >
     <v>       2.64390037      -0.00000000       0.00000000 </v>
     <v>      -1.32195018       2.28968488       0.00000000 </v>
     <v>       0.00000000       0.00000000       4.10594757 </v>
    </varray>
    <i name="volume">     24.85616944 </i>
    <varray name="rec_basis" >
     <v>       0.37822908       0.21837066      -0.00000000 </v>
     <v>       0.00000000       0.43674132      -0.00000000 </v>
     <v>      -0.00000000      -0.00000000       0.24354914 </v>
    </varray>
   </crystal>
   <varray name="positions" >
    <v>      -0.00000000      -0.00000000       0.00000000 </v>
    <v>       0.33333333       0.66666667       0.50000000 </v>
   </varray>
  </structure>
  <varray name="forces" >
   <v>      -0.00000000      -0.00000000       0.00000000 </v>
   <v>       0.00000000       0.00000000      -0.00000000 </v>
  </varray>
  <varray name="stress" >
   <v>     146.43440197       0.00000000       0.00000000 </v>
   <v>       0.00000000     146.43440197      -0.00000000 </v>
   <v>       0.00000000      -0.00000000     241.20859538 </v>
  </varray>
  <energy>
   <i name="e_fr_energy">     -9.66838511 </i>
   <i name="e_wo_entrp">     -9.66699511 </i>
   <i name="e_0_energy">     -0.00278000 </i>
  </energy>
  <time name="totalsc">    9.17    6.16</time>
 </calculation>
 <calculation>
  <scstep>
   <time name="dav">    1.74    1.24</time>
   <time name="total">    1.79    1.28</time>
   <energy>
    <i name="alphaZ">      5.41726767 </i>
    <i name="ewald">   -287.25395436 </i>
    <i name="hartreedc">     -0.60476732 </i>
    <i name="XCdc">    -16.56530633 </i>
    <i name="pawpsdc">    858.72882819 </i>
    <i name="pawaedc">   -823.63094692 </i>
    <i name="eentropy">     -0.00442014 </i>
    <i name="bandstr">     48.09772374 </i>
    <i name="atom">    206.13192747 </i>
    <i name="e_fr_energy">     -9.68364799 </i>
    <i name="e_wo_entrp">     -9.67922786 </i>
    <i name="e_0_energy">     -9.68143792 </i>
   </energy>
  </scstep>
  <scstep>
   <time name="dav">    1.29    0.82</time>
   <time name="total">    1.36    0.87</time>
   <energy>
    <i name="e_fr_energy">     -9.68021473 </i>
    <i name="e_wo_entrp">     -9.67580191 </i>
    <i name="e_0_energy">     -9.67800832 </i>
   </energy>
  </scstep>
  <scstep>
   <time name="dav">    1.86    1.18</time>
   <time name="total">    1.94    1.24</time>
   <energy>
    <i name="e_fr_energy">     -9.67853189 </i>
    <i name="e_wo_entrp">     -9.67412986 </i>
    <i name="e_0_energy">     -9.67633088 </i>
   </energy>
  </scstep>
  <scstep>
   <time name="dav">    1.59    0.98</time>
   <time name="total">    1.67    1.03</time>
   <energy>
    <i name="e_fr_energy">     -9.67854550 </i>
    <i name="e_wo_entrp">     -9.67414321 </i>
    <i name="e_0_energy">     -9.67634436 </i>
   </energy>
  </scstep>
  <scstep>
   <time name="dav">    1.42    0.92</time>
   <time name="total">    1.47    0.95</time>
   <energy>
    <i name="alphaZ">      5.41726767 </i>
    <i name="ewald">   -287.25395436 </i>
    <i name="hartreedc">     -0.57840042 </i>
    <i name="XCdc">    -16.56759473 </i>
    <i name="pawpsdc">    856.87905217 </i>
    <i name="pawaedc">   -821.78097096 </i>
    <i name="eentropy">     -0.00440247 </i>
    <i name="bandstr">     48.07852834 </i>
    <i name="atom">    206.13192747 </i>
    <i name="e_fr_energy">     -9.67854728 </i>
    <i name="e_wo_entrp">     -9.67414481 </i>
    <i name="e_0_energy">     -9.67634605 </i>
   </energy>
  </scstep>
  <structure>
   <crystal>
    <varray name="basis" >
     <v>       2.61848979      -0.00000000       0.00000000 </v>
     <v>      -1.30924489       2.26767867       0.00000000 </v>
     <v>       0.00000000       0.00000000       4.18602483 </v>
    </varray>
    <i name="volume">     24.85616944 </i>
    <varray name="rec_basis" >
     <v>       0.38189952       0.22048979      -0.00000000 </v>
     <v>       0.00000000       0.44097958      -0.00000000 </v>
     <v>      -0.00000000      -0.00000000       0.23889013 </v>
    </varray>
   </crystal>
   <varray name="positions" >
    <v>      -0.00000000       0.00000000      -0.00000000 </v>
    <v>       0.33333333       0.66666667       0.50000000 </v>
   </varray>
  </structure>
  <varray name="forces" >
   <v>      -0.00000000       0.00000000      -0.00000000 </v>
   <v>       0.00000000      -0.00000000       0.00000000 </v>
  </varray>
  <varray name="stress" >
   <v>     181.86086533       0.00000000      -0.00000000 </v>
   <v>       0.00000000     181.86086533      -0.00000000 </v>
   <v>       0.00000000       0.00000000     164.56139538 </v>
  </varray>
  <energy>
   <i name="e_fr_energy">     -9.67854728 </i>
   <i name="e_wo_entrp">     -9.67634605 </i>
   <i name="e_0_energy">     -0.00440247 </i>
  </energy>
  <time name="totalsc">    8.89    5.85</time>
 </calculation>
 <calculation>
  <scstep>
   <time name="dav">    2.20    1.47</time>
   <time name="total">    2.27    1.53</time>
   <energy>
    <i name="alphaZ">      5.41726767 </i>
    <i name="ewald">   -287.22390422 </i>
    <i name="hartreedc">     -0.57935625 </i>
    <i name="XCdc">    -16.56771500 </i>
    <i name="pawpsdc">    856.88130072 </i>
    <i name="pawaedc">   -821.78322147 </i>
    <i name="eentropy">     -0.00406759 </i>
    <i name="bandstr">     48.04869440 </i>
    <i name="atom">    206.13192747 </i>
    <i name="e_fr_energy">     -9.67907426 </i>
    <i name="e_wo_entrp">     -9.67500666 </i>
    <i name="e_0_energy">     -9.67704046 </i>
   </energy>
  </scstep>
  <scstep>
   <time name="dav">    1.73    1.15</time>
   <time name="total">    1.82    1.22</time>
   <energy>
    <i name="e_fr_energy">     -9.67838361 </i>
    <i name="e_wo_entrp">     -9.67433522 </i>
    <i name="e_0_energy">     -9.67635942 </i>
   </energy>
  </scstep>
  <scstep>
   <time name="dav">    2.14    1.40</time>
   <time name="total">    2.26    1.48</time>
   <energy>
    <i name="e_fr_energy">     -9.67804149 </i>
    <i name="e_wo_entrp">     -9.67401393 </i>
    <i name="e_0_energy">     -9.67602771 </i>
   </energy>
  </scstep>
  <scstep>
   <time name="dav">    1.42    0.95</time>
   <time name="total">    1.49    1.00</time>
   <energy>
    <i name="alphaZ">      5.41726767 </i>
    <i name="ewald">   -287.22390422 </i>
    <i name="hartreedc">     -0.58877222 </i>
    <i name="XCdc">    -16.56683289 </i>
    <i name="pawpsdc">    857.13107200 </i>
    <i name="pawaedc">   -822.03281067 </i>
    <i name="eentropy">     -0.00402793 </i>
    <i name="bandstr">     48.05803666 </i>
    <i name="atom">    206.13192747 </i>
    <i name="e_fr_energy">     -9.67804414 </i>
    <i name="e_wo_entrp">     -9.67401621 </i>
    <i name="e_0_energy">     -9.67603017 </i>
   </energy>
  </scstep>
  <structure>
   <crystal>
    <varray name="basis" >
     <v>       2.63009133      -0.00000000       0.00000000 </v>
     <v>      -1.31504566       2.27772590       0.00000000 </v>
     <v>       0.00000000       0.00000000       4.14917651 </v>
    </varray>
    <i name="volume">     24.85616944 </i>
    <varray name="rec_basis" >
     <v>       0.38021493       0.21951719      -0.00000000 </v>
     <v>       0.00000000       0.43903439      -0.00000000 </v>
     <v>      -0.00000000      -0.00000000       0.24101168 </v>
    </varray>
   </crystal>
   <varray name="positions" >
    <v>      -0.00000000       0.00000000      -0.00000000 </v>
    <v>       0.33333333       0.66666667       0.50000000 </v>
   </varray>
  </structure>
  <varray name="forces" >
   <v>       0.00000000      -0.00000000      -0.00000000 </v>
   <v>      -0.00000000       0.00000000       0.00000000 </v>
  </varray>
  <varray name="stress" >
   <v>     167.13225137      -0.00000000       0.00000000 </v>
   <v>       0.00000000     167.13225137      -0.00000000 </v>
   <v>       0.00000000      -0.00000000     194.65049428 </v>
  </varray>
  <energy>
   <i name="e_fr_energy">     -9.67804414 </i>
   <i name="e_wo_entrp">     -9.67603017 </i>
   <i name="e_0_energy">     -0.00402793 </i>
  </energy>
  <time name="totalsc">    8.41    5.72</time>
 </calculation>
 <calculation>
  <scstep>
   <time name="dav">    2.04    1.27</time>
   <time name="total">    2.14    1.34</time>
   <energy>
    <i name="alphaZ">      5.41726767 </i>
    <i name="ewald">   -287.24388833 </i>
    <i name="hartreedc">     -0.58779218 </i>
    <i name="XCdc">    -16.56686812 </i>
    <i name="pawpsdc">    857.16009946 </i>
    <i name="pawaedc">   -822.06178065 </i>
    <i name="eentropy">     -0.00443087 </i>
    <i name="bandstr">     48.07599785 </i>
    <i name="atom">    206.13192747 </i>
    <i name="e_fr_energy">     -9.67946769 </i>
    <i name="e_wo_entrp">     -9.67503683 </i>
    <i name="e_0_energy">     -9.67725226 </i>
   </energy>
  </scstep>
  <scstep>
   <time name="dav">    2.02    1.23</time>
   <time name="total">    2.10    1.29</time>
   <energy>
    <i name="e_fr_energy">     -9.67920016 </i>
    <i name="e_wo_entrp">     -9.67477080 </i>
    <i name="e_0_energy">     -9.67698548 </i>
   </energy>
  </scstep>
  <scstep>
   <time name="dav">    1.84    1.12</time>
   <time name="total">    1.99    1.20</time>
   <energy>
    <i name="e_fr_energy">     -9.67906790 </i>
    <i name="e_wo_entrp">     -9.67464033 </i>
    <i name="e_0_energy">     -9.67685412 </i>
   </energy>
  </scstep>
  <scstep>
   <time name="dav">    1.65    0.95</time>
   <time name="total">    1.72    0.99</time>
   <energy>
    <i name="alphaZ">      5.41726767 </i>
    <i name="ewald">   -287.24388833 </i>
    <i name="hartreedc">     -0.58157546 </i>
    <i name="XCdc">    -16.56743866 </i>
    <i name="pawpsdc">    856.92266824 </i>
    <i name="pawaedc">   -821.82445550 </i>
    <i name="eentropy">     -0.00442762 </i>
    <i name="bandstr">     48.07085325 </i>
    <i name="atom">    206.13192747 </i>
    <i name="e_fr_energy">     -9.67906894 </i>
    <i name="e_wo_entrp">     -9.67464132 </i>
    <i name="e_0_energy">     -9.67685513 </i>
   </energy>
  </scstep>
  <structure>
   <crystal>
    <varray name="basis" >
     <v>       2.62295557      -0.00000000       0.00000000 </v>
     <v>      -1.31147778       2.27154615       0.00000000 </v>
     <v>       0.00000000       0.00000000       4.17178292 </v>
    </varray>
    <i name="volume">     24.85616944 </i>
    <varray name="rec_basis" >
     <v>       0.38124931       0.22011439      -0.00000000 </v>
     <v>       0.00000000       0.44022878      -0.00000000 </v>
     <v>      -0.00000000      -0.00000000       0.23970567 </v>
    </varray>
   </crystal>
   <varray name="positions" >
    <v>      -0.00000000       0.00000000      -0.00000000 </v>
    <v>       0.33333333       0.66666667       0.50000000 </v>
   </varray>
  </structure>
  <varray name="forces" >
   <v>      -0.00000000       0.00000000       0.00000000 </v>
   <v>       0.00000000      -0.00000000      -0.00000000 </v>
  </varray>
  <varray name="stress" >
   <v>     176.97975588       0.00000000      -0.00000000 </v>
   <v>       0.00000000     176.97975588       0.00000000 </v>
   <v>      -0.00000000       0.00000000     174.71251750 </v>
  </varray>
  <energy>
   <i name="e_fr_energy">     -9.67906894 </i>
   <i name="e_wo_entrp">     -9.67685513 </i>
   <i name="e_0_energy">     -0.00442762 </i>
  </energy>
  <time name="totalsc">    8.58    5.25</time>
 </calculation>
 <calculation>
  <scstep>
   <time name="dav">    1.86    1.19</time>
   <time name="total">    1.95    1.24</time>
   <energy>
    <i name="alphaZ">      5.41726767 </i>
    <i name="ewald">   -287.24233161 </i>
    <i name="hartreedc">     -0.58178000 </i>
    <i name="XCdc">    -16.56741697 </i>
    <i name="pawpsdc">    856.91691933 </i>
    <i name="pawaedc">   -821.81873246 </i>
    <i name="eentropy">     -0.00441178 </i>
    <i name="bandstr">     48.06947853 </i>
    <i name="atom">    206.13192747 </i>
    <i name="e_fr_energy">     -9.67907981 </i>
    <i name="e_wo_entrp">     -9.67466803 </i>
    <i name="e_0_energy">     -9.67687392 </i>
   </energy>
  </scstep>
  <scstep>
   <time name="dav">    0.85    0.54</time>
   <time name="total">    0.89    0.56</time>
   <energy>
    <i name="alphaZ">      5.41726767 </i>
    <i name="ewald">   -287.24233161 </i>
    <i name="hartreedc">     -0.58202351 </i>
    <i name="XCdc">    -16.56739122 </i>
    <i name="pawpsdc">    856.93234741 </i>
    <i name="pawaedc">   -821.83415029 </i>
    <i name="eentropy">     -0.00441185 </i>
    <i name="bandstr">     48.06968834 </i>
    <i name="atom">    206.13192747 </i>
    <i name="e_fr_energy">     -9.67907758 </i>
    <i name="e_wo_entrp">     -9.67466573 </i>
    <i name="e_0_energy">     -9.67687166 </i>
   </energy>
  </scstep>
  <structure>
   <crystal>
    <varray name="basis" >
     <v>       2.62357908      -0.00000000       0.00000000 </v>
     <v>      -1.31178954       2.27208613       0.00000000 </v>
     <v>       0.00000000       0.00000000       4.16980025 </v>
    </varray>
    <i name="volume">     24.85616944 </i>
    <varray name="rec_basis" >
     <v>       0.38115870       0.22006208      -0.00000000 </v>
     <v>       0.00000000       0.44012416      -0.00000000 </v>
     <v>      -0.00000000      -0.00000000       0.23981964 </v>
    </varray>
   </crystal>
   <varray name="positions" >
    <v>      -0.00000000       0.00000000      -0.00000000 </v>
    <v>       0.33333333       0.66666667       0.50000000 </v>
   </varray>
  </structure>
  <varray name="forces" >
   <v>       0.00000000      -0.00000000       0.00000000 </v>
   <v>      -0.00000000       0.00000000       0.00000000 </v>
  </varray>
  <varray name="stress" >
   <v>     176.35383075       0.00000000       0.00000000 </v>
   <v>      -0.00000000     176.35383075      -0.00000000 </v>
   <v>       0.00000000       0.00000000     175.99936098 </v>
  </varray>
  <energy>
   <i name="e_fr_energy">     -9.67907758 </i>
   <i name="e_wo_entrp">     -9.67687166 </i>
   <i name="e_0_energy">     -0.00441185 </i>
  </energy>
  <time name="totalsc">    3.32    2.13</time>
  <eigenvalues>
   <array>
    <dimension dim="1">band</dimension>
    <dimension dim="2">kpoint</dimension>
    <dimension dim="3">spin</dimension>
    <field>eigene</field>
    <field>occ</field>
    <set>
     <set comment="spin 1">
      <set comment="kpoint 1">
       <r>   -2.9947    1.0000 </r>
       <r>    3.8353    1.0000 </r>
       <r>    6.5082    1.0000 </r>
       <r>   16.7962    0.0000 </r>
       <r>   17.1654    0.0000 </r>
       <r>   22.7021    0.0000 </r>
       <r>   22.9537    0.0000 </r>
       <r>   23.2716    0.0000 </r>
      </set>
      <set comment="kpoint 2">
       <r>   -1.0566    1.0000 </r>
       <r>    5.6915    1.0000 </r>
       <r>    8.2963    1.0000 </r>
       <r>   10.3398    1.0000 </r>
       <r>   14.5343    0.0000 </r>
       <r>   16.7317    0.0000 </r>
       <r>   19.0327    0.0000 </r>
       <r>   21.0446    0.0000 </r>
      </set>
      <set comment="kpoint 3">
       <r>    2.3609    1.0000 </r>
       <r>    4.6770    1.0000 </r>
       <r>    9.0006    1.0000 </r>
       <r>   10.9547    1.0000 </r>
       <r>   11.9943    1.0000 </r>
       <r>   13.4547    0.0000 </r>
       <r>   14.1272    0.0000 </r>
       <r>   19.9424    0.0000 </r>
      </set>
      <set comment="kpoint 4">
       <r>    0.4775    1.0000 </r>
       <r>    6.9185    1.0000 </r>
       <r>    7.5302    1.0000 </r>
       <r>    9.8443    1.0000 </r>
       <r>   13.5864    0.0000 </r>
       <r>   14.1799    0.0000 </r>
       <r>   16.3965    0.0000 </r>
       <r>   20.3005    0.0000 </r>
      </set>
      <set comment="kpoint 5">
       <r>   -2.2169    1.0000 </r>
       <r>    4.5828    1.0000 </r>
       <r>    7.2410    1.0000 </r>
       <r>   13.5196    0.0000 </r>
       <r>   15.6135    0.0000 </r>
       <r>   19.7579    0.0000 </r>
       <r>   21.4661    0.0000 </r>
       <r>   22.2282    0.0000 </r>
      </set>
      <set comment="kpoint 6">
       <r>   -3.3849    1.0000 </r>
       <r>    3.4598    1.0000 </r>
       <r>    6.1385    1.0000 </r>
       <r>   18.6147    0.0000 </r>
       <r>   19.8276    0.0000 </r>
       <r>   21.8725    0.0000 </r>
       <r>   24.0327    0.0000 </r>
       <r>   24.4298    0.0000 </r>
      </set>
      <set comment="kpoint 7">
       <r>    1.6197    1.0000 </r>
       <r>    7.7737    1.0000 </r>
       <r>    8.6269    1.0000 </r>
       <r>    8.6546    1.0000 </r>
       <r>   10.9596    1.0000 </r>
       <r>   14.5288    0.0000 </r>
       <r>   15.3358    0.0000 </r>
       <r>   17.4209    0.0000 </r>
      </set>
      <set comment="kpoint 8">
       <r>    3.4901    1.0000 </r>
       <r>    5.7658    1.0000 </r>
       <r>    8.0224    1.0000 </r>
       <r>   10.1387    1.0000 </r>
       <r>   12.0109    1.0000 </r>
       <r>   13.0015    0.0000 </r>
       <r>   14.3782    0.0000 </r>
       <r>   15.7380    0.0000 </r>
      </set>
      <set comment="kpoint 9">
       <r>    0.0961    1.0000 </r>
       <r>    6.7727    1.0000 </r>
       <r>    8.9158    1.0000 </r>
       <r>    9.6893    1.0000 </r>
       <r>   11.4180    1.0000 </r>
       <r>   15.6264    0.0000 </r>
       <r>   17.4165    0.0000 </r>
       <r>   18.7374    0.0000 </r>
      </set>
      <set comment="kpoint 10">
       <r>   -1.8293    1.0000 </r>
       <r>    4.9542    1.0000 </r>
       <r>    7.6007    1.0000 </r>
       <r>   11.7537    1.0000 </r>
       <r>   17.1689    0.0000 </r>
       <r>   18.0393    0.0000 </r>
       <r>   19.4767    0.0000 </r>
       <r>   20.5125    0.0000 </r>
      </set>
      <set comment="kpoint 11">
       <r>    3.6344    1.0000 </r>
       <r>    4.1615    1.0000 </r>
       <r>   10.0018    1.0000 </r>
       <r>   10.7236    1.0000 </r>
       <r>   10.7292    1.0000 </r>
       <r>   13.3064    0.0000 </r>
       <r>   13.3121    0.0000 </r>
       <r>   17.4045    0.0000 </r>
      </set>
      <set comment="kpoint 12">
       <r>    1.2367    1.0000 </r>
       <r>    5.7593    1.0000 </r>
       <r>    7.9584    1.0000 </r>
       <r>   10.4806    1.0000 </r>
       <r>   12.5448    0.0014 </r>
       <r>   14.9605    0.0000 </r>
       <r>   15.8217    0.0000 </r>
       <r>   18.1717    0.0000 </r>
      </set>
      <set comment="kpoint 13">
       <r>   -2.5315    1.0000 </r>
       <r>    1.5868    1.0000 </r>
       <r>    9.5648    1.0000 </r>
       <r>   17.2030    0.0000 </r>
       <r>   17.5047    0.0000 </r>
       <r>   20.6867    0.0000 </r>
       <r>   20.9699    0.0000 </r>
       <r>   21.4227    0.0000 </r>
      </set>
      <set comment="kpoint 14">
       <r>   -0.5980    1.0000 </r>
       <r>    3.4759    1.0000 </r>
       <r>   10.5459    1.0000 </r>
       <r>   11.4733    1.0000 </r>
       <r>   14.4980    0.0000 </r>
       <r>   15.1531    0.0000 </r>
       <r>   18.7568    0.0000 </r>
       <r>   21.3077    0.0000 </r>
      </set>
      <set comment="kpoint 15">
       <r>    2.8102    1.0000 </r>
       <r>    5.0948    1.0000 </r>
       <r>    6.8840    1.0000 </r>
       <r>    9.1020    1.0000 </r>
       <r>   13.7933    0.0000 </r>
       <r>   14.8016    0.0000 </r>
       <r>   16.6214    0.0000 </r>
       <r>   18.1939    0.0000 </r>
      </set>
      <set comment="kpoint 16">
       <r>    0.9323    1.0000 </r>
       <r>    4.9558    1.0000 </r>
       <r>    7.7594    1.0000 </r>
       <r>   11.4765    1.0000 </r>
       <r>   13.0130    0.0000 </r>
       <r>   14.3726    0.0000 </r>
       <r>   17.9237    0.0000 </r>
       <r>   19.5364    0.0000 </r>
      </set>
      <set comment="kpoint 17">
       <r>   -1.7556    1.0000 </r>
       <r>    2.3457    1.0000 </r>
       <r>   10.2640    1.0000 </r>
       <r>   13.9391    0.0000 </r>
       <r>   15.9954    0.0000 </r>
       <r>   17.7702    0.0000 </r>
       <r>   19.8311    0.0000 </r>
       <r>   21.2903    0.0000 </r>
      </set>
      <set comment="kpoint 18">
       <r>   -2.9208    1.0000 </r>
       <r>    1.2059    1.0000 </r>
       <r>    9.2069    1.0000 </r>
       <r>   18.9462    0.0000 </r>
       <r>   20.2224    0.0000 </r>
       <r>   20.3440    0.0000 </r>
       <r>   22.6244    0.0000 </r>
       <r>   22.8477    0.0000 </r>
      </set>
      <set comment="kpoint 19">
       <r>    2.0713    1.0000 </r>
       <r>    6.0448    1.0000 </r>
       <r>    8.6579    1.0000 </r>
       <r>    9.0797    1.0000 </r>
       <r>   12.5420    0.0016 </r>
       <r>   12.5771    0.0003 </r>
       <r>   14.6212    0.0000 </r>
       <r>   20.0239    0.0000 </r>
      </set>
      <set comment="kpoint 20">
       <r>    3.9350    1.0000 </r>
       <r>    6.1713    1.0000 </r>
       <r>    7.8867    1.0000 </r>
       <r>    8.6183    1.0000 </r>
       <r>   10.2301    1.0000 </r>
       <r>   12.3411    0.4543 </r>
       <r>   16.0215    0.0000 </r>
       <r>   18.1207    0.0000 </r>
      </set>
      <set comment="kpoint 21">
       <r>    0.5518    1.0000 </r>
       <r>    4.5939    1.0000 </r>
       <r>    9.5484    1.0000 </r>
       <r>   11.6971    1.0000 </r>
       <r>   12.3212    0.5665 </r>
       <r>   13.7711    0.0000 </r>
       <r>   15.8484    0.0000 </r>
       <r>   20.9537    0.0000 </r>
      </set>
      <set comment="kpoint 22">
       <r>   -1.3689    1.0000 </r>
       <r>    2.7235    1.0000 </r>
       <r>   10.5762    1.0000 </r>
       <r>   12.2130    0.9552 </r>
       <r>   16.0334    0.0000 </r>
       <r>   17.5692    0.0000 </r>
       <r>   19.6617    0.0000 </r>
       <r>   21.1551    0.0000 </r>
      </set>
      <set comment="kpoint 23">
       <r>    4.0796    1.0000 </r>
       <r>    4.5965    1.0000 </r>
       <r>    8.0819    1.0000 </r>
       <r>    8.6057    1.0000 </r>
       <r>   11.0923    1.0000 </r>
       <r>   14.5667    0.0000 </r>
       <r>   16.0472    0.0000 </r>
       <r>   16.9879    0.0000 </r>
      </set>
      <set comment="kpoint 24">
       <r>    1.6895    1.0000 </r>
       <r>    5.5953    1.0000 </r>
       <r>    6.3908    1.0000 </r>
       <r>   10.1563    1.0000 </r>
       <r>   13.6769    0.0000 </r>
       <r>   16.2228    0.0000 </r>
       <r>   17.6707    0.0000 </r>
       <r>   18.6135    0.0000 </r>
      </set>
      <set comment="kpoint 25">
       <r>   -1.6086    1.0000 </r>
       <r>   -0.2325    1.0000 </r>
       <r>   12.9758    0.0000 </r>
       <r>   16.5550    0.0000 </r>
       <r>   18.0046    0.0000 </r>
       <r>   18.6670    0.0000 </r>
       <r>   19.3263    0.0000 </r>
       <r>   19.8431    0.0000 </r>
      </set>
      <set comment="kpoint 26">
       <r>    0.3157    1.0000 </r>
       <r>    1.6774    1.0000 </r>
       <r>   11.5041    1.0000 </r>
       <r>   12.7085    0.0000 </r>
       <r>   14.8261    0.0000 </r>
       <r>   15.8144    0.0000 </r>
       <r>   17.2545    0.0000 </r>
       <r>   18.7497    0.0000 </r>
      </set>
      <set comment="kpoint 27">
       <r>    3.7012    1.0000 </r>
       <r>    4.9821    1.0000 </r>
       <r>    6.1191    1.0000 </r>
       <r>    7.3799    1.0000 </r>
       <r>   14.7129    0.0000 </r>
       <r>   15.8599    0.0000 </r>
       <r>   18.1753    0.0000 </r>
       <r>   20.0036    0.0000 </r>
      </set>
      <set comment="kpoint 28">
       <r>    1.8380    1.0000 </r>
       <r>    3.1858    1.0000 </r>
       <r>    8.6215    1.0000 </r>
       <r>    9.9089    1.0000 </r>
       <r>   15.0146    0.0000 </r>
       <r>   15.8308    0.0000 </r>
       <r>   16.9753    0.0000 </r>
       <r>   19.8364    0.0000 </r>
      </set>
      <set comment="kpoint 29">
       <r>   -0.8363    1.0000 </r>
       <r>    0.5342    1.0000 </r>
       <r>   13.5453    0.0000 </r>
       <r>   14.7443    0.0000 </r>
       <r>   16.0767    0.0000 </r>
       <r>   16.6077    0.0000 </r>
       <r>   17.9736    0.0000 </r>
       <r>   18.3493    0.0000 </r>
      </set>
      <set comment="kpoint 30">
       <r>   -1.9960    1.0000 </r>
       <r>   -0.6172    1.0000 </r>
       <r>   12.6434    0.0000 </r>
       <r>   16.3739    0.0000 </r>
       <r>   19.8944    0.0000 </r>
       <r>   21.0106    0.0000 </r>
       <r>   21.0684    0.0000 </r>
       <r>   22.1852    0.0000 </r>
      </set>
      <set comment="kpoint 31">
       <r>    2.9702    1.0000 </r>
       <r>    4.3052    1.0000 </r>
       <r>    9.4829    1.0000 </r>
       <r>    9.8796    1.0000 </r>
       <r>   10.9032    1.0000 </r>
       <r>   11.2624    1.0000 </r>
       <r>   17.5654    0.0000 </r>
       <r>   20.8613    0.0000 </r>
      </set>
      <set comment="kpoint 32">
       <r>    4.8148    1.0000 </r>
       <r>    6.0595    1.0000 </r>
       <r>    7.2296    1.0000 </r>
       <r>    8.4203    1.0000 </r>
       <r>    9.4879    1.0000 </r>
       <r>   10.7172    1.0000 </r>
       <r>   19.1733    0.0000 </r>
       <r>   20.9587    0.0000 </r>
      </set>
      <set comment="kpoint 33">
       <r>    1.4596    1.0000 </r>
       <r>    2.8117    1.0000 </r>
       <r>   10.4169    1.0000 </r>
       <r>   11.6416    1.0000 </r>
       <r>   12.6835    0.0000 </r>
       <r>   13.8051    0.0000 </r>
       <r>   16.3246    0.0000 </r>
       <r>   19.7330    0.0000 </r>
      </set>
      <set comment="kpoint 34">
       <r>   -0.4514    1.0000 </r>
       <r>    0.9162    1.0000 </r>
       <r>   12.8763    0.0000 </r>
       <r>   13.6927    0.0000 </r>
       <r>   14.7826    0.0000 </r>
       <r>   17.7591    0.0000 </r>
       <r>   18.3696    0.0000 </r>
       <r>   19.5681    0.0000 </r>
      </set>
      <set comment="kpoint 35">
       <r>    4.9477    1.0000 </r>
       <r>    5.4083    1.0000 </r>
       <r>    6.4296    1.0000 </r>
       <r>    6.8855    1.0000 </r>
       <r>   11.9380    1.0000 </r>
       <r>   13.1803    0.0000 </r>
       <r>   19.2037    0.0000 </r>
       <r>   19.8555    0.0000 </r>
      </set>
      <set comment="kpoint 36">
       <r>    2.5903    1.0000 </r>
       <r>    3.9265    1.0000 </r>
       <r>    7.1642    1.0000 </r>
       <r>    8.4628    1.0000 </r>
       <r>   16.8439    0.0000 </r>
       <r>   17.0254    0.0000 </r>
       <r>   18.2292    0.0000 </r>
       <r>   18.8909    0.0000 </r>
      </set>
     </set>
    </set>
   </array>
  </eigenvalues>
  <separator name="orbital magnetization" >
   <v name="MAGDIPOLOUT">      0.00000000      0.00000000      0.00000000</v>
  </separator>
  <dos>
   <i name="efermi">     12.33302071 </i>
   <total>
    <array>
     <dimension dim="1">gridpoints</dimension>
     <dimension dim="2">spin</dimension>
     <field>energy</field>
     <field>total</field>
     <field>integrated</field>
     <set>
      <set comment="spin 1">
       <r>    -4.7756     0.0000     0.0000 </r>
       <r>    -4.6736     0.0000     0.0000 </r>
       <r>    -4.5717     0.0000     0.0000 </r>
       <r>    -4.4697     0.0000     0.0000 </r>
       <r>    -4.3677     0.0000     0.0000 </r>
       <r>    -4.2657     0.0000     0.0000 </r>
       <r>    -4.1637     0.0000     0.0000 </r>
       <r>    -4.0617     0.0000     0.0000 </r>
       <r>    -3.9597     0.0000     0.0000 </r>
       <r>    -3.8577     0.0000     0.0000 </r>
       <r>    -3.7558     0.0000     0.0000 </r>
       <r>    -3.6538     0.0000     0.0000 </r>
       <r>    -3.5518     0.0033     0.0003 </r>
       <r>    -3.4498     0.0618     0.0066 </r>
       <r>    -3.3478     0.1891     0.0259 </r>
       <r>    -3.2458     0.1001     0.0361 </r>
       <r>    -3.1438     0.0154     0.0377 </r>
       <r>    -3.0419     0.1010     0.0480 </r>
       <r>    -2.9399     0.3191     0.0805 </r>
       <r>    -2.8379     0.2511     0.1062 </r>
       <r>    -2.7359     0.0476     0.1110 </r>
       <r>    -2.6339     0.0278     0.1138 </r>
       <r>    -2.5319     0.1540     0.1296 </r>
       <r>    -2.4299     0.1559     0.1455 </r>
       <r>    -2.3279     0.0680     0.1524 </r>
       <r>    -2.2260     0.2849     0.1814 </r>
       <r>    -2.1240     0.3441     0.2165 </r>
       <r>    -2.0220     0.1844     0.2353 </r>
       <r>    -1.9200     0.2268     0.2585 </r>
       <r>    -1.8180     0.3478     0.2939 </r>
       <r>    -1.7160     0.5438     0.3494 </r>
       <r>    -1.6140     0.3593     0.3860 </r>
       <r>    -1.5120     0.1858     0.4050 </r>
       <r>    -1.4101     0.1245     0.4177 </r>
       <r>    -1.3081     0.1917     0.4372 </r>
       <r>    -1.2061     0.0793     0.4453 </r>
       <r>    -1.1041     0.1735     0.4630 </r>
       <r>    -1.0021     0.3908     0.5029 </r>
       <r>    -0.9001     0.2767     0.5311 </r>
       <r>    -0.7981     0.3923     0.5711 </r>
       <r>    -0.6962     0.3014     0.6019 </r>
       <r>    -0.5942     0.5237     0.6553 </r>
       <r>    -0.4922     0.5146     0.7078 </r>
       <r>    -0.3902     0.2565     0.7339 </r>
       <r>    -0.2882     0.1414     0.7483 </r>
       <r>    -0.1862     0.1956     0.7683 </r>
       <r>    -0.0842     0.0904     0.7775 </r>
       <r>     0.0178     0.0999     0.7877 </r>
       <r>     0.1197     0.3631     0.8247 </r>
       <r>     0.2217     0.3053     0.8559 </r>
       <r>     0.3237     0.3683     0.8934 </r>
       <r>     0.4257     0.5159     0.9461 </r>
       <r>     0.5277     0.9572     1.0437 </r>
       <r>     0.6297     0.8504     1.1304 </r>
       <r>     0.7317     0.1712     1.1479 </r>
       <r>     0.8337     0.1060     1.1587 </r>
       <r>     0.9356     0.4945     1.2091 </r>
       <r>     1.0376     0.4306     1.2530 </r>
       <r>     1.1396     0.1537     1.2687 </r>
       <r>     1.2416     0.3515     1.3046 </r>
       <r>     1.3436     0.2859     1.3337 </r>
       <r>     1.4456     0.3129     1.3656 </r>
       <r>     1.5476     0.5254     1.4192 </r>
       <r>     1.6496     0.7765     1.4984 </r>
       <r>     1.7515     0.8132     1.5813 </r>
       <r>     1.8535     0.5285     1.6352 </r>
       <r>     1.9555     0.2915     1.6650 </r>
       <r>     2.0575     0.1695     1.6822 </r>
       <r>     2.1595     0.1765     1.7002 </r>
       <r>     2.2615     0.1755     1.7181 </r>
       <r>     2.3635     0.6676     1.7862 </r>
       <r>     2.4654     0.5742     1.8448 </r>
       <r>     2.5674     0.2082     1.8660 </r>
       <r>     2.6694     0.2900     1.8956 </r>
       <r>     2.7714     0.6245     1.9593 </r>
       <r>     2.8734     0.8766     2.0487 </r>
       <r>     2.9754     0.4276     2.0923 </r>
       <r>     3.0774     0.2062     2.1133 </r>
       <r>     3.1794     0.3144     2.1454 </r>
       <r>     3.2813     0.3314     2.1792 </r>
       <r>     3.3833     0.2246     2.2021 </r>
       <r>     3.4853     0.8195     2.2857 </r>
       <r>     3.5873     0.8450     2.3719 </r>
       <r>     3.6893     0.5881     2.4318 </r>
       <r>     3.7913     0.5307     2.4860 </r>
       <r>     3.8933     0.5612     2.5432 </r>
       <r>     3.9953     0.6859     2.6131 </r>
       <r>     4.0972     0.4349     2.6575 </r>
       <r>     4.1992     0.3531     2.6935 </r>
       <r>     4.3012     0.2645     2.7205 </r>
       <r>     4.4032     0.1763     2.7385 </r>
       <r>     4.5052     0.2378     2.7627 </r>
       <r>     4.6072     0.9849     2.8632 </r>
       <r>     4.7092     1.0710     2.9724 </r>
       <r>     4.8112     0.6343     3.0371 </r>
       <r>     4.9131     0.8399     3.1227 </r>
       <r>     5.0151     1.2836     3.2536 </r>
       <r>     5.1171     0.8357     3.3389 </r>
       <r>     5.2191     0.2810     3.3675 </r>
       <r>     5.3211     0.0667     3.3743 </r>
       <r>     5.4231     0.1754     3.3922 </r>
       <r>     5.5251     0.1962     3.4122 </r>
       <r>     5.6270     0.3575     3.4487 </r>
       <r>     5.7290     0.7982     3.5301 </r>
       <r>     5.8310     0.7732     3.6090 </r>
       <r>     5.9330     0.2448     3.6339 </r>
       <r>     6.0350     0.5150     3.6865 </r>
       <r>     6.1370     1.2404     3.8130 </r>
       <r>     6.2390     0.9257     3.9074 </r>
       <r>     6.3410     0.3033     3.9383 </r>
       <r>     6.4429     0.4316     3.9823 </r>
       <r>     6.5449     0.4035     4.0235 </r>
       <r>     6.6469     0.1513     4.0389 </r>
       <r>     6.7489     0.2850     4.0680 </r>
       <r>     6.8509     0.7942     4.1490 </r>
       <r>     6.9529     1.0319     4.2542 </r>
       <r>     7.0549     0.4145     4.2965 </r>
       <r>     7.1569     0.3601     4.3332 </r>
       <r>     7.2588     0.9150     4.4265 </r>
       <r>     7.3608     0.7741     4.5055 </r>
       <r>     7.4628     0.5354     4.5601 </r>
       <r>     7.5648     0.5654     4.6178 </r>
       <r>     7.6668     0.4901     4.6677 </r>
       <r>     7.7688     0.5951     4.7284 </r>
       <r>     7.8708     0.7607     4.8060 </r>
       <r>     7.9728     0.7747     4.8850 </r>
       <r>     8.0747     0.7441     4.9609 </r>
       <r>     8.1767     0.3729     4.9989 </r>
       <r>     8.2787     0.3191     5.0315 </r>
       <r>     8.3807     0.5875     5.0914 </r>
       <r>     8.4827     0.7036     5.1631 </r>
       <r>     8.5847     0.9948     5.2646 </r>
       <r>     8.6867     1.5156     5.4192 </r>
       <r>     8.7886     0.5977     5.4801 </r>
       <r>     8.8906     0.3208     5.5128 </r>
       <r>     8.9926     0.7329     5.5876 </r>
       <r>     9.0946     0.9065     5.6800 </r>
       <r>     9.1966     0.6701     5.7484 </r>
       <r>     9.2986     0.2550     5.7744 </r>
       <r>     9.4006     0.1722     5.7920 </r>
       <r>     9.5026     0.7648     5.8700 </r>
       <r>     9.6045     1.0485     5.9769 </r>
       <r>     9.7065     0.6643     6.0446 </r>
       <r>     9.8085     0.5927     6.1051 </r>
       <r>     9.9105     0.9441     6.2014 </r>
       <r>    10.0125     0.7375     6.2766 </r>
       <r>    10.1145     0.5882     6.3366 </r>
       <r>    10.2165     1.0448     6.4431 </r>
       <r>    10.3185     1.1984     6.5654 </r>
       <r>    10.4204     1.0075     6.6681 </r>
       <r>    10.5224     0.9121     6.7611 </r>
       <r>    10.6244     0.8170     6.8445 </r>
       <r>    10.7264     0.8291     6.9290 </r>
       <r>    10.8284     0.6906     6.9994 </r>
       <r>    10.9304     0.6315     7.0639 </r>
       <r>    11.0324     0.7324     7.1386 </r>
       <r>    11.1344     0.3632     7.1756 </r>
       <r>    11.2363     0.2202     7.1981 </r>
       <r>    11.3383     0.3257     7.2313 </r>
       <r>    11.4403     0.9511     7.3283 </r>
       <r>    11.5423     1.4447     7.4756 </r>
       <r>    11.6443     0.9527     7.5728 </r>
       <r>    11.7463     0.8612     7.6606 </r>
       <r>    11.8483     0.4358     7.7050 </r>
       <r>    11.9502     0.5282     7.7589 </r>
       <r>    12.0522     0.9067     7.8514 </r>
       <r>    12.1542     0.4264     7.8949 </r>
       <r>    12.2562     0.4194     7.9377 </r>
       <r>    12.3582     0.8219     8.0215 </r>
       <r>    12.4602     0.5715     8.0798 </r>
       <r>    12.5622     0.6245     8.1435 </r>
       <r>    12.6642     1.0391     8.2494 </r>
       <r>    12.7661     0.9528     8.3466 </r>
       <r>    12.8681     0.4451     8.3920 </r>
       <r>    12.9701     0.7243     8.4659 </r>
       <r>    13.0721     0.9714     8.5649 </r>
       <r>    13.1741     0.4461     8.6104 </r>
       <r>    13.2761     0.3929     8.6505 </r>
       <r>    13.3781     0.5259     8.7041 </r>
       <r>    13.4801     0.8431     8.7901 </r>
       <r>    13.5820     1.3529     8.9281 </r>
       <r>    13.6840     1.1337     9.0437 </r>
       <r>    13.7860     1.2933     9.1756 </r>
       <r>    13.8880     1.1637     9.2943 </r>
       <r>    13.9900     0.5902     9.3545 </r>
       <r>    14.0920     0.4465     9.4000 </r>
       <r>    14.1940     0.7377     9.4753 </r>
       <r>    14.2960     0.5731     9.5337 </r>
       <r>    14.3979     0.8494     9.6204 </r>
       <r>    14.4999     1.1993     9.7427 </r>
       <r>    14.6019     1.2963     9.8749 </r>
       <r>    14.7039     1.1096     9.9880 </r>
       <r>    14.8059     1.5310    10.1442 </r>
       <r>    14.9079     1.0975    10.2561 </r>
       <r>    15.0099     0.6604    10.3234 </r>
       <r>    15.1118     0.5962    10.3843 </r>
       <r>    15.2138     0.4619    10.4314 </r>
       <r>    15.3158     0.2617    10.4580 </r>
       <r>    15.4178     0.1882    10.4772 </r>
       <r>    15.5198     0.1557    10.4931 </r>
       <r>    15.6218     0.6687    10.5613 </r>
       <r>    15.7238     1.0685    10.6703 </r>
       <r>    15.8258     1.6981    10.8435 </r>
       <r>    15.9277     1.7961    11.0267 </r>
       <r>    16.0297     1.4899    11.1786 </r>
       <r>    16.1317     1.2622    11.3073 </r>
       <r>    16.2337     0.5339    11.3618 </r>
       <r>    16.3357     0.7212    11.4353 </r>
       <r>    16.4377     0.8952    11.5266 </r>
       <r>    16.5397     0.6283    11.5907 </r>
       <r>    16.6417     0.9997    11.6927 </r>
       <r>    16.7436     0.9433    11.7889 </r>
       <r>    16.8456     0.7091    11.8612 </r>
       <r>    16.9476     0.6449    11.9270 </r>
       <r>    17.0496     0.8114    12.0097 </r>
       <r>    17.1516     0.6835    12.0794 </r>
       <r>    17.2536     0.8829    12.1695 </r>
       <r>    17.3556     0.7551    12.2465 </r>
       <r>    17.4576     0.9533    12.3437 </r>
       <r>    17.5595     0.8694    12.4324 </r>
       <r>    17.6615     0.6483    12.4985 </r>
       <r>    17.7635     0.6960    12.5695 </r>
       <r>    17.8655     0.7067    12.6416 </r>
       <r>    17.9675     0.9292    12.7363 </r>
       <r>    18.0695     1.1472    12.8533 </r>
       <r>    18.1715     1.4055    12.9967 </r>
       <r>    18.2734     1.3303    13.1323 </r>
       <r>    18.3754     0.8036    13.2143 </r>
       <r>    18.4774     0.4131    13.2564 </r>
       <r>    18.5794     0.3118    13.2882 </r>
       <r>    18.6814     0.9104    13.3811 </r>
       <r>    18.7834     1.4028    13.5241 </r>
       <r>    18.8854     0.8670    13.6126 </r>
       <r>    18.9874     0.5894    13.6727 </r>
       <r>    19.0893     0.6099    13.7349 </r>
       <r>    19.1913     0.6515    13.8013 </r>
       <r>    19.2933     0.5441    13.8568 </r>
       <r>    19.3953     0.3177    13.8892 </r>
       <r>    19.4973     0.4893    13.9391 </r>
       <r>    19.5993     0.7894    14.0196 </r>
       <r>    19.7013     0.8749    14.1088 </r>
       <r>    19.8033     1.6576    14.2779 </r>
       <r>    19.9052     2.0424    14.4862 </r>
       <r>    20.0072     1.3969    14.6287 </r>
       <r>    20.1092     0.6606    14.6960 </r>
       <r>    20.2112     0.3171    14.7284 </r>
       <r>    20.3132     0.6211    14.7917 </r>
       <r>    20.4152     0.5239    14.8452 </r>
       <r>    20.5172     0.2563    14.8713 </r>
       <r>    20.6192     0.2103    14.8927 </r>
       <r>    20.7211     0.2204    14.9152 </r>
       <r>    20.8231     0.2549    14.9412 </r>
       <r>    20.9251     0.8038    15.0232 </r>
       <r>    21.0271     1.5376    15.1800 </r>
       <r>    21.1291     1.0948    15.2917 </r>
       <r>    21.2311     0.5986    15.3527 </r>
       <r>    21.3331     0.8598    15.4404 </r>
       <r>    21.4350     0.8088    15.5229 </r>
       <r>    21.5370     0.5490    15.5789 </r>
       <r>    21.6390     0.1289    15.5920 </r>
       <r>    21.7410     0.0169    15.5938 </r>
       <r>    21.8430     0.1114    15.6051 </r>
       <r>    21.9450     0.1850    15.6240 </r>
       <r>    22.0470     0.0658    15.6307 </r>
       <r>    22.1490     0.1953    15.6506 </r>
       <r>    22.2509     0.5482    15.7065 </r>
       <r>    22.3529     0.3041    15.7375 </r>
       <r>    22.4549     0.0340    15.7410 </r>
       <r>    22.5569     0.0664    15.7478 </r>
       <r>    22.6589     0.2802    15.7764 </r>
       <r>    22.7609     0.3347    15.8105 </r>
       <r>    22.8629     0.2865    15.8397 </r>
       <r>    22.9649     0.3055    15.8709 </r>
       <r>    23.0668     0.1571    15.8869 </r>
       <r>    23.1688     0.0457    15.8916 </r>
       <r>    23.2708     0.1539    15.9072 </r>
       <r>    23.3728     0.1555    15.9231 </r>
       <r>    23.4748     0.0269    15.9259 </r>
       <r>    23.5768     0.0007    15.9259 </r>
       <r>    23.6788     0.0000    15.9259 </r>
       <r>    23.7808     0.0001    15.9259 </r>
       <r>    23.8827     0.0061    15.9266 </r>
       <r>    23.9847     0.0841    15.9351 </r>
       <r>    24.0867     0.1920    15.9547 </r>
       <r>    24.1887     0.0760    15.9625 </r>
       <r>    24.2907     0.0137    15.9639 </r>
       <r>    24.3927     0.1000    15.9741 </r>
       <r>    24.4947     0.1891    15.9934 </r>
       <r>    24.5966     0.0618    15.9997 </r>
       <r>    24.6986     0.0033    16.0000 </r>
       <r>    24.8006     0.0000    16.0000 </r>
       <r>    24.9026     0.0000    16.0000 </r>
       <r>    25.0046     0.0000    16.0000 </r>
       <r>    25.1066     0.0000    16.0000 </r>
       <r>    25.2086     0.0000    16.0000 </r>
       <r>    25.3106     0.0000    16.0000 </r>
       <r>    25.4125     0.0000    16.0000 </r>
       <r>    25.5145     0.0000    16.0000 </r>
       <r>    25.6165     0.0000    16.0000 </r>
       <r>    25.7185     0.0000    16.0000 </r>
       <r>    25.8205     0.0000    16.0000 </r>
      </set>
     </set>
    </array>
   </total>
  </dos>
 </calculation>
 <structure name="finalpos" >
  <crystal>
   <varray name="basis" >
    <v>       2.62357908      -0.00000000       0.00000000 </v>
    <v>      -1.31178954       2.27208613       0.00000000 </v>
    <v>       0.00000000       0.00000000       4.16980025 </v>
   </varray>
   <i name="volume">     24.85616944 </i>
   <varray name="rec_basis" >
    <v>       0.38115870       0.22006208      -0.00000000 </v>
    <v>       0.00000000       0.44012416      -0.00000000 </v>
    <v>      -0.00000000      -0.00000000       0.23981964 </v>
   </varray>
  </crystal>
  <varray name="positions" >
   <v>      -0.00000000       0.00000000      -0.00000000 </v>
   <v>       0.33333333       0.66666667       0.50000000 </v>
  </varray>
 </structure>
</modeling>
