Fe BCC                                  
   2.60000000000000     
    -0.500000    0.500000    0.500000
     0.500000   -0.500000    0.500000
     0.500000    0.500000   -0.500000
   Fe
     1
Direct
  0.000000  0.000000  0.000000
 
   32   32   32
  74.101      72.654      68.493      62.115      54.223      45.584      36.912      28.786      21.629      15.708    
  11.152      7.9530      5.9707      4.9414      4.5147      4.3319      4.2676      4.3319      4.5147      4.9414    
  5.9707      7.9530      11.152      15.708      21.629      28.786      36.912      45.584      54.223      62.115    
  68.493      72.654      72.654      72.175      68.932      63.317      55.969      47.637      39.051      30.832    
  23.448      17.212      12.295      8.7329      6.4279      5.1549      4.5885      4.3599      4.2553      4.2768    
  4.4201      4.7219      5.4837      7.0690      9.7747      13.785      19.154      25.800      33.507      41.909    
  50.487      58.575      65.424      70.307      68.493      68.932      66.686      62.032      55.513      47.821    
  39.670      31.693      24.389      18.106      13.050      9.2946      6.7821      5.3271      4.6372      4.3585    
  4.2191      4.1987      4.3012      4.5188      5.0325      6.1984      8.3368      11.673      16.307      22.211    
  29.220      37.032      45.195      53.116      60.097      65.424      62.115      63.317      62.032      58.421    
  52.915      46.119      38.698      31.269      24.339      18.276      13.312      9.5519      6.9707      5.4219    
  4.6499      4.3274      4.1611      4.1032      4.1639      4.3333      4.6596      5.4380      6.9984      9.5991    
  13.388      18.389      24.493      31.461      38.915      46.341      53.116      58.575      54.223      55.969    
  55.513      52.915      48.490      42.743      36.261      29.621      23.311      17.705      13.048      9.4644    
  6.9573      5.4143      4.6162      4.2690      4.0847      3.9966      4.0183      4.1473      4.3727      4.8454    
  5.8805      7.7576      10.667      14.683      19.756      25.711      32.241      38.915      45.195      50.487    
  45.584      47.637      47.821      46.119      42.743      38.090      32.658      26.958      21.445      16.477    
  12.299      9.0462      6.7405      5.2974      4.5324      4.1864      3.9937      3.8846      3.8734      3.9624    
  4.1422      4.4281      5.0455      6.2782      8.3480      11.378      15.377      20.233      25.711      31.461    
  37.032      41.909      36.912      39.051      39.670      38.698      36.261      32.658      28.290      23.594    
  18.973      14.755      11.173      8.3611      6.3531      5.0855      4.4040      4.0840      3.8924      3.7721    
  3.7365      3.7900      3.9294      4.1426      4.4898      5.2143      6.5533      8.6701      11.628      15.377    
  19.756      24.493      29.220      33.507      28.786      30.832      31.693      31.269      29.621      26.958    
  23.594      19.885      16.174      12.748      9.8174      7.5071      5.8541      4.8098      4.2451      3.9678    
  3.7851      3.6630      3.6125      3.6377      3.7391      3.9120      4.1468      4.5384      5.3106      6.6513    
  8.6701      11.378      14.683      18.389      22.211      25.800      21.629      23.448      24.389      24.339    
  23.311      21.445      18.973      16.174      13.327      10.673      8.3933      6.5954      5.3142      4.5099    
  4.0743      3.8438      3.6758      3.5599      3.5034      3.5093      3.5788      3.7116      3.9039      4.1508    
  4.5568      5.3106      6.5533      8.3480      10.667      13.388      16.307      19.154      15.708      17.212    
  18.106      18.276      17.705      16.477      14.755      12.748      10.673      8.7242      7.0467      5.7298    
  4.8004      4.2240      3.9083      3.7175      3.5683      3.4645      3.4097      3.4049      3.4508      3.5488    
  3.7000      3.9017      4.1508      4.5384      5.2143      6.2782      7.7576      9.5991      11.673      13.785    
  11.152      12.295      13.050      13.312      13.048      12.299      11.173      9.8174      8.3933      7.0467    
  5.8898      4.9897      4.3637      3.9790      3.7563      3.5940      3.4663      3.3782      3.3306      3.3225    
  3.3535      3.4250      3.5398      3.7000      3.9039      4.1468      4.4898      5.0455      5.8805      6.9984    
  8.3368      9.7747      7.9530      8.7329      9.2946      9.5519      9.4644      9.0462      8.3611      7.5071    
  6.5954      5.7298      4.9897      4.4209      4.0300      3.7845      3.6164      3.4783      3.3730      3.3025    
  3.2655      3.2597      3.2836      3.3378      3.4250      3.5488      3.7116      3.9120      4.1426      4.4281    
  4.8454      5.4380      6.1984      7.0690      5.9707      6.4279      6.7821      6.9707      6.9573      6.7405    
  6.3531      5.8541      5.3142      4.8004      4.3637      4.0300      3.7961      3.6285      3.4882      3.3748    
  3.2916      3.2388      3.2142      3.2146      3.2379      3.2836      3.3535      3.4508      3.5788      3.7391    
  3.9294      4.1422      4.3727      4.6596      5.0325      5.4837      4.9414      5.1549      5.3271      5.4219    
  5.4143      5.2974      5.0855      4.8098      4.5099      4.2240      3.9790      3.7845      3.6285      3.4919    
  3.3767      3.2872      3.2249      3.1891      3.1774      3.1868      3.2146      3.2597      3.3225      3.4049    
  3.5093      3.6377      3.7900      3.9624      4.1473      4.3333      4.5188      4.7219      4.5147      4.5885    
  4.6372      4.6499      4.6162      4.5324      4.4040      4.2451      4.0743      3.9083      3.7563      3.6164    
  3.4882      3.3767      3.2859      3.2185      3.1752      3.1554      3.1570      3.1774      3.2142      3.2655    
  3.3306      3.4097      3.5034      3.6125      3.7365      3.8734      4.0183      4.1639      4.3012      4.4201    
  4.3319      4.3599      4.3585      4.3274      4.2690      4.1864      4.0840      3.9678      3.8438      3.7175    
  3.5940      3.4783      3.3748      3.2872      3.2185      3.1707      3.1446      3.1399      3.1554      3.1891    
  3.2388      3.3025      3.3782      3.4645      3.5599      3.6630      3.7721      3.8846      3.9966      4.1032    
  4.1987      4.2768      4.2676      4.2553      4.2191      4.1611      4.0847      3.9937      3.8924      3.7851    
  3.6758      3.5683      3.4663      3.3730      3.2916      3.2249      3.1752      3.1446      3.1343      3.1446    
  3.1752      3.2249      3.2916      3.3730      3.4663      3.5683      3.6758      3.7851      3.8924      3.9937    
  4.0847      4.1611      4.2191      4.2553      4.3319      4.2768      4.1987      4.1032      3.9966      3.8846    
  3.7721      3.6630      3.5599      3.4645      3.3782      3.3025      3.2388      3.1891      3.1554      3.1399    
  3.1446      3.1707      3.2185      3.2872      3.3748      3.4783      3.5940      3.7175      3.8438      3.9678    
  4.0840      4.1864      4.2690      4.3274      4.3585      4.3599      4.5147      4.4201      4.3012      4.1639    
  4.0183      3.8734      3.7365      3.6125      3.5034      3.4097      3.3306      3.2655      3.2142      3.1774    
  3.1570      3.1554      3.1752      3.2185      3.2859      3.3767      3.4882      3.6164      3.7563      3.9083    
  4.0743      4.2451      4.4040      4.5324      4.6162      4.6499      4.6372      4.5885      4.9414      4.7219    
  4.5188      4.3333      4.1473      3.9624      3.7900      3.6377      3.5093      3.4049      3.3225      3.2597    
  3.2146      3.1868      3.1774      3.1891      3.2249      3.2872      3.3767      3.4919      3.6285      3.7845    
  3.9790      4.2240      4.5099      4.8098      5.0855      5.2974      5.4143      5.4219      5.3271      5.1549    
  5.9707      5.4837      5.0325      4.6596      4.3727      4.1422      3.9294      3.7391      3.5788      3.4508    
  3.3535      3.2836      3.2379      3.2146      3.2142      3.2388      3.2916      3.3748      3.4882      3.6285    
  3.7961      4.0300      4.3637      4.8004      5.3142      5.8541      6.3531      6.7405      6.9573      6.9707    
  6.7821      6.4279      7.9530      7.0690      6.1984      5.4380      4.8454      4.4281      4.1426      3.9120    
  3.7116      3.5488      3.4250      3.3378      3.2836      3.2597      3.2655      3.3025      3.3730      3.4783    
  3.6164      3.7845      4.0300      4.4209      4.9897      5.7298      6.5954      7.5071      8.3611      9.0462    
  9.4644      9.5519      9.2946      8.7329      11.152      9.7747      8.3368      6.9984      5.8805      5.0455    
  4.4898      4.1468      3.9039      3.7000      3.5398      3.4250      3.3535      3.3225      3.3306      3.3782    
  3.4663      3.5940      3.7563      3.9790      4.3637      4.9897      5.8898      7.0467      8.3933      9.8174    
  11.173      12.299      13.048      13.312      13.050      12.295      15.708      13.785      11.673      9.5991    
  7.7576      6.2782      5.2143      4.5384      4.1508      3.9017      3.7000      3.5488      3.4508      3.4049    
  3.4097      3.4645      3.5683      3.7175      3.9083      4.2240      4.8004      5.7298      7.0467      8.7242    
  10.673      12.748      14.755      16.477      17.705      18.276      18.106      17.212      21.629      19.154    
  16.307      13.388      10.667      8.3480      6.5533      5.3106      4.5568      4.1508      3.9039      3.7116    
  3.5788      3.5093      3.5034      3.5599      3.6758      3.8438      4.0743      4.5099      5.3142      6.5954    
  8.3933      10.673      13.327      16.174      18.973      21.445      23.311      24.339      24.389      23.448    
  28.786      25.800      22.211      18.389      14.683      11.378      8.6701      6.6513      5.3106      4.5384    
  4.1468      3.9120      3.7391      3.6377      3.6125      3.6630      3.7851      3.9678      4.2451      4.8098    
  5.8541      7.5071      9.8174      12.748      16.174      19.885      23.594      26.958      29.621      31.269    
  31.693      30.832      36.912      33.507      29.220      24.493      19.756      15.377      11.628      8.6701    
  6.5533      5.2143      4.4898      4.1426      3.9294      3.7900      3.7365      3.7721      3.8924      4.0840    
  4.4040      5.0855      6.3531      8.3611      11.173      14.755      18.973      23.594      28.290      32.658    
  36.261      38.698      39.670      39.051      45.584      41.909      37.032      31.461      25.711      20.233    
  15.377      11.378      8.3480      6.2782      5.0455      4.4281      4.1422      3.9624      3.8734      3.8846    
  3.9937      4.1864      4.5324      5.2974      6.7405      9.0462      12.299      16.477      21.445      26.958    
  32.658      38.090      42.743      46.119      47.821      47.637      54.223      50.487      45.195      38.915    
  32.241      25.711      19.756      14.683      10.667      7.7576      5.8805      4.8454      4.3727      4.1473    
  4.0183      3.9966      4.0847      4.2690      4.6162      5.4143      6.9573      9.4644      13.048      17.705    
  23.311      29.621      36.261      42.743      48.490      52.915      55.513      55.969      62.115      58.575    
  53.116      46.341      38.915      31.461      24.493      18.389      13.388      9.5991      6.9984      5.4380    
  4.6596      4.3333      4.1639      4.1032      4.1611      4.3274      4.6499      5.4219      6.9707      9.5519    
  13.312      18.276      24.339      31.269      38.698      46.119      52.915      58.421      62.032      63.317    
  68.493      65.424      60.097      53.116      45.195      37.032      29.220      22.211      16.307      11.673    
  8.3368      6.1984      5.0325      4.5188      4.3012      4.1987      4.2191      4.3585      4.6372      5.3271    
  6.7821      9.2946      13.050      18.106      24.389      31.693      39.670      47.821      55.513      62.032    
  66.686      68.932      72.654      70.307      65.424      58.575      50.487      41.909      33.507      25.800    
  19.154      13.785      9.7747      7.0690      5.4837      4.7219      4.4201      4.2768      4.2553      4.3599    
  4.5885      5.1549      6.4279      8.7329      12.295      17.212      23.448      30.832      39.051      47.637    
  55.969      63.317      68.932      72.175      72.654      72.175      68.932      63.317      55.969      47.637    
  39.051      30.832      23.448      17.212      12.295      8.7329      6.4279      5.1549      4.5885      4.3599    
  4.2553      4.2768      4.4201      4.7219      5.4837      7.0690      9.7747      13.785      19.154      25.800    
  33.507      41.909      50.487      58.575      65.424      70.307      72.175      72.654      70.307      65.424    
  58.575      50.487      41.909      33.507      25.800      19.154      13.785      9.7747      7.0690      5.4837    
  4.7219      4.4201      4.2768      4.2553      4.3599      4.5885      5.1549      6.4279      8.7329      12.295    
  17.212      23.448      30.832      39.051      47.637      55.969      63.317      68.932      68.932      70.307    
  68.932      64.977      58.914      51.411      43.199      34.958      27.245      20.463      14.872      10.590    
  7.6052      5.7751      4.8376      4.4498      4.2727      4.2101      4.2727      4.4498      4.8376      5.7751    
  7.6052      10.590      14.872      20.463      27.245      34.958      43.199      51.411      58.914      64.977    
  63.317      65.424      64.977      62.032      56.947      50.298      42.765      35.012      27.606      20.976    
  15.410      11.060      7.9509      5.9768      4.9144      4.4502      4.2431      4.1443      4.1651      4.3020    
  4.5632      5.1904      6.5292      8.8690      12.397      17.174      23.134      30.077      37.665      45.419    
  52.729      58.914      55.969      58.575      58.914      56.947      52.915      47.289      40.667      33.669    
  26.845      20.630      15.330      11.118      8.0479      6.0477      4.9313      4.4196      4.1895      4.0620    
  4.0447      4.1405      4.3359      4.7233      5.6127      7.3084      10.034      13.902      18.899      24.884    
  31.588      38.608      45.419      51.411      47.637      50.487      51.411      50.298      47.289      42.743    
  37.164      31.101      25.066      19.480      14.648      10.757      7.8781      5.9687      4.8758      4.3560    
  4.1148      3.9679      3.9192      3.9756      4.1307      4.3815      4.9154      6.0328      7.9838      10.925    
  14.897      19.821      25.493      31.588      37.665      43.199      39.051      41.909      43.199      42.765    
  40.667      37.164      32.658      27.615      22.493      17.677      13.461      10.031      7.4677      5.7482    
  4.7491      4.2611      4.0229      3.8665      3.7952      3.8176      3.9326      4.1289      4.4396      5.1001    
  6.3698      8.4405      11.405      15.244      19.821      24.884      30.077      34.958      30.832      33.507    
  34.958      35.012      33.669      31.101      27.615      23.594      19.423      15.446      11.928      9.0451    
  6.8792      5.4197      4.5665      4.1415      3.9184      3.7617      3.6775      3.6739      3.7522      3.9084    
  4.1311      4.4950      5.2331      6.5567      8.6017      11.405      14.897      18.899      23.134      27.245    
  23.448      25.800      27.245      27.606      26.845      25.066      22.493      19.423      16.174      13.033    
  10.233      7.9291      6.1970      5.0325      4.3529      4.0077      3.8061      3.6570      3.5693      3.5486    
  3.5971      3.7144      3.8964      4.1354      4.5288      5.2814      6.5567      8.4405      10.925      13.902    
  17.174      20.463      17.212      19.154      20.463      20.976      20.630      19.480      17.677      15.446    
  13.033      10.673      8.5563      6.8133      5.5091      4.6399      4.1361      3.8700      3.6909      3.5555    
  3.4719      3.4430      3.4702      3.5543      3.6958      3.8916      4.1375      4.5288      5.2331      6.3698    
  7.9838      10.034      12.397      14.872      12.295      13.785      14.872      15.410      15.330      14.648    
  13.461      11.928      10.233      8.5563      7.0467      5.8082      4.8905      4.2874      3.9380      3.7345    
  3.5774      3.4598      3.3859      3.3562      3.3705      3.4296      3.5357      3.6902      3.8916      4.1354    
  4.4950      5.1001      6.0328      7.3084      8.8690      10.590      8.7329      9.7747      10.590      11.060    
  11.118      10.757      10.031      9.0451      7.9291      6.8133      5.8082      4.9897      4.3915      4.0026    
  3.7687      3.6037      3.4700      3.3722      3.3115      3.2864      3.2954      3.3384      3.4173      3.5357    
  3.6958      3.8964      4.1311      4.4396      4.9154      5.6127      6.5292      7.6052      6.4279      7.0690    
  7.6052      7.9509      8.0479      7.8781      7.4677      6.8792      6.1970      5.5091      4.8905      4.3915    
  4.0300      3.7900      3.6221      3.4825      3.3726      3.2951      3.2492      3.2323      3.2418      3.2768    
  3.3384      3.4296      3.5543      3.7144      3.9084      4.1289      4.3815      4.7233      5.1904      5.7751    
  5.1549      5.4837      5.7751      5.9768      6.0477      5.9687      5.7482      5.4197      5.0325      4.6399    
  4.2874      4.0026      3.7900      3.6285      3.4900      3.3754      3.2887      3.2308      3.1999      3.1933    
  3.2078      3.2418      3.2954      3.3705      3.4702      3.5971      3.7522      3.9326      4.1307      4.3359    
  4.5632      4.8376      4.5885      4.7219      4.8376      4.9144      4.9313      4.8758      4.7491      4.5665    
  4.3529      4.1361      3.9380      3.7687      3.6221      3.4900      3.3767      3.2865      3.2214      3.1816    
  3.1655      3.1703      3.1933      3.2323      3.2864      3.3562      3.4430      3.5486      3.6739      3.8176    
  3.9756      4.1405      4.3020      4.4498      4.3599      4.4201      4.4498      4.4502      4.4196      4.3560    
  4.2611      4.1415      4.0077      3.8700      3.7345      3.6037      3.4825      3.3754      3.2865      3.2185    
  3.1729      3.1498      3.1480      3.1655      3.1999      3.2492      3.3115      3.3859      3.4719      3.5693    
  3.6775      3.7952      3.9192      4.0447      4.1651      4.2727      4.2553      4.2768      4.2727      4.2431    
  4.1895      4.1148      4.0229      3.9184      3.8061      3.6909      3.5774      3.4700      3.3726      3.2887    
  3.2214      3.1729      3.1446      3.1370      3.1498      3.1816      3.2308      3.2951      3.3722      3.4598    
  3.5555      3.6570      3.7617      3.8665      3.9679      4.0620      4.1443      4.2101      4.2768      4.2553    
  4.2101      4.1443      4.0620      3.9679      3.8665      3.7617      3.6570      3.5555      3.4598      3.3722    
  3.2951      3.2308      3.1816      3.1498      3.1370      3.1446      3.1729      3.2214      3.2887      3.3726    
  3.4700      3.5774      3.6909      3.8061      3.9184      4.0229      4.1148      4.1895      4.2431      4.2727    
  4.4201      4.3599      4.2727      4.1651      4.0447      3.9192      3.7952      3.6775      3.5693      3.4719    
  3.3859      3.3115      3.2492      3.1999      3.1655      3.1480      3.1498      3.1729      3.2185      3.2865    
  3.3754      3.4825      3.6037      3.7345      3.8700      4.0077      4.1415      4.2611      4.3560      4.4196    
  4.4502      4.4498      4.7219      4.5885      4.4498      4.3020      4.1405      3.9756      3.8176      3.6739    
  3.5486      3.4430      3.3562      3.2864      3.2323      3.1933      3.1703      3.1655      3.1816      3.2214    
  3.2865      3.3767      3.4900      3.6221      3.7687      3.9380      4.1361      4.3529      4.5665      4.7491    
  4.8758      4.9313      4.9144      4.8376      5.4837      5.1549      4.8376      4.5632      4.3359      4.1307    
  3.9326      3.7522      3.5971      3.4702      3.3705      3.2954      3.2418      3.2078      3.1933      3.1999    
  3.2308      3.2887      3.3754      3.4900      3.6285      3.7900      4.0026      4.2874      4.6399      5.0325    
  5.4197      5.7482      5.9687      6.0477      5.9768      5.7751      7.0690      6.4279      5.7751      5.1904    
  4.7233      4.3815      4.1289      3.9084      3.7144      3.5543      3.4296      3.3384      3.2768      3.2418    
  3.2323      3.2492      3.2951      3.3726      3.4825      3.6221      3.7900      4.0300      4.3915      4.8905    
  5.5091      6.1970      6.8792      7.4677      7.8781      8.0479      7.9509      7.6052      9.7747      8.7329    
  7.6052      6.5292      5.6127      4.9154      4.4396      4.1311      3.8964      3.6958      3.5357      3.4173    
  3.3384      3.2954      3.2864      3.3115      3.3722      3.4700      3.6037      3.7687      4.0026      4.3915    
  4.9897      5.8082      6.8133      7.9291      9.0451      10.031      10.757      11.118      11.060      10.590    
  13.785      12.295      10.590      8.8690      7.3084      6.0328      5.1001      4.4950      4.1354      3.8916    
  3.6902      3.5357      3.4296      3.3705      3.3562      3.3859      3.4598      3.5774      3.7345      3.9380    
  4.2874      4.8905      5.8082      7.0467      8.5563      10.233      11.928      13.461      14.648      15.330    
  15.410      14.872      19.154      17.212      14.872      12.397      10.034      7.9838      6.3698      5.2331    
  4.5288      4.1375      3.8916      3.6958      3.5543      3.4702      3.4430      3.4719      3.5555      3.6909    
  3.8700      4.1361      4.6399      5.5091      6.8133      8.5563      10.673      13.033      15.446      17.677    
  19.480      20.630      20.976      20.463      25.800      23.448      20.463      17.174      13.902      10.925    
  8.4405      6.5567      5.2814      4.5288      4.1354      3.8964      3.7144      3.5971      3.5486      3.5693    
  3.6570      3.8061      4.0077      4.3529      5.0325      6.1970      7.9291      10.233      13.033      16.174    
  19.423      22.493      25.066      26.845      27.606      27.245      33.507      30.832      27.245      23.134    
  18.899      14.897      11.405      8.6017      6.5567      5.2331      4.4950      4.1311      3.9084      3.7522    
  3.6739      3.6775      3.7617      3.9184      4.1415      4.5665      5.4197      6.8792      9.0451      11.928    
  15.446      19.423      23.594      27.615      31.101      33.669      35.012      34.958      41.909      39.051    
  34.958      30.077      24.884      19.821      15.244      11.405      8.4405      6.3698      5.1001      4.4396    
  4.1289      3.9326      3.8176      3.7952      3.8665      4.0229      4.2611      4.7491      5.7482      7.4677    
  10.031      13.461      17.677      22.493      27.615      32.658      37.164      40.667      42.765      43.199    
  50.487      47.637      43.199      37.665      31.588      25.493      19.821      14.897      10.925      7.9838    
  6.0328      4.9154      4.3815      4.1307      3.9756      3.9192      3.9679      4.1148      4.3560      4.8758    
  5.9687      7.8781      10.757      14.648      19.480      25.066      31.101      37.164      42.743      47.289    
  50.298      51.411      58.575      55.969      51.411      45.419      38.608      31.588      24.884      18.899    
  13.902      10.034      7.3084      5.6127      4.7233      4.3359      4.1405      4.0447      4.0620      4.1895    
  4.4196      4.9313      6.0477      8.0479      11.118      15.330      20.630      26.845      33.669      40.667    
  47.289      52.915      56.947      58.914      65.424      63.317      58.914      52.729      45.419      37.665    
  30.077      23.134      17.174      12.397      8.8690      6.5292      5.1904      4.5632      4.3020      4.1651    
  4.1443      4.2431      4.4502      4.9144      5.9768      7.9509      11.060      15.410      20.976      27.606    
  35.012      42.765      50.298      56.947      62.032      64.977      70.307      68.932      64.977      58.914    
  51.411      43.199      34.958      27.245      20.463      14.872      10.590      7.6052      5.7751      4.8376    
  4.4498      4.2727      4.2101      4.2727      4.4498      4.8376      5.7751      7.6052      10.590      14.872    
  20.463      27.245      34.958      43.199      51.411      58.914      64.977      68.932      68.493      68.932    
  66.686      62.032      55.513      47.821      39.670      31.693      24.389      18.106      13.050      9.2946    
  6.7821      5.3271      4.6372      4.3585      4.2191      4.1987      4.3012      4.5188      5.0325      6.1984    
  8.3368      11.673      16.307      22.211      29.220      37.032      45.195      53.116      60.097      65.424    
  68.932      70.307      68.932      64.977      58.914      51.411      43.199      34.958      27.245      20.463    
  14.872      10.590      7.6052      5.7751      4.8376      4.4498      4.2727      4.2101      4.2727      4.4498    
  4.8376      5.7751      7.6052      10.590      14.872      20.463      27.245      34.958      43.199      51.411    
  58.914      64.977      66.686      68.932      68.493      65.424      60.097      53.116      45.195      37.032    
  29.220      22.211      16.307      11.673      8.3368      6.1984      5.0325      4.5188      4.3012      4.1987    
  4.2191      4.3585      4.6372      5.3271      6.7821      9.2946      13.050      18.106      24.389      31.693    
  39.670      47.821      55.513      62.032      62.032      64.977      65.424      63.317      58.914      52.729    
  45.419      37.665      30.077      23.134      17.174      12.397      8.8690      6.5292      5.1904      4.5632    
  4.3020      4.1651      4.1443      4.2431      4.4502      4.9144      5.9768      7.9509      11.060      15.410    
  20.976      27.606      35.012      42.765      50.298      56.947      55.513      58.914      60.097      58.914    
  55.513      50.298      43.844      36.785      29.713      23.119      17.359      12.660      9.1192      6.7084    
  5.2783      4.5742      4.2749      4.1112      4.0536      4.1112      4.2749      4.5742      5.2783      6.7084    
  9.1192      12.660      17.359      23.119      29.713      36.785      43.844      50.298      47.821      51.411    
  53.116      52.729      50.298      46.119      40.667      34.504      28.181      22.174      16.843      12.428    
  9.0474      6.7010      5.2725      4.5426      4.2213      4.0400      3.9528      3.9721      4.0957      4.3101    
  4.7373      5.6779      7.4055      10.109      13.868      18.640      24.262      30.447      36.785      42.765    
  39.670      43.199      45.195      45.419      43.844      40.667      36.261      31.101      25.676      20.426    
  15.700      11.736      8.6649      6.5043      5.1663      4.4652      4.1446      3.9549      3.8471      3.8343    
  3.9185      4.0911      4.3568      4.9142      6.0388      7.9491      10.770      14.516      19.086      24.262    
  29.713      35.012      31.693      34.958      37.032      37.665      36.785      34.504      31.101      26.958    
  22.493      18.095      14.083      10.685      8.0303      6.1483      4.9724      4.3468      4.0487      3.8598    
  3.7411      3.7046      3.7541      3.8868      4.0914      4.4089      5.0642      6.2891      8.2460      11.002    
  14.516      18.640      23.119      27.606      24.389      27.245      29.220      30.077      29.713      28.181    
  25.676      22.493      18.973      15.446      12.192      9.4148      7.2354      5.6876      4.7194      4.2003    
  3.9391      3.7587      3.6382      3.5873      3.6096      3.7051      3.8699      4.0940      4.4502      5.1501    
  6.3784      8.2460      10.770      13.868      17.359      20.976      18.106      20.463      22.211      23.134    
  23.119      22.174      20.426      18.095      15.446      12.748      10.233      8.0775      6.3854      5.1883    
  4.4439      4.0423      3.8214      3.6553      3.5409      3.4844      3.4881      3.5527      3.6785      3.8621    
  4.0968      4.4658      5.1501      6.2891      7.9491      10.109      12.660      15.410      13.050      14.872    
  16.307      17.174      17.359      16.843      15.700      14.083      12.192      10.233      8.3933      6.8133    
  5.5786      4.7135      4.1809      3.8876      3.7007      3.5533      3.4508      3.3961      3.3896      3.4317    
  3.5238      3.6671      3.8599      4.0968      4.4502      5.0642      6.0388      7.4055      9.1192      11.060    
  9.2946      10.590      11.673      12.397      12.660      12.428      11.736      10.685      9.4148      8.0775    
  6.8133      5.7298      4.8905      4.3105      3.9548      3.7434      3.5825      3.4563      3.3693      3.3218    
  3.3122      3.3402      3.4069      3.5151      3.6671      3.8621      4.0940      4.4089      4.9142      5.6779    
  6.7084      7.9509      6.7821      7.6052      8.3368      8.8690      9.1192      9.0474      8.6649      8.0303    
  7.2354      6.3854      5.5786      4.8905      4.3637      4.0026      3.7729      3.6080      3.4714      3.3675    