Fe BCC                                  
   2.60000000000000     
    -0.500000    0.500000    0.500000
     0.500000   -0.500000    0.500000
     0.500000    0.500000   -0.500000
   Fe
     1
Direct
  0.000000  0.000000  0.000000
 
   32   32   32
 0.74100525800E+02 0.72653682919E+02 0.68492926271E+02 0.62115050493E+02 0.54222544903E+02
 0.45584075276E+02 0.36912023410E+02 0.28786488179E+02 0.21629057233E+02 0.15708178986E+02
 0.11151820680E+02 0.79529827398E+01 0.59707181251E+01 0.49414406337E+01 0.45147435240E+01
 0.43319303148E+01 0.42676236570E+01 0.43319303148E+01 0.45147435240E+01 0.49414406337E+01
 0.59707181251E+01 0.79529827398E+01 0.11151820680E+02 0.15708178986E+02 0.21629057233E+02
 0.28786488179E+02 0.36912023410E+02 0.45584075276E+02 0.54222544903E+02 0.62115050493E+02
 0.68492926271E+02 0.72653682919E+02 0.72653682919E+02 0.72175408646E+02 0.68931760580E+02
 0.63316794868E+02 0.55968613506E+02 0.47636535015E+02 0.39051006040E+02 0.30831976754E+02
 0.23447679871E+02 0.17211720244E+02 0.12294841451E+02 0.87328532986E+01 0.64279085057E+01
 0.51549000529E+01 0.45885194005E+01 0.43599375034E+01 0.42552921068E+01 0.42767546464E+01
 0.44200887994E+01 0.47218625827E+01 0.54836537916E+01 0.70690311822E+01 0.97747369553E+01
 0.13785253994E+02 0.19153974799E+02 0.25800298309E+02 0.33506876473E+02 0.41909264553E+02
 0.50486504991E+02 0.58574505637E+02 0.65423836753E+02 0.70306883148E+02 0.68492926271E+02
 0.68931760580E+02 0.66686075005E+02 0.62032199262E+02 0.55512986648E+02 0.47820962175E+02
 0.39669889155E+02 0.31693271964E+02 0.24389049120E+02 0.18105742428E+02 0.13049882787E+02
 0.92946174470E+01 0.67820599745E+01 0.53270577448E+01 0.46371740212E+01 0.43584703356E+01
 0.42190628347E+01 0.41986537500E+01 0.43011640137E+01 0.45187838157E+01 0.50325199082E+01
 0.61984269369E+01 0.83367556122E+01 0.11672577107E+02 0.16307289027E+02 0.22210732325E+02
 0.29219689208E+02 0.37031544774E+02 0.45195205847E+02 0.53116036051E+02 0.60096527359E+02
 0.65423836753E+02 0.62115050493E+02 0.63316794868E+02 0.62032199262E+02 0.58421355171E+02
 0.52914814740E+02 0.46118916666E+02 0.38697703010E+02 0.31269001736E+02 0.24338719816E+02
 0.18275730273E+02 0.13312440349E+02 0.95518547853E+01 0.69706736115E+01 0.54219474222E+01
 0.46498594425E+01 0.43274199445E+01 0.41611077007E+01 0.41032217048E+01 0.41639269178E+01
 0.43333054462E+01 0.46595707668E+01 0.54380486207E+01 0.69984140513E+01 0.95991192023E+01
 0.13388493467E+02 0.18388760494E+02 0.24492680162E+02 0.31460658907E+02 0.38914955704E+02
 0.46341226734E+02 0.53116036051E+02 0.58574505637E+02 0.54222544903E+02 0.55968613506E+02
 0.55512986648E+02 0.52914814740E+02 0.48490448241E+02 0.42743113203E+02 0.36261469010E+02
 0.29620585375E+02 0.23311172219E+02 0.17705126185E+02 0.13048337828E+02 0.94643604065E+01
 0.69573444505E+01 0.54142859995E+01 0.46162326750E+01 0.42690037980E+01 0.40846813852E+01
 0.39965860296E+01 0.40182564078E+01 0.41473056315E+01 0.43727001350E+01 0.48454080633E+01
 0.58804704795E+01 0.77575601533E+01 0.10666871771E+02 0.14683073153E+02 0.19756406934E+02
 0.25710539640E+02 0.32240549441E+02 0.38914955704E+02 0.45195205847E+02 0.50486504991E+02
 0.45584075276E+02 0.47636535015E+02 0.47820962175E+02 0.46118916666E+02 0.42743113203E+02
 0.38089926053E+02 0.32657593681E+02 0.26957735768E+02 0.21445074674E+02 0.16477031417E+02
 0.12299496484E+02 0.90461910793E+01 0.67404940094E+01 0.52974182178E+01 0.45324279243E+01
 0.41864136264E+01 0.39937141666E+01 0.38845817946E+01 0.38733571207E+01 0.39624217959E+01
 0.41421642642E+01 0.44280574080E+01 0.50454708205E+01 0.62782296809E+01 0.83480265459E+01
 0.11378415407E+02 0.15377491929E+02 0.20232688100E+02 0.25710539640E+02 0.31460658907E+02
 0.37031544774E+02 0.41909264553E+02 0.36912023410E+02 0.39051006040E+02 0.39669889155E+02
 0.38697703010E+02 0.36261469010E+02 0.32657593681E+02 0.28289640368E+02 0.23593600508E+02
 0.18972680823E+02 0.14754765614E+02 0.11173026453E+02 0.83610801953E+01 0.63531281091E+01
 0.50855359750E+01 0.44040158807E+01 0.40840182147E+01 0.38924356958E+01 0.37721400232E+01
 0.37365139377E+01 0.37899967572E+01 0.39294463798E+01 0.41426119000E+01 0.44898042129E+01
 0.52143060084E+01 0.65532677853E+01 0.86700800180E+01 0.11627790935E+02 0.15377491929E+02
 0.19756406934E+02 0.24492680162E+02 0.29219689208E+02 0.33506876473E+02 0.28786488179E+02
 0.30831976754E+02 0.31693271964E+02 0.31269001736E+02 0.29620585375E+02 0.26957735768E+02
 0.23593600508E+02 0.19884661602E+02 0.16173554277E+02 0.12747763583E+02 0.98174111188E+01
 0.75070745583E+01 0.58541313729E+01 0.48098003310E+01 0.42451323070E+01 0.39677856141E+01
 0.37850932204E+01 0.36630159082E+01 0.36124521523E+01 0.36377464123E+01 0.37391125901E+01
 0.39119705095E+01 0.41467698519E+01 0.45384246757E+01 0.53106404133E+01 0.66513491614E+01
 0.86700800180E+01 0.11378415407E+02 0.14683073153E+02 0.18388760494E+02 0.22210732325E+02
 0.25800298309E+02 0.21629057233E+02 0.23447679871E+02 0.24389049120E+02 0.24338719816E+02
 0.23311172219E+02 0.21445074674E+02 0.18972680823E+02 0.16173554277E+02 0.13326785192E+02
 0.10673350563E+02 0.83932977250E+01 0.65954351343E+01 0.53141635322E+01 0.45099282308E+01
 0.40742772930E+01 0.38438371336E+01 0.36757743545E+01 0.35598502836E+01 0.35033954431E+01
 0.35093069357E+01 0.35787758224E+01 0.37116186831E+01 0.39039497433E+01 0.41508387029E+01
 0.45568315270E+01 0.53106404133E+01 0.65532677853E+01 0.83480265459E+01 0.10666871771E+02
 0.13388493467E+02 0.16307289027E+02 0.19153974799E+02 0.15708178986E+02 0.17211720244E+02
 0.18105742428E+02 0.18275730273E+02 0.17705126185E+02 0.16477031417E+02 0.14754765614E+02
 0.12747763583E+02 0.10673350563E+02 0.87242170506E+01 0.70467345152E+01 0.57297549161E+01
 0.48003991825E+01 0.42239793668E+01 0.39082940967E+01 0.37174949991E+01 0.35683188081E+01
 0.34644622738E+01 0.34096788934E+01 0.34048737638E+01 0.34507612778E+01 0.35487997339E+01
 0.36999570439E+01 0.39016816690E+01 0.41508387029E+01 0.45384246757E+01 0.52143060084E+01
 0.62782296809E+01 0.77575601533E+01 0.95991192023E+01 0.11672577107E+02 0.13785253994E+02
 0.11151820680E+02 0.12294841451E+02 0.13049882787E+02 0.13312440349E+02 0.13048337828E+02
 0.12299496484E+02 0.11173026453E+02 0.98174111188E+01 0.83932977250E+01 0.70467345152E+01
 0.58898302829E+01 0.49896936536E+01 0.43637061502E+01 0.39790397312E+01 0.37563261815E+01
 0.35940290173E+01 0.34662979742E+01 0.33782406752E+01 0.33306432877E+01 0.33225249154E+01
 0.33535096625E+01 0.34250071877E+01 0.35397836202E+01 0.36999570439E+01 0.39039497433E+01
 0.41467698519E+01 0.44898042129E+01 0.50454708205E+01 0.58804704795E+01 0.69984140513E+01
 0.83367556122E+01 0.97747369553E+01 0.79529827398E+01 0.87328532986E+01 0.92946174470E+01
 0.95518547853E+01 0.94643604065E+01 0.90461910793E+01 0.83610801953E+01 0.75070745583E+01
 0.65954351343E+01 0.57297549161E+01 0.49896936536E+01 0.44208575185E+01 0.40300384050E+01
 0.37844991030E+01 0.36163862434E+01 0.34783205329E+01 0.33730336427E+01 0.33025177081E+01
 0.32655313406E+01 0.32597281748E+01 0.32836349095E+01 0.33378321429E+01 0.34250071877E+01
 0.35487997339E+01 0.37116186831E+01 0.39119705095E+01 0.41426119000E+01 0.44280574080E+01
 0.48454080633E+01 0.54380486207E+01 0.61984269369E+01 0.70690311822E+01 0.59707181251E+01
 0.64279085057E+01 0.67820599745E+01 0.69706736115E+01 0.69573444505E+01 0.67404940094E+01
 0.63531281091E+01 0.58541313729E+01 0.53141635322E+01 0.48003991825E+01 0.43637061502E+01
 0.40300384050E+01 0.37960694234E+01 0.36284976237E+01 0.34882183403E+01 0.33747663359E+01
 0.32916131835E+01 0.32388397123E+01 0.32141799246E+01 0.32146124159E+01 0.32379013337E+01
 0.32836349095E+01 0.33535096625E+01 0.34507612778E+01 0.35787758224E+01 0.37391125901E+01
 0.39294463798E+01 0.41421642642E+01 0.43727001350E+01 0.46595707668E+01 0.50325199082E+01
 0.54836537916E+01 0.49414406337E+01 0.51549000529E+01 0.53270577448E+01 0.54219474222E+01
 0.54142859995E+01 0.52974182178E+01 0.50855359750E+01 0.48098003310E+01 0.45099282308E+01
 0.42239793668E+01 0.39790397312E+01 0.37844991030E+01 0.36284976237E+01 0.34918756026E+01
 0.33767171635E+01 0.32871549060E+01 0.32248561847E+01 0.31890808124E+01 0.31773945847E+01
 0.31867550799E+01 0.32146124159E+01 0.32597281748E+01 0.33225249154E+01 0.34048737638E+01
 0.35093069357E+01 0.36377464123E+01 0.37899967572E+01 0.39624217959E+01 0.41473056315E+01
 0.43333054462E+01 0.45187838157E+01 0.47218625827E+01 0.45147435240E+01 0.45885194005E+01
 0.46371740212E+01 0.46498594425E+01 0.46162326750E+01 0.45324279243E+01 0.44040158807E+01
 0.42451323070E+01 0.40742772930E+01 0.39082940967E+01 0.37563261815E+01 0.36163862434E+01
 0.34882183403E+01 0.33767171635E+01 0.32859320527E+01 0.32184699574E+01 0.31752110700E+01
 0.31553799012E+01 0.31569700372E+01 0.31773945847E+01 0.32141799246E+01 0.32655313406E+01
 0.33306432877E+01 0.34096788934E+01 0.35033954431E+01 0.36124521523E+01 0.37365139377E+01
 0.38733571207E+01 0.40182564078E+01 0.41639269178E+01 0.43011640137E+01 0.44200887994E+01
 0.43319303148E+01 0.43599375034E+01 0.43584703356E+01 0.43274199445E+01 0.42690037980E+01
 0.41864136264E+01 0.40840182147E+01 0.39677856141E+01 0.38438371336E+01 0.37174949991E+01
 0.35940290173E+01 0.34783205329E+01 0.33747663359E+01 0.32871549060E+01 0.32184699574E+01
 0.31706787031E+01 0.31445993193E+01 0.31399195118E+01 0.31553799012E+01 0.31890808124E+01
 0.32388397123E+01 0.33025177081E+01 0.33782406752E+01 0.34644622738E+01 0.35598502836E+01
 0.36630159082E+01 0.37721400232E+01 0.38845817946E+01 0.39965860296E+01 0.41032217048E+01
 0.41986537500E+01 0.42767546464E+01 0.42676236570E+01 0.42552921068E+01 0.42190628347E+01
 0.41611077007E+01 0.40846813852E+01 0.39937141666E+01 0.38924356958E+01 0.37850932204E+01
 0.36757743545E+01 0.35683188081E+01 0.34662979742E+01 0.33730336427E+01 0.32916131835E+01
 0.32248561847E+01 0.31752110700E+01 0.31445993193E+01 0.31342536461E+01 0.31445993193E+01
 0.31752110700E+01 0.32248561847E+01 0.32916131835E+01 0.33730336427E+01 0.34662979742E+01
 0.35683188081E+01 0.36757743545E+01 0.37850932204E+01 0.38924356958E+01 0.39937141666E+01
 0.40846813852E+01 0.41611077007E+01 0.42190628347E+01 0.42552921068E+01 0.43319303148E+01
 0.42767546464E+01 0.41986537500E+01 0.41032217048E+01 0.39965860296E+01 0.38845817946E+01
 0.37721400232E+01 0.36630159082E+01 0.35598502836E+01 0.34644622738E+01 0.33782406752E+01
 0.33025177081E+01 0.32388397123E+01 0.31890808124E+01 0.31553799012E+01 0.31399195118E+01
 0.31445993193E+01 0.31706787031E+01 0.32184699574E+01 0.32871549060E+01 0.33747663359E+01
 0.34783205329E+01 0.35940290173E+01 0.37174949991E+01 0.38438371336E+01 0.39677856141E+01
 0.40840182147E+01 0.41864136264E+01 0.42690037980E+01 0.43274199445E+01 0.43584703356E+01
 0.43599375034E+01 0.45147435240E+01 0.44200887994E+01 0.43011640137E+01 0.41639269178E+01
 0.40182564078E+01 0.38733571207E+01 0.37365139377E+01 0.36124521523E+01 0.35033954431E+01
 0.34096788934E+01 0.33306432877E+01 0.32655313406E+01 0.32141799246E+01 0.31773945847E+01
 0.31569700372E+01 0.31553799012E+01 0.31752110700E+01 0.32184699574E+01 0.32859320527E+01
 0.33767171635E+01 0.34882183403E+01 0.36163862434E+01 0.37563261815E+01 0.39082940967E+01
 0.40742772930E+01 0.42451323070E+01 0.44040158807E+01 0.45324279243E+01 0.46162326750E+01
 0.46498594425E+01 0.46371740212E+01 0.45885194005E+01 0.49414406337E+01 0.47218625827E+01
 0.45187838157E+01 0.43333054462E+01 0.41473056315E+01 0.39624217959E+01 0.37899967572E+01
 0.36377464123E+01 0.35093069357E+01 0.34048737638E+01 0.33225249154E+01 0.32597281748E+01
 0.32146124159E+01 0.31867550799E+01 0.31773945847E+01 0.31890808124E+01 0.32248561847E+01
 0.32871549060E+01 0.33767171635E+01 0.34918756026E+01 0.36284976237E+01 0.37844991030E+01
 0.39790397312E+01 0.42239793668E+01 0.45099282308E+01 0.48098003310E+01 0.50855359750E+01
 0.52974182178E+01 0.54142859995E+01 0.54219474222E+01 0.53270577448E+01 0.51549000529E+01
 0.59707181251E+01 0.54836537916E+01 0.50325199082E+01 0.46595707668E+01 0.43727001350E+01
 0.41421642642E+01 0.39294463798E+01 0.37391125901E+01 0.35787758224E+01 0.34507612778E+01
 0.33535096625E+01 0.32836349095E+01 0.32379013337E+01 0.32146124159E+01 0.32141799246E+01
 0.32388397123E+01 0.32916131835E+01 0.33747663359E+01 0.34882183403E+01 0.36284976237E+01
 0.37960694234E+01 0.40300384050E+01 0.43637061502E+01 0.48003991825E+01 0.53141635322E+01
 0.58541313729E+01 0.63531281091E+01 0.67404940094E+01 0.69573444505E+01 0.69706736115E+01
 0.67820599745E+01 0.64279085057E+01 0.79529827398E+01 0.70690311822E+01 0.61984269369E+01
 0.54380486207E+01 0.48454080633E+01 0.44280574080E+01 0.41426119000E+01 0.39119705095E+01
 0.37116186831E+01 0.35487997339E+01 0.34250071877E+01 0.33378321429E+01 0.32836349095E+01
 0.32597281748E+01 0.32655313406E+01 0.33025177081E+01 0.33730336427E+01 0.34783205329E+01
 0.36163862434E+01 0.37844991030E+01 0.40300384050E+01 0.44208575185E+01 0.49896936536E+01
 0.57297549161E+01 0.65954351343E+01 0.75070745583E+01 0.83610801953E+01 0.90461910793E+01
 0.94643604065E+01 0.95518547853E+01 0.92946174470E+01 0.87328532986E+01 0.11151820680E+02
 0.97747369553E+01 0.83367556122E+01 0.69984140513E+01 0.58804704795E+01 0.50454708205E+01
 0.44898042129E+01 0.41467698519E+01 0.39039497433E+01 0.36999570439E+01 0.35397836202E+01
 0.34250071877E+01 0.33535096625E+01 0.33225249154E+01 0.33306432877E+01 0.33782406752E+01
 0.34662979742E+01 0.35940290173E+01 0.37563261815E+01 0.39790397312E+01 0.43637061502E+01
 0.49896936536E+01 0.58898302829E+01 0.70467345152E+01 0.83932977250E+01 0.98174111188E+01
 0.11173026453E+02 0.12299496484E+02 0.13048337828E+02 0.13312440349E+02 0.13049882787E+02
 0.12294841451E+02 0.15708178986E+02 0.13785253994E+02 0.11672577107E+02 0.95991192023E+01
 0.77575601533E+01 0.62782296809E+01 0.52143060084E+01 0.45384246757E+01 0.41508387029E+01
 0.39016816690E+01 0.36999570439E+01 0.35487997339E+01 0.34507612778E+01 0.34048737638E+01
 0.34096788934E+01 0.34644622738E+01 0.35683188081E+01 0.37174949991E+01 0.39082940967E+01
 0.42239793668E+01 0.48003991825E+01 0.57297549161E+01 0.70467345152E+01 0.87242170506E+01
 0.10673350563E+02 0.12747763583E+02 0.14754765614E+02 0.16477031417E+02 0.17705126185E+02
 0.18275730273E+02 0.18105742428E+02 0.17211720244E+02 0.21629057233E+02 0.19153974799E+02
 0.16307289027E+02 0.13388493467E+02 0.10666871771E+02 0.83480265459E+01 0.65532677853E+01
 0.53106404133E+01 0.45568315270E+01 0.41508387029E+01 0.39039497433E+01 0.37116186831E+01
 0.35787758224E+01 0.35093069357E+01 0.35033954431E+01 0.35598502836E+01 0.36757743545E+01
 0.38438371336E+01 0.40742772930E+01 0.45099282308E+01 0.53141635322E+01 0.65954351343E+01
 0.83932977250E+01 0.10673350563E+02 0.13326785192E+02 0.16173554277E+02 0.18972680823E+02
 0.21445074674E+02 0.23311172219E+02 0.24338719816E+02 0.24389049120E+02 0.23447679871E+02
 0.28786488179E+02 0.25800298309E+02 0.22210732325E+02 0.18388760494E+02 0.14683073153E+02
 0.11378415407E+02 0.86700800180E+01 0.66513491614E+01 0.53106404133E+01 0.45384246757E+01
 0.41467698519E+01 0.39119705095E+01 0.37391125901E+01 0.36377464123E+01 0.36124521523E+01
 0.36630159082E+01 0.37850932204E+01 0.39677856141E+01 0.42451323070E+01 0.48098003310E+01
 0.58541313729E+01 0.75070745583E+01 0.98174111188E+01 0.12747763583E+02 0.16173554277E+02
 0.19884661602E+02 0.23593600508E+02 0.26957735768E+02 0.29620585375E+02 0.31269001736E+02
 0.31693271964E+02 0.30831976754E+02 0.36912023410E+02 0.33506876473E+02 0.29219689208E+02
 0.24492680162E+02 0.19756406934E+02 0.15377491929E+02 0.11627790935E+02 0.86700800180E+01
 0.65532677853E+01 0.52143060084E+01 0.44898042129E+01 0.41426119000E+01 0.39294463798E+01
 0.37899967572E+01 0.37365139377E+01 0.37721400232E+01 0.38924356958E+01 0.40840182147E+01
 0.44040158807E+01 0.50855359750E+01 0.63531281091E+01 0.83610801953E+01 0.11173026453E+02
 0.14754765614E+02 0.18972680823E+02 0.23593600508E+02 0.28289640368E+02 0.32657593681E+02
 0.36261469010E+02 0.38697703010E+02 0.39669889155E+02 0.39051006040E+02 0.45584075276E+02
 0.41909264553E+02 0.37031544774E+02 0.31460658907E+02 0.25710539640E+02 0.20232688100E+02
 0.15377491929E+02 0.11378415407E+02 0.83480265459E+01 0.62782296809E+01 0.50454708205E+01
 0.44280574080E+01 0.41421642642E+01 0.39624217959E+01 0.38733571207E+01 0.38845817946E+01
 0.39937141666E+01 0.41864136264E+01 0.45324279243E+01 0.52974182178E+01 0.67404940094E+01
 0.90461910793E+01 0.12299496484E+02 0.16477031417E+02 0.21445074674E+02 0.26957735768E+02
 0.32657593681E+02 0.38089926053E+02 0.42743113203E+02 0.46118916666E+02 0.47820962175E+02
 0.47636535015E+02 0.54222544903E+02 0.50486504991E+02 0.45195205847E+02 0.38914955704E+02
 0.32240549441E+02 0.25710539640E+02 0.19756406934E+02 0.14683073153E+02 0.10666871771E+02
 0.77575601533E+01 0.58804704795E+01 0.48454080633E+01 0.43727001350E+01 0.41473056315E+01
 0.40182564078E+01 0.39965860296E+01 0.40846813852E+01 0.42690037980E+01 0.46162326750E+01
 0.54142859995E+01 0.69573444505E+01 0.94643604065E+01 0.13048337828E+02 0.17705126185E+02
 0.23311172219E+02 0.29620585375E+02 0.36261469010E+02 0.42743113203E+02 0.48490448241E+02
 0.52914814740E+02 0.55512986648E+02 0.55968613506E+02 0.62115050493E+02 0.58574505637E+02
 0.53116036051E+02 0.46341226734E+02 0.38914955704E+02 0.31460658907E+02 0.24492680162E+02
 0.18388760494E+02 0.13388493467E+02 0.95991192023E+01 0.69984140513E+01 0.54380486207E+01
 0.46595707668E+01 0.43333054462E+01 0.41639269178E+01 0.41032217048E+01 0.41611077007E+01
 0.43274199445E+01 0.46498594425E+01 0.54219474222E+01 0.69706736115E+01 0.95518547853E+01
 0.13312440349E+02 0.18275730273E+02 0.24338719816E+02 0.31269001736E+02 0.38697703010E+02
 0.46118916666E+02 0.52914814740E+02 0.58421355171E+02 0.62032199262E+02 0.63316794868E+02
 0.68492926271E+02 0.65423836753E+02 0.60096527359E+02 0.53116036051E+02 0.45195205847E+02
 0.37031544774E+02 0.29219689208E+02 0.22210732325E+02 0.16307289027E+02 0.11672577107E+02
 0.83367556122E+01 0.61984269369E+01 0.50325199082E+01 0.45187838157E+01 0.43011640137E+01
 0.41986537500E+01 0.42190628347E+01 0.43584703356E+01 0.46371740212E+01 0.53270577448E+01
 0.67820599745E+01 0.92946174470E+01 0.13049882787E+02 0.18105742428E+02 0.24389049120E+02
 0.31693271964E+02 0.39669889155E+02 0.47820962175E+02 0.55512986648E+02 0.62032199262E+02
 0.66686075005E+02 0.68931760580E+02 0.72653682919E+02 0.70306883148E+02 0.65423836753E+02
 0.58574505637E+02 0.50486504991E+02 0.41909264553E+02 0.33506876473E+02 0.25800298309E+02
 0.19153974799E+02 0.13785253994E+02 0.97747369553E+01 0.70690311822E+01 0.54836537916E+01
 0.47218625827E+01 0.44200887994E+01 0.42767546464E+01 0.42552921068E+01 0.43599375034E+01
 0.45885194005E+01 0.51549000529E+01 0.64279085057E+01 0.87328532986E+01 0.12294841451E+02
 0.17211720244E+02 0.23447679871E+02 0.30831976754E+02 0.39051006040E+02 0.47636535015E+02
 0.55968613506E+02 0.63316794868E+02 0.68931760580E+02 0.72175408646E+02 0.72653682919E+02
 0.72175408646E+02 0.68931760580E+02 0.63316794868E+02 0.55968613506E+02 0.47636535015E+02
 0.39051006040E+02 0.30831976754E+02 0.23447679871E+02 0.17211720244E+02 0.12294841451E+02
 0.87328532986E+01 0.64279085057E+01 0.51549000529E+01 0.45885194005E+01 0.43599375034E+01
 0.42552921068E+01 0.42767546464E+01 0.44200887994E+01 0.47218625827E+01 0.54836537916E+01
 0.70690311822E+01 0.97747369553E+01 0.13785253994E+02 0.19153974799E+02 0.25800298309E+02
 0.33506876473E+02 0.41909264553E+02 0.50486504991E+02 0.58574505637E+02 0.65423836753E+02
 0.70306883148E+02 0.72175408646E+02 0.72653682921E+02 0.70306883152E+02 0.65423836759E+02
 0.58574505645E+02 0.50486505000E+02 0.41909264563E+02 0.33506876482E+02 0.25800298315E+02
 0.19153974801E+02 0.13785253989E+02 0.97747369449E+01 0.70690311667E+01 0.54836537733E+01
 0.47218625646E+01 0.44200887848E+01 0.42767546376E+01 0.42552921048E+01 0.43599375078E+01
 0.45885194091E+01 0.51549000628E+01 0.64279085136E+01 0.87328533021E+01 0.12294841448E+02
 0.17211720236E+02 0.23447679859E+02 0.30831976739E+02 0.39051006025E+02 0.47636535002E+02
 0.55968613497E+02 0.63316794862E+02 0.68931760577E+02 0.68931760580E+02 0.70306883152E+02
 0.68931760582E+02 0.64976963242E+02 0.58914095790E+02 0.51410759628E+02 0.43198789733E+02
 0.34958265587E+02 0.27244841336E+02 0.20463469349E+02 0.14871625271E+02 0.10589643239E+02
 0.76052188597E+01 0.57750533274E+01 0.48375972524E+01 0.44498115980E+01 0.42727243794E+01
 0.42100733575E+01 0.42727243914E+01 0.44498116189E+01 0.48375972768E+01 0.57750533493E+01
 0.76052188737E+01 0.10589643242E+02 0.14871625262E+02 0.20463469332E+02 0.27244841314E+02
 0.34958265564E+02 0.43198789714E+02 0.51410759614E+02 0.58914095780E+02 0.64976963237E+02
 0.63316794868E+02 0.65423836759E+02 0.64976963242E+02 0.62032199261E+02 0.56946721335E+02
 0.50298003838E+02 0.42765134686E+02 0.35012329187E+02 0.27606051158E+02 0.20976085565E+02
 0.15409962594E+02 0.11060470130E+02 0.79509335902E+01 0.59768122032E+01 0.49144474709E+01
 0.44502045689E+01 0.42431272840E+01 0.41442724482E+01 0.41650662784E+01 0.43020141581E+01
 0.45631960612E+01 0.51904425508E+01 0.65291946863E+01 0.88689951162E+01 0.12396544749E+02
 0.17173997742E+02 0.23133855102E+02 0.30076839873E+02 0.37665317368E+02 0.45418652351E+02
 0.52728733825E+02 0.58914095784E+02 0.55968613506E+02 0.58574505645E+02 0.58914095790E+02
 0.56946721335E+02 0.52914814737E+02 0.47288701460E+02 0.40667258389E+02 0.33668920486E+02
 0.26844931298E+02 0.20630499489E+02 0.15329773888E+02 0.11118359475E+02 0.80478553412E+01
 0.60476638313E+01 0.49313428340E+01 0.44195816232E+01 0.41895091005E+01 0.40620419123E+01
 0.40446698159E+01 0.41404746771E+01 0.43359191163E+01 0.47233242088E+01 0.56126729718E+01
 0.73084068686E+01 0.10034474486E+02 0.13902328053E+02 0.18898961958E+02 0.24884276749E+02
 0.31588216360E+02 0.38608132694E+02 0.45418652356E+02 0.51410759623E+02 0.47636535015E+02
 0.50486505000E+02 0.51410759628E+02 0.50298003838E+02 0.47288701460E+02 0.42743113198E+02
 0.37163930826E+02 0.31100742450E+02 0.25065805284E+02 0.19479579544E+02 0.14647518826E+02
 0.10756669960E+02 0.78781170118E+01 0.59686700073E+01 0.48758226165E+01 0.43559909017E+01
 0.41147850079E+01 0.39679487755E+01 0.39191867191E+01 0.39755845973E+01 0.41306704116E+01
 0.43814653621E+01 0.49153894567E+01 0.60328367187E+01 0.79837710428E+01 0.10924609722E+02
 0.14897000315E+02 0.19820942692E+02 0.25493312903E+02 0.31588216368E+02 0.37665317381E+02
 0.43198789728E+02 0.39051006040E+02 0.41909264563E+02 0.43198789733E+02 0.42765134686E+02
 0.40667258389E+02 0.37163930826E+02 0.32657593675E+02 0.27615421454E+02 0.22492702284E+02
 0.17677379294E+02 0.13461229581E+02 0.10030929863E+02 0.74676710037E+01 0.57482477709E+01
 0.47491154407E+01 0.42610804382E+01 0.40228824209E+01 0.38664681082E+01 0.37951904090E+01
 0.38175597208E+01 0.39325531473E+01 0.41289023736E+01 0.44396123858E+01 0.51000553120E+01
 0.63697773284E+01 0.84404875106E+01 0.11405237146E+02 0.15244195093E+02 0.19820942701E+02
 0.24884276765E+02 0.30076839892E+02 0.34958265582E+02 0.30831976754E+02 0.33506876482E+02
 0.34958265587E+02 0.35012329187E+02 0.33668920486E+02 0.31100742450E+02 0.27615421454E+02
 0.23593600498E+02 0.19423034067E+02 0.15446069206E+02 0.11928244358E+02 0.90451419524E+01
 0.68791686805E+01 0.54197080620E+01 0.45664738951E+01 0.41415391576E+01 0.39183625719E+01
 0.37616510872E+01 0.36775433932E+01 0.36738554917E+01 0.37521897814E+01 0.39084321568E+01
 0.41311183347E+01 0.44950084869E+01 0.52330562892E+01 0.65566927953E+01 0.86016575879E+01
 0.11405237157E+02 0.14897000334E+02 0.18898961981E+02 0.23133855125E+02 0.27244841334E+02
 0.23447679871E+02 0.25800298315E+02 0.27244841336E+02 0.27606051158E+02 0.26844931298E+02
 0.25065805284E+02 0.22492702284E+02 0.19423034067E+02 0.16173554261E+02 0.13033488605E+02
 0.10233298957E+02 0.79290681301E+01 0.61969821530E+01 0.50324687599E+01 0.43529277409E+01
 0.40077194204E+01 0.38060728753E+01 0.36569979218E+01 0.35692682529E+01 0.35486218301E+01
 0.35971040231E+01 0.37144318341E+01 0.38963922483E+01 0.41353989188E+01 0.45287646293E+01
 0.52813997475E+01 0.65566928067E+01 0.84404875318E+01 0.10924609749E+02 0.13902328081E+02
 0.17173997767E+02 0.20463469351E+02 0.17211720244E+02 0.19153974801E+02 0.20463469349E+02
 0.20976085565E+02 0.20630499489E+02 0.19479579544E+02 0.17677379294E+02 0.15446069206E+02
 0.13033488605E+02 0.10673350542E+02 0.85562611136E+01 0.68133148254E+01 0.55090898203E+01
 0.46399177103E+01 0.41360507227E+01 0.38700463164E+01 0.36908618527E+01 0.35554953303E+01
 0.34718583058E+01 0.34430263037E+01 0.34701514665E+01 0.35542697334E+01 0.36957576114E+01
 0.38915771700E+01 0.41375293288E+01 0.45287646396E+01 0.52330563100E+01 0.63697773571E+01
 0.79837710748E+01 0.10034474516E+02 0.12396544773E+02 0.14871625279E+02 0.12294841451E+02
 0.13785253989E+02 0.14871625271E+02 0.15409962594E+02 0.15329773888E+02 0.14647518826E+02
 0.13461229581E+02 0.11928244358E+02 0.10233298957E+02 0.85562611136E+01 0.70467344941E+01
 0.58082376503E+01 0.48905465388E+01 0.42873612837E+01 0.39379923228E+01 0.37345418018E+01
 0.35773787293E+01 0.34597510524E+01 0.33858515831E+01 0.33562004254E+01 0.33705223445E+01
 0.34296408980E+01 0.35356511482E+01 0.36902322692E+01 0.38915771772E+01 0.41353989357E+01
 0.44950085130E+01 0.51000553441E+01 0.60328367518E+01 0.73084068975E+01 0.88689951370E+01
 0.10589643253E+02 0.87328532986E+01 0.97747369449E+01 0.10589643239E+02 0.11060470130E+02
 0.11118359475E+02 0.10756669960E+02 0.10030929863E+02 0.90451419524E+01 0.79290681301E+01
 0.68133148254E+01 0.58082376503E+01 0.49896936393E+01 0.43914554041E+01 0.40025832362E+01
 0.37687370149E+01 0.36037362464E+01 0.34699593901E+01 0.33721612456E+01 0.33114692764E+01
 0.32864331956E+01 0.32954219292E+01 0.33383734282E+01 0.34173429506E+01 0.35356511506E+01
 0.36957576206E+01 0.38963922665E+01 0.41311183610E+01 0.44396124168E+01 0.49153894874E+01
 0.56126729972E+01 0.65291947027E+01 0.76052188797E+01 0.64279085057E+01 0.70690311667E+01
 0.76052188597E+01 0.79509335902E+01 0.80478553412E+01 0.78781170118E+01 0.74676710037E+01
 0.68791686805E+01 0.61969821530E+01 0.55090898203E+01 0.48905465388E+01 0.43914554041E+01
 0.40300384017E+01 0.37900190330E+01 0.36220767106E+01 0.34824671280E+01 0.33725657369E+01
 0.32950554983E+01 0.32491581982E+01 0.32322648718E+01 0.32418180641E+01 0.32767930319E+01
 0.33383734255E+01 0.34296408974E+01 0.35542697391E+01 0.37144318482E+01 0.39084321787E+01
 0.41289024000E+01 0.43814653885E+01 0.47233242301E+01 0.51904425633E+01 0.57750533512E+01
 0.51549000529E+01 0.54836537733E+01 0.57750533274E+01 0.59768122032E+01 0.60476638313E+01
 0.59686700073E+01 0.57482477709E+01 0.54197080620E+01 0.50324687599E+01 0.46399177103E+01
 0.42873612837E+01 0.40025832362E+01 0.37900190330E+01 0.36284976301E+01 0.34899551726E+01
 0.33754080617E+01 0.32887218268E+01 0.32307712971E+01 0.31999342110E+01 0.31932502951E+01
 0.32077919287E+01 0.32418180573E+01 0.32954219195E+01 0.33705223365E+01 0.34701514644E+01
 0.35971040293E+01 0.37521897958E+01 0.39325531674E+01 0.41306704330E+01 0.43359191343E+01
 0.45631960715E+01 0.48375972771E+01 0.45885194005E+01 0.47218625646E+01 0.48375972524E+01
 0.49144474709E+01 0.49313428340E+01 0.48758226165E+01 0.47491154407E+01 0.45664738951E+01
 0.43529277409E+01 0.41360507227E+01 0.39379923228E+01 0.37687370149E+01 0.36220767106E+01
 0.34899551726E+01 0.33767171741E+01 0.32864682818E+01 0.32214038459E+01 0.31816254832E+01
 0.31654775822E+01 0.31702847582E+01 0.31932502865E+01 0.32322648565E+01 0.32864331771E+01
 0.33562004082E+01 0.34430262922E+01 0.35486218271E+01 0.36738554980E+01 0.38175597346E+01
 0.39755846149E+01 0.41404746936E+01 0.43020141689E+01 0.44498116206E+01 0.43599375034E+01
 0.44200887848E+01 0.44498115980E+01 0.44502045689E+01 0.44195816232E+01 0.43559909017E+01
 0.42610804382E+01 0.41415391576E+01 0.40077194204E+01 0.38700463164E+01 0.37345418018E+01
 0.36037362464E+01 0.34824671280E+01 0.33754080617E+01 0.32864682818E+01 0.32184699654E+01
 0.31728872908E+01 0.31497803797E+01 0.31479791962E+01 0.31654775739E+01 0.31999341945E+01
 0.32491581753E+01 0.33114692504E+01 0.33858515584E+01 0.34718582867E+01 0.35692682427E+01
 0.36775433934E+01 0.37951904186E+01 0.39191867350E+01 0.40446698333E+01 0.41650662922E+01
 0.42727243973E+01 0.42552921068E+01 0.42767546376E+01 0.42727243794E+01 0.42431272840E+01
 0.41895091005E+01 0.41147850079E+01 0.40228824209E+01 0.39183625719E+01 0.38060728753E+01
 0.36908618527E+01 0.35773787293E+01 0.34699593901E+01 0.33725657369E+01 0.32887218268E+01
 0.32214038459E+01 0.31728872908E+01 0.31445993208E+01 0.31370358786E+01 0.31497803725E+01
 0.31816254687E+01 0.32307712757E+01 0.32950554716E+01 0.33721612166E+01 0.34597510249E+01
 0.35554953083E+01 0.36569979088E+01 0.37616510852E+01 0.38664681167E+01 0.39679487920E+01
 0.40620419324E+01 0.41442724665E+01 0.42100733693E+01 0.42767546464E+01 0.42552921048E+01
 0.42100733575E+01 0.41442724482E+01 0.40620419123E+01 0.39679487755E+01 0.38664681082E+01
 0.37616510872E+01 0.36569979218E+01 0.35554953303E+01 0.34597510524E+01 0.33721612456E+01
 0.32950554983E+01 0.32307712971E+01 0.31816254832E+01 0.31497803797E+01 0.31370358786E+01
 0.31445993143E+01 0.31728872784E+01 0.32214038282E+01 0.32887218047E+01 0.33725657119E+01
 0.34699593643E+01 0.35773787055E+01 0.36908618343E+01 0.38060728652E+01 0.39183625720E+01
 0.40228824314E+01 0.41147850268E+01 0.41895091240E+01 0.42431273072E+01 0.42727243973E+01
 0.44200887994E+01 0.43599375078E+01 0.42727243914E+01 0.41650662784E+01 0.40446698159E+01
 0.39191867191E+01 0.37951904090E+01 0.36775433932E+01 0.35692682529E+01 0.34718583058E+01
 0.33858515831E+01 0.33114692764E+01 0.32491581982E+01 0.31999342110E+01 0.31654775822E+01
 0.31479791962E+01 0.31497803725E+01 0.31728872784E+01 0.32184699495E+01 0.32864682642E+01
 0.33754080435E+01 0.34824671102E+01 0.36037362301E+01 0.37345417885E+01 0.38700463078E+01
 0.40077194185E+01 0.41415391637E+01 0.42610804527E+01 0.43559909235E+01 0.44195816495E+01