    1    1    1    2
  0.8788000E+01  0.2251666E-09  0.2251666E-09  0.2251666E-09  0.5000000E-15
  1.000000000000000E-004
  CAR 
 Fe BCC                                  
      8     26     12
 
  0.6250000E-01  0.6250000E-01  0.6250000E-01  0.1562500E-01
    1        0.008318      0.230312   1.000000   1.000000
    2        5.672571      7.146133   1.000000   1.000000
    3        5.672571      7.146133   1.000000   1.000000
    4        6.879090      8.434445   1.000000   0.946316
    5        7.781417     10.061865   1.000000  -0.002561
    6        7.781417     10.061865   1.002782   0.000000
    7       33.240460     33.482647   0.000000   0.000000
    8       33.240460     33.482647   0.000000   0.000000
    9       37.449644     37.319759   0.000000   0.000000
   10       40.214263     41.009354   0.000000   0.000000
   11       44.814296     45.117322   0.000000   0.000000
   12       44.814296     45.117322   0.000000   0.000000
 
  0.1875000E+00  0.6250000E-01  0.6250000E-01  0.4687500E-01
    1        1.836544      2.160547   1.000000   1.000000
    2        5.052790      6.451125   1.000000   1.000000
    3        5.373892      6.745385   1.000000   1.000000
    4        7.692892      9.865048   1.000000  -0.043069
    5        7.985374      9.978565   1.002599  -0.001559
    6        8.383307     10.300739   0.796301   0.000000
    7       27.887438     28.482045   0.000000   0.000000
    8       30.822590     31.175650   0.000000   0.000000
    9       35.479958     36.180899   0.000000   0.000000
   10       38.403824     38.431453   0.000000   0.000000
   11       45.153854     45.741145   0.000000   0.000000
   12       45.461569     45.765184   0.000000   0.000000
 
  0.3125000E+00  0.6250000E-01  0.6250000E-01  0.4687500E-01
    1        2.742556      3.605496   1.000000   1.000000
    2        4.533579      5.866180   1.000000   1.000000
    3        6.546972      7.415744   1.000000   1.000000
    4        7.922211     10.046293   1.000000  -0.007124
    5        8.152371     10.514063   1.024019   0.000000
    6       10.343769     11.855083  -0.033913   0.000000
    7       22.156334     23.052353   0.000000   0.000000
    8       28.804742     29.136127   0.000000   0.000000
    9       32.504867     33.115299   0.000000   0.000000
   10       38.461502     38.717639   0.000000   0.000000
   11       44.401275     44.961978   0.000000   0.000000
   12       49.089172     49.331653   0.000000   0.000000
 
  0.4375000E+00  0.6250000E-01  0.6250000E-01  0.2343750E-01
    1        2.645218      3.707216   1.000000   1.000000
    2        4.336669      5.644921   1.000000   1.000000
    3        7.857176      8.634047   1.000000   1.000000
    4        8.031542     10.165818   1.000000   0.000000
    5        8.223311     10.608345   1.017122   0.000000
    6       11.842187     13.059847  -0.002680   0.000000
    7       18.946730     20.104344   0.000000   0.000000
    8       28.025990     28.331565   0.000000   0.000000
    9       31.386464     31.949740   0.000000   0.000000
   10       38.399558     38.731686   0.000000   0.000000
   11       44.421955     45.012957   0.000000   0.000000
   12       48.475276     48.607649   0.000000   0.000000
 
 -0.6250000E-01  0.6250000E-01  0.6250000E-01  0.1171875E-01
    1       -0.741286     -0.529011   1.000000   1.000000
    2        5.987876      7.491406   1.000000   1.000000
    3        5.987876      7.491407   1.000000   1.000000
    4        6.119804      7.642243   1.000000   1.019156
    5        7.656142      9.928872   1.000000  -0.005699
    6        7.979255     10.310727   1.000000   0.000000
    7       34.765909     34.798202   0.000000   0.000000
    8       36.356434     36.315586   0.000000   0.000000
    9       36.356434     36.315588   0.000000   0.000000
   10       41.381103     41.764219   0.000000   0.000000
   11       45.158063     45.936254   0.000000   0.000000
   12       45.158065     45.936265   0.000000   0.000000
 
  0.1875000E+00  0.1875000E+00  0.6250000E-01  0.4687500E-01
    1        3.401721      4.016088   1.000000   1.000000
    2        4.630118      5.966478   1.000000   1.000000
    3        5.002166      6.181623   1.000000   1.000000
    4        7.822157      9.995175   1.000000  -0.008416
    5        8.203524     10.520137   1.002915   0.000000
    6       10.655408     12.155453  -0.051319   0.000000
    7       25.009833     25.712708   0.000000   0.000000
    8       26.263964     26.857332   0.000000   0.000000
    9       31.222254     31.819934   0.000000   0.000000
   10       40.692557     40.711758   0.000000   0.000000
   11       45.922381     46.253909   0.000000   0.000000
   12       48.811581     49.171461   0.000000   0.000000
 
  0.3125000E+00  0.1875000E+00  0.6250000E-01  0.9375000E-01
    1        3.527118      4.598756   1.000000   1.000000
    2        4.404208      5.665440   1.000000   1.000000
    3        5.919094      6.920851   1.000000   1.000000
    4        8.046633     10.219090   1.000000   0.000000
    5        8.346871     10.634655   1.010983   0.000000
    6       13.609261     14.797510  -0.001526   0.000000
    7       20.198440     21.146438   0.000000   0.000000
    8       24.386654     25.008750   0.000000   0.000000
    9       29.500382     30.045610   0.000000   0.000000
   10       41.486220     41.630570   0.000000   0.000000
   11       46.618324     46.792395   0.000000   0.000000
   12       49.896607     50.363826   0.000000   0.000000
 
 -0.1875000E+00  0.1875000E+00  0.6250000E-01  0.4687500E-01
    1        0.685514      0.931860   1.000000   1.000000
    2        5.576426      7.028702   1.000000   1.000000
    3        5.856863      7.328657   1.000000   1.000000
    4        7.028961      8.603258   1.000000   0.861923
    5        7.278591      9.417259   1.000000   0.004145
    6        8.143628     10.481291   1.000859   0.000000
    7       30.781740     31.209300   0.000000   0.000000
    8       34.130286     34.311316   0.000000   0.000000
    9       35.771816     36.036554   0.000000   0.000000
   10       40.761746     41.114491   0.000000   0.000000
   11       41.698446     42.338816   0.000000   0.000000
   12       43.240982     43.804628   0.000000   0.000000
 
  0.3125000E+00  0.3125000E+00  0.6250000E-01  0.1562500E-01
    1        3.914863      5.083275   1.000000   1.000000
    2        4.969159      6.117549   1.000000   1.000000
    3        4.969160      6.117550   1.000000   1.000000
    4        8.259530     10.474086   1.000000   0.000000
    5        8.259530     10.474086   1.020040   0.000000
    6       17.692236     18.653069   0.000000   0.000000
    7       17.692237     18.653070   0.000000   0.000000
    8       21.321150     22.117503   0.000000   0.000000
    9       28.911797     29.470705   0.000000   0.000000
   10       44.243642     44.359692   0.000000   0.000000
   11       44.243644     44.359696   0.000000   0.000000
   12       53.855465     54.540411   0.000000   0.000000
 
 -0.3125000E+00  0.3125000E+00  0.6250000E-01  0.4687500E-01
    1        2.340132      2.912934   1.000000   1.000000
    2        4.976547      6.361782   1.000000   1.000000
    3        5.978295      7.193931   1.000000   1.000000
    4        7.604889      9.575282   1.000000  -0.005014
    5        8.424205     10.212111   0.995462  -0.004100
    6        8.533686     10.693278   0.568797   0.000000
    7       24.927476     25.699260   0.000000   0.000000
    8       31.305062     31.511156   0.000000   0.000000
    9       34.233028     34.768822   0.000000   0.000000
   10       39.088531     39.582083   0.000000   0.000000
   11       41.504951     42.015995   0.000000   0.000000
   12       44.315559     44.664754   0.000000   0.000000
 
 -0.1875000E+00  0.3125000E+00  0.6250000E-01  0.4687500E-01
    1        2.301361      2.695956   1.000000   1.000000
    2        5.213027      6.713229   1.000000   1.000000
    3        5.567489      6.927147   1.000000   1.000000
    4        7.087905      9.049580   1.000000   0.355358
    5        8.145273      9.846077   1.006001  -0.004442
    6        8.704052     10.885024   0.600446   0.000000
    7       27.840464     28.468053   0.000000   0.000000
    8       29.413855     29.926144   0.000000   0.000000
    9       35.996888     36.258399   0.000000   0.000000
   10       37.359644     37.874588   0.000000   0.000000
   11       41.352919     41.758076   0.000000   0.000000
   12       46.594392     47.034865   0.000000   0.000000
 
 -0.4375000E+00  0.4375000E+00  0.6250000E-01  0.4687500E-01
    1        2.506401      3.536743   1.000000   1.000000
    2        4.575816      5.919926   1.000000   1.000000
    3        7.084949      8.356769   1.000000   1.000000
    4        7.882439      9.913128   1.000000  -0.012545
    5        9.759411     11.378281   0.065814   0.000000
    6        9.923216     11.542810  -0.001930   0.000000
    7       19.892122     20.975782   0.000000   0.000000
    8       29.629439     29.810192   0.000000   0.000000
    9       32.487183     33.029704   0.000000   0.000000
   10       38.231344     38.728694   0.000000   0.000000
   11       42.169942     42.767279   0.000000   0.000000
   12       45.607991     45.805453   0.000000   0.000000
 
 -0.3125000E+00  0.4375000E+00  0.6250000E-01  0.9375000E-01
    1        3.183099      4.103912   1.000000   1.000000
    2        4.786726      6.166714   1.000000   1.000000
    3        5.675767      6.922446   1.000000   1.000003
    4        7.555112      9.465136   1.000000  -0.006173
    5        8.753082     10.749525   0.908310  -0.000530
    6       10.976126     12.489835  -0.038212   0.000000
    7       22.527304     23.398526   0.000000   0.000000
    8       26.753249     27.324649   0.000000   0.000000
    9       34.023844     34.396189   0.000000   0.000000
   10       37.708901     38.123093   0.000000   0.000000
   11       41.777321     42.117194   0.000000   0.000000
   12       47.530602     48.021169   0.000000   0.000000
 
 -0.4375000E+00 -0.4375000E+00  0.6250000E-01  0.4687500E-01
    1        3.065359      4.210520   1.000000   1.000000
    2        4.777197      6.116287   1.000000   1.000000
    3        5.903614      7.224267   1.000000   1.000005
    4        7.729462      9.699373   1.000000  -0.003681
    5        9.237791     11.106611   0.367148   0.000000
    6       13.203586     14.345609  -0.000881   0.000000
    7       18.980599     20.096118   0.000000   0.000000
    8       25.928313     26.492530   0.000000   0.000000
    9       32.973988     33.322457   0.000000   0.000000
   10       38.344705     38.835598   0.000000   0.000000
   11       42.256107     42.437602   0.000000   0.000000
   12       46.877311     47.437154   0.000000   0.000000
 
 -0.3125000E+00 -0.4375000E+00  0.6250000E-01  0.4687500E-01
    1        4.052941      5.205814   1.000000   1.000000
    2        4.347245      5.714484   1.000000   1.000000
    3        5.158134      6.469465   1.000000   1.000071
    4        8.006955      9.906107   1.000081  -0.005757
    5        8.699928     10.633016   0.938357   0.000000
    6       14.912557     16.068311  -0.000149   0.000000
    7       20.047993     20.996330   0.000000   0.000000
    8       22.125671     22.863183   0.000000   0.000000
    9       34.915231     35.398344   0.000000   0.000000
   10       37.559646     37.822389   0.000000   0.000000
   11       40.217878     40.488034   0.000000   0.000000
   12       50.285338     51.134201   0.000000   0.000000
 
  0.1875000E+00  0.1875000E+00  0.1875000E+00  0.1562500E-01
    1        4.390688      5.601026   1.000000   1.000000
    2        4.390688      5.609667   1.000000   1.000000
    3        4.838161      5.609667   1.000000   1.000000
    4        8.180767     10.512976   1.000000   0.000000
    5        8.180767     10.512976   1.000000   0.000000
    6       13.704689     14.946820  -0.002235   0.000000
    7       23.126702     23.843205   0.000000   0.000000
    8       23.126702     23.843205   0.000000   0.000000
    9       25.912766     26.541380   0.000000   0.000000
   10       45.759189     45.637888   0.000000   0.000000
   11       49.856471     50.088648   0.000000   0.000000
   12       49.856471     50.088648   0.000000   0.000000
 
  0.3125000E+00  0.1875000E+00  0.1875000E+00  0.2343750E-01
    1        4.276705      5.372572   1.000000   1.000000
    2        4.346462      5.520029   1.000000   1.000000
    3        5.339588      6.361323   1.000000   1.000000
    4        8.235057     10.566056   1.000000   0.000000
    5        8.264739     10.658597   1.000407   0.000000
    6       16.824790     17.768322   0.000000   0.000000
    7       19.302404     20.230697   0.000000   0.000000
    8       22.468625     23.182829   0.000000   0.000000
    9       24.666909     25.287518   0.000000   0.000000
   10       47.358311     47.362157   0.000000   0.000000
   11       51.513124     51.666010   0.000000   0.000000
   12       52.762913     53.061407   0.000000   0.000000
 
 -0.1875000E+00  0.1875000E+00  0.1875000E+00  0.1171875E-01
    1        1.886306      2.209994   1.000000   1.000000
    2        6.034118      7.651602   1.000000   1.000000
    3        6.194455      7.651603   1.000000   1.000000
    4        6.194455      8.017122   1.000000   1.118294
    5        7.038629      8.621201   1.000000   0.215727
    6        8.723123     11.007313   0.739296   0.000000
    7       30.440764     30.902125   0.000000   0.000000
    8       32.872936     33.383718   0.000000   0.000000
    9       32.872938     33.383721   0.000000   0.000000
   10       34.747231     35.126896   0.000000   0.000000
   11       45.521957     45.931215   0.000000   0.000000
   12       45.521957     45.931216   0.000000   0.000000
 
 -0.3125000E+00  0.3125000E+00  0.1875000E+00  0.4687500E-01
    1        3.180351      3.878241   1.000000   1.000000
    2        4.900993      6.543194   1.000000   1.000000
    3        5.978008      7.408950   1.000000   1.002239
    4        6.969137      8.593375   1.000000   0.899350
    5        8.351347     10.013997   1.029657  -0.004514
    6        9.897039     11.777845  -0.008431   0.000000
    7       25.865998     26.607879   0.000000   0.000000
    8       30.045998     30.625232   0.000000   0.000000
    9       30.396156     30.866757   0.000000   0.000000
   10       35.381546     35.785814   0.000000   0.000000
   11       44.709574     45.174246   0.000000   0.000000
   12       46.769666     47.237494   0.000000   0.000000
 
 -0.4375000E+00  0.4375000E+00  0.1875000E+00  0.4687500E-01
    1        3.184780      4.401498   1.000000   1.000000
    2        4.865911      6.285700   1.000000   1.000000
    3        5.679930      7.081712   1.000000   1.009600
    4        7.309428      9.064873   1.000304   0.073290
    5        9.633874     11.406366  -0.037068   0.000000
    6       12.809372     14.014461  -0.006455   0.000000
    7       20.335689     21.314343   0.000000   0.000000
    8       28.128313     28.671060   0.000000   0.000000
    9       29.396565     29.889212   0.000000   0.000000
   10       37.850349     38.158834   0.000000   0.000000
   11       43.658707     44.130788   0.000000   0.000000
   12       44.882783     45.525426   0.000000   0.000000
 
 -0.3125000E+00  0.4375000E+00  0.1875000E+00  0.4687500E-01
    1        3.725296      4.841450   1.000000   1.000000
    2        3.966213      5.536040   1.000000   1.000000
    3        6.093194      7.534582   1.000057   1.027344
    4        7.559011      9.179707   1.001902   0.090107
    5        8.999354     10.756544   0.494427  -0.000566
    6       12.813054     14.102643  -0.007855   0.000000
    7       23.363606     24.201403   0.000000   0.000000
    8       24.343066     24.981114   0.000000   0.000000
    9       32.135544     32.627905   0.000000   0.000000
   10       34.189238     34.592264   0.000000   0.000000
   11       43.387456     43.910141   0.000000   0.000000
   12       47.652682     48.396545   0.000000   0.000000
 
 -0.4375000E+00 -0.4375000E+00  0.1875000E+00  0.4687500E-01
    1        3.484821      4.904071   1.000000   1.000000
    2        4.046116      5.482100   1.000000   1.000000
    3        5.813135      7.187550   1.000128   1.051048
    4        8.031702      9.708074   1.003590  -0.007513
    5        9.340229     11.102016   0.019796   0.000000
    6       16.228425     17.208232   0.000000   0.000000
    7       19.263264     20.223985   0.000000   0.000000
    8       23.089569     23.758997   0.000000   0.000000
    9       32.182817     32.654028   0.000000   0.000000
   10       35.557421     35.907825   0.000000   0.000000
   11       41.149140     41.798473   0.000000   0.000000
   12       46.509555     47.221402   0.000000   0.000000
 
 -0.3125000E+00  0.3125000E+00  0.3125000E+00  0.1171875E-01
    1        3.441596      4.544435   1.000000   1.000000
    2        3.864258      5.533857   1.000000   1.000000
    3        7.329172      8.821177   1.000169   0.954775
    4        7.329172      8.821177   1.005162   0.633476
    5        8.400169     10.080411   1.028278  -0.001452
    6       12.055064     13.397863  -0.010754   0.000000
    7       26.550058     27.114194   0.000000   0.000000
    8       26.550060     27.114198   0.000000   0.000000
    9       28.349030     29.164739   0.000000   0.000000
   10       31.220539     31.718097   0.000000   0.000000
   11       45.938888     46.726073   0.000000   0.000000
   12       50.104729     50.523853   0.000000   0.000000
 
 -0.4375000E+00  0.4375000E+00  0.3125000E+00  0.4687500E-01
    1        3.068046      4.526184   1.000000   1.000000
    2        3.273268      4.748824   1.000000   1.000000
    3        7.532418      9.059792   1.008757   0.651604
    4        7.961141      9.517062   1.043926  -0.019659
    5        9.460982     11.219203   0.004916   0.000000
    6       15.690970     16.593286   0.000000   0.000000
    7       21.412166     22.130132   0.000000   0.000000
    8       24.280614     24.767902   0.000000   0.000000
    9       28.774479     29.547474   0.000000   0.000000
   10       32.051866     32.576779   0.000000   0.000000
   11       41.180429     42.060665   0.000000   0.000000
   12       49.431687     49.845753   0.000000   0.000000
 
 -0.4375000E+00 -0.4375000E+00  0.3125000E+00  0.1562500E-01
    1        2.846945      4.334272   1.000000   1.000000
    2        2.846945      4.334272   1.000000   1.000000
    3        7.692078      9.204991   1.026226   0.391281
    4        9.218052     10.931351   0.721146  -0.002656
    5        9.218052     10.931351   0.008091   0.000000
    6       19.586927     20.271613   0.000000   0.000000
    7       19.586929     20.271617   0.000000   0.000000
    8       21.168257     21.717985   0.000000   0.000000
    9       30.325471     30.983649   0.000000   0.000000
   10       30.325472     30.983651   0.000000   0.000000
   11       38.777921     39.723093   0.000000   0.000000
   12       50.119084     50.529991   0.000000   0.000000
 
 -0.4375000E+00  0.4375000E+00  0.4375000E+00  0.1171875E-01
    1        2.435137      3.931264   1.000000   1.000000
    2        2.464363      3.938969   1.000000   1.000000
    3        9.153557     10.850165   0.804625  -0.079256
    4        9.153558     10.850165   0.519689  -0.004982
    5        9.408341     11.167790   0.000862   0.000000
    6       18.813703     19.342389   0.000000   0.000000
    7       21.688254     22.041606   0.000000   0.000000
    8       21.688256     22.041611   0.000000   0.000000
    9       27.660919     28.658100   0.000000   0.000000
   10       28.990785     29.798812   0.000000   0.000000
   11       37.163517     38.140607   0.000000   0.000000
   12       53.104614     53.379985   0.000000   0.000000
