 vasp.5.4.1 24Jun15 (build Jul 19 2016 16:50:41) complex                        
  
 executed on           IFC91_ompi date 2019.10.17  11:44:39
 running on    4 total cores
 distrk:  each k-point on    4 cores,    1 groups
 distr:  one band on NCORES_PER_BAND=   1 cores,    4 groups


--------------------------------------------------------------------------------------------------------


 INCAR:
 POTCAR:    PAW_PBE Fe 06Sep2000                  
 POTCAR:    PAW_PBE Fe 06Sep2000                  
   VRHFIN =Fe:  d7 s1                                                           
   LEXCH  = PE                                                                  
   EATOM  =   594.3153 eV,   43.6809 Ry                                         
                                                                                
   TITEL  = PAW_PBE Fe 06Sep2000                                                
   LULTRA =        F    use ultrasoft PP ?                                      
   IUNSCR =        1    unscreen: 0-lin 1-nonlin 2-no                           
   RPACOR =    2.000    partial core radius                                     
   POMASS =   55.847; ZVAL   =    8.000    mass and valenz                      
   RCORE  =    2.300    outmost cutoff radius                                   
   RWIGS  =    2.460; RWIGS  =    1.302    wigner-seitz radius (au A)           
   ENMAX  =  267.882; ENMIN  =  200.911 eV                                      
   RCLOC  =    1.701    cutoff for local pot                                    
   LCOR   =        T    correct aug charges                                     
   LPAW   =        T    paw PP                                                  
   EAUG   =  511.368                                                            
   DEXC   =    0.000                                                            
   RMAX   =    2.356    core radius for proj-oper                               
   RAUG   =    1.300    factor for augmentation sphere                          
   RDEP   =    2.442    radius for radial grids                                 
   RDEPT  =    1.890    core radius for aug-charge                              
                                                                                
   Atomic configuration                                                         
    9 entries                                                                   
     n  l   j            E        occ.                                          
     1  0  0.50     -6993.8440   2.0000                                         
     2  0  0.50      -814.6047   2.0000                                         
     2  1  1.50      -693.3689   6.0000                                         
     3  0  0.50       -89.4732   2.0000                                         
     3  1  1.50       -55.6373   6.0000                                         
     3  2  2.50        -3.8151   7.0000                                         
     4  0  0.50        -4.2551   1.0000                                         
     4  1  1.50        -3.4015   0.0000                                         
     4  3  2.50        -1.3606   0.0000                                         
   Description                                                                  
     l       E           TYP  RCUT    TYP  RCUT                                 
     2     -3.8151135     23  2.300                                             
     2     -5.1756961     23  2.300                                             
     0     -4.2550963     23  2.300                                             
     0      7.2035603     23  2.300                                             
     1     -2.7211652     23  2.300                                             
     1     18.4316424     23  2.300                                             
  local pseudopotential read in
  partial core-charges read in
  partial kinetic energy density read in
  atomic valenz-charges read in
  non local Contribution for L=           2  read in
    real space projection operators read in
  non local Contribution for L=           2  read in
    real space projection operators read in
  non local Contribution for L=           0  read in
    real space projection operators read in
  non local Contribution for L=           0  read in
    real space projection operators read in
  non local Contribution for L=           1  read in
    real space projection operators read in
  non local Contribution for L=           1  read in
    real space projection operators read in
    PAW grid and wavefunctions read in
 
   number of l-projection  operators is LMAX  =           6
   number of lm-projection operators is LMMAX =          18
 
  PAW_PBE Fe 06Sep2000                  :
 energy of atom  1       EATOM= -594.3153
 kinetic energy error for atom=    0.0088 (will be added to EATOM!!)
 
 
 POSCAR: Fe BCC                                  
  positions in direct lattice
  velocities in cartesian coordinates
  No initial velocities read in
 exchange correlation table for  LEXCH =        8
   RHO(1)=    0.500       N(1)  =     2000
   RHO(2)=  100.500       N(2)  =     4000
 


--------------------------------------------------------------------------------------------------------


 ion  position               nearest neighbor table
   1  0.000  0.000  0.000-
 
  LATTYP: Found a body centered cubic cell.
 ALAT       =     2.6000000000
  
  Lattice vectors:
  
 A1 = (  -1.3000000000,   1.3000000000,   1.3000000000)
 A2 = (   1.3000000000,  -1.3000000000,   1.3000000000)
 A3 = (   1.3000000000,   1.3000000000,  -1.3000000000)


Analysis of symmetry for initial positions (statically):
=====================================================================
 Subroutine PRICEL returns:
 Original cell was already a primitive cell.
 

 Routine SETGRP: Setting up the symmetry group for a 
 body centered cubic supercell.


 Subroutine GETGRP returns: Found 48 space group operations
 (whereof 48 operations were pure point group operations)
 out of a pool of 48 trial point group operations.


The static configuration has the point symmetry O_h .


Analysis of symmetry for dynamics (positions and initial velocities):
=====================================================================
 Subroutine PRICEL returns:
 Original cell was already a primitive cell.
 

 Routine SETGRP: Setting up the symmetry group for a 
 body centered cubic supercell.


 Subroutine GETGRP returns: Found 48 space group operations
 (whereof 48 operations were pure point group operations)
 out of a pool of 48 trial point group operations.


The dynamic configuration has the point symmetry O_h .


Analysis of structural, dynamic, and magnetic symmetry:
=====================================================================
 Subroutine PRICEL returns:
 Original cell was already a primitive cell.
 

 Routine SETGRP: Setting up the symmetry group for a 
 body centered cubic supercell.


 Subroutine GETGRP returns: Found 48 space group operations
 (whereof 48 operations were pure point group operations)
 out of a pool of 48 trial point group operations.


The magnetic configuration has the point symmetry O_h .


 Subroutine INISYM returns: Found 48 space group operations
 (whereof 48 operations are pure point group operations),
 and found     1 'primitive' translations

 
 
 KPOINTS: K-Points                                

Automatic generation of k-mesh.
Space group operators:
 irot       det(A)        alpha          n_x          n_y          n_z        tau_x        tau_y        tau_z
    1     1.000000     0.000000     1.000000     0.000000     0.000000     0.000000     0.000000     0.000000
    2    -1.000000     0.000000     1.000000     0.000000     0.000000     0.000000     0.000000     0.000000
    3     1.000000   120.000000    -0.577350    -0.577350    -0.577350     0.000000     0.000000     0.000000
    4    -1.000000   120.000000    -0.577350    -0.577350    -0.577350     0.000000     0.000000     0.000000
    5     1.000000   120.000000     0.577350     0.577350     0.577350     0.000000     0.000000     0.000000
    6    -1.000000   120.000000     0.577350     0.577350     0.577350     0.000000     0.000000     0.000000
    7     1.000000    90.000000     0.000000     0.000000    -1.000000     0.000000     0.000000     0.000000
    8    -1.000000    90.000000     0.000000     0.000000    -1.000000     0.000000     0.000000     0.000000
    9     1.000000   180.000000     0.000000     0.707107     0.707107     0.000000     0.000000     0.000000
   10    -1.000000   180.000000     0.000000     0.707107     0.707107     0.000000     0.000000     0.000000
   11     1.000000    90.000000     0.000000     1.000000     0.000000     0.000000     0.000000     0.000000
   12    -1.000000    90.000000     0.000000     1.000000     0.000000     0.000000     0.000000     0.000000
   13     1.000000   180.000000     0.000000     0.000000     1.000000     0.000000     0.000000     0.000000
   14    -1.000000   180.000000     0.000000     0.000000     1.000000     0.000000     0.000000     0.000000
   15     1.000000   120.000000    -0.577350     0.577350     0.577350     0.000000     0.000000     0.000000
   16    -1.000000   120.000000    -0.577350     0.577350     0.577350     0.000000     0.000000     0.000000
   17     1.000000   120.000000    -0.577350     0.577350    -0.577350     0.000000     0.000000     0.000000
   18    -1.000000   120.000000    -0.577350     0.577350    -0.577350     0.000000     0.000000     0.000000
   19     1.000000    90.000000     0.000000     0.000000     1.000000     0.000000     0.000000     0.000000
   20    -1.000000    90.000000     0.000000     0.000000     1.000000     0.000000     0.000000     0.000000
   21     1.000000    90.000000    -1.000000     0.000000     0.000000     0.000000     0.000000     0.000000
   22    -1.000000    90.000000    -1.000000     0.000000     0.000000     0.000000     0.000000     0.000000
   23     1.000000   180.000000     0.707107     0.000000     0.707107     0.000000     0.000000     0.000000
   24    -1.000000   180.000000     0.707107     0.000000     0.707107     0.000000     0.000000     0.000000
   25     1.000000   120.000000     0.577350    -0.577350     0.577350     0.000000     0.000000     0.000000
   26    -1.000000   120.000000     0.577350    -0.577350     0.577350     0.000000     0.000000     0.000000
   27     1.000000   120.000000    -0.577350    -0.577350     0.577350     0.000000     0.000000     0.000000
   28    -1.000000   120.000000    -0.577350    -0.577350     0.577350     0.000000     0.000000     0.000000
   29     1.000000   180.000000     1.000000     0.000000     0.000000     0.000000     0.000000     0.000000
   30    -1.000000   180.000000     1.000000     0.000000     0.000000     0.000000     0.000000     0.000000
   31     1.000000    90.000000     0.000000    -1.000000     0.000000     0.000000     0.000000     0.000000
   32    -1.000000    90.000000     0.000000    -1.000000     0.000000     0.000000     0.000000     0.000000
   33     1.000000   180.000000     0.707107     0.707107     0.000000     0.000000     0.000000     0.000000
   34    -1.000000   180.000000     0.707107     0.707107     0.000000     0.000000     0.000000     0.000000
   35     1.000000    90.000000     1.000000     0.000000     0.000000     0.000000     0.000000     0.000000
   36    -1.000000    90.000000     1.000000     0.000000     0.000000     0.000000     0.000000     0.000000
   37     1.000000   120.000000     0.577350    -0.577350    -0.577350     0.000000     0.000000     0.000000
   38    -1.000000   120.000000     0.577350    -0.577350    -0.577350     0.000000     0.000000     0.000000
   39     1.000000   180.000000     0.000000     1.000000     0.000000     0.000000     0.000000     0.000000
   40    -1.000000   180.000000     0.000000     1.000000     0.000000     0.000000     0.000000     0.000000
   41     1.000000   120.000000     0.577350     0.577350    -0.577350     0.000000     0.000000     0.000000
   42    -1.000000   120.000000     0.577350     0.577350    -0.577350     0.000000     0.000000     0.000000
   43     1.000000   180.000000     0.000000    -0.707107     0.707107     0.000000     0.000000     0.000000
   44    -1.000000   180.000000     0.000000    -0.707107     0.707107     0.000000     0.000000     0.000000
   45     1.000000   180.000000     0.707107    -0.707107     0.000000     0.000000     0.000000     0.000000
   46    -1.000000   180.000000     0.707107    -0.707107     0.000000     0.000000     0.000000     0.000000
   47     1.000000   180.000000     0.707107     0.000000    -0.707107     0.000000     0.000000     0.000000
   48    -1.000000   180.000000     0.707107     0.000000    -0.707107     0.000000     0.000000     0.000000
 
 Subroutine IBZKPT returns following result:
 ===========================================
 
 Found     26 irreducible k-points:
 
 Following reciprocal coordinates:
            Coordinates               Weight
  0.062500  0.062500  0.062500      8.000000
  0.187500  0.062500  0.062500     24.000000
  0.312500  0.062500  0.062500     24.000000
  0.437500  0.062500  0.062500     12.000000
 -0.062500  0.062500  0.062500      6.000000
  0.187500  0.187500  0.062500     24.000000
  0.312500  0.187500  0.062500     48.000000
 -0.187500  0.187500  0.062500     24.000000
  0.312500  0.312500  0.062500      8.000000
 -0.312500  0.312500  0.062500     24.000000
 -0.187500  0.312500  0.062500     24.000000
 -0.437500  0.437500  0.062500     24.000000
 -0.312500  0.437500  0.062500     48.000000
 -0.437500 -0.437500  0.062500     24.000000
 -0.312500 -0.437500  0.062500     24.000000
  0.187500  0.187500  0.187500      8.000000
  0.312500  0.187500  0.187500     12.000000
 -0.187500  0.187500  0.187500      6.000000
 -0.312500  0.312500  0.187500     24.000000
 -0.437500  0.437500  0.187500     24.000000
 -0.312500  0.437500  0.187500     24.000000
 -0.437500 -0.437500  0.187500     24.000000
 -0.312500  0.312500  0.312500      6.000000
 -0.437500  0.437500  0.312500     24.000000
 -0.437500 -0.437500  0.312500      8.000000
 -0.437500  0.437500  0.437500      6.000000
 
 Following cartesian coordinates:
            Coordinates               Weight
  0.125000  0.125000  0.125000      8.000000
  0.125000  0.250000  0.250000     24.000000
  0.125000  0.375000  0.375000     24.000000
  0.125000  0.500000  0.500000     12.000000
  0.125000  0.000000  0.000000      6.000000
  0.250000  0.250000  0.375000     24.000000
  0.250000  0.375000  0.500000     48.000000
  0.250000 -0.125000  0.000000     24.000000
  0.375000  0.375000  0.625000      8.000000
  0.375000 -0.250000  0.000000     24.000000
  0.375000 -0.125000  0.125000     24.000000
  0.500000 -0.375000  0.000000     24.000000
  0.500000 -0.250000  0.125000     48.000000
 -0.375000 -0.375000 -0.875000     24.000000
 -0.375000 -0.250000 -0.750000     24.000000
  0.375000  0.375000  0.375000      8.000000
  0.375000  0.500000  0.500000     12.000000
  0.375000  0.000000  0.000000      6.000000
  0.500000 -0.125000  0.000000     24.000000
  0.625000 -0.250000  0.000000     24.000000
  0.625000 -0.125000  0.125000     24.000000
 -0.250000 -0.250000 -0.875000     24.000000
  0.625000  0.000000  0.000000      6.000000
  0.750000 -0.125000  0.000000     24.000000
 -0.125000 -0.125000 -0.875000      8.000000
  0.875000  0.000000  0.000000      6.000000
 
 TETIRR: Found    534 inequivalent tetrahedra from     3072


--------------------------------------------------------------------------------------------------------




 Dimension of arrays:
   k-points           NKPTS =     26   k-points in BZ     NKDIM =     26   number of bands    NBANDS=     12
   number of dos      NEDOS =    301   number of ions     NIONS =      1
   non local maximal  LDIM  =      6   non local SUM 2l+1 LMDIM =     18
   total plane-waves  NPLWV =   4096
   max r-space proj   IRMAX =      1   max aug-charges    IRDMAX=  16801
   dimension x,y,z NGX =    16 NGY =   16 NGZ =   16
   dimension x,y,z NGXF=    32 NGYF=   32 NGZF=   32
   support grid    NGXF=    32 NGYF=   32 NGZF=   32
   ions per type =               1
 NGX,Y,Z   is equivalent  to a cutoff of  11.81, 11.81, 11.81 a.u.
 NGXF,Y,Z  is equivalent  to a cutoff of  23.63, 23.63, 23.63 a.u.


 I would recommend the setting:
   dimension x,y,z NGX =    15 NGY =   15 NGZ =   15
 SYSTEM =  Fe BCC                                  
 POSCAR =  Fe BCC                                  

 Startparameter for this run:
   NWRITE =      2    write-flag & timer
   PREC   = accura    normal or accurate (medium, high low for compatibility)
   ISTART =      0    job   : 0-new  1-cont  2-samecut
   ICHARG =      2    charge: 1-file 2-atom 10-const
   ISPIN  =      2    spin polarized calculation?
   LNONCOLLINEAR =      F non collinear calculations
   LSORBIT =      F    spin-orbit coupling
   INIWAV =      1    electr: 0-lowe 1-rand  2-diag
   LASPH  =      F    aspherical Exc in radial PAW
   METAGGA=      F    non-selfconsistent MetaGGA calc.

 Electronic Relaxation 1
   ENCUT  =  400.0 eV  29.40 Ry    5.42 a.u.   3.67  3.67  3.67*2*pi/ulx,y,z
   ENINI  =  400.0     initial cutoff
   ENAUG  =  511.4 eV  augmentation charge cutoff
   NELM   =     60;   NELMIN=  2; NELMDL= -5     # of ELM steps 
   EDIFF  = 0.1E-05   stopping-criterion for ELM
   LREAL  =      F    real-space projection
   NLSPLINE    = F    spline interpolate recip. space projectors
   LCOMPAT=      F    compatible to vasp.4.4
   GGA_COMPAT  = T    GGA compatible to vasp.4.4-vasp.4.6
   LMAXPAW     = -100 max onsite density
   LMAXMIX     =    2 max onsite mixed and CHGCAR
   VOSKOWN=      0    Vosko Wilk Nusair interpolation
   ROPT   =    0.00000
 Ionic relaxation
   EDIFFG = 0.1E-04   stopping-criterion for IOM
   NSW    =      0    number of steps for IOM
   NBLOCK =      1;   KBLOCK =      1    inner block; outer block 
   IBRION =     -1    ionic relax: 0-MD 1-quasi-New 2-CG
   NFREE  =      0    steps in history (QN), initial steepest desc. (CG)
   ISIF   =      2    stress and relaxation
   IWAVPR =     10    prediction:  0-non 1-charg 2-wave 3-comb
   ISYM   =      2    0-nonsym 1-usesym 2-fastsym
   LCORR  =      T    Harris-Foulkes like correction to forces

   POTIM  = 0.5000    time-step for ionic-motion
   TEIN   =    0.0    initial temperature
   TEBEG  =    0.0;   TEEND  =   0.0 temperature during run
   SMASS  =  -3.00    Nose mass-parameter (am)
   estimated Nose-frequenzy (Omega)   =  0.10E-29 period in steps =****** mass=  -0.116E-27a.u.
   SCALEE = 1.0000    scale energy and forces
   NPACO  =    256;   APACO  = 16.0  distance and # of slots for P.C.
   PSTRESS=    0.0 pullay stress

  Mass of Ions in am
   POMASS =  55.85
  Ionic Valenz
   ZVAL   =   8.00
  Atomic Wigner-Seitz radii
   RWIGS  =  -1.00
  virtual crystal weights 
   VCA    =   1.00
   NELECT =       8.0000    total number of electrons
   NUPDOWN=      -1.0000    fix difference up-down

 DOS related values:
   EMIN   =  10.00;   EMAX   =-10.00  energy-range for DOS
   EFERMI =   0.00
   ISMEAR =    -5;   SIGMA  =   0.20  broadening in eV -4-tet -1-fermi 0-gaus

 Electronic relaxation 2 (details)
   IALGO  =     38    algorithm
   LDIAG  =      T    sub-space diagonalisation (order eigenvalues)
   LSUBROT=      F    optimize rotation matrix (better conditioning)
   TURBO    =      0    0=normal 1=particle mesh
   IRESTART =      0    0=no restart 2=restart with 2 vectors
   NREBOOT  =      0    no. of reboots
   NMIN     =      0    reboot dimension
   EREF     =   0.00    reference energy to select bands
   IMIX   =      4    mixing-type and parameters
     AMIX     =   0.40;   BMIX     =  1.00
     AMIX_MAG =   1.60;   BMIX_MAG =  1.00
     AMIN     =   0.10
     WC   =   100.;   INIMIX=   1;  MIXPRE=   1;  MAXMIX= -45

 Intra band minimization:
   WEIMIN = 0.0000     energy-eigenvalue tresh-hold
   EBREAK =  0.21E-07  absolut break condition
   DEPER  =   0.30     relativ break condition  

   TIME   =   0.40     timestep for ELM

  volume/ion in A,a.u.               =       8.79        59.30
  Fermi-wavevector in a.u.,A,eV,Ry     =   1.586627  2.998290 34.251101  2.517385
  Thomas-Fermi vector in A             =   2.685909
 
 Write flags
   LWAVE  =      T    write WAVECAR
   LCHARG =      T    write CHGCAR
   LVTOT  =      F    write LOCPOT, total local potential
   LVHAR  =      F    write LOCPOT, Hartree potential only
   LELF   =      F    write electronic localiz. function (ELF)
   LORBIT =     11    0 simple, 1 ext, 2 COOP (PROOUT)


 Dipole corrections
   LMONO  =      F    monopole corrections only (constant potential shift)
   LDIPOL =      F    correct potential (dipole corrections)
   IDIPOL =      0    1-x, 2-y, 3-z, 4-all directions 
   EPSILON=  1.0000000 bulk dielectric constant

 Exchange correlation treatment:
   GGA     =    --    GGA type
   LEXCH   =     8    internal setting for exchange type
   VOSKOWN=      0    Vosko Wilk Nusair interpolation
   LHFCALC =     F    Hartree Fock is set to
   LHFONE  =     F    Hartree Fock one center treatment
   AEXX    =    0.0000 exact exchange contribution

 Linear response parameters
   LEPSILON=     F    determine dielectric tensor
   LRPA    =     F    only Hartree local field effects (RPA)
   LNABLA  =     F    use nabla operator in PAW spheres
   LVEL    =     F    velocity operator in full k-point grid
   LINTERFAST=   F  fast interpolation
   KINTER  =     0    interpolate to denser k-point grid
   CSHIFT  =0.1000    complex shift for real part using Kramers Kronig
   OMEGAMAX=  -1.0    maximum frequency
   DEG_THRESHOLD= 0.2000000E-02 threshold for treating states as degnerate
   RTIME   =    0.100 relaxation time in fs

 Orbital magnetization related:
   ORBITALMAG=     F  switch on orbital magnetization
   LCHIMAG   =     F  perturbation theory with respect to B field
   DQ        =  0.001000  dq finite difference perturbation B field



--------------------------------------------------------------------------------------------------------


 Static calculation
 charge density and potential will be updated during run
 spin polarized calculation
 Variant of blocked Davidson
 Davidson routine will perform the subspace rotation
 perform sub-space diagonalisation
    after iterative eigenvector-optimisation
 modified Broyden-mixing scheme, WC =      100.0
 initial mixing is a Kerker type mixing with AMIX =  0.4000 and BMIX =      1.0000
 Hartree-type preconditioning will be used
 using additional bands            8
 reciprocal scheme for non local part
 use partial core corrections
 calculate Harris-corrections to forces 
   (improved forces if not selfconsistent)
 use gradient corrections 
 use of overlap-Matrix (Vanderbilt PP)
 Fermi weights with tetrahedron method with Bloechl corrections


--------------------------------------------------------------------------------------------------------


  energy-cutoff  :      400.00
  volume of cell :        8.79
      direct lattice vectors                 reciprocal lattice vectors
    -1.300000000  1.300000000  1.300000000     0.000000000  0.384615385  0.384615385
     1.300000000 -1.300000000  1.300000000     0.384615385  0.000000000  0.384615385
     1.300000000  1.300000000 -1.300000000     0.384615385  0.384615385  0.000000000

  length of vectors
     2.251666050  2.251666050  2.251666050     0.543928293  0.543928293  0.543928293


 
 k-points in units of 2pi/SCALE and weight: K-Points                                
   0.12500000  0.12500000  0.12500000       0.016
   0.12500000  0.25000000  0.25000000       0.047
   0.12500000  0.37500000  0.37500000       0.047
   0.12500000  0.50000000  0.50000000       0.023
   0.12500000  0.00000000  0.00000000       0.012
   0.25000000  0.25000000  0.37500000       0.047
   0.25000000  0.37500000  0.50000000       0.094
   0.25000000 -0.12500000  0.00000000       0.047
   0.37500000  0.37500000  0.62500000       0.016
   0.37500000 -0.25000000  0.00000000       0.047
   0.37500000 -0.12500000  0.12500000       0.047
   0.50000000 -0.37500000  0.00000000       0.047
   0.50000000 -0.25000000  0.12500000       0.094
  -0.37500000 -0.37500000 -0.87500000       0.047
  -0.37500000 -0.25000000 -0.75000000       0.047
   0.37500000  0.37500000  0.37500000       0.016
   0.37500000  0.50000000  0.50000000       0.023
   0.37500000  0.00000000  0.00000000       0.012
   0.50000000 -0.12500000  0.00000000       0.047
   0.62500000 -0.25000000  0.00000000       0.047
   0.62500000 -0.12500000  0.12500000       0.047
  -0.25000000 -0.25000000 -0.87500000       0.047
   0.62500000  0.00000000  0.00000000       0.012
   0.75000000 -0.12500000  0.00000000       0.047
  -0.12500000 -0.12500000 -0.87500000       0.016
   0.87500000  0.00000000  0.00000000       0.012
 
 k-points in reciprocal lattice and weights: K-Points                                
   0.06250000  0.06250000  0.06250000       0.016
   0.18750000  0.06250000  0.06250000       0.047
   0.31250000  0.06250000  0.06250000       0.047
   0.43750000  0.06250000  0.06250000       0.023
  -0.06250000  0.06250000  0.06250000       0.012
   0.18750000  0.18750000  0.06250000       0.047
   0.31250000  0.18750000  0.06250000       0.094
  -0.18750000  0.18750000  0.06250000       0.047
   0.31250000  0.31250000  0.06250000       0.016
  -0.31250000  0.31250000  0.06250000       0.047
  -0.18750000  0.31250000  0.06250000       0.047
  -0.43750000  0.43750000  0.06250000       0.047
  -0.31250000  0.43750000  0.06250000       0.094
  -0.43750000 -0.43750000  0.06250000       0.047
  -0.31250000 -0.43750000  0.06250000       0.047
   0.18750000  0.18750000  0.18750000       0.016
   0.31250000  0.18750000  0.18750000       0.023
  -0.18750000  0.18750000  0.18750000       0.012
  -0.31250000  0.31250000  0.18750000       0.047
  -0.43750000  0.43750000  0.18750000       0.047
  -0.31250000  0.43750000  0.18750000       0.047
  -0.43750000 -0.43750000  0.18750000       0.047
  -0.31250000  0.31250000  0.31250000       0.012
  -0.43750000  0.43750000  0.31250000       0.047
  -0.43750000 -0.43750000  0.31250000       0.016
  -0.43750000  0.43750000  0.43750000       0.012
 
 position of ions in fractional coordinates (direct lattice) 
   0.00000000  0.00000000  0.00000000
 
 position of ions in cartesian coordinates  (Angst):
   0.00000000  0.00000000  0.00000000
 


--------------------------------------------------------------------------------------------------------


 k-point  1 :   0.0625 0.0625 0.0625  plane waves:     156
 k-point  2 :   0.1875 0.0625 0.0625  plane waves:     159
 k-point  3 :   0.3125 0.0625 0.0625  plane waves:     165
 k-point  4 :   0.4375 0.0625 0.0625  plane waves:     158
 k-point  5 :  -0.0625 0.0625 0.0625  plane waves:     157
 k-point  6 :   0.1875 0.1875 0.0625  plane waves:     162
 k-point  7 :   0.3125 0.1875 0.0625  plane waves:     159
 k-point  8 :  -0.1875 0.1875 0.0625  plane waves:     159
 k-point  9 :   0.3125 0.3125 0.0625  plane waves:     158
 k-point 10 :  -0.3125 0.3125 0.0625  plane waves:     161
 k-point 11 :  -0.1875 0.3125 0.0625  plane waves:     161
 k-point 12 :  -0.4375 0.4375 0.0625  plane waves:     160
 k-point 13 :  -0.3125 0.4375 0.0625  plane waves:     162
 k-point 14 :  -0.4375-0.4375 0.0625  plane waves:     158
 k-point 15 :  -0.3125-0.4375 0.0625  plane waves:     155
 k-point 16 :   0.1875 0.1875 0.1875  plane waves:     156
 k-point 17 :   0.3125 0.1875 0.1875  plane waves:     156
 k-point 18 :  -0.1875 0.1875 0.1875  plane waves:     160
 k-point 19 :  -0.3125 0.3125 0.1875  plane waves:     161
 k-point 20 :  -0.4375 0.4375 0.1875  plane waves:     162
 k-point 21 :  -0.3125 0.4375 0.1875  plane waves:     159
 k-point 22 :  -0.4375-0.4375 0.1875  plane waves:     156
 k-point 23 :  -0.3125 0.3125 0.3125  plane waves:     156
 k-point 24 :  -0.4375 0.4375 0.3125  plane waves:     157
 k-point 25 :  -0.4375-0.4375 0.3125  plane waves:     161
 k-point 26 :  -0.4375 0.4375 0.4375  plane waves:     160

 maximum and minimum number of plane-waves per node :       165      155

 maximum number of plane-waves:       165
 maximum index in each direction: 
   IXMAX=    4   IYMAX=    4   IZMAX=    3
   IXMIN=   -4   IYMIN=   -4   IZMIN=   -4

 WARNING: aliasing errors must be expected set NGX to  18 to avoid them
 WARNING: aliasing errors must be expected set NGY to  18 to avoid them
 NGZ is ok and might be reduce to  16
 aliasing errors are usually negligible using standard VASP settings
 and one can safely disregard these warnings

 serial   3D FFT for wavefunctions
 parallel 3D FFT for charge:
    minimum data exchange during FFTs selected (reduces bandwidth)


 total amount of memory used by VASP on root node    32387. kBytes
========================================================================

   base      :      30000. kBytes
   nonl-proj :        631. kBytes
   fftplans  :        302. kBytes
   grid      :        954. kBytes
   one-center:         31. kBytes
   wavefun   :        469. kBytes
 
     INWAV:  cpu time    0.0000: real time    0.0000
 Broyden mixing: mesh for mixing (old mesh)
   NGX =  7   NGY =  7   NGZ =  7
  (NGX  = 32   NGY  = 32   NGZ  = 32)
  gives a total of    343 points

 initial charge density was supplied:
 charge density of overlapping atoms calculated
 number of electron       8.0000000 magnetization       4.0000000
 keeping initial charge density in first step


--------------------------------------------------------------------------------------------------------


 Maximum index for augmentation-charges         4037 (set IRDMAX)


--------------------------------------------------------------------------------------------------------


 First call to EWALD:  gamma=   0.859
 Maximum number of real-space cells 3x 3x 3
 Maximum number of reciprocal cells 3x 3x 3

 FEWALD executed in parallel
    FEWALD:  cpu time    0.0030: real time    0.0023


----------------------------------------- Iteration    1(   1)  ---------------------------------------


    POTLOK:  cpu time    0.0360: real time    0.0332
    SETDIJ:  cpu time    0.0470: real time    0.0412
     EDDAV:  cpu time    2.4216: real time    2.3923
 BZINTS: Fermi energy: 16.125706;  8.000000 electrons
         Band energy:  83.612766;  BLOECHL correction: -0.355923
       DOS:  cpu time    0.0760: real time    0.0749
    --------------------------------------------
      LOOP:  cpu time    2.5826: real time    2.5436

 eigenvalue-minimisations  :  1416
 total energy-change (2. order) : 0.1824687E+02  (-0.3603047E+03)
 number of electron       8.0000000 magnetization       4.0000000
 augmentation part        8.0000000 magnetization       4.0000000

 Free energy of the ion-electron system (eV)
  ---------------------------------------------------
  alpha Z        PSCENC =        78.64562585
  Ewald energy   TEWEN  =      -644.97461067
  -Hartree energ DENC   =       -92.46749519
  -exchange      EXHF   =         0.00000000
  -V(xc)+E(xc)   XCENC  =         6.88005619
  PAW double counting   =       552.89180568     -560.64780826
  entropy T*S    EENTRO =         0.00000000
  eigenvalues    EBANDS =        83.61276638
  atomic energy  EATOM  =       594.30652615
  Solvation  Ediel_sol  =         0.00000000
  ---------------------------------------------------
  free energy    TOTEN  =        18.24686614 eV

  energy without entropy =       18.24686614  energy(sigma->0) =       18.24686614


--------------------------------------------------------------------------------------------------------




----------------------------------------- Iteration    1(   2)  ---------------------------------------


     EDDAV:  cpu time    2.2347: real time    2.0877
 BZINTS: Fermi energy: 10.929020;  8.000000 electrons
         Band energy:  58.180093;  BLOECHL correction: -0.081591
       DOS:  cpu time    0.0790: real time    0.0798
    --------------------------------------------
      LOOP:  cpu time    2.3276: real time    2.1820

 eigenvalue-minimisations  :  1308
 total energy-change (2. order) :-0.2543267E+02  (-0.2343302E+02)
 number of electron       8.0000000 magnetization       4.0000000
 augmentation part        8.0000000 magnetization       4.0000000

 Free energy of the ion-electron system (eV)
  ---------------------------------------------------
  alpha Z        PSCENC =        78.64562585
  Ewald energy   TEWEN  =      -644.97461067
  -Hartree energ DENC   =       -92.46749519
  -exchange      EXHF   =         0.00000000
  -V(xc)+E(xc)   XCENC  =         6.88005619
  PAW double counting   =       552.89180568     -560.64780826
  entropy T*S    EENTRO =         0.00000000
  eigenvalues    EBANDS =        58.18009282
  atomic energy  EATOM  =       594.30652615
  Solvation  Ediel_sol  =         0.00000000
  ---------------------------------------------------
  free energy    TOTEN  =        -7.18580742 eV

  energy without entropy =       -7.18580742  energy(sigma->0) =       -7.18580742


--------------------------------------------------------------------------------------------------------




----------------------------------------- Iteration    1(   3)  ---------------------------------------


     EDDAV:  cpu time    2.8996: real time    2.7136
 BZINTS: Fermi energy: 10.850116;  8.000000 electrons
         Band energy:  57.671092;  BLOECHL correction: -0.083031
       DOS:  cpu time    0.0620: real time    0.0617
    --------------------------------------------
      LOOP:  cpu time    2.9685: real time    2.7822

 eigenvalue-minimisations  :  1468
 total energy-change (2. order) :-0.5090008E+00  (-0.5064230E+00)
 number of electron       8.0000000 magnetization       4.0000000
 augmentation part        8.0000000 magnetization       4.0000000

 Free energy of the ion-electron system (eV)
  ---------------------------------------------------
  alpha Z        PSCENC =        78.64562585
  Ewald energy   TEWEN  =      -644.97461067
  -Hartree energ DENC   =       -92.46749519
  -exchange      EXHF   =         0.00000000
  -V(xc)+E(xc)   XCENC  =         6.88005619
  PAW double counting   =       552.89180568     -560.64780826
  entropy T*S    EENTRO =         0.00000000
  eigenvalues    EBANDS =        57.67109207
  atomic energy  EATOM  =       594.30652615
  Solvation  Ediel_sol  =         0.00000000
  ---------------------------------------------------
  free energy    TOTEN  =        -7.69480817 eV

  energy without entropy =       -7.69480817  energy(sigma->0) =       -7.69480817


--------------------------------------------------------------------------------------------------------




----------------------------------------- Iteration    1(   4)  ---------------------------------------


     EDDAV:  cpu time    2.4296: real time    2.4360
 BZINTS: Fermi energy: 10.849903;  8.000000 electrons
         Band energy:  57.669748;  BLOECHL correction: -0.083030
       DOS:  cpu time    0.0680: real time    0.0668
    --------------------------------------------
      LOOP:  cpu time    2.5236: real time    2.5366

 eigenvalue-minimisations  :  1388
 total energy-change (2. order) :-0.1344297E-02  (-0.1341735E-02)
 number of electron       8.0000000 magnetization       4.0000000
 augmentation part        8.0000000 magnetization       4.0000000

 Free energy of the ion-electron system (eV)
  ---------------------------------------------------
  alpha Z        PSCENC =        78.64562585
  Ewald energy   TEWEN  =      -644.97461067
  -Hartree energ DENC   =       -92.46749519
  -exchange      EXHF   =         0.00000000
  -V(xc)+E(xc)   XCENC  =         6.88005619
  PAW double counting   =       552.89180568     -560.64780826
  entropy T*S    EENTRO =         0.00000000
  eigenvalues    EBANDS =        57.66974778
  atomic energy  EATOM  =       594.30652615
  Solvation  Ediel_sol  =         0.00000000
  ---------------------------------------------------
  free energy    TOTEN  =        -7.69615247 eV

  energy without entropy =       -7.69615247  energy(sigma->0) =       -7.69615247


--------------------------------------------------------------------------------------------------------




----------------------------------------- Iteration    1(   5)  ---------------------------------------


     EDDAV:  cpu time    2.1137: real time    2.0442
 BZINTS: Fermi energy: 10.849903;  8.000000 electrons
         Band energy:  57.669743;  BLOECHL correction: -0.083030
       DOS:  cpu time    0.0600: real time    0.0553
    CHARGE:  cpu time    0.0400: real time    0.0372
    MIXING:  cpu time    0.0010: real time    0.0011
    --------------------------------------------
      LOOP:  cpu time    2.2237: real time    2.1493

 eigenvalue-minimisations  :  1460
 total energy-change (2. order) :-0.5264627E-05  (-0.5235337E-05)
 number of electron       7.9999995 magnetization       1.2838199
 augmentation part        3.7362977 magnetization       0.6980684

 Broyden mixing:
  rms(total) = 0.18121E+01    rms(broyden)= 0.18120E+01
  rms(prec ) = 0.34445E+01
  weight for this iteration     100.00

 Free energy of the ion-electron system (eV)
  ---------------------------------------------------
  alpha Z        PSCENC =        78.64562585
  Ewald energy   TEWEN  =      -644.97461067
  -Hartree energ DENC   =       -92.46749519
  -exchange      EXHF   =         0.00000000
  -V(xc)+E(xc)   XCENC  =         6.88005619
  PAW double counting   =       552.89180568     -560.64780826
  entropy T*S    EENTRO =         0.00000000
  eigenvalues    EBANDS =        57.66974251
  atomic energy  EATOM  =       594.30652615
  Solvation  Ediel_sol  =         0.00000000
  ---------------------------------------------------
  free energy    TOTEN  =        -7.69615773 eV

  energy without entropy =       -7.69615773  energy(sigma->0) =       -7.69615773


--------------------------------------------------------------------------------------------------------




----------------------------------------- Iteration    1(   6)  ---------------------------------------


    POTLOK:  cpu time    0.0320: real time    0.0329
    SETDIJ:  cpu time    0.0160: real time    0.0188
     EDDAV:  cpu time    1.5078: real time    1.3993
 BZINTS: Fermi energy:  8.973888;  8.000000 electrons
         Band energy:  46.337217;  BLOECHL correction: -0.115524
       DOS:  cpu time    0.0560: real time    0.0562
    CHARGE:  cpu time    0.0460: real time    0.0502
    MIXING:  cpu time    0.0010: real time    0.0012
    --------------------------------------------
      LOOP:  cpu time    1.6617: real time    1.5616

 eigenvalue-minimisations  :  1416
 total energy-change (2. order) :-0.1436168E-01  (-0.4968203E+00)
 number of electron       7.9999994 magnetization       1.8218956
 augmentation part        4.1223082 magnetization       1.5799877

 Broyden mixing:
  rms(total) = 0.39428E+00    rms(broyden)= 0.39407E+00
  rms(prec ) = 0.50222E+00
  weight for this iteration     100.00

 eigenvalues of (default mixing * dielectric matrix)
  average eigenvalue GAMMA=   0.9729
  0.9729

 Free energy of the ion-electron system (eV)
  ---------------------------------------------------
  alpha Z        PSCENC =        78.64562585
  Ewald energy   TEWEN  =      -644.97461067
  -Hartree energ DENC   =       -79.66982789
  -exchange      EXHF   =         0.00000000
  -V(xc)+E(xc)   XCENC  =         4.64345860
  PAW double counting   =       688.58363233     -695.58254123
  entropy T*S    EENTRO =         0.00000000
  eigenvalues    EBANDS =        46.33721744
  atomic energy  EATOM  =       594.30652615
  Solvation  Ediel_sol  =         0.00000000
  ---------------------------------------------------
  free energy    TOTEN  =        -7.71051941 eV

  energy without entropy =       -7.71051941  energy(sigma->0) =       -7.71051941


--------------------------------------------------------------------------------------------------------




----------------------------------------- Iteration    1(   7)  ---------------------------------------


    POTLOK:  cpu time    0.0330: real time    0.0337
    SETDIJ:  cpu time    0.0120: real time    0.0130
     EDDAV:  cpu time    1.7597: real time    1.6679
 BZINTS: Fermi energy:  9.007429;  8.000000 electrons
         Band energy:  46.423171;  BLOECHL correction: -0.111214
       DOS:  cpu time    0.0660: real time    0.0632
    CHARGE:  cpu time    0.0390: real time    0.0381
    MIXING:  cpu time    0.0020: real time    0.0014
    --------------------------------------------
      LOOP:  cpu time    1.9147: real time    1.8202

 eigenvalue-minimisations  :  1568
 total energy-change (2. order) : 0.1217411E-01  (-0.5109456E-02)
 number of electron       7.9999994 magnetization       1.7322811
 augmentation part        4.1202639 magnetization       1.4207016

 Broyden mixing:
  rms(total) = 0.23572E+00    rms(broyden)= 0.23572E+00
  rms(prec ) = 0.30382E+00
  weight for this iteration     100.00

 eigenvalues of (default mixing * dielectric matrix)
  average eigenvalue GAMMA=   1.1605
  0.8133  1.5077

 Free energy of the ion-electron system (eV)
  ---------------------------------------------------
  alpha Z        PSCENC =        78.64562585
  Ewald energy   TEWEN  =      -644.97461067
  -Hartree energ DENC   =       -78.38291405
  -exchange      EXHF   =         0.00000000
  -V(xc)+E(xc)   XCENC  =         4.79024384
  PAW double counting   =       767.58777568     -776.09416287
  entropy T*S    EENTRO =         0.00000000
  eigenvalues    EBANDS =        46.42317077
  atomic energy  EATOM  =       594.30652615
  Solvation  Ediel_sol  =         0.00000000
  ---------------------------------------------------
  free energy    TOTEN  =        -7.69834529 eV

  energy without entropy =       -7.69834529  energy(sigma->0) =       -7.69834529


--------------------------------------------------------------------------------------------------------




----------------------------------------- Iteration    1(   8)  ---------------------------------------


    POTLOK:  cpu time    0.0360: real time    0.0338
    SETDIJ:  cpu time    0.0190: real time    0.0183
     EDDAV:  cpu time    2.9106: real time    2.6324
 BZINTS: Fermi energy:  9.020245;  8.000000 electrons
         Band energy:  46.508985;  BLOECHL correction: -0.111285
       DOS:  cpu time    0.0650: real time    0.0646
    CHARGE:  cpu time    0.0420: real time    0.0432
    MIXING:  cpu time    0.0010: real time    0.0007
    --------------------------------------------
      LOOP:  cpu time    3.0765: real time    2.7960

 eigenvalue-minimisations  :  1596
 total energy-change (2. order) : 0.1490528E-01  (-0.1594493E-02)
 number of electron       7.9999994 magnetization       1.7610997
 augmentation part        4.1220004 magnetization       1.4632806

 Broyden mixing:
  rms(total) = 0.14702E+00    rms(broyden)= 0.14702E+00
  rms(prec ) = 0.17113E+00
  weight for this iteration     100.00

 eigenvalues of (default mixing * dielectric matrix)
  average eigenvalue GAMMA=   1.2011
  2.2018  0.8966  0.5048

 Free energy of the ion-electron system (eV)
  ---------------------------------------------------
  alpha Z        PSCENC =        78.64562585
  Ewald energy   TEWEN  =      -644.97461067
  -Hartree energ DENC   =       -77.37748951
  -exchange      EXHF   =         0.00000000
  -V(xc)+E(xc)   XCENC  =         4.74371482
  PAW double counting   =       830.15244600     -839.68863813
  entropy T*S    EENTRO =         0.00000000
  eigenvalues    EBANDS =        46.50898547
  atomic energy  EATOM  =       594.30652615
  Solvation  Ediel_sol  =         0.00000000
  ---------------------------------------------------
  free energy    TOTEN  =        -7.68344001 eV

  energy without entropy =       -7.68344001  energy(sigma->0) =       -7.68344001


--------------------------------------------------------------------------------------------------------




----------------------------------------- Iteration    1(   9)  ---------------------------------------


    POTLOK:  cpu time    0.0310: real time    0.0341
    SETDIJ:  cpu time    0.0260: real time    0.0220
     EDDAV:  cpu time    2.6876: real time    2.5782
 BZINTS: Fermi energy:  9.016945;  8.000000 electrons
         Band energy:  46.511006;  BLOECHL correction: -0.111191
       DOS:  cpu time    0.0530: real time    0.0514
    CHARGE:  cpu time    0.0380: real time    0.0439
    MIXING:  cpu time    0.0020: real time    0.0013
    --------------------------------------------
      LOOP:  cpu time    2.8406: real time    2.7341

 eigenvalue-minimisations  :  1536
 total energy-change (2. order) : 0.5111571E-02  (-0.1670600E-03)
 number of electron       7.9999994 magnetization       1.7834390
 augmentation part        4.1252679 magnetization       1.4866128

 Broyden mixing:
  rms(total) = 0.31433E-01    rms(broyden)= 0.31433E-01
  rms(prec ) = 0.33547E-01
  weight for this iteration     100.00

 eigenvalues of (default mixing * dielectric matrix)
  average eigenvalue GAMMA=   1.2037
  2.4739  0.8479  0.8479  0.6452

 Free energy of the ion-electron system (eV)
  ---------------------------------------------------
  alpha Z        PSCENC =        78.64562585
  Ewald energy   TEWEN  =      -644.97461067
  -Hartree energ DENC   =       -76.71654419
  -exchange      EXHF   =         0.00000000
  -V(xc)+E(xc)   XCENC  =         4.75965106
  PAW double counting   =       873.61094305     -883.82092591
  entropy T*S    EENTRO =         0.00000000
  eigenvalues    EBANDS =        46.51100622
  atomic energy  EATOM  =       594.30652615
  Solvation  Ediel_sol  =         0.00000000
  ---------------------------------------------------
  free energy    TOTEN  =        -7.67832844 eV

  energy without entropy =       -7.67832844  energy(sigma->0) =       -7.67832844


--------------------------------------------------------------------------------------------------------




----------------------------------------- Iteration    1(  10)  ---------------------------------------


    POTLOK:  cpu time    0.0380: real time    0.0388
    SETDIJ:  cpu time    0.0290: real time    0.0281
     EDDAV:  cpu time    3.2235: real time    3.0522
 BZINTS: Fermi energy:  9.019514;  8.000000 electrons
         Band energy:  46.533496;  BLOECHL correction: -0.111188
       DOS:  cpu time    0.0550: real time    0.0489
    CHARGE:  cpu time    0.0390: real time    0.0339
    MIXING:  cpu time    0.0010: real time    0.0011
    --------------------------------------------
      LOOP:  cpu time    3.3865: real time    3.2056

 eigenvalue-minimisations  :  1568
 total energy-change (2. order) :-0.2642425E-03  (-0.8043340E-04)
 number of electron       7.9999994 magnetization       1.7706896
 augmentation part        4.1251149 magnetization       1.4693516

 Broyden mixing:
  rms(total) = 0.95765E-02    rms(broyden)= 0.95763E-02
  rms(prec ) = 0.11276E-01
  weight for this iteration     100.00

 eigenvalues of (default mixing * dielectric matrix)
  average eigenvalue GAMMA=   1.2525
  2.5376  1.2468  1.0306  0.8344  0.6132

 Free energy of the ion-electron system (eV)
  ---------------------------------------------------
  alpha Z        PSCENC =        78.64562585
  Ewald energy   TEWEN  =      -644.97461067
  -Hartree energ DENC   =       -76.56196817
  -exchange      EXHF   =         0.00000000
  -V(xc)+E(xc)   XCENC  =         4.75416837
  PAW double counting   =       887.64049021     -898.02231994
  entropy T*S    EENTRO =         0.00000000
  eigenvalues    EBANDS =        46.53349552
  atomic energy  EATOM  =       594.30652615
  Solvation  Ediel_sol  =         0.00000000
  ---------------------------------------------------
  free energy    TOTEN  =        -7.67859269 eV

  energy without entropy =       -7.67859269  energy(sigma->0) =       -7.67859269


--------------------------------------------------------------------------------------------------------




----------------------------------------- Iteration    1(  11)  ---------------------------------------


    POTLOK:  cpu time    0.0530: real time    0.0479
    SETDIJ:  cpu time    0.0190: real time    0.0183
     EDDAV:  cpu time    2.8436: real time    2.4807
 BZINTS: Fermi energy:  9.017203;  8.000000 electrons
         Band energy:  46.519294;  BLOECHL correction: -0.111329
       DOS:  cpu time    0.0680: real time    0.0636
    CHARGE:  cpu time    0.0400: real time    0.0418
    MIXING:  cpu time    0.0020: real time    0.0015
    --------------------------------------------
      LOOP:  cpu time    3.0295: real time    2.6571

 eigenvalue-minimisations  :  1452
 total energy-change (2. order) :-0.1323052E-03  (-0.1616619E-05)
 number of electron       7.9999994 magnetization       1.7680069
 augmentation part        4.1253383 magnetization       1.4678258

 Broyden mixing:
  rms(total) = 0.21671E-02    rms(broyden)= 0.21666E-02
  rms(prec ) = 0.34020E-02
  weight for this iteration     100.00

 eigenvalues of (default mixing * dielectric matrix)
  average eigenvalue GAMMA=   1.2158
  2.4878  1.5710  0.6107  0.9855  0.7773  0.8627

 Free energy of the ion-electron system (eV)
  ---------------------------------------------------
  alpha Z        PSCENC =        78.64562585
  Ewald energy   TEWEN  =      -644.97461067
  -Hartree energ DENC   =       -76.60951697
  -exchange      EXHF   =         0.00000000
  -V(xc)+E(xc)   XCENC  =         4.74855277
  PAW double counting   =       885.29936178     -895.61395764
  entropy T*S    EENTRO =         0.00000000
  eigenvalues    EBANDS =        46.51929374
  atomic energy  EATOM  =       594.30652615
  Solvation  Ediel_sol  =         0.00000000
  ---------------------------------------------------
  free energy    TOTEN  =        -7.67872499 eV

  energy without entropy =       -7.67872499  energy(sigma->0) =       -7.67872499


--------------------------------------------------------------------------------------------------------




----------------------------------------- Iteration    1(  12)  ---------------------------------------


    POTLOK:  cpu time    0.0480: real time    0.0402
    SETDIJ:  cpu time    0.0120: real time    0.0115
     EDDAV:  cpu time    2.7446: real time    2.5141
 BZINTS: Fermi energy:  9.017008;  8.000000 electrons
         Band energy:  46.517194;  BLOECHL correction: -0.111345
       DOS:  cpu time    0.0570: real time    0.0527
    CHARGE:  cpu time    0.0460: real time    0.0514
    MIXING:  cpu time    0.0020: real time    0.0014
    --------------------------------------------
      LOOP:  cpu time    2.9126: real time    2.6738

 eigenvalue-minimisations  :  1116
 total energy-change (2. order) :-0.1262228E-04  (-0.9011296E-07)
 number of electron       7.9999994 magnetization       1.7697640
 augmentation part        4.1252874 magnetization       1.4696179

 Broyden mixing:
  rms(total) = 0.13323E-02    rms(broyden)= 0.13322E-02
  rms(prec ) = 0.14664E-02
  weight for this iteration     100.00

 eigenvalues of (default mixing * dielectric matrix)
  average eigenvalue GAMMA=   1.3312
  2.6319  2.0949  1.4631  1.0307  0.8401  0.6104  0.6472

 Free energy of the ion-electron system (eV)
  ---------------------------------------------------
  alpha Z        PSCENC =        78.64562585
  Ewald energy   TEWEN  =      -644.97461067
  -Hartree energ DENC   =       -76.63178636
  -exchange      EXHF   =         0.00000000
  -V(xc)+E(xc)   XCENC  =         4.74685645
  PAW double counting   =       884.87351209     -895.16205492
  entropy T*S    EENTRO =         0.00000000
  eigenvalues    EBANDS =        46.51719379
  atomic energy  EATOM  =       594.30652615
  Solvation  Ediel_sol  =         0.00000000
  ---------------------------------------------------
  free energy    TOTEN  =        -7.67873761 eV

  energy without entropy =       -7.67873761  energy(sigma->0) =       -7.67873761


--------------------------------------------------------------------------------------------------------




----------------------------------------- Iteration    1(  13)  ---------------------------------------


    POTLOK:  cpu time    0.0640: real time    0.0574
    SETDIJ:  cpu time    0.0200: real time    0.0149
     EDDAV:  cpu time    1.9977: real time    1.8135
 BZINTS: Fermi energy:  9.016809;  8.000000 electrons
         Band energy:  46.515579;  BLOECHL correction: -0.111337
       DOS:  cpu time    0.0540: real time    0.0426
    CHARGE:  cpu time    0.0500: real time    0.0469
    MIXING:  cpu time    0.0020: real time    0.0016
    --------------------------------------------
      LOOP:  cpu time    2.1887: real time    1.9803

 eigenvalue-minimisations  :   744
 total energy-change (2. order) : 0.1779253E-04  (-0.6205898E-07)
 number of electron       7.9999994 magnetization       1.7694820
 augmentation part        4.1253227 magnetization       1.4693158

 Broyden mixing:
  rms(total) = 0.23296E-03    rms(broyden)= 0.23295E-03
  rms(prec ) = 0.39346E-03
  weight for this iteration     100.00

 eigenvalues of (default mixing * dielectric matrix)
  average eigenvalue GAMMA=   1.2978
  2.6270  2.4813  1.3566  1.0378  0.8653  0.7795  0.6070  0.6280

 Free energy of the ion-electron system (eV)
  ---------------------------------------------------
  alpha Z        PSCENC =        78.64562585
  Ewald energy   TEWEN  =      -644.97461067
  -Hartree energ DENC   =       -76.63338127
  -exchange      EXHF   =         0.00000000
  -V(xc)+E(xc)   XCENC  =         4.74878004
  PAW double counting   =       885.43691238     -895.72415121
  entropy T*S    EENTRO =         0.00000000
  eigenvalues    EBANDS =        46.51557891
  atomic energy  EATOM  =       594.30652615
  Solvation  Ediel_sol  =         0.00000000
  ---------------------------------------------------
  free energy    TOTEN  =        -7.67871982 eV

  energy without entropy =       -7.67871982  energy(sigma->0) =       -7.67871982


--------------------------------------------------------------------------------------------------------




----------------------------------------- Iteration    1(  14)  ---------------------------------------


    POTLOK:  cpu time    0.0380: real time    0.0343
    SETDIJ:  cpu time    0.0120: real time    0.0124
     EDDAV:  cpu time    2.0677: real time    1.9771
 BZINTS: Fermi energy:  9.016867;  8.000000 electrons
         Band energy:  46.515787;  BLOECHL correction: -0.111339
       DOS:  cpu time    0.0580: real time    0.0559
    CHARGE:  cpu time    0.0410: real time    0.0436
    MIXING:  cpu time    0.0020: real time    0.0017
    --------------------------------------------
      LOOP:  cpu time    2.2217: real time    2.1275

 eigenvalue-minimisations  :   684
 total energy-change (2. order) :-0.1828046E-05  (-0.4780332E-08)
 number of electron       7.9999994 magnetization       1.7695446
 augmentation part        4.1253001 magnetization       1.4693881

 Broyden mixing:
  rms(total) = 0.75830E-04    rms(broyden)= 0.75823E-04
  rms(prec ) = 0.86935E-04
  weight for this iteration     100.00

 eigenvalues of (default mixing * dielectric matrix)
  average eigenvalue GAMMA=   1.2492
  2.6294  2.4942  1.3425  1.0791  0.9687  0.8330  0.6728  0.6020  0.6208

 Free energy of the ion-electron system (eV)
  ---------------------------------------------------
  alpha Z        PSCENC =        78.64562585
  Ewald energy   TEWEN  =      -644.97461067
  -Hartree energ DENC   =       -76.63630588
  -exchange      EXHF   =         0.00000000
  -V(xc)+E(xc)   XCENC  =         4.74869710
  PAW double counting   =       885.37000928     -895.65445008
  entropy T*S    EENTRO =         0.00000000
  eigenvalues    EBANDS =        46.51578660
  atomic energy  EATOM  =       594.30652615
  Solvation  Ediel_sol  =         0.00000000
  ---------------------------------------------------
  free energy    TOTEN  =        -7.67872165 eV

  energy without entropy =       -7.67872165  energy(sigma->0) =       -7.67872165


--------------------------------------------------------------------------------------------------------




----------------------------------------- Iteration    1(  15)  ---------------------------------------


    POTLOK:  cpu time    0.0380: real time    0.0361
    SETDIJ:  cpu time    0.0150: real time    0.0153
     EDDAV:  cpu time    2.0547: real time    1.8833
 BZINTS: Fermi energy:  9.016859;  8.000000 electrons
         Band energy:  46.515754;  BLOECHL correction: -0.111339
       DOS:  cpu time    0.0930: real time    0.0643
    --------------------------------------------
      LOOP:  cpu time    2.2067: real time    2.0064

 eigenvalue-minimisations  :   696
 total energy-change (2. order) : 0.4912396E-06  (-0.5910078E-09)
 number of electron       7.9999994 magnetization       1.7695446
 augmentation part        4.1253001 magnetization       1.4693881

 Free energy of the ion-electron system (eV)
  ---------------------------------------------------
  alpha Z        PSCENC =        78.64562585
  Ewald energy   TEWEN  =      -644.97461067
  -Hartree energ DENC   =       -76.63607010
  -exchange      EXHF   =         0.00000000
  -V(xc)+E(xc)   XCENC  =         4.74875702
  PAW double counting   =       885.38059165     -895.66529530
  entropy T*S    EENTRO =         0.00000000
  eigenvalues    EBANDS =        46.51575425
  atomic energy  EATOM  =       594.30652615
  Solvation  Ediel_sol  =         0.00000000
  ---------------------------------------------------
  free energy    TOTEN  =        -7.67872116 eV

  energy without entropy =       -7.67872116  energy(sigma->0) =       -7.67872116


--------------------------------------------------------------------------------------------------------




 average (electrostatic) potential at core
  the test charge radii are     1.0103
  (the norm of the test charge is              1.0000)
       1 -40.6744
 
 
 
 E-fermi :   9.0169     XC(G=0): -14.6400     alpha+bet :-17.6382


 spin component 1

 k-point     1 :       0.0625    0.0625    0.0625
  band No.  band energies     occupation 
      1       0.0083      1.00000
      2       5.6726      1.00000
      3       5.6726      1.00000
      4       6.8791      1.00000
      5       7.7814      1.00000
      6       7.7814      1.00278
      7      33.2405      0.00000
      8      33.2405      0.00000
      9      37.4496      0.00000
     10      40.2143      0.00000
     11      44.8143      0.00000
     12      44.8143      0.00000

 k-point     2 :       0.1875    0.0625    0.0625
  band No.  band energies     occupation 
      1       1.8365      1.00000
      2       5.0528      1.00000
      3       5.3739      1.00000
      4       7.6929      1.00000
      5       7.9854      1.00260
      6       8.3833      0.79630
      7      27.8874      0.00000
      8      30.8226      0.00000
      9      35.4800      0.00000
     10      38.4038      0.00000
     11      45.1539      0.00000
     12      45.4616      0.00000

 k-point     3 :       0.3125    0.0625    0.0625
  band No.  band energies     occupation 
      1       2.7426      1.00000
      2       4.5336      1.00000
      3       6.5470      1.00000
      4       7.9222      1.00000
      5       8.1524      1.02402
      6      10.3438     -0.03391
      7      22.1563      0.00000
      8      28.8047      0.00000
      9      32.5049      0.00000
     10      38.4615      0.00000
     11      44.4013      0.00000
     12      49.0892      0.00000

 k-point     4 :       0.4375    0.0625    0.0625
  band No.  band energies     occupation 
      1       2.6452      1.00000
      2       4.3367      1.00000
      3       7.8572      1.00000
      4       8.0315      1.00000
      5       8.2233      1.01712
      6      11.8422     -0.00268
      7      18.9467      0.00000
      8      28.0260      0.00000
      9      31.3865      0.00000
     10      38.3996      0.00000
     11      44.4220      0.00000
     12      48.4753      0.00000

 k-point     5 :      -0.0625    0.0625    0.0625
  band No.  band energies     occupation 
      1      -0.7413      1.00000
      2       5.9879      1.00000
      3       5.9879      1.00000
      4       6.1198      1.00000
      5       7.6561      1.00000
      6       7.9793      1.00000
      7      34.7659      0.00000
      8      36.3564      0.00000
      9      36.3564      0.00000
     10      41.3811      0.00000
     11      45.1581      0.00000
     12      45.1581      0.00000

 k-point     6 :       0.1875    0.1875    0.0625
  band No.  band energies     occupation 
      1       3.4017      1.00000
      2       4.6301      1.00000
      3       5.0022      1.00000
      4       7.8222      1.00000
      5       8.2035      1.00291
      6      10.6554     -0.05132
      7      25.0098      0.00000
      8      26.2640      0.00000
      9      31.2223      0.00000
     10      40.6926      0.00000
     11      45.9224      0.00000
     12      48.8116      0.00000

 k-point     7 :       0.3125    0.1875    0.0625
  band No.  band energies     occupation 
      1       3.5271      1.00000
      2       4.4042      1.00000
      3       5.9191      1.00000
      4       8.0466      1.00000
      5       8.3469      1.01098
      6      13.6093     -0.00153
      7      20.1984      0.00000
      8      24.3867      0.00000
      9      29.5004      0.00000
     10      41.4862      0.00000
     11      46.6183      0.00000
     12      49.8966      0.00000

 k-point     8 :      -0.1875    0.1875    0.0625
  band No.  band energies     occupation 
      1       0.6855      1.00000
      2       5.5764      1.00000
      3       5.8569      1.00000
      4       7.0290      1.00000
      5       7.2786      1.00000
      6       8.1436      1.00086
      7      30.7817      0.00000
      8      34.1303      0.00000
      9      35.7718      0.00000
     10      40.7617      0.00000
     11      41.6984      0.00000
     12      43.2410      0.00000

 k-point     9 :       0.3125    0.3125    0.0625
  band No.  band energies     occupation 
      1       3.9149      1.00000
      2       4.9692      1.00000
      3       4.9692      1.00000
      4       8.2595      1.00000
      5       8.2595      1.02004
      6      17.6922      0.00000
      7      17.6922      0.00000
      8      21.3211      0.00000
      9      28.9118      0.00000
     10      44.2436      0.00000
     11      44.2436      0.00000
     12      53.8555      0.00000

 k-point    10 :      -0.3125    0.3125    0.0625
  band No.  band energies     occupation 
      1       2.3401      1.00000
      2       4.9765      1.00000
      3       5.9783      1.00000
      4       7.6049      1.00000
      5       8.4242      0.99546
      6       8.5337      0.56880
      7      24.9275      0.00000
      8      31.3051      0.00000
      9      34.2330      0.00000
     10      39.0885      0.00000
     11      41.5050      0.00000
     12      44.3156      0.00000

 k-point    11 :      -0.1875    0.3125    0.0625
  band No.  band energies     occupation 
      1       2.3014      1.00000
      2       5.2130      1.00000
      3       5.5675      1.00000
      4       7.0879      1.00000
      5       8.1453      1.00600
      6       8.7041      0.60045
      7      27.8405      0.00000
      8      29.4139      0.00000
      9      35.9969      0.00000
     10      37.3596      0.00000
     11      41.3529      0.00000
     12      46.5944      0.00000

 k-point    12 :      -0.4375    0.4375    0.0625
  band No.  band energies     occupation 
      1       2.5064      1.00000
      2       4.5758      1.00000
      3       7.0849      1.00000
      4       7.8824      1.00000
      5       9.7594      0.06581
      6       9.9232     -0.00193
      7      19.8921      0.00000
      8      29.6294      0.00000
      9      32.4872      0.00000
     10      38.2313      0.00000
     11      42.1699      0.00000
     12      45.6080      0.00000

 k-point    13 :      -0.3125    0.4375    0.0625
  band No.  band energies     occupation 
      1       3.1831      1.00000
      2       4.7867      1.00000
      3       5.6758      1.00000
      4       7.5551      1.00000
      5       8.7531      0.90831
      6      10.9761     -0.03821
      7      22.5273      0.00000
      8      26.7532      0.00000
      9      34.0238      0.00000
     10      37.7089      0.00000
     11      41.7773      0.00000
     12      47.5306      0.00000

 k-point    14 :      -0.4375   -0.4375    0.0625
  band No.  band energies     occupation 
      1       3.0654      1.00000
      2       4.7772      1.00000
      3       5.9036      1.00000
      4       7.7295      1.00000
      5       9.2378      0.36715
      6      13.2036     -0.00088
      7      18.9806      0.00000
      8      25.9283      0.00000
      9      32.9740      0.00000
     10      38.3447      0.00000
     11      42.2561      0.00000
     12      46.8773      0.00000

 k-point    15 :      -0.3125   -0.4375    0.0625
  band No.  band energies     occupation 
      1       4.0529      1.00000
      2       4.3472      1.00000
      3       5.1581      1.00000
      4       8.0070      1.00008
      5       8.6999      0.93836
      6      14.9126     -0.00015
      7      20.0480      0.00000
      8      22.1257      0.00000
      9      34.9152      0.00000
     10      37.5596      0.00000
     11      40.2179      0.00000
     12      50.2853      0.00000

 k-point    16 :       0.1875    0.1875    0.1875
  band No.  band energies     occupation 
      1       4.3907      1.00000
      2       4.3907      1.00000
      3       4.8382      1.00000
      4       8.1808      1.00000
      5       8.1808      1.00000
      6      13.7047     -0.00223
      7      23.1267      0.00000
      8      23.1267      0.00000
      9      25.9128      0.00000
     10      45.7592      0.00000
     11      49.8565      0.00000
     12      49.8565      0.00000

 k-point    17 :       0.3125    0.1875    0.1875
  band No.  band energies     occupation 
      1       4.2767      1.00000
      2       4.3465      1.00000
      3       5.3396      1.00000
      4       8.2351      1.00000
      5       8.2647      1.00041
      6      16.8248      0.00000
      7      19.3024      0.00000
      8      22.4686      0.00000
      9      24.6669      0.00000
     10      47.3583      0.00000
     11      51.5131      0.00000
     12      52.7629      0.00000

 k-point    18 :      -0.1875    0.1875    0.1875
  band No.  band energies     occupation 
      1       1.8863      1.00000
      2       6.0341      1.00000
      3       6.1945      1.00000
      4       6.1945      1.00000
      5       7.0386      1.00000
      6       8.7231      0.73930
      7      30.4408      0.00000
      8      32.8729      0.00000
      9      32.8729      0.00000
     10      34.7472      0.00000
     11      45.5220      0.00000
     12      45.5220      0.00000

 k-point    19 :      -0.3125    0.3125    0.1875
  band No.  band energies     occupation 
      1       3.1804      1.00000
      2       4.9010      1.00000
      3       5.9780      1.00000
      4       6.9691      1.00000
      5       8.3513      1.02966
      6       9.8970     -0.00843
      7      25.8660      0.00000
      8      30.0460      0.00000
      9      30.3962      0.00000
     10      35.3815      0.00000
     11      44.7096      0.00000
     12      46.7697      0.00000

 k-point    20 :      -0.4375    0.4375    0.1875
  band No.  band energies     occupation 
      1       3.1848      1.00000
      2       4.8659      1.00000
      3       5.6799      1.00000
      4       7.3094      1.00030
      5       9.6339     -0.03707
      6      12.8094     -0.00646
      7      20.3357      0.00000
      8      28.1283      0.00000
      9      29.3966      0.00000
     10      37.8503      0.00000
     11      43.6587      0.00000
     12      44.8828      0.00000

 k-point    21 :      -0.3125    0.4375    0.1875
  band No.  band energies     occupation 
      1       3.7253      1.00000
      2       3.9662      1.00000
      3       6.0932      1.00006
      4       7.5590      1.00190
      5       8.9994      0.49443
      6      12.8131     -0.00785
      7      23.3636      0.00000
      8      24.3431      0.00000
      9      32.1355      0.00000
     10      34.1892      0.00000
     11      43.3875      0.00000
     12      47.6527      0.00000

 k-point    22 :      -0.4375   -0.4375    0.1875
  band No.  band energies     occupation 
      1       3.4848      1.00000
      2       4.0461      1.00000
      3       5.8131      1.00013
      4       8.0317      1.00359
      5       9.3402      0.01980
      6      16.2284      0.00000
      7      19.2633      0.00000
      8      23.0896      0.00000
      9      32.1828      0.00000
     10      35.5574      0.00000
     11      41.1491      0.00000
     12      46.5096      0.00000

 k-point    23 :      -0.3125    0.3125    0.3125
  band No.  band energies     occupation 
      1       3.4416      1.00000
      2       3.8643      1.00000
      3       7.3292      1.00017
      4       7.3292      1.00516
      5       8.4002      1.02828
      6      12.0551     -0.01075
      7      26.5501      0.00000
      8      26.5501      0.00000
      9      28.3490      0.00000
     10      31.2205      0.00000
     11      45.9389      0.00000
     12      50.1047      0.00000

 k-point    24 :      -0.4375    0.4375    0.3125
  band No.  band energies     occupation 
      1       3.0680      1.00000
      2       3.2733      1.00000
      3       7.5324      1.00876
      4       7.9611      1.04393
      5       9.4610      0.00492
      6      15.6910      0.00000
      7      21.4122      0.00000
      8      24.2806      0.00000
      9      28.7745      0.00000
     10      32.0519      0.00000
     11      41.1804      0.00000
     12      49.4317      0.00000

 k-point    25 :      -0.4375   -0.4375    0.3125
  band No.  band energies     occupation 
      1       2.8469      1.00000
      2       2.8469      1.00000
      3       7.6921      1.02623
      4       9.2181      0.72115
      5       9.2181      0.00809
      6      19.5869      0.00000
      7      19.5869      0.00000
      8      21.1683      0.00000
      9      30.3255      0.00000
     10      30.3255      0.00000
     11      38.7779      0.00000
     12      50.1191      0.00000

 k-point    26 :      -0.4375    0.4375    0.4375
  band No.  band energies     occupation 
      1       2.4351      1.00000
      2       2.4644      1.00000
      3       9.1536      0.80462
      4       9.1536      0.51969
      5       9.4083      0.00086
      6      18.8137      0.00000
      7      21.6883      0.00000
      8      21.6883      0.00000
      9      27.6609      0.00000
     10      28.9908      0.00000
     11      37.1635      0.00000
     12      53.1046      0.00000

 spin component 2

 k-point     1 :       0.0625    0.0625    0.0625
  band No.  band energies     occupation 
      1       0.2303      1.00000
      2       7.1461      1.00000
      3       7.1461      1.00000
      4       8.4344      0.94632
      5      10.0619     -0.00256
      6      10.0619      0.00000
      7      33.4826      0.00000
      8      33.4826      0.00000
      9      37.3198      0.00000
     10      41.0094      0.00000
     11      45.1173      0.00000
     12      45.1173      0.00000

 k-point     2 :       0.1875    0.0625    0.0625
  band No.  band energies     occupation 
      1       2.1605      1.00000
      2       6.4511      1.00000
      3       6.7454      1.00000
      4       9.8650     -0.04307
      5       9.9786     -0.00156
      6      10.3007      0.00000
      7      28.4820      0.00000
      8      31.1757      0.00000
      9      36.1809      0.00000
     10      38.4315      0.00000
     11      45.7411      0.00000
     12      45.7652      0.00000

 k-point     3 :       0.3125    0.0625    0.0625
  band No.  band energies     occupation 
      1       3.6055      1.00000
      2       5.8662      1.00000
      3       7.4157      1.00000
      4      10.0463     -0.00712
      5      10.5141      0.00000
      6      11.8551      0.00000
      7      23.0524      0.00000
      8      29.1361      0.00000
      9      33.1153      0.00000
     10      38.7176      0.00000
     11      44.9620      0.00000
     12      49.3317      0.00000

 k-point     4 :       0.4375    0.0625    0.0625
  band No.  band energies     occupation 
      1       3.7072      1.00000
      2       5.6449      1.00000
      3       8.6340      1.00000
      4      10.1658      0.00000
      5      10.6083      0.00000
      6      13.0598      0.00000
      7      20.1043      0.00000
      8      28.3316      0.00000
      9      31.9497      0.00000
     10      38.7317      0.00000
     11      45.0130      0.00000
     12      48.6076      0.00000

 k-point     5 :      -0.0625    0.0625    0.0625
  band No.  band energies     occupation 
      1      -0.5290      1.00000
      2       7.4914      1.00000
      3       7.4914      1.00000
      4       7.6422      1.01916
      5       9.9289     -0.00570
      6      10.3107      0.00000
      7      34.7982      0.00000
      8      36.3156      0.00000
      9      36.3156      0.00000
     10      41.7642      0.00000
     11      45.9363      0.00000
     12      45.9363      0.00000

 k-point     6 :       0.1875    0.1875    0.0625
  band No.  band energies     occupation 
      1       4.0161      1.00000
      2       5.9665      1.00000
      3       6.1816      1.00000
      4       9.9952     -0.00842
      5      10.5201      0.00000
      6      12.1555      0.00000
      7      25.7127      0.00000
      8      26.8573      0.00000
      9      31.8199      0.00000
     10      40.7118      0.00000
     11      46.2539      0.00000
     12      49.1715      0.00000

 k-point     7 :       0.3125    0.1875    0.0625
  band No.  band energies     occupation 
      1       4.5988      1.00000
      2       5.6654      1.00000
      3       6.9209      1.00000
      4      10.2191      0.00000
      5      10.6347      0.00000
      6      14.7975      0.00000
      7      21.1464      0.00000
      8      25.0088      0.00000
      9      30.0456      0.00000
     10      41.6306      0.00000
     11      46.7924      0.00000
     12      50.3638      0.00000

 k-point     8 :      -0.1875    0.1875    0.0625
  band No.  band energies     occupation 
      1       0.9319      1.00000
      2       7.0287      1.00000
      3       7.3287      1.00000
      4       8.6033      0.86192
      5       9.4173      0.00415
      6      10.4813      0.00000
      7      31.2093      0.00000
      8      34.3113      0.00000
      9      36.0366      0.00000
     10      41.1145      0.00000
     11      42.3388      0.00000
     12      43.8046      0.00000

 k-point     9 :       0.3125    0.3125    0.0625
  band No.  band energies     occupation 
      1       5.0833      1.00000
      2       6.1175      1.00000
      3       6.1175      1.00000
      4      10.4741      0.00000
      5      10.4741      0.00000
      6      18.6531      0.00000
      7      18.6531      0.00000
      8      22.1175      0.00000
      9      29.4707      0.00000
     10      44.3597      0.00000
     11      44.3597      0.00000
     12      54.5404      0.00000

 k-point    10 :      -0.3125    0.3125    0.0625
  band No.  band energies     occupation 
      1       2.9129      1.00000
      2       6.3618      1.00000
      3       7.1939      1.00000
      4       9.5753     -0.00501
      5      10.2121     -0.00410
      6      10.6933      0.00000
      7      25.6993      0.00000
      8      31.5112      0.00000
      9      34.7688      0.00000
     10      39.5821      0.00000
     11      42.0160      0.00000
     12      44.6648      0.00000

 k-point    11 :      -0.1875    0.3125    0.0625
  band No.  band energies     occupation 
      1       2.6960      1.00000
      2       6.7132      1.00000
      3       6.9271      1.00000
      4       9.0496      0.35536
      5       9.8461     -0.00444
      6      10.8850      0.00000
      7      28.4681      0.00000
      8      29.9261      0.00000
      9      36.2584      0.00000
     10      37.8746      0.00000
     11      41.7581      0.00000
     12      47.0349      0.00000

 k-point    12 :      -0.4375    0.4375    0.0625
  band No.  band energies     occupation 
      1       3.5367      1.00000
      2       5.9199      1.00000
      3       8.3568      1.00000
      4       9.9131     -0.01254
      5      11.3783      0.00000
      6      11.5428      0.00000
      7      20.9758      0.00000
      8      29.8102      0.00000
      9      33.0297      0.00000
     10      38.7287      0.00000
     11      42.7673      0.00000
     12      45.8055      0.00000

 k-point    13 :      -0.3125    0.4375    0.0625
  band No.  band energies     occupation 
      1       4.1039      1.00000
      2       6.1667      1.00000
      3       6.9224      1.00000
      4       9.4651     -0.00617
      5      10.7495     -0.00053
      6      12.4898      0.00000
      7      23.3985      0.00000
      8      27.3246      0.00000
      9      34.3962      0.00000
     10      38.1231      0.00000
     11      42.1172      0.00000
     12      48.0212      0.00000

 k-point    14 :      -0.4375   -0.4375    0.0625
  band No.  band energies     occupation 
      1       4.2105      1.00000
      2       6.1163      1.00000
      3       7.2243      1.00000
      4       9.6994     -0.00368
      5      11.1066      0.00000
      6      14.3456      0.00000
      7      20.0961      0.00000
      8      26.4925      0.00000
      9      33.3225      0.00000
     10      38.8356      0.00000
     11      42.4376      0.00000
     12      47.4372      0.00000

 k-point    15 :      -0.3125   -0.4375    0.0625
  band No.  band energies     occupation 
      1       5.2058      1.00000
      2       5.7145      1.00000
      3       6.4695      1.00007
      4       9.9061     -0.00576
      5      10.6330      0.00000
      6      16.0683      0.00000
      7      20.9963      0.00000
      8      22.8632      0.00000
      9      35.3983      0.00000
     10      37.8224      0.00000
     11      40.4880      0.00000
     12      51.1342      0.00000

 k-point    16 :       0.1875    0.1875    0.1875
  band No.  band energies     occupation 
      1       5.6010      1.00000
      2       5.6097      1.00000
      3       5.6097      1.00000
      4      10.5130      0.00000
      5      10.5130      0.00000
      6      14.9468      0.00000
      7      23.8432      0.00000
      8      23.8432      0.00000
      9      26.5414      0.00000
     10      45.6379      0.00000
     11      50.0886      0.00000
     12      50.0886      0.00000

 k-point    17 :       0.3125    0.1875    0.1875
  band No.  band energies     occupation 
      1       5.3726      1.00000
      2       5.5200      1.00000
      3       6.3613      1.00000
      4      10.5661      0.00000
      5      10.6586      0.00000
      6      17.7683      0.00000
      7      20.2307      0.00000
      8      23.1828      0.00000
      9      25.2875      0.00000
     10      47.3622      0.00000
     11      51.6660      0.00000
     12      53.0614      0.00000

 k-point    18 :      -0.1875    0.1875    0.1875
  band No.  band energies     occupation 
      1       2.2100      1.00000
      2       7.6516      1.00000
      3       7.6516      1.00000
      4       8.0171      1.11829
      5       8.6212      0.21573
      6      11.0073      0.00000
      7      30.9021      0.00000
      8      33.3837      0.00000
      9      33.3837      0.00000
     10      35.1269      0.00000
     11      45.9312      0.00000
     12      45.9312      0.00000

 k-point    19 :      -0.3125    0.3125    0.1875
  band No.  band energies     occupation 
      1       3.8782      1.00000
      2       6.5432      1.00000
      3       7.4089      1.00224
      4       8.5934      0.89935
      5      10.0140     -0.00451
      6      11.7778      0.00000
      7      26.6079      0.00000
      8      30.6252      0.00000
      9      30.8668      0.00000
     10      35.7858      0.00000
     11      45.1742      0.00000
     12      47.2375      0.00000

 k-point    20 :      -0.4375    0.4375    0.1875
  band No.  band energies     occupation 
      1       4.4015      1.00000
      2       6.2857      1.00000
      3       7.0817      1.00960
      4       9.0649      0.07329
      5      11.4064      0.00000
      6      14.0145      0.00000
      7      21.3143      0.00000
      8      28.6711      0.00000
      9      29.8892      0.00000
     10      38.1588      0.00000
     11      44.1308      0.00000
     12      45.5254      0.00000

 k-point    21 :      -0.3125    0.4375    0.1875
  band No.  band energies     occupation 
      1       4.8414      1.00000
      2       5.5360      1.00000
      3       7.5346      1.02734
      4       9.1797      0.09011
      5      10.7565     -0.00057
      6      14.1026      0.00000
      7      24.2014      0.00000
      8      24.9811      0.00000
      9      32.6279      0.00000
     10      34.5923      0.00000
     11      43.9101      0.00000
     12      48.3965      0.00000

 k-point    22 :      -0.4375   -0.4375    0.1875
  band No.  band energies     occupation 
      1       4.9041      1.00000
      2       5.4821      1.00000
      3       7.1875      1.05105
      4       9.7081     -0.00751
      5      11.1020      0.00000
      6      17.2082      0.00000
      7      20.2240      0.00000
      8      23.7590      0.00000
      9      32.6540      0.00000
     10      35.9078      0.00000
     11      41.7985      0.00000
     12      47.2214      0.00000

 k-point    23 :      -0.3125    0.3125    0.3125
  band No.  band energies     occupation 
      1       4.5444      1.00000
      2       5.5339      1.00000
      3       8.8212      0.95478
      4       8.8212      0.63348
      5      10.0804     -0.00145
      6      13.3979      0.00000
      7      27.1142      0.00000
      8      27.1142      0.00000
      9      29.1647      0.00000
     10      31.7181      0.00000
     11      46.7261      0.00000
     12      50.5239      0.00000

 k-point    24 :      -0.4375    0.4375    0.3125
  band No.  band energies     occupation 
      1       4.5262      1.00000
      2       4.7488      1.00000
      3       9.0598      0.65160
      4       9.5171     -0.01966
      5      11.2192      0.00000
      6      16.5933      0.00000
      7      22.1301      0.00000
      8      24.7679      0.00000
      9      29.5475      0.00000
     10      32.5768      0.00000
     11      42.0607      0.00000
     12      49.8458      0.00000

 k-point    25 :      -0.4375   -0.4375    0.3125
  band No.  band energies     occupation 
      1       4.3343      1.00000
      2       4.3343      1.00000
      3       9.2050      0.39128
      4      10.9314     -0.00266
      5      10.9314      0.00000
      6      20.2716      0.00000
      7      20.2716      0.00000
      8      21.7180      0.00000
      9      30.9836      0.00000
     10      30.9837      0.00000
     11      39.7231      0.00000
     12      50.5300      0.00000

 k-point    26 :      -0.4375    0.4375    0.4375
  band No.  band energies     occupation 
      1       3.9313      1.00000
      2       3.9390      1.00000
      3      10.8502     -0.07926
      4      10.8502     -0.00498
      5      11.1678      0.00000
      6      19.3424      0.00000
      7      22.0416      0.00000
      8      22.0416      0.00000
      9      28.6581      0.00000
     10      29.7988      0.00000
     11      38.1406      0.00000
     12      53.3800      0.00000


--------------------------------------------------------------------------------------------------------


 soft charge-density along one line, spin component           1
         0         1         2         3         4         5         6         7         8         9
 total charge-density along one line
 
 soft charge-density along one line, spin component           2
         0         1         2         3         4         5         6         7         8         9
 total charge-density along one line
 
 pseudopotential strength for first ion, spin component:           1
 -3.751  -0.000  -0.000  -0.000  -0.000  -4.333  -0.000  -0.000
 -0.000  -3.751   0.000  -0.000  -0.000  -0.000  -4.333   0.000
 -0.000   0.000  -3.932   0.000   0.000  -0.000   0.000  -4.509
 -0.000  -0.000   0.000  -3.751   0.000  -0.000  -0.000   0.000
 -0.000  -0.000   0.000   0.000  -3.932  -0.000  -0.000   0.000
 -4.333  -0.000  -0.000  -0.000  -0.000  -4.873  -0.000  -0.000
 -0.000  -4.333   0.000  -0.000  -0.000  -0.000  -4.873   0.000
 -0.000   0.000  -4.509   0.000   0.000  -0.000   0.000  -5.044
 -0.000  -0.000   0.000  -4.333   0.000  -0.000  -0.000   0.000
 -0.000  -0.000   0.000   0.000  -4.509  -0.000  -0.000   0.000
 -0.000  -0.000   0.000  -0.000   0.000  -0.000  -0.000   0.000
 -0.000  -0.000   0.000  -0.000   0.000  -0.000  -0.000   0.000
 -0.000  -0.000   0.000  -0.000   0.000  -0.000  -0.000   0.000
 -0.000  -0.000  -0.000  -0.000  -0.000  -0.000  -0.000  -0.000
 -0.000  -0.000   0.000  -0.000  -0.000  -0.000  -0.000   0.000
 -0.000  -0.000   0.000  -0.000   0.000  -0.000  -0.000   0.000
 -0.000  -0.000  -0.000  -0.000  -0.000  -0.000  -0.000  -0.000
 -0.000  -0.000   0.000  -0.000  -0.000  -0.000  -0.000   0.000
 pseudopotential strength for first ion, spin component:           2
 -2.598   0.000  -0.000   0.000  -0.000  -3.217   0.000  -0.000
  0.000  -2.598   0.000   0.000  -0.000   0.000  -3.217   0.000
 -0.000   0.000  -2.340   0.000   0.000  -0.000   0.000  -2.965
  0.000   0.000   0.000  -2.598   0.000   0.000   0.000   0.000
 -0.000  -0.000   0.000   0.000  -2.340  -0.000  -0.000   0.000
 -3.217   0.000  -0.000   0.000  -0.000  -3.792   0.000  -0.000
  0.000  -3.217   0.000   0.000  -0.000   0.000  -3.792   0.000
 -0.000   0.000  -2.965   0.000   0.000  -0.000   0.000  -3.545
  0.000   0.000   0.000  -3.217   0.000   0.000   0.000   0.000
 -0.000  -0.000   0.000   0.000  -2.965  -0.000  -0.000   0.000
 -0.000  -0.000   0.000  -0.000   0.000  -0.000  -0.000   0.000
 -0.000  -0.000   0.000  -0.000   0.000  -0.000  -0.000   0.000
 -0.000  -0.000   0.000  -0.000   0.000  -0.000  -0.000   0.000
 -0.000  -0.000  -0.000  -0.000  -0.000  -0.000  -0.000  -0.000
 -0.000  -0.000   0.000  -0.000  -0.000  -0.000  -0.000   0.000
 -0.000  -0.000   0.000  -0.000   0.000  -0.000  -0.000   0.000
 -0.000  -0.000  -0.000  -0.000  -0.000  -0.000  -0.000  -0.000
 -0.000  -0.000   0.000  -0.000  -0.000  -0.000  -0.000   0.000
 total augmentation occupancy for first ion, spin component:           1
  2.442   0.000  -0.000   0.000  -0.000  -2.026  -0.000   0.000  -0.000   0.000   0.000   0.000   0.000   0.000   0.000   0.000
 -0.000   2.442  -0.000   0.000   0.000   0.000  -2.026   0.000   0.000  -0.000  -0.000   0.000   0.000   0.000   0.000   0.000
  0.000  -0.000   4.649  -0.000   0.000   0.000  -0.000  -3.805  -0.000   0.000  -0.000   0.000   0.000   0.000   0.000   0.000
  0.000  -0.000  -0.000   2.442   0.000   0.000   0.000  -0.000  -2.026   0.000  -0.000  -0.000   0.000   0.000   0.000   0.000
  0.000   0.000   0.000  -0.000   4.649   0.000  -0.000   0.000  -0.000  -3.805   0.000  -0.000   0.000   0.000   0.000   0.000
 -2.026  -0.000   0.000   0.000   0.000   3.023  -0.000  -0.000  -0.000  -0.000   0.000   0.000   0.000   0.000   0.000   0.000
 -0.000  -2.026  -0.000   0.000  -0.000  -0.000   3.023  -0.000  -0.000   0.000  -0.000  -0.000   0.000   0.000   0.000   0.000
  0.000  -0.000  -3.805  -0.000   0.000   0.000  -0.000   4.257  -0.000   0.000   0.000  -0.000   0.000   0.000   0.000   0.000
  0.000   0.000  -0.000  -2.026   0.000   0.000   0.000  -0.000   3.023  -0.000   0.000   0.000   0.000   0.000   0.000   0.000
 -0.000   0.000   0.000  -0.000  -3.805   0.000   0.000   0.000   0.000   4.257   0.000  -0.000   0.000   0.000   0.000   0.000
  0.000   0.000  -0.000  -0.000   0.000   0.000  -0.000   0.000   0.000   0.000   3.208  -0.408   0.000   0.000   0.000   0.000
  0.000   0.000   0.000   0.000  -0.000   0.000   0.000  -0.000   0.000  -0.000  -0.408   0.059   0.000   0.000   0.000   0.000
  0.000   0.000   0.000   0.000   0.000   0.000   0.000   0.000   0.000   0.000   0.000   0.000   0.435  -0.000  -0.000  -0.035
  0.000   0.000   0.000   0.000   0.000   0.000   0.000   0.000   0.000   0.000   0.000   0.000   0.000   0.435  -0.000   0.000
  0.000   0.000   0.000   0.000   0.000   0.000   0.000   0.000   0.000   0.000   0.000   0.000  -0.000  -0.000   0.435   0.000
  0.000   0.000   0.000   0.000   0.000   0.000   0.000   0.000   0.000   0.000   0.000   0.000  -0.035   0.000   0.000   0.003
  0.000   0.000   0.000   0.000   0.000   0.000   0.000   0.000   0.000   0.000   0.000   0.000  -0.000  -0.035  -0.000  -0.000
  0.000   0.000   0.000   0.000   0.000   0.000   0.000   0.000   0.000   0.000   0.000   0.000  -0.000   0.000  -0.035  -0.000
 total augmentation occupancy for first ion, spin component:           2
  1.352  -0.000  -0.000   0.000  -0.000  -0.483   0.000   0.000   0.000   0.000  -0.000   0.000   0.000   0.000   0.000   0.000
 -0.000   1.352   0.000  -0.000   0.000  -0.000  -0.483  -0.000  -0.000  -0.000   0.000  -0.000   0.000   0.000   0.000   0.000
  0.000   0.000   3.085  -0.000   0.000   0.000   0.000  -1.430   0.000   0.000   0.000   0.000   0.000   0.000   0.000   0.000
  0.000  -0.000  -0.000   1.352  -0.000   0.000   0.000  -0.000  -0.483   0.000   0.000   0.000   0.000   0.000   0.000   0.000
 -0.000   0.000   0.000   0.000   3.085  -0.000  -0.000   0.000  -0.000  -1.430   0.000   0.000   0.000   0.000   0.000   0.000
 -0.483   0.000  -0.000   0.000  -0.000  -0.106  -0.000  -0.000   0.000  -0.000   0.000  -0.000   0.000   0.000   0.000   0.000
  0.000  -0.483   0.000   0.000  -0.000   0.000  -0.106   0.000   0.000  -0.000   0.000   0.000   0.000   0.000   0.000   0.000
  0.000  -0.000  -1.430   0.000   0.000  -0.000  -0.000   0.414  -0.000  -0.000   0.000   0.000   0.000   0.000   0.000   0.000
  0.000  -0.000  -0.000  -0.483  -0.000   0.000  -0.000  -0.000  -0.106   0.000   0.000  -0.000   0.000   0.000   0.000   0.000
 -0.000   0.000   0.000  -0.000  -1.430   0.000  -0.000   0.000   0.000   0.414  -0.000  -0.000   0.000   0.000   0.000   0.000
  0.000   0.000  -0.000   0.000   0.000   0.000   0.000   0.000   0.000   0.000  -0.336   0.105   0.000   0.000   0.000   0.000
  0.000  -0.000   0.000   0.000   0.000  -0.000   0.000   0.000   0.000  -0.000   0.105  -0.020   0.000   0.000   0.000   0.000
  0.000   0.000   0.000   0.000   0.000   0.000   0.000   0.000   0.000   0.000   0.000   0.000  -0.040   0.000   0.000   0.006
  0.000   0.000   0.000   0.000   0.000   0.000   0.000   0.000   0.000   0.000   0.000   0.000   0.000  -0.040   0.000   0.000
  0.000   0.000   0.000   0.000   0.000   0.000   0.000   0.000   0.000   0.000   0.000   0.000   0.000   0.000  -0.040   0.000
  0.000   0.000   0.000   0.000   0.000   0.000   0.000   0.000   0.000   0.000   0.000   0.000   0.006   0.000   0.000  -0.001
  0.000   0.000   0.000   0.000   0.000   0.000   0.000   0.000   0.000   0.000   0.000   0.000  -0.000   0.006  -0.000  -0.000
  0.000   0.000   0.000   0.000   0.000   0.000   0.000   0.000   0.000   0.000   0.000   0.000   0.000   0.000   0.006   0.000


------------------------ aborting loop because EDIFF is reached ----------------------------------------


 


 total charge     
 
# of ion     s       p       d       tot
----------------------------------------
  1        0.616   0.813   6.523   7.952
 


 magnetization (x)
 
# of ion     s       p       d       tot
----------------------------------------
  1       -0.012  -0.061   1.797   1.724
 
    CHARGE:  cpu time    0.0200: real time    0.0246
    FORLOC:  cpu time    0.0010: real time    0.0008
    FORNL :  cpu time    0.0600: real time    0.0551
    STRESS:  cpu time    0.0810: real time    0.1582
    FORCOR:  cpu time    0.0080: real time    0.0266
    FORHAR:  cpu time    0.0010: real time    0.0021
    MIXING:  cpu time    0.0010: real time    0.0052
    OFIELD:  cpu time    0.0000: real time    0.0000

  FORCE on cell =-STRESS in cart. coord.  units (eV):
  Direction    XX          YY          ZZ          XY          YZ          ZX
  --------------------------------------------------------------------------------------
  Alpha Z    78.64563    78.64563    78.64563
  Ewald    -214.99153  -214.99153  -214.99153    -0.00000     0.00000    -0.00000
  Hartree    25.54534    25.54534    25.54534    -0.00000    -0.00000    -0.00000
  E(xc)     -40.75560   -40.75560   -40.75560    -0.00000    -0.00000    -0.00000
  Local      64.93039    64.93039    64.93039    -0.00001    -0.00001    -0.00001
  n-local   -24.72957   -23.08741   -21.84668     1.26842    -1.12380    -1.97806
  augment    37.87592    37.87592    37.87592     0.00001     0.00001     0.00001
  Kinetic    76.72105    76.95286    77.05810    -1.16758     2.27496     1.16462
  Fock        0.00000     0.00000     0.00000     0.00000     0.00000     0.00000
  -------------------------------------------------------------------------------------
  Total       4.93960     4.93960     4.93960    -0.00000    -0.00000     0.00000
  in kB     900.55845   900.55845   900.55845    -0.00000    -0.00000     0.00000
  external pressure =      900.56 kB  Pullay stress =        0.00 kB


 VOLUME and BASIS-vectors are now :
 -----------------------------------------------------------------------------
  energy-cutoff  :      400.00
  volume of cell :        8.79
      direct lattice vectors                 reciprocal lattice vectors
    -1.300000000  1.300000000  1.300000000     0.000000000  0.384615385  0.384615385
     1.300000000 -1.300000000  1.300000000     0.384615385  0.000000000  0.384615385
     1.300000000  1.300000000 -1.300000000     0.384615385  0.384615385  0.000000000

  length of vectors
     2.251666050  2.251666050  2.251666050     0.543928293  0.543928293  0.543928293


 FORCES acting on ions
    electron-ion (+dipol)            ewald-force                    non-local-force                 convergence-correction
 -----------------------------------------------------------------------------------------------
   0.541E-14 0.477E-14 -.636E-14   -.360E-15 -.313E-15 -.209E-14   0.724E-24 0.310E-24 0.310E-24   0.276E-14 0.205E-14 -.228E-15
 -----------------------------------------------------------------------------------------------
   0.541E-14 0.477E-14 -.636E-14   -.360E-15 -.313E-15 -.209E-14   0.724E-24 0.310E-24 0.310E-24   0.276E-14 0.205E-14 -.228E-15
 
 
 POSITION                                       TOTAL-FORCE (eV/Angst)
 -----------------------------------------------------------------------------------
      0.00000      0.00000      0.00000         0.000000     -0.000000      0.000000
 -----------------------------------------------------------------------------------
    total drift:                                0.000000      0.000000     -0.000000


--------------------------------------------------------------------------------------------------------



  FREE ENERGIE OF THE ION-ELECTRON SYSTEM (eV)
  ---------------------------------------------------
  free  energy   TOTEN  =        -7.67872116 eV

  energy  without entropy=       -7.67872116  energy(sigma->0) =       -7.67872116
 


--------------------------------------------------------------------------------------------------------


    POTLOK:  cpu time    0.0110: real time    0.0360


--------------------------------------------------------------------------------------------------------


 writing wavefunctions
     LOOP+:  cpu time   38.3702: real time   36.3607
    4ORBIT:  cpu time    0.0000: real time    0.0000
 


 total charge     
 
# of ion     s       p       d       tot
----------------------------------------
  1        0.616   0.813   6.523   7.952
 


 magnetization (x)
 
# of ion     s       p       d       tot
----------------------------------------
  1       -0.012  -0.061   1.797   1.724
 
 BZINTS: Fermi energy:  9.016859;  8.000000 electrons
         Band energy:  46.515754;  BLOECHL correction: -0.111339

 total amount of memory used by VASP on root node    32387. kBytes
========================================================================

   base      :      30000. kBytes
   nonl-proj :        631. kBytes
   fftplans  :        302. kBytes
   grid      :        954. kBytes
   one-center:         31. kBytes
   wavefun   :        469. kBytes
 
  
  
 General timing and accounting informations for this job:
 ========================================================
  
                  Total CPU time used (sec):       38.925
                            User time (sec):       36.849
                          System time (sec):        2.076
                         Elapsed time (sec):       38.351
  
                   Maximum memory used (kb):       34208.
                   Average memory used (kb):           0.
  
                          Minor page faults:        24892
                          Major page faults:            7
                 Voluntary context switches:          472
