PROCAR lm decomposed
# of k-points:   26         # of bands:  12         # of ions:   1

 k-point    1 :    0.06250000 0.06250000 0.06250000     weight = 0.01562500

band   1 # energy    0.00831800 # occ.  1.00000000
 
ion      s     py     pz     px    dxy    dyz    dz2    dxz    dx2    tot
  1  0.891  0.033  0.033  0.033  0.004  0.004  0.000  0.004  0.000  1.003
 
band   2 # energy    5.67257144 # occ.  1.00000000
 
ion      s     py     pz     px    dxy    dyz    dz2    dxz    dx2    tot
  1  0.000  0.002  0.000  0.003  0.071  0.511  0.003  0.398  0.024  1.012
 
band   3 # energy    5.67257144 # occ.  1.00000000
 
ion      s     py     pz     px    dxy    dyz    dz2    dxz    dx2    tot
  1  0.000  0.001  0.003  0.001  0.582  0.142  0.024  0.256  0.003  1.012
 
band   4 # energy    6.87908981 # occ.  1.00000000
 
ion      s     py     pz     px    dxy    dyz    dz2    dxz    dx2    tot
  1  0.003  0.006  0.006  0.006  0.327  0.327  0.000  0.327  0.000  1.004
 
band   5 # energy    7.78141701 # occ.  1.00000000
 
ion      s     py     pz     px    dxy    dyz    dz2    dxz    dx2    tot
  1  0.000  0.000  0.000  0.000  0.000  0.016  0.009  0.014  0.933  0.973
 
band   6 # energy    7.78141701 # occ.  1.00278169
 
ion      s     py     pz     px    dxy    dyz    dz2    dxz    dx2    tot
  1  0.000  0.000  0.000  0.000  0.020  0.004  0.933  0.006  0.009  0.973
 
band   7 # energy   33.24045958 # occ.  0.00000000
 
ion      s     py     pz     px    dxy    dyz    dz2    dxz    dx2    tot
  1  0.000  0.033  0.019  0.029  0.078  0.118  0.102  0.136  0.187  0.702
 
band   8 # energy   33.24045958 # occ.  0.00000000
 
ion      s     py     pz     px    dxy    dyz    dz2    dxz    dx2    tot
  1  0.000  0.021  0.035  0.025  0.143  0.103  0.187  0.085  0.102  0.702
 
band   9 # energy   37.44964353 # occ.  0.00000000
 
ion      s     py     pz     px    dxy    dyz    dz2    dxz    dx2    tot
  1  0.000  0.000  0.000  0.000  0.000  0.000  0.000  0.000  0.000  0.000
 
band  10 # energy   40.21426336 # occ.  0.00000000
 
ion      s     py     pz     px    dxy    dyz    dz2    dxz    dx2    tot
  1  0.075  0.160  0.160  0.160  0.264  0.264  0.000  0.264  0.000  1.346
 
band  11 # energy   44.81429636 # occ.  0.00000000
 
ion      s     py     pz     px    dxy    dyz    dz2    dxz    dx2    tot
  1  0.000  0.085  0.028  0.071  0.034  0.086  0.046  0.102  0.156  0.608
 
band  12 # energy   44.81429636 # occ.  0.00000000
 
ion      s     py     pz     px    dxy    dyz    dz2    dxz    dx2    tot
  1  0.000  0.038  0.095  0.052  0.114  0.062  0.156  0.046  0.046  0.608
 

 k-point    2 :    0.18750000 0.06250000 0.06250000     weight = 0.04687500

band   1 # energy    1.83654361 # occ.  1.00000000
 
ion      s     py     pz     px    dxy    dyz    dz2    dxz    dx2    tot
  1  0.654  0.091  0.091  0.029  0.008  0.101  0.006  0.008  0.017  1.005
 
band   2 # energy    5.05278981 # occ.  1.00000000
 
ion      s     py     pz     px    dxy    dyz    dz2    dxz    dx2    tot
  1  0.000  0.004  0.004  0.000  0.489  0.000  0.020  0.489  0.007  1.014
 
band   3 # energy    5.37389179 # occ.  1.00000000
 
ion      s     py     pz     px    dxy    dyz    dz2    dxz    dx2    tot
  1  0.026  0.036  0.036  0.003  0.098  0.541  0.039  0.098  0.118  0.995
 
band   4 # energy    7.69289160 # occ.  1.00000000
 
ion      s     py     pz     px    dxy    dyz    dz2    dxz    dx2    tot
  1  0.002  0.000  0.000  0.000  0.017  0.161  0.195  0.017  0.586  0.979
 
band   5 # energy    7.98537392 # occ.  1.00259918
 
ion      s     py     pz     px    dxy    dyz    dz2    dxz    dx2    tot
  1  0.000  0.000  0.000  0.000  0.015  0.000  0.712  0.015  0.237  0.980
 
band   6 # energy    8.38330738 # occ.  0.79630068
 
ion      s     py     pz     px    dxy    dyz    dz2    dxz    dx2    tot
  1  0.019  0.020  0.020  0.019  0.368  0.178  0.000  0.368  0.000  0.992
 
band   7 # energy   27.88743782 # occ.  0.00000000
 
ion      s     py     pz     px    dxy    dyz    dz2    dxz    dx2    tot
  1  0.046  0.102  0.102  0.034  0.015  0.436  0.065  0.015  0.196  1.013
 
band   8 # energy   30.82259012 # occ.  0.00000000
 
ion      s     py     pz     px    dxy    dyz    dz2    dxz    dx2    tot
  1  0.000  0.097  0.097  0.000  0.198  0.000  0.132  0.198  0.044  0.767
 
band   9 # energy   35.47995812 # occ.  0.00000000
 
ion      s     py     pz     px    dxy    dyz    dz2    dxz    dx2    tot
  1  0.138  0.072  0.072  0.370  0.177  0.021  0.012  0.177  0.036  1.074
 
band  10 # energy   38.40382410 # occ.  0.00000000
 
ion      s     py     pz     px    dxy    dyz    dz2    dxz    dx2    tot
  1  0.000  0.000  0.000  0.000  0.217  0.000  0.017  0.217  0.006  0.458
 
band  11 # energy   45.15385350 # occ.  0.00000000
 
ion      s     py     pz     px    dxy    dyz    dz2    dxz    dx2    tot
  1  0.033  0.056  0.056  0.148  0.118  0.264  0.140  0.118  0.419  1.350
 
band  12 # energy   45.46156910 # occ.  0.00000000
 
ion      s     py     pz     px    dxy    dyz    dz2    dxz    dx2    tot
  1  0.000  0.087  0.087  0.000  0.234  0.000  0.000  0.234  0.000  0.642
 

 k-point    3 :    0.31250000 0.06250000 0.06250000     weight = 0.04687500

band   1 # energy    2.74255559 # occ.  1.00000000
 
ion      s     py     pz     px    dxy    dyz    dz2    dxz    dx2    tot
  1  0.255  0.026  0.026  0.027  0.000  0.461  0.052  0.000  0.156  1.003
 
band   2 # energy    4.53357894 # occ.  1.00000000
 
ion      s     py     pz     px    dxy    dyz    dz2    dxz    dx2    tot
  1  0.000  0.006  0.006  0.000  0.500  0.000  0.006  0.500  0.002  1.020
 
band   3 # energy    6.54697201 # occ.  1.00000000
 
ion      s     py     pz     px    dxy    dyz    dz2    dxz    dx2    tot
  1  0.114  0.201  0.201  0.000  0.150  0.072  0.025  0.150  0.076  0.990
 
band   4 # energy    7.92221140 # occ.  1.00000000
 
ion      s     py     pz     px    dxy    dyz    dz2    dxz    dx2    tot
  1  0.004  0.003  0.003  0.001  0.015  0.299  0.162  0.015  0.487  0.990
 
band   5 # energy    8.15237106 # occ.  1.02401864
 
ion      s     py     pz     px    dxy    dyz    dz2    dxz    dx2    tot
  1  0.000  0.000  0.000  0.000  0.005  0.000  0.733  0.005  0.244  0.987
 
band   6 # energy   10.34376893 # occ. -0.03391279
 
ion      s     py     pz     px    dxy    dyz    dz2    dxz    dx2    tot
  1  0.048  0.084  0.084  0.015  0.332  0.097  0.001  0.332  0.002  0.994
 
band   7 # energy   22.15633357 # occ.  0.00000000
 
ion      s     py     pz     px    dxy    dyz    dz2    dxz    dx2    tot
  1  0.223  0.107  0.107  0.021  0.006  0.450  0.040  0.006  0.119  1.077
 
band   8 # energy   28.80474198 # occ.  0.00000000
 
ion      s     py     pz     px    dxy    dyz    dz2    dxz    dx2    tot
  1  0.000  0.133  0.133  0.000  0.174  0.000  0.038  0.174  0.013  0.666
 
band   9 # energy   32.50486675 # occ.  0.00000000
 
ion      s     py     pz     px    dxy    dyz    dz2    dxz    dx2    tot
  1  0.142  0.013  0.013  0.556  0.061  0.008  0.018  0.061  0.054  0.927
 
band  10 # energy   38.46150209 # occ.  0.00000000
 
ion      s     py     pz     px    dxy    dyz    dz2    dxz    dx2    tot
  1  0.000  0.002  0.002  0.000  0.546  0.000  0.007  0.546  0.002  1.104
 
band  11 # energy   44.40127490 # occ.  0.00000000
 
ion      s     py     pz     px    dxy    dyz    dz2    dxz    dx2    tot
  1  0.111  0.028  0.028  0.125  0.030  0.026  0.217  0.030  0.651  1.245
 
band  12 # energy   49.08917245 # occ.  0.00000000
 
ion      s     py     pz     px    dxy    dyz    dz2    dxz    dx2    tot
  1  0.074  0.013  0.009  0.015  0.006  0.318  0.007  0.004  0.014  0.461
 

 k-point    4 :    0.43750000 0.06250000 0.06250000     weight = 0.02343750

band   1 # energy    2.64521840 # occ.  1.00000000
 
ion      s     py     pz     px    dxy    dyz    dz2    dxz    dx2    tot
  1  0.159  0.000  0.000  0.026  0.000  0.533  0.071  0.000  0.213  1.002
 
band   2 # energy    4.33666920 # occ.  1.00000000
 
ion      s     py     pz     px    dxy    dyz    dz2    dxz    dx2    tot
  1  0.000  0.007  0.007  0.000  0.505  0.000  0.000  0.505  0.000  1.023
 
band   3 # energy    7.85717621 # occ.  1.00000000
 
ion      s     py     pz     px    dxy    dyz    dz2    dxz    dx2    tot
  1  0.000  0.247  0.247  0.000  0.250  0.000  0.000  0.250  0.000  0.993
 
band   4 # energy    8.03154179 # occ.  1.00000000
 
ion      s     py     pz     px    dxy    dyz    dz2    dxz    dx2    tot
  1  0.016  0.000  0.000  0.001  0.000  0.305  0.168  0.000  0.503  0.992
 
band   5 # energy    8.22331129 # occ.  1.01712245
 
ion      s     py     pz     px    dxy    dyz    dz2    dxz    dx2    tot
  1  0.000  0.000  0.000  0.000  0.000  0.000  0.743  0.000  0.248  0.991
 
band   6 # energy   11.84218657 # occ. -0.00268027
 
ion      s     py     pz     px    dxy    dyz    dz2    dxz    dx2    tot
  1  0.000  0.233  0.233  0.000  0.263  0.000  0.000  0.263  0.000  0.991
 
band   7 # energy   18.94672980 # occ.  0.00000000
 
ion      s     py     pz     px    dxy    dyz    dz2    dxz    dx2    tot
  1  0.430  0.000  0.000  0.025  0.000  0.505  0.033  0.000  0.099  1.092
 
band   8 # energy   28.02598973 # occ.  0.00000000
 
ion      s     py     pz     px    dxy    dyz    dz2    dxz    dx2    tot
  1  0.000  0.145  0.145  0.000  0.163  0.000  0.000  0.163  0.000  0.616
 
band   9 # energy   31.38646448 # occ.  0.00000000
 
ion      s     py     pz     px    dxy    dyz    dz2    dxz    dx2    tot
  1  0.138  0.000  0.000  0.633  0.000  0.023  0.017  0.000  0.051  0.862
 
band  10 # energy   38.39955770 # occ.  0.00000000
 
ion      s     py     pz     px    dxy    dyz    dz2    dxz    dx2    tot
  1  0.000  0.002  0.002  0.000  0.656  0.000  0.000  0.656  0.000  1.315
 
band  11 # energy   44.42195519 # occ.  0.00000000
 
ion      s     py     pz     px    dxy    dyz    dz2    dxz    dx2    tot
  1  0.171  0.000  0.000  0.118  0.000  0.001  0.260  0.000  0.779  1.328
 
band  12 # energy   48.47527579 # occ.  0.00000000
 
ion      s     py     pz     px    dxy    dyz    dz2    dxz    dx2    tot
  1  0.000  0.045  0.045  0.000  0.010  0.000  0.000  0.010  0.000  0.111
 

 k-point    5 :   -0.06250000 0.06250000 0.06250000     weight = 0.01171875

band   1 # energy   -0.74128587 # occ.  1.00000000
 
ion      s     py     pz     px    dxy    dyz    dz2    dxz    dx2    tot
  1  0.964  0.000  0.000  0.037  0.000  0.000  0.000  0.000  0.001  1.001
 
band   2 # energy    5.98787565 # occ.  1.00000000
 
ion      s     py     pz     px    dxy    dyz    dz2    dxz    dx2    tot
  1  0.000  0.002  0.002  0.000  0.506  0.000  0.000  0.506  0.000  1.015
 
band   3 # energy    5.98787623 # occ.  1.00000000
 
ion      s     py     pz     px    dxy    dyz    dz2    dxz    dx2    tot
  1  0.000  0.002  0.002  0.000  0.506  0.000  0.000  0.506  0.000  1.015
 
band   4 # energy    6.11980359 # occ.  1.00000000
 
ion      s     py     pz     px    dxy    dyz    dz2    dxz    dx2    tot
  1  0.000  0.000  0.000  0.000  0.000  1.014  0.000  0.000  0.000  1.014
 
band   5 # energy    7.65614177 # occ.  1.00000000
 
ion      s     py     pz     px    dxy    dyz    dz2    dxz    dx2    tot
  1  0.000  0.000  0.000  0.000  0.000  0.000  0.725  0.000  0.242  0.967
 
band   6 # energy    7.97925488 # occ.  1.00000000
 
ion      s     py     pz     px    dxy    dyz    dz2    dxz    dx2    tot
  1  0.001  0.000  0.000  0.000  0.000  0.000  0.244  0.000  0.732  0.976
 
band   7 # energy   34.76590930 # occ.  0.00000000
 
ion      s     py     pz     px    dxy    dyz    dz2    dxz    dx2    tot
  1  0.000  0.000  0.000  0.000  0.000  0.000  0.252  0.000  0.084  0.336
 
band   8 # energy   36.35643377 # occ.  0.00000000
 
ion      s     py     pz     px    dxy    dyz    dz2    dxz    dx2    tot
  1  0.000  0.004  0.004  0.000  0.118  0.000  0.000  0.118  0.000  0.244
 
band   9 # energy   36.35643435 # occ.  0.00000000
 
ion      s     py     pz     px    dxy    dyz    dz2    dxz    dx2    tot
  1  0.000  0.004  0.004  0.000  0.118  0.000  0.000  0.118  0.000  0.244
 
band  10 # energy   41.38110339 # occ.  0.00000000
 
ion      s     py     pz     px    dxy    dyz    dz2    dxz    dx2    tot
  1  0.012  0.000  0.000  0.202  0.000  0.000  0.140  0.000  0.421  0.775
 
band  11 # energy   45.15806299 # occ.  0.00000000
 
ion      s     py     pz     px    dxy    dyz    dz2    dxz    dx2    tot
  1  0.000  0.199  0.215  0.000  0.524  0.000  0.000  0.567  0.000  1.505
 
band  12 # energy   45.15806529 # occ.  0.00000000
 
ion      s     py     pz     px    dxy    dyz    dz2    dxz    dx2    tot
  1  0.000  0.215  0.199  0.000  0.567  0.000  0.000  0.524  0.000  1.505
 

 k-point    6 :    0.18750000 0.18750000 0.06250000     weight = 0.04687500

band   1 # energy    3.40172139 # occ.  1.00000000
 
ion      s     py     pz     px    dxy    dyz    dz2    dxz    dx2    tot
  1  0.337  0.063  0.081  0.063  0.009  0.199  0.057  0.199  0.000  1.007
 
band   2 # energy    4.63011794 # occ.  1.00000000
 
ion      s     py     pz     px    dxy    dyz    dz2    dxz    dx2    tot
  1  0.000  0.035  0.000  0.035  0.000  0.360  0.000  0.360  0.208  0.998
 
band   3 # energy    5.00216591 # occ.  1.00000000
 
ion      s     py     pz     px    dxy    dyz    dz2    dxz    dx2    tot
  1  0.065  0.010  0.126  0.010  0.683  0.057  0.004  0.057  0.000  1.011
 
band   4 # energy    7.82215725 # occ.  1.00000000
 
ion      s     py     pz     px    dxy    dyz    dz2    dxz    dx2    tot
  1  0.000  0.001  0.000  0.001  0.000  0.115  0.000  0.115  0.751  0.983
 
band   5 # energy    8.20352366 # occ.  1.00291451
 
ion      s     py     pz     px    dxy    dyz    dz2    dxz    dx2    tot
  1  0.007  0.000  0.001  0.000  0.000  0.036  0.908  0.036  0.000  0.989
 
band   6 # energy   10.65540820 # occ. -0.05131945
 
ion      s     py     pz     px    dxy    dyz    dz2    dxz    dx2    tot
  1  0.072  0.045  0.085  0.045  0.310  0.212  0.018  0.212  0.000  0.998
 
band   7 # energy   25.00983282 # occ.  0.00000000
 
ion      s     py     pz     px    dxy    dyz    dz2    dxz    dx2    tot
  1  0.000  0.174  0.000  0.174  0.000  0.242  0.000  0.242  0.216  1.047
 
band   8 # energy   26.26396419 # occ.  0.00000000
 
ion      s     py     pz     px    dxy    dyz    dz2    dxz    dx2    tot
  1  0.159  0.003  0.273  0.003  0.147  0.155  0.042  0.155  0.000  0.937
 
band   9 # energy   31.22225431 # occ.  0.00000000
 
ion      s     py     pz     px    dxy    dyz    dz2    dxz    dx2    tot
  1  0.207  0.228  0.000  0.228  0.205  0.000  0.036  0.000  0.000  0.903
 
band  10 # energy   40.69255680 # occ.  0.00000000
 
ion      s     py     pz     px    dxy    dyz    dz2    dxz    dx2    tot
  1  0.000  0.010  0.000  0.010  0.000  0.126  0.000  0.126  0.126  0.399
 
band  11 # energy   45.92238054 # occ.  0.00000000
 
ion      s     py     pz     px    dxy    dyz    dz2    dxz    dx2    tot
  1  0.020  0.017  0.018  0.017  0.572  0.216  0.015  0.216  0.000  1.091
 
band  12 # energy   48.81158100 # occ.  0.00000000
 
ion      s     py     pz     px    dxy    dyz    dz2    dxz    dx2    tot
  1  0.000  0.095  0.000  0.095  0.000  0.123  0.000  0.123  0.508  0.943
 

 k-point    7 :    0.31250000 0.18750000 0.06250000     weight = 0.09375000

band   1 # energy    3.52711783 # occ.  1.00000000
 
ion      s     py     pz     px    dxy    dyz    dz2    dxz    dx2    tot
  1  0.110  0.002  0.006  0.073  0.044  0.562  0.058  0.043  0.109  1.007
 
band   2 # energy    4.40420799 # occ.  1.00000000
 
ion      s     py     pz     px    dxy    dyz    dz2    dxz    dx2    tot
  1  0.000  0.037  0.017  0.020  0.340  0.026  0.001  0.497  0.076  1.013
 
band   3 # energy    5.91909361 # occ.  1.00000000
 
ion      s     py     pz     px    dxy    dyz    dz2    dxz    dx2    tot
  1  0.028  0.137  0.193  0.001  0.358  0.007  0.080  0.141  0.054  0.997
 
band   4 # energy    8.04663345 # occ.  1.00000000
 
ion      s     py     pz     px    dxy    dyz    dz2    dxz    dx2    tot
  1  0.004  0.002  0.000  0.003  0.000  0.218  0.046  0.048  0.668  0.989
 
band   5 # energy    8.34687115 # occ.  1.01098280
 
ion      s     py     pz     px    dxy    dyz    dz2    dxz    dx2    tot
  1  0.006  0.006  0.009  0.000  0.050  0.015  0.781  0.075  0.052  0.993
 
band   6 # energy   13.60926054 # occ. -0.00152628
 
ion      s     py     pz     px    dxy    dyz    dz2    dxz    dx2    tot
  1  0.062  0.154  0.226  0.024  0.232  0.076  0.035  0.200  0.000  1.009
 
band   7 # energy   20.19843985 # occ.  0.00000000
 
ion      s     py     pz     px    dxy    dyz    dz2    dxz    dx2    tot
  1  0.229  0.127  0.022  0.107  0.012  0.419  0.009  0.027  0.103  1.056
 
band   8 # energy   24.38665392 # occ.  0.00000000
 
ion      s     py     pz     px    dxy    dyz    dz2    dxz    dx2    tot
  1  0.176  0.064  0.133  0.113  0.157  0.000  0.000  0.256  0.034  0.933
 
band   9 # energy   29.50038181 # occ.  0.00000000
 
ion      s     py     pz     px    dxy    dyz    dz2    dxz    dx2    tot
  1  0.194  0.108  0.038  0.302  0.124  0.045  0.013  0.033  0.007  0.864
 
band  10 # energy   41.48622049 # occ.  0.00000000
 
ion      s     py     pz     px    dxy    dyz    dz2    dxz    dx2    tot
  1  0.006  0.003  0.000  0.019  0.201  0.017  0.012  0.319  0.159  0.735
 
band  11 # energy   46.61832449 # occ.  0.00000000
 
ion      s     py     pz     px    dxy    dyz    dz2    dxz    dx2    tot
  1  0.005  0.054  0.005  0.000  0.213  0.076  0.138  0.006  0.098  0.596
 
band  12 # energy   49.89660726 # occ.  0.00000000
 
ion      s     py     pz     px    dxy    dyz    dz2    dxz    dx2    tot
  1  0.064  0.014  0.006  0.162  0.092  0.014  0.292  0.032  0.463  1.139
 

 k-point    8 :   -0.18750000 0.18750000 0.06250000     weight = 0.04687500

band   1 # energy    0.68551353 # occ.  1.00000000
 
ion      s     py     pz     px    dxy    dyz    dz2    dxz    dx2    tot
  1  0.811  0.028  0.000  0.126  0.022  0.000  0.009  0.000  0.007  1.003
 
band   2 # energy    5.57642596 # occ.  1.00000000
 
ion      s     py     pz     px    dxy    dyz    dz2    dxz    dx2    tot
  1  0.000  0.000  0.004  0.000  0.000  0.393  0.000  0.617  0.000  1.014
 
band   3 # energy    5.85686292 # occ.  1.00000000
 
ion      s     py     pz     px    dxy    dyz    dz2    dxz    dx2    tot
  1  0.009  0.023  0.000  0.013  0.822  0.000  0.117  0.000  0.013  0.998
 
band   4 # energy    7.02896094 # occ.  1.00000000
 
ion      s     py     pz     px    dxy    dyz    dz2    dxz    dx2    tot
  1  0.000  0.000  0.012  0.000  0.000  0.610  0.000  0.378  0.000  0.999
 
band   5 # energy    7.27859103 # occ.  1.00000000
 
ion      s     py     pz     px    dxy    dyz    dz2    dxz    dx2    tot
  1  0.000  0.001  0.000  0.000  0.140  0.000  0.644  0.000  0.180  0.966
 
band   6 # energy    8.14362813 # occ.  1.00085872
 
ion      s     py     pz     px    dxy    dyz    dz2    dxz    dx2    tot
  1  0.008  0.000  0.000  0.002  0.005  0.000  0.190  0.000  0.776  0.982
 
band   7 # energy   30.78174005 # occ.  0.00000000
 
ion      s     py     pz     px    dxy    dyz    dz2    dxz    dx2    tot
  1  0.017  0.095  0.000  0.036  0.340  0.000  0.377  0.000  0.036  0.900
 
band   8 # energy   34.13028577 # occ.  0.00000000
 
ion      s     py     pz     px    dxy    dyz    dz2    dxz    dx2    tot
  1  0.020  0.000  0.000  0.116  0.121  0.000  0.026  0.000  0.205  0.488
 
band   9 # energy   35.77181631 # occ.  0.00000000
 
ion      s     py     pz     px    dxy    dyz    dz2    dxz    dx2    tot
  1  0.000  0.000  0.102  0.000  0.000  0.073  0.000  0.761  0.000  0.936
 
band  10 # energy   40.76174617 # occ.  0.00000000
 
ion      s     py     pz     px    dxy    dyz    dz2    dxz    dx2    tot
  1  0.008  0.147  0.000  0.105  0.309  0.000  0.082  0.000  0.015  0.666
 
band  11 # energy   41.69844615 # occ.  0.00000000
 
ion      s     py     pz     px    dxy    dyz    dz2    dxz    dx2    tot
  1  0.000  0.000  0.428  0.000  0.000  0.602  0.000  0.134  0.000  1.163
 
band  12 # energy   43.24098197 # occ.  0.00000000
 
ion      s     py     pz     px    dxy    dyz    dz2    dxz    dx2    tot
  1  0.094  0.235  0.000  0.095  0.129  0.000  0.186  0.000  0.002  0.741
 

 k-point    9 :    0.31250000 0.31250000 0.06250000     weight = 0.01562500

band   1 # energy    3.91486261 # occ.  1.00000000
 
ion      s     py     pz     px    dxy    dyz    dz2    dxz    dx2    tot
  1  0.053  0.012  0.012  0.012  0.310  0.310  0.000  0.310  0.000  1.019
 
band   2 # energy    4.96915942 # occ.  1.00000000
 
ion      s     py     pz     px    dxy    dyz    dz2    dxz    dx2    tot
  1  0.000  0.117  0.000  0.117  0.000  0.273  0.000  0.273  0.219  0.999
 
band   3 # energy    4.96915984 # occ.  1.00000000
 
ion      s     py     pz     px    dxy    dyz    dz2    dxz    dx2    tot
  1  0.000  0.039  0.156  0.039  0.364  0.091  0.219  0.091  0.000  0.999
 
band   4 # energy    8.25953004 # occ.  1.00000000
 
ion      s     py     pz     px    dxy    dyz    dz2    dxz    dx2    tot
  1  0.000  0.006  0.000  0.006  0.000  0.121  0.000  0.121  0.737  0.992
 
band   5 # energy    8.25953037 # occ.  1.02004048
 
ion      s     py     pz     px    dxy    dyz    dz2    dxz    dx2    tot
  1  0.000  0.002  0.008  0.002  0.162  0.040  0.737  0.040  0.000  0.992
 
band   6 # energy   17.69223637 # occ.  0.00000000
 
ion      s     py     pz     px    dxy    dyz    dz2    dxz    dx2    tot
  1  0.000  0.258  0.000  0.258  0.000  0.216  0.000  0.216  0.085  1.034
 
band   7 # energy   17.69223662 # occ.  0.00000000
 
ion      s     py     pz     px    dxy    dyz    dz2    dxz    dx2    tot
  1  0.000  0.086  0.344  0.086  0.288  0.072  0.085  0.072  0.000  1.034
 
band   8 # energy   21.32114979 # occ.  0.00000000
 
ion      s     py     pz     px    dxy    dyz    dz2    dxz    dx2    tot
  1  0.571  0.005  0.005  0.005  0.126  0.126  0.000  0.126  0.000  0.963
 
band   9 # energy   28.91179678 # occ.  0.00000000
 
ion      s     py     pz     px    dxy    dyz    dz2    dxz    dx2    tot
  1  0.187  0.137  0.137  0.137  0.102  0.102  0.000  0.102  0.000  0.905
 
band  10 # energy   44.24364166 # occ.  0.00000000
 
ion      s     py     pz     px    dxy    dyz    dz2    dxz    dx2    tot
  1  0.000  0.025  0.000  0.025  0.000  0.079  0.000  0.079  0.332  0.539
 
band  11 # energy   44.24364376 # occ.  0.00000000
 
ion      s     py     pz     px    dxy    dyz    dz2    dxz    dx2    tot
  1  0.000  0.008  0.034  0.008  0.105  0.026  0.332  0.026  0.000  0.539
 
band  12 # energy   53.85546469 # occ.  0.00000000
 
ion      s     py     pz     px    dxy    dyz    dz2    dxz    dx2    tot
  1  0.013  0.068  0.068  0.068  0.473  0.473  0.000  0.473  0.000  1.639
 

 k-point   10 :   -0.31250000 0.31250000 0.06250000     weight = 0.04687500

band   1 # energy    2.34013154 # occ.  1.00000000
 
ion      s     py     pz     px    dxy    dyz    dz2    dxz    dx2    tot
  1  0.444  0.032  0.000  0.119  0.266  0.000  0.132  0.000  0.009  1.003
 
band   2 # energy    4.97654652 # occ.  1.00000000
 
ion      s     py     pz     px    dxy    dyz    dz2    dxz    dx2    tot
  1  0.000  0.000  0.004  0.000  0.000  0.459  0.000  0.553  0.000  1.016
 
band   3 # energy    5.97829507 # occ.  1.00000000
 
ion      s     py     pz     px    dxy    dyz    dz2    dxz    dx2    tot
  1  0.097  0.113  0.000  0.128  0.227  0.000  0.254  0.000  0.154  0.973
 
band   4 # energy    7.60488888 # occ.  1.00000000
 
ion      s     py     pz     px    dxy    dyz    dz2    dxz    dx2    tot
  1  0.001  0.018  0.000  0.019  0.457  0.000  0.467  0.000  0.026  0.988
 
band   5 # energy    8.42420457 # occ.  0.99546214
 
ion      s     py     pz     px    dxy    dyz    dz2    dxz    dx2    tot
  1  0.044  0.014  0.000  0.030  0.002  0.000  0.105  0.000  0.795  0.990
 
band   6 # energy    8.53368647 # occ.  0.56879664
 
ion      s     py     pz     px    dxy    dyz    dz2    dxz    dx2    tot
  1  0.000  0.000  0.016  0.000  0.000  0.539  0.000  0.434  0.000  0.989
 
band   7 # energy   24.92747603 # occ.  0.00000000
 
ion      s     py     pz     px    dxy    dyz    dz2    dxz    dx2    tot
  1  0.134  0.173  0.000  0.088  0.451  0.000  0.221  0.000  0.012  1.078
 
band   8 # energy   31.30506151 # occ.  0.00000000
 
ion      s     py     pz     px    dxy    dyz    dz2    dxz    dx2    tot
  1  0.023  0.051  0.000  0.135  0.012  0.000  0.082  0.000  0.111  0.414
 
band   9 # energy   34.23302775 # occ.  0.00000000
 
ion      s     py     pz     px    dxy    dyz    dz2    dxz    dx2    tot
  1  0.000  0.000  0.389  0.000  0.000  0.057  0.000  0.775  0.000  1.222
 
band  10 # energy   39.08853107 # occ.  0.00000000
 
ion      s     py     pz     px    dxy    dyz    dz2    dxz    dx2    tot
  1  0.000  0.000  0.282  0.000  0.000  0.818  0.000  0.109  0.000  1.209
 
band  11 # energy   41.50495110 # occ.  0.00000000
 
ion      s     py     pz     px    dxy    dyz    dz2    dxz    dx2    tot
  1  0.065  0.248  0.000  0.000  0.118  0.000  0.566  0.000  0.016  1.013
 
band  12 # energy   44.31555891 # occ.  0.00000000
 
ion      s     py     pz     px    dxy    dyz    dz2    dxz    dx2    tot
  1  0.156  0.001  0.000  0.067  0.155  0.000  0.144  0.000  0.113  0.635
 

 k-point   11 :   -0.18750000 0.31250000 0.06250000     weight = 0.04687500

band   1 # energy    2.30136150 # occ.  1.00000000
 
ion      s     py     pz     px    dxy    dyz    dz2    dxz    dx2    tot
  1  0.564  0.018  0.018  0.204  0.056  0.000  0.022  0.056  0.065  1.003
 
band   2 # energy    5.21302735 # occ.  1.00000000
 
ion      s     py     pz     px    dxy    dyz    dz2    dxz    dx2    tot
  1  0.000  0.019  0.019  0.000  0.284  0.000  0.279  0.284  0.093  0.978
 
band   3 # energy    5.56748908 # occ.  1.00000000
 
ion      s     py     pz     px    dxy    dyz    dz2    dxz    dx2    tot
  1  0.019  0.008  0.008  0.040  0.220  0.492  0.000  0.220  0.001  1.008
 
band   4 # energy    7.08790547 # occ.  1.00000000
 
ion      s     py     pz     px    dxy    dyz    dz2    dxz    dx2    tot
  1  0.000  0.003  0.003  0.000  0.199  0.000  0.428  0.199  0.143  0.975
 
band   5 # energy    8.14527335 # occ.  1.00600081
 
ion      s     py     pz     px    dxy    dyz    dz2    dxz    dx2    tot
  1  0.000  0.007  0.007  0.003  0.178  0.382  0.059  0.178  0.176  0.990
 
band   6 # energy    8.70405204 # occ.  0.60044603
 
ion      s     py     pz     px    dxy    dyz    dz2    dxz    dx2    tot
  1  0.065  0.010  0.010  0.039  0.035  0.123  0.169  0.035  0.508  0.993
 
band   7 # energy   27.84046376 # occ.  0.00000000
 
ion      s     py     pz     px    dxy    dyz    dz2    dxz    dx2    tot
  1  0.000  0.116  0.116  0.000  0.181  0.000  0.342  0.181  0.114  1.050
 
band   8 # energy   29.41385514 # occ.  0.00000000
 
ion      s     py     pz     px    dxy    dyz    dz2    dxz    dx2    tot
  1  0.129  0.048  0.048  0.183  0.226  0.035  0.004  0.226  0.012  0.910
 
band   9 # energy   35.99688813 # occ.  0.00000000
 
ion      s     py     pz     px    dxy    dyz    dz2    dxz    dx2    tot
  1  0.000  0.054  0.054  0.000  0.241  0.000  0.199  0.241  0.066  0.856
 
band  10 # energy   37.35964413 # occ.  0.00000000
 
ion      s     py     pz     px    dxy    dyz    dz2    dxz    dx2    tot
  1  0.004  0.237  0.237  0.037  0.067  0.094  0.004  0.067  0.013  0.760
 
band  11 # energy   41.35291883 # occ.  0.00000000
 
ion      s     py     pz     px    dxy    dyz    dz2    dxz    dx2    tot
  1  0.105  0.008  0.008  0.052  0.130  0.520  0.017  0.130  0.052  1.023
 
band  12 # energy   46.59439243 # occ.  0.00000000
 
ion      s     py     pz     px    dxy    dyz    dz2    dxz    dx2    tot
  1  0.000  0.175  0.175  0.000  0.004  0.000  0.168  0.004  0.056  0.581
 

 k-point   12 :   -0.43750000 0.43750000 0.06250000     weight = 0.04687500

band   1 # energy    2.50640127 # occ.  1.00000000
 
ion      s     py     pz     px    dxy    dyz    dz2    dxz    dx2    tot
  1  0.189  0.000  0.000  0.021  0.472  0.000  0.316  0.000  0.001  0.998
 
band   2 # energy    4.57581607 # occ.  1.00000000
 
ion      s     py     pz     px    dxy    dyz    dz2    dxz    dx2    tot
  1  0.000  0.000  0.004  0.000  0.000  0.494  0.000  0.522  0.000  1.020
 
band   3 # energy    7.08494851 # occ.  1.00000000
 
ion      s     py     pz     px    dxy    dyz    dz2    dxz    dx2    tot
  1  0.026  0.124  0.000  0.134  0.001  0.000  0.086  0.000  0.603  0.974
 
band   4 # energy    7.88243921 # occ.  1.00000000
 
ion      s     py     pz     px    dxy    dyz    dz2    dxz    dx2    tot
  1  0.011  0.010  0.000  0.008  0.358  0.000  0.544  0.000  0.059  0.990
 
band   5 # energy    9.75941100 # occ.  0.06581355
 
ion      s     py     pz     px    dxy    dyz    dz2    dxz    dx2    tot
  1  0.000  0.000  0.003  0.000  0.000  0.512  0.000  0.478  0.000  0.994
 
band   6 # energy    9.92321646 # occ. -0.00192970
 
ion      s     py     pz     px    dxy    dyz    dz2    dxz    dx2    tot
  1  0.052  0.256  0.000  0.308  0.043  0.000  0.007  0.000  0.335  1.001
 
band   7 # energy   19.89212188 # occ.  0.00000000
 
ion      s     py     pz     px    dxy    dyz    dz2    dxz    dx2    tot
  1  0.363  0.086  0.000  0.019  0.473  0.000  0.152  0.000  0.004  1.097
 
band   8 # energy   29.62943941 # occ.  0.00000000
 
ion      s     py     pz     px    dxy    dyz    dz2    dxz    dx2    tot
  1  0.021  0.103  0.000  0.127  0.005  0.000  0.087  0.000  0.013  0.356
 
band   9 # energy   32.48718251 # occ.  0.00000000
 
ion      s     py     pz     px    dxy    dyz    dz2    dxz    dx2    tot
  1  0.000  0.000  0.623  0.000  0.000  0.093  0.000  0.327  0.000  1.042
 
band  10 # energy   38.23134430 # occ.  0.00000000
 
ion      s     py     pz     px    dxy    dyz    dz2    dxz    dx2    tot
  1  0.000  0.000  0.158  0.000  0.000  0.789  0.000  0.548  0.000  1.495
 
band  11 # energy   42.16994210 # occ.  0.00000000
 
ion      s     py     pz     px    dxy    dyz    dz2    dxz    dx2    tot