<?xml version="1.0" encoding="ISO-8859-1"?>
<modeling>
 <generator>
  <i name="program" type="string">vasp </i>
  <i name="version" type="string">5.4.1  </i>
  <i name="subversion" type="string">24Jun15 (build Jul 19 2016 16:50:41) complex                          parallel </i>
  <i name="platform" type="string">IFC91_ompi </i>
  <i name="date" type="string">2019 10 17 </i>
  <i name="time" type="string">11:44:39 </i>
 </generator>
 <incar>
  <i type="string" name="SYSTEM"> Fe BCC</i>
  <i type="string" name="PREC">accurate</i>
  <i type="int" name="ISPIN">     2</i>
  <i name="EDIFF">      0.00000100</i>
  <i name="ENMAX">    400.00000000</i>
  <v name="MAGMOM">      4.00000000</v>
  <i type="int" name="ISMEAR">    -5</i>
  <i type="logical" name="LORBIT"> F  </i>
  <v type="int" name="KPOINT_BSE">    -1     0     0     0</v>
 </incar>
 <kpoints>
  <generation param="Monkhorst-Pack">
   <v type="int" name="divisions">       8        8        8 </v>
   <v name="usershift">      0.00000000       0.00000000       0.00000000 </v>
   <v name="genvec1">      0.12500000       0.00000000       0.00000000 </v>
   <v name="genvec2">      0.00000000       0.12500000       0.00000000 </v>
   <v name="genvec3">      0.00000000       0.00000000       0.12500000 </v>
   <v name="shift">      0.50000000       0.50000000       0.50000000 </v>
  </generation>
  <varray name="kpointlist" >
   <v>       0.06250000       0.06250000       0.06250000 </v>
   <v>       0.18750000       0.06250000       0.06250000 </v>
   <v>       0.31250000       0.06250000       0.06250000 </v>
   <v>       0.43750000       0.06250000       0.06250000 </v>
   <v>      -0.06250000       0.06250000       0.06250000 </v>
   <v>       0.18750000       0.18750000       0.06250000 </v>
   <v>       0.31250000       0.18750000       0.06250000 </v>
   <v>      -0.18750000       0.18750000       0.06250000 </v>
   <v>       0.31250000       0.31250000       0.06250000 </v>
   <v>      -0.31250000       0.31250000       0.06250000 </v>
   <v>      -0.18750000       0.31250000       0.06250000 </v>
   <v>      -0.43750000       0.43750000       0.06250000 </v>
   <v>      -0.31250000       0.43750000       0.06250000 </v>
   <v>      -0.43750000      -0.43750000       0.06250000 </v>
   <v>      -0.31250000      -0.43750000       0.06250000 </v>
   <v>       0.18750000       0.18750000       0.18750000 </v>
   <v>       0.31250000       0.18750000       0.18750000 </v>
   <v>      -0.18750000       0.18750000       0.18750000 </v>
   <v>      -0.31250000       0.31250000       0.18750000 </v>
   <v>      -0.43750000       0.43750000       0.18750000 </v>
   <v>      -0.31250000       0.43750000       0.18750000 </v>
   <v>      -0.43750000      -0.43750000       0.18750000 </v>
   <v>      -0.31250000       0.31250000       0.31250000 </v>
   <v>      -0.43750000       0.43750000       0.31250000 </v>
   <v>      -0.43750000      -0.43750000       0.31250000 </v>
   <v>      -0.43750000       0.43750000       0.43750000 </v>
  </varray>
  <varray name="weights" >
   <v>       0.01562500 </v>
   <v>       0.04687500 </v>
   <v>       0.04687500 </v>
   <v>       0.02343750 </v>
   <v>       0.01171875 </v>
   <v>       0.04687500 </v>
   <v>       0.09375000 </v>
   <v>       0.04687500 </v>
   <v>       0.01562500 </v>
   <v>       0.04687500 </v>
   <v>       0.04687500 </v>
   <v>       0.04687500 </v>
   <v>       0.09375000 </v>
   <v>       0.04687500 </v>
   <v>       0.04687500 </v>
   <v>       0.01562500 </v>
   <v>       0.02343750 </v>
   <v>       0.01171875 </v>
   <v>       0.04687500 </v>
   <v>       0.04687500 </v>
   <v>       0.04687500 </v>
   <v>       0.04687500 </v>
   <v>       0.01171875 </v>
   <v>       0.04687500 </v>
   <v>       0.01562500 </v>
   <v>       0.01171875 </v>
  </varray>
  <varray name="tetrahedronlist"  type="int" >
   <v type="int" >        4        1        2        2        6 </v>
   <v type="int" >        8        2        2        6        6 </v>
   <v type="int" >        4        2        6        6       16 </v>
   <v type="int" >        4        2        3        6        7 </v>
   <v type="int" >        4        2        6        6        7 </v>
   <v type="int" >       12        6        6        7       16 </v>
   <v type="int" >        8        3        6        7        7 </v>
   <v type="int" >        8        6        7        7       17 </v>
   <v type="int" >        8        6        7       16       17 </v>
   <v type="int" >        4        3        4        7        7 </v>
   <v type="int" >        4        3        7        7        7 </v>
   <v type="int" >       16        7        7        7       17 </v>
   <v type="int" >        8        4        7        7        7 </v>
   <v type="int" >        4        7        7        7       16 </v>
   <v type="int" >       20        7        7       16       17 </v>
   <v type="int" >        4        3        4        6        7 </v>
   <v type="int" >        4        4        6        7        7 </v>
   <v type="int" >       16        6        7        7       16 </v>
   <v type="int" >        8        3        6        6        7 </v>
   <v type="int" >        4        6        6        6        7 </v>
   <v type="int" >        4        2        2        3        6 </v>
   <v type="int" >        8        2        3        6        6 </v>
   <v type="int" >        4        2        6        6        6 </v>
   <v type="int" >        4        2        2        2        6 </v>
   <v type="int" >        8        2        2        6       11 </v>
   <v type="int" >        4        2        6        6       11 </v>
   <v type="int" >       16        1        2        2        8 </v>
   <v type="int" >        4        2        2        2        8 </v>
   <v type="int" >       12        2        2        8       11 </v>
   <v type="int" >       16        1        2        8        8 </v>
   <v type="int" >        4        2        8        8       18 </v>
   <v type="int" >        4        2        8       11       18 </v>
   <v type="int" >       20        1        5        8        8 </v>
   <v type="int" >        4        1        8        8        8 </v>
   <v type="int" >        4        8        8        8       18 </v>
   <v type="int" >        8        5        8        8        8 </v>
   <v type="int" >        4        8        8        8       11 </v>
   <v type="int" >        4        8        8       11       18 </v>
   <v type="int" >        8        1        2        5        8 </v>
   <v type="int" >        8        2        5        8        8 </v>
   <v type="int" >        8        2        8        8       11 </v>
   <v type="int" >        4        2        2        6        8 </v>
   <v type="int" >        4        2        6        8       11 </v>
   <v type="int" >        4        6        7        9       16 </v>
   <v type="int" >       16        7        9       16       17 </v>
   <v type="int" >       12        9       16       17       17 </v>
   <v type="int" >       20        7        7        9       17 </v>
   <v type="int" >       12        7        9       17       17 </v>
   <v type="int" >        8        7        7       17       17 </v>
   <v type="int" >       12        3        6        7       16 </v>
   <v type="int" >        8        3        7        7       16 </v>
   <v type="int" >        8        3        6        6       16 </v>
   <v type="int" >        4        3        6       13       16 </v>
   <v type="int" >        4        3        7       13       16 </v>
   <v type="int" >        4        2        6        6       10 </v>
   <v type="int" >        4        3        6        6       10 </v>
   <v type="int" >        8        3        6       10       13 </v>
   <v type="int" >       12        2        6       10       11 </v>
   <v type="int" >        4        6       10       11       19 </v>
   <v type="int" >        4        6       10       13       19 </v>
   <v type="int" >        4        2        8       11       11 </v>
   <v type="int" >        4        2       10       11       11 </v>
   <v type="int" >        4       10       11       11       19 </v>
   <v type="int" >        8        8       11       11       18 </v>
   <v type="int" >        8       11       11       18       19 </v>
   <v type="int" >        4       11       11       19       19 </v>
   <v type="int" >        4        8        8       10       18 </v>
   <v type="int" >       12        8       10       11       18 </v>
   <v type="int" >       12       10       11       18       19 </v>
   <v type="int" >        4       10       11       13       18 </v>
   <v type="int" >        4       10       13       18       19 </v>
   <v type="int" >        4        2        3        8       11 </v>
   <v type="int" >        4        3        8       10       11 </v>
   <v type="int" >        8        3       10       11       13 </v>
   <v type="int" >       16        2        3        6       11 </v>
   <v type="int" >        4        3        6        7       11 </v>
   <v type="int" >        4        3        7       11       13 </v>
   <v type="int" >        4        4        7        9       17 </v>
   <v type="int" >        8        4        7        7       17 </v>
   <v type="int" >        4        4        7       14       17 </v>
   <v type="int" >        4        3        7        7       12 </v>
   <v type="int" >        8        4        7        7       12 </v>
   <v type="int" >        8        4        7       12       14 </v>
   <v type="int" >        8        3        7       12       13 </v>
   <v type="int" >        4        7       12       13       20 </v>
   <v type="int" >        4        7       12       14       20 </v>
   <v type="int" >        4        3       10       13       13 </v>
   <v type="int" >        4        3       12       13       13 </v>
   <v type="int" >        4       12       13       13       20 </v>
   <v type="int" >        8       10       13       13       19 </v>
   <v type="int" >       12       13       13       19       21 </v>
   <v type="int" >        4       13       13       20       21 </v>
   <v type="int" >        8       10       11       13       19 </v>
   <v type="int" >        8       11       13       19       19 </v>
   <v type="int" >        4       13       19       19       20 </v>
   <v type="int" >        8       13       19       20       21 </v>
   <v type="int" >        4       10       11       12       19 </v>
   <v type="int" >        4       11       12       13       19 </v>
   <v type="int" >        8       12       13       19       20 </v>
   <v type="int" >        8       10       12       13       19 </v>
   <v type="int" >        4       12       13       14       19 </v>
   <v type="int" >        4       12       14       19       20 </v>
   <v type="int" >        4        3        4       10       13 </v>
   <v type="int" >        4        4       10       12       13 </v>
   <v type="int" >       12        4       12       13       14 </v>
   <v type="int" >       12        3        4        7       13 </v>
   <v type="int" >        8        4        7        7       13 </v>
   <v type="int" >       12        4        7       13       14 </v>
   <v type="int" >        4        4       12       14       14 </v>
   <v type="int" >        4       12       14       14       20 </v>
   <v type="int" >        4       14       14       20       22 </v>
   <v type="int" >        4       12       13       15       20 </v>
   <v type="int" >        4       12       14       15       20 </v>
   <v type="int" >        8       14       15       20       22 </v>
   <v type="int" >       12       13       15       20       21 </v>
   <v type="int" >       12       15       20       21       22 </v>
   <v type="int" >        4       15       20       22       22 </v>
   <v type="int" >        4       13       13       14       21 </v>
   <v type="int" >       12       13       14       15       21 </v>
   <v type="int" >       16       14       15       21       22 </v>
   <v type="int" >        8       13       14       20       21 </v>
   <v type="int" >        4       14       20       20       21 </v>
   <v type="int" >       12       14       20       21       22 </v>
   <v type="int" >        4       12       12       13       20 </v>
   <v type="int" >        8       12       13       14       20 </v>
   <v type="int" >        8       12       14       20       20 </v>
   <v type="int" >        8       12       12       14       20 </v>
   <v type="int" >        4       12       13       20       20 </v>
   <v type="int" >       16        3        4       12       14 </v>
   <v type="int" >        8        3       12       12       14 </v>
   <v type="int" >        8        3       12       13       14 </v>
   <v type="int" >       16        3        4        7       14 </v>
   <v type="int" >        4        3        6        7       14 </v>
   <v type="int" >        4        3        6       13       14 </v>
   <v type="int" >        8       14       15       15       22 </v>
   <v type="int" >        8       15       15       22       22 </v>
   <v type="int" >        8       15       21       22       22 </v>
   <v type="int" >       12       13       14       15       22 </v>
   <v type="int" >        4       13       15       15       22 </v>
   <v type="int" >        8       13       15       21       22 </v>
   <v type="int" >       12       13       14       20       22 </v>
   <v type="int" >        4       13       19       20       22 </v>
   <v type="int" >        4       13       19       21       22 </v>
   <v type="int" >        4       10       12       14       20 </v>
   <v type="int" >        4       10       13       14       20 </v>
   <v type="int" >        8       10       13       19       20 </v>
   <v type="int" >        8       10       12       13       20 </v>
   <v type="int" >        4       10       11       13       20 </v>
   <v type="int" >        4       10       11       19       20 </v>
   <v type="int" >        4        2        3       12       13 </v>
   <v type="int" >        4        2       10       12       13 </v>
   <v type="int" >        8        2       10       11       13 </v>
   <v type="int" >       12        2        3        6       13 </v>
   <v type="int" >        4        2        2        6       13 </v>
   <v type="int" >        4        2        2       11       13 </v>
   <v type="int" >        4       11       13       15       21 </v>
   <v type="int" >        8       11       13       19       21 </v>
   <v type="int" >        4       11       18       19       21 </v>
   <v type="int" >        4        8       10       13       19 </v>
   <v type="int" >        4        8       11       13       19 </v>
   <v type="int" >        8        8       11       18       19 </v>
   <v type="int" >        8        8       10       11       19 </v>
   <v type="int" >        4        8        8       11       19 </v>
   <v type="int" >        4        8        8       18       19 </v>
   <v type="int" >        4        1        2       10       11 </v>
   <v type="int" >        4        1        8       10       11 </v>
   <v type="int" >        8        1        8        8       11 </v>
   <v type="int" >        8        1        2        2       11 </v>
   <v type="int" >       12        1        2        8       11 </v>
   <v type="int" >        4        5        8       11       18 </v>
   <v type="int" >        4        5        8        8       18 </v>
   <v type="int" >        4        1        5        8       18 </v>
   <v type="int" >        4        5        5        8        8 </v>
   <v type="int" >       12        1        5        5        8 </v>
   <v type="int" >        6        1        1        5        5 </v>
   <v type="int" >        8        1        1        5        8 </v>
   <v type="int" >        4        1        1        2        8 </v>
   <v type="int" >        4        2        3        6       16 </v>
   <v type="int" >        4        3        7       16       17 </v>
   <v type="int" >       12        7       16       17       17 </v>
   <v type="int" >        8        7       17       17       17 </v>
   <v type="int" >       12        7        7        9       16 </v>
   <v type="int" >        4        6        6        7        7 </v>
   <v type="int" >       16        3        6        7       13 </v>
   <v type="int" >       12        6        7        7       13 </v>
   <v type="int" >        4        3        6        6       11 </v>
   <v type="int" >       12        3        6       11       13 </v>
   <v type="int" >       12        2        3       10       11 </v>
   <v type="int" >        4        3       10       11       19 </v>
   <v type="int" >        4        3       11       13       19 </v>
   <v type="int" >        4        2        8       10       18 </v>
   <v type="int" >        4        2       10       11       18 </v>
   <v type="int" >        4       10       18       19       19 </v>
   <v type="int" >        4        8        8       11       11 </v>
   <v type="int" >        4        8       10       11       11 </v>
   <v type="int" >        4       10       11       11       13 </v>
   <v type="int" >        4       11       11       13       19 </v>
   <v type="int" >        4        2        6        8       10 </v>
   <v type="int" >        4        6        8       10       11 </v>
   <v type="int" >       12        6       10       11       13 </v>
   <v type="int" >        8        2        3        6       10 </v>
   <v type="int" >        4        3        6        7       10 </v>
   <v type="int" >        4        6        7       10       13 </v>
   <v type="int" >        4       16       17       17       17 </v>
   <v type="int" >        4       17       17       17       17 </v>
   <v type="int" >        4        9       17       17       17 </v>
   <v type="int" >        8        7        7       15       17 </v>
   <v type="int" >        8        7        9       15       17 </v>
   <v type="int" >        4        6        7       13       16 </v>
   <v type="int" >        4        7        7       13       16 </v>
   <v type="int" >       12        7        7       13       15 </v>
   <v type="int" >        8        6        7       13       13 </v>
   <v type="int" >        4        7       13       13       21 </v>
   <v type="int" >        4        7       13       15       21 </v>
   <v type="int" >        4        6       11       13       19 </v>
   <v type="int" >        4        6       13       13       19 </v>
   <v type="int" >        4       13       19       19       23 </v>
   <v type="int" >        4       13       19       21       23 </v>
   <v type="int" >        4       11       18       19       19 </v>
   <v type="int" >        4       11       19       19       19 </v>
   <v type="int" >        4       19       19       19       23 </v>
   <v type="int" >        4       18       19       19       19 </v>
   <v type="int" >        4       19       19       19       21 </v>
   <v type="int" >        4       19       19       21       23 </v>
   <v type="int" >        4       11       13       18       19 </v>
   <v type="int" >        4       13       18       19       19 </v>
   <v type="int" >        8       13       19       19       21 </v>
   <v type="int" >       12       11       13       13       19 </v>
   <v type="int" >        4       13       13       15       19 </v>
   <v type="int" >        4       13       15       19       21 </v>
   <v type="int" >        4        6        7       11       13 </v>
   <v type="int" >        4        7       11       13       13 </v>
   <v type="int" >        8        7       13       13       15 </v>
   <v type="int" >        4        7        7        9       13 </v>
   <v type="int" >        4        7        9       13       15 </v>
   <v type="int" >        4        7        9       14       17 </v>
   <v type="int" >       12        7        9       14       15 </v>
   <v type="int" >        4        9       14       15       22 </v>
   <v type="int" >        4        7       13       15       20 </v>
   <v type="int" >        4        7       14       15       20 </v>
   <v type="int" >        4       15       20       21       24 </v>
   <v type="int" >        4       15       20       22       24 </v>
   <v type="int" >        4       13       19       21       21 </v>
   <v type="int" >        4       13       20       21       21 </v>
   <v type="int" >        4       20       21       21       24 </v>
   <v type="int" >        8       19       21       21       23 </v>
   <v type="int" >        8       21       21       23       24 </v>
   <v type="int" >        4       21       21       24       24 </v>
   <v type="int" >        4       19       19       20       23 </v>
   <v type="int" >       12       19       20       21       23 </v>
   <v type="int" >       12       20       21       23       24 </v>
   <v type="int" >        4       20       21       22       23 </v>
   <v type="int" >        4       20       22       23       24 </v>
   <v type="int" >        4       13       14       19       21 </v>
   <v type="int" >        4       14       19       20       21 </v>
   <v type="int" >        4       14       15       15       21 </v>
   <v type="int" >       16        7       13       14       15 </v>
   <v type="int" >        8        7       14       15       15 </v>
   <v type="int" >       16        7        7        9       15 </v>
   <v type="int" >        4        7        7       15       15 </v>
   <v type="int" >        4       14       20       22       22 </v>
   <v type="int" >        8       20       22       22       24 </v>
   <v type="int" >       16       22       22       24       25 </v>
   <v type="int" >       16       20       21       22       24 </v>
   <v type="int" >        8       21       22       24       24 </v>
   <v type="int" >        4       22       24       24       24 </v>
   <v type="int" >       16       22       24       24       25 </v>
   <v type="int" >        4       20       20       21       24 </v>
   <v type="int" >       12       20       22       24       24 </v>
   <v type="int" >        8       20       20       22       24 </v>
   <v type="int" >        4       20       21       24       24 </v>
   <v type="int" >        4       13       20       20       22 </v>
   <v type="int" >        8       13       20       21       22 </v>
   <v type="int" >        4       13       13       15       22 </v>
   <v type="int" >        4       13       13       21       22 </v>
   <v type="int" >        4        6        7       14       15 </v>
   <v type="int" >        4        6       13       14       15 </v>
   <v type="int" >        4        6       13       13       15 </v>
   <v type="int" >        4        6        7        7       15 </v>
   <v type="int" >        4        3        6        7       15 </v>
   <v type="int" >        4        3        6       13       15 </v>
   <v type="int" >        8       21       22       22       25 </v>
   <v type="int" >       12       21       22       24       25 </v>
   <v type="int" >        4       21       23       24       25 </v>
   <v type="int" >        4       19       20       22       24 </v>
   <v type="int" >        4       19       21       22       24 </v>
   <v type="int" >        8       19       21       23       24 </v>
   <v type="int" >        8       19       20       21       24 </v>
   <v type="int" >        4       19       19       21       24 </v>
   <v type="int" >        4       19       19       23       24 </v>
   <v type="int" >        4       11       13       20       21 </v>
   <v type="int" >        4       11       19       20       21 </v>
   <v type="int" >        4       11       19       19       21 </v>
   <v type="int" >        4       11       13       13       21 </v>
   <v type="int" >        4       10       11       13       21 </v>
   <v type="int" >        4       10       11       19       21 </v>
   <v type="int" >        4        2        6       13       13 </v>
   <v type="int" >        4        2       11       13       13 </v>
   <v type="int" >       12        2        3       10       13 </v>
   <v type="int" >        4        2       10       10       13 </v>
   <v type="int" >        4       18       19       21       23 </v>
   <v type="int" >        4       18       19       19       23 </v>
   <v type="int" >        4       11       18       19       23 </v>
   <v type="int" >        4        8       11       19       19 </v>
   <v type="int" >        4        8       18       19       19 </v>
   <v type="int" >        4        2        8       10       19 </v>
   <v type="int" >        4        2        8       11       19 </v>
   <v type="int" >       16        2        8       10       11 </v>
   <v type="int" >        4        8        8       10       11 </v>
   <v type="int" >       12        2        8        8       10 </v>
   <v type="int" >        8        2        8       10       10 </v>
   <v type="int" >        4        8       10       10       11 </v>
   <v type="int" >        4        1        8       11       18 </v>
   <v type="int" >        4        2        8        8        8 </v>
   <v type="int" >        8        2        2        8       10 </v>
   <v type="int" >        4        2        2        3       10 </v>
   <v type="int" >        4        3        4        7       17 </v>
   <v type="int" >        4        4        7       16       17 </v>
   <v type="int" >        4        7        7        7        9 </v>
   <v type="int" >        4        4        7        7       14 </v>
   <v type="int" >        4        7        7        7       14 </v>
   <v type="int" >       12        3        4       12       13 </v>
   <v type="int" >        4        4       12       13       20 </v>
   <v type="int" >        4        4       13       14       20 </v>
   <v type="int" >        4        3       10       12       19 </v>
   <v type="int" >        4        3       12       13       19 </v>
   <v type="int" >        4       12       13       19       21 </v>
   <v type="int" >        4       12       19       20       21 </v>
   <v type="int" >        4       10       13       19       19 </v>
   <v type="int" >        8       13       13       19       20 </v>
   <v type="int" >        4       10       11       13       13 </v>
   <v type="int" >        4       10       12       13       13 </v>
   <v type="int" >        4       12       13       13       14 </v>
   <v type="int" >        4       13       13       14       20 </v>
   <v type="int" >        4        3        7       10       12 </v>
   <v type="int" >        4        7       10       12       13 </v>
   <v type="int" >        8        7       12       13       14 </v>
   <v type="int" >        8        3        4        7       12 </v>
   <v type="int" >        4        7        7       12       14 </v>
   <v type="int" >        4        7        9       15       16 </v>
   <v type="int" >       12        7        9       15       15 </v>
   <v type="int" >        8        7        7       14       15 </v>
   <v type="int" >        4        7       14       15       22 </v>
   <v type="int" >        4        7       15       15       22 </v>
   <v type="int" >        4        7       13       14       21 </v>
   <v type="int" >        4        7       14       15       21 </v>
   <v type="int" >        4       14       20       21       24 </v>
   <v type="int" >        4       14       21       22       24 </v>
   <v type="int" >        4       13       19       20       23 </v>
   <v type="int" >        4       13       20       21       23 </v>
   <v type="int" >        4       20       23       24       24 </v>
   <v type="int" >        4       19       19       21       21 </v>
   <v type="int" >        4       19       20       21       21 </v>
   <v type="int" >        4       20       21       21       22 </v>
   <v type="int" >        4       21       21       22       24 </v>
   <v type="int" >        4       13       15       19       20 </v>
   <v type="int" >        4       15       19       20       21 </v>
   <v type="int" >        8       13       14       15       20 </v>
   <v type="int" >        4       14       15       15       20 </v>
   <v type="int" >        4       15       15       20       22 </v>
   <v type="int" >        4        7        9       13       14 </v>
   <v type="int" >        4        9       13       14       15 </v>
   <v type="int" >        8        9       14       15       15 </v>
   <v type="int" >        8        7        7        9       14 </v>
   <v type="int" >        4        9       15       15       22 </v>
   <v type="int" >        4       15       22       22       25 </v>
   <v type="int" >        4       15       21       22       24 </v>
   <v type="int" >        4       15       22       22       24 </v>
   <v type="int" >        8       22       24       24       26 </v>
   <v type="int" >        8       22       24       25       26 </v>
   <v type="int" >        4       21       23       24       24 </v>
   <v type="int" >        4       21       24       24       24 </v>
   <v type="int" >        8       24       24       24       26 </v>
   <v type="int" >        4       23       24       24       24 </v>
   <v type="int" >        4       24       24       24       25 </v>
   <v type="int" >       20       24       24       25       26 </v>
   <v type="int" >        4       21       22       23       24 </v>
   <v type="int" >        4       22       23       24       24 </v>
   <v type="int" >       12       21       22       22       24 </v>
   <v type="int" >        4       22       22       22       24 </v>
   <v type="int" >        4       15       15       21       22 </v>
   <v type="int" >        4       15       22       22       22 </v>
   <v type="int" >        4       15       15       15       22 </v>
   <v type="int" >        4       14       15       22       22 </v>
   <v type="int" >        4        7       15       15       15 </v>
   <v type="int" >        4        4        7        7       15 </v>
   <v type="int" >        4        4        7       14       15 </v>
   <v type="int" >        4       22       24       25       25 </v>
   <v type="int" >        8       24       25       25       26 </v>
   <v type="int" >        6       25       25       26       26 </v>
   <v type="int" >       12       24       25       26       26 </v>
   <v type="int" >        4       24       24       26       26 </v>
   <v type="int" >        8       21       24       24       25 </v>
   <v type="int" >        4       20       21       22       25 </v>
   <v type="int" >        4       20       21       24       25 </v>
   <v type="int" >        4       13       15       22       22 </v>
   <v type="int" >        4       13       21       22       22 </v>
   <v type="int" >        4       12       13       14       22 </v>
   <v type="int" >        4       12       13       20       22 </v>
   <v type="int" >        4        3        7       14       15 </v>
   <v type="int" >        4        3       13       14       15 </v>
   <v type="int" >        4       23       24       25       26 </v>
   <v type="int" >        4       23       24       24       26 </v>
   <v type="int" >        4       21       23       24       26 </v>
   <v type="int" >        4       19       21       24       24 </v>
   <v type="int" >        4       19       23       24       24 </v>
   <v type="int" >        4       13       19       20       24 </v>
   <v type="int" >        4       13       19       21       24 </v>
   <v type="int" >        4       10       13       20       21 </v>
   <v type="int" >        4       10       19       20       21 </v>
   <v type="int" >        4        3       10       12       20 </v>
   <v type="int" >        4        3       10       13       20 </v>
   <v type="int" >        8        3       10       12       13 </v>
   <v type="int" >        4       10       10       12       13 </v>
   <v type="int" >        8        3       10       10       12 </v>
   <v type="int" >        8        3       10       12       12 </v>
   <v type="int" >        4       10       12       12       13 </v>
   <v type="int" >        4       11       19       21       23 </v>
   <v type="int" >        4        6       11       13       21 </v>
   <v type="int" >        4        2       10       13       19 </v>
   <v type="int" >        4        2       11       13       19 </v>
   <v type="int" >        8        2        6       11       13 </v>
   <v type="int" >        4        2        6        6       13 </v>
   <v type="int" >        4        3       10       10       11 </v>
   <v type="int" >        4        3       11       13       13 </v>
   <v type="int" >        4        2        2        6       10 </v>
   <v type="int" >        4        6       10       12       13 </v>
   <v type="int" >        4        3        6       10       12 </v>
   <v type="int" >        4        2        3        3       10 </v>
   <v type="int" >        4        3        3       10       12 </v>
   <v type="int" >        4        3        3        4       12 </v>
   <v type="int" >        4        3        4        7       16 </v>
   <v type="int" >        4        6        7        7        7 </v>
   <v type="int" >        4        6        6        7       13 </v>
   <v type="int" >        8        3        7        7       14 </v>
   <v type="int" >        8        3        7       13       14 </v>
   <v type="int" >        4        3       12       14       20 </v>
   <v type="int" >        4        3       13       14       20 </v>
   <v type="int" >        4        4       12       12       20 </v>
   <v type="int" >        4        4       12       14       20 </v>
   <v type="int" >        4       12       14       20       22 </v>
   <v type="int" >        4       12       20       20       22 </v>
   <v type="int" >        4       12       13       14       21 </v>
   <v type="int" >        4       12       14       20       21 </v>
   <v type="int" >        4       14       21       22       22 </v>
   <v type="int" >        4       13       13       15       20 </v>
   <v type="int" >        4       14       15       20       20 </v>
   <v type="int" >        4       15       20       20       22 </v>
   <v type="int" >        4       12       13       14       14 </v>
   <v type="int" >        4       13       14       14       20 </v>
   <v type="int" >        2       14       14       20       20 </v>
   <v type="int" >        2       12       12       14       14 </v>
   <v type="int" >        8        4        7       12       12 </v>
   <v type="int" >        4        7       12       12       14 </v>
   <v type="int" >        4        3        6        7       12 </v>
   <v type="int" >        4        6        7       12       13 </v>
   <v type="int" >        4        6        7       15       16 </v>
   <v type="int" >        8        6        7       13       15 </v>
   <v type="int" >        4        6       13       15       21 </v>
   <v type="int" >        4        7       13       14       22 </v>
   <v type="int" >        4        7       13       15       22 </v>
   <v type="int" >        4       13       20       22       24 </v>
   <v type="int" >        4       13       21       22       24 </v>
   <v type="int" >        4       14       20       20       24 </v>
   <v type="int" >        4       14       20       22       24 </v>
   <v type="int" >        4       20       22       24       25 </v>
   <v type="int" >        4       20       24       24       25 </v>
   <v type="int" >        6       22       22       24       24 </v>
   <v type="int" >        4       20       21       22       22 </v>
   <v type="int" >        2       20       20       22       22 </v>
   <v type="int" >        4        7        7       13       14 </v>
   <v type="int" >        4        3        7       13       13 </v>
   <v type="int" >        4       15       21       22       25 </v>
   <v type="int" >        4       21       24       25       26 </v>
   <v type="int" >        4       24       26       26       26 </v>
   <v type="int" >        6       24       24       25       25 </v>
   <v type="int" >        4        4        7       13       15 </v>
   <v type="int" >        4        4       13       14       15 </v>
   <v type="int" >        8        4       12       12       13 </v>
   <v type="int" >        4       25       26       26       26 </v>
   <v type="int" >        2       26       26       26       26 </v>
   <v type="int" >        4        4       12       12       14 </v>
   <v type="int" >        4       12       12       12       14 </v>
   <v type="int" >        8        4       12       12       12 </v>
   <v type="int" >        4        3        4        4       12 </v>
   <v type="int" >        4        4        4       12       12 </v>
   <v type="int" >        4        1        5        8       11 </v>
   <v type="int" >        4        1        2        6       11 </v>
   <v type="int" >        4        2        8       10       13 </v>
   <v type="int" >        4        2        8       11       13 </v>
   <v type="int" >        4        2        3        7       13 </v>
   <v type="int" >        4        2        6        7       13 </v>
   <v type="int" >        4        3       10       12       14 </v>
   <v type="int" >        4        3       10       13       14 </v>
   <v type="int" >        4        3        4        6       13 </v>
   <v type="int" >        4        4        6        7       13 </v>
   <v type="int" >        4        3       10       11       12 </v>
   <v type="int" >        4        3       11       12       13 </v>
   <v type="int" >        4        2        2        3       11 </v>
   <v type="int" >        6        2        2        8        8 </v>
   <v type="int" >        6        1        1        8        8 </v>
   <v type="int" >        4        5        5        5        8 </v>
   <v type="int" >        4        6       11       13       15 </v>
   <v type="int" >        4        6        7        9       15 </v>
   <v type="int" >        4        7       13       15       15 </v>
   <v type="int" >        4        7        7        7       15 </v>
   <v type="int" >        4        7       13       13       14 </v>
   <v type="int" >        4        3        7        7       13 </v>
   <v type="int" >        4        6       10       13       13 </v>
   <v type="int" >        4        2        6       10       10 </v>
   <v type="int" >        4        3        6       10       10 </v>
   <v type="int" >        4        2        2       10       11 </v>
   <v type="int" >        2        2        2       10       10 </v>
   <v type="int" >        4        1        8        8       10 </v>
   <v type="int" >        4        1        2        8       10 </v>
   <v type="int" >        4        2        3        8       10 </v>
   <v type="int" >        4        3        8       10       10 </v>
   <v type="int" >        4        4        7        9       14 </v>
   <v type="int" >        4        7       12       13       15 </v>
   <v type="int" >        4        7       12       14       15 </v>
   <v type="int" >        4        3        7       12       12 </v>
   <v type="int" >        4        3        3       10       13 </v>
   <v type="int" >        4        3        3       12       13 </v>
   <v type="int" >        2        3        3       12       12 </v>
   <v type="int" >        2        3        3       10       10 </v>
   <v type="int" >        4        2       10       10       12 </v>
   <v type="int" >        4        2        3       10       12 </v>
   <v type="int" >        4        3        4       10       12 </v>
   <v type="int" >        4        4       10       12       12 </v>
   <v type="int" >        4        4        4       12       14 </v>
   <v type="int" >        4        3       12       12       12 </v>
   <v type="int" >        4        3        4       12       12 </v>
   <v type="int" >        4        1        5        5        5 </v>
   <v type="int" >        2        5        5        5        5 </v>
  </varray>
  <i name="volumeweight">      0.00032552 </i>
 </kpoints>
 <parameters>
  <separator name="general" >
   <i type="string" name="SYSTEM">Fe BCC</i>
   <i type="logical" name="LCOMPAT"> F  </i>
  </separator>
  <separator name="electronic" >
   <i type="string" name="PREC">accura</i>
   <i name="ENMAX">    400.00000000</i>
   <i name="ENAUG">    511.36800000</i>
   <i name="EDIFF">      0.00000100</i>
   <i type="int" name="IALGO">    38</i>
   <i type="int" name="IWAVPR">    10</i>
   <i type="int" name="NBANDS">    12</i>
   <i name="NELECT">      8.00000000</i>
   <i type="int" name="TURBO">     0</i>
   <i type="int" name="IRESTART">     0</i>
   <i type="int" name="NREBOOT">     0</i>
   <i type="int" name="NMIN">     0</i>
   <i name="EREF">      0.00000000</i>
   <separator name="electronic smearing" >
    <i type="int" name="ISMEAR">    -5</i>
    <i name="SIGMA">      0.20000000</i>
    <i name="KSPACING">      0.50000000</i>
    <i type="logical" name="KGAMMA"> T  </i>
   </separator>
   <separator name="electronic projectors" >
    <i type="logical" name="LREAL"> F  </i>
    <v name="ROPT">      0.00000000</v>
    <i type="int" name="LMAXPAW">  -100</i>
    <i type="int" name="LMAXMIX">     2</i>
    <i type="logical" name="NLSPLINE"> F  </i>
   </separator>
   <separator name="electronic startup" >
    <i type="int" name="ISTART">     0</i>
    <i type="int" name="ICHARG">     2</i>
    <i type="int" name="INIWAV">     1</i>
   </separator>
   <separator name="electronic spin" >
    <i type="int" name="ISPIN">     2</i>
    <i type="logical" name="LNONCOLLINEAR"> F  </i>
    <v name="MAGMOM">      4.00000000</v>
    <i name="NUPDOWN">     -1.00000000</i>
    <i type="logical" name="LSORBIT"> F  </i>
    <v name="SAXIS">      0.00000000      0.00000000      1.00000000</v>
    <i type="logical" name="LSPIRAL"> F  </i>
    <v name="QSPIRAL">      0.00000000      0.00000000      0.00000000</v>
    <i type="logical" name="LZEROZ"> F  </i>
   </separator>
   <separator name="electronic exchange-correlation" >
    <i type="logical" name="LASPH"> F  </i>
    <i type="logical" name="LMETAGGA"> F  </i>
   </separator>
   <separator name="electronic convergence" >
    <i type="int" name="NELM">    60</i>
    <i type="int" name="NELMDL">    -5</i>
    <i type="int" name="NELMIN">     2</i>
    <i name="ENINI">    400.00000000</i>
    <separator name="electronic convergence detail" >
     <i type="logical" name="LDIAG"> T  </i>
     <i type="logical" name="LSUBROT"> F  </i>
     <i name="WEIMIN">      0.00000000</i>
     <i name="EBREAK">      0.00000002</i>
     <i name="DEPER">      0.30000000</i>
     <i type="int" name="NRMM">     4</i>
     <i name="TIME">      0.40000000</i>
    </separator>
   </separator>
   <separator name="electronic mixer" >
    <i name="AMIX">      0.40000000</i>
    <i name="BMIX">      1.00000000</i>
    <i name="AMIN">      0.10000000</i>
    <i name="AMIX_MAG">      1.60000000</i>
    <i name="BMIX_MAG">      1.00000000</i>
    <separator name="electronic mixer details" >
     <i type="int" name="IMIX">     4</i>
     <i type="logical" name="MIXFIRST"> F  </i>
     <i type="int" name="MAXMIX">   -45</i>
     <i name="WC">    100.00000000</i>
     <i type="int" name="INIMIX">     1</i>
     <i type="int" name="MIXPRE">     1</i>
     <i type="int" name="MREMOVE">     5</i>
    </separator>
   </separator>
   <separator name="electronic dipolcorrection" >
    <i type="logical" name="LDIPOL"> F  </i>
    <i type="logical" name="LMONO"> F  </i>
    <i type="int" name="IDIPOL">     0</i>
    <i name="EPSILON">      1.00000000</i>
    <v name="DIPOL">   -100.00000000   -100.00000000   -100.00000000</v>
    <i name="EFIELD">      0.00000000</i>
   </separator>
  </separator>
  <separator name="grids" >
   <i type="int" name="NGX">    16</i>
   <i type="int" name="NGY">    16</i>
   <i type="int" name="NGZ">    16</i>
   <i type="int" name="NGXF">    32</i>
   <i type="int" name="NGYF">    32</i>
   <i type="int" name="NGZF">    32</i>
   <i type="logical" name="ADDGRID"> F  </i>
  </separator>
  <separator name="ionic" >
   <i type="int" name="NSW">     0</i>
   <i type="int" name="IBRION">    -1</i>
   <i type="int" name="ISIF">     2</i>
   <i name="PSTRESS">      0.00000000</i>
   <i name="EDIFFG">      0.00001000</i>
   <i type="int" name="NFREE">     0</i>
   <i name="POTIM">      0.50000000</i>
   <i name="SMASS">     -3.00000000</i>
   <i name="SCALEE">      1.00000000</i>
  </separator>
  <separator name="ionic md" >
   <i name="TEBEG">      0.00010000</i>
   <i name="TEEND">      0.00010000</i>
   <i type="int" name="NBLOCK">     1</i>
   <i type="int" name="KBLOCK">     1</i>
   <i type="int" name="NPACO">   256</i>
   <i name="APACO">     16.00000000</i>
  </separator>
  <separator name="symmetry" >
   <i type="int" name="ISYM">     2</i>
   <i name="SYMPREC">      0.00001000</i>
  </separator>
  <separator name="dos" >
   <i type="logical" name="LORBIT"> F  </i>
   <v name="RWIGS">     -1.00000000</v>
   <i type="int" name="NEDOS">   301</i>
   <i name="EMIN">     10.00000000</i>
   <i name="EMAX">    -10.00000000</i>
   <i name="EFERMI">      0.00000000</i>
  </separator>
  <separator name="writing" >
   <i type="int" name="NWRITE">     2</i>
   <i type="logical" name="LWAVE"> T  </i>
   <i type="logical" name="LCHARG"> T  </i>
   <i type="logical" name="LPARD"> F  </i>
   <i type="logical" name="LVTOT"> F  </i>
   <i type="logical" name="LVHAR"> F  </i>
   <i type="logical" name="LELF"> F  </i>
   <i type="logical" name="LOPTICS"> F  </i>
   <v name="STM">      0.00000000      0.00000000      0.00000000      0.00000000      0.00000000      0.00000000      0.00000000</v>
  </separator>
  <separator name="performance" >
   <i type="int" name="NPAR">     4</i>
   <i type="int" name="NSIM">     4</i>
   <i type="int" name="NBLK">    -1</i>
   <i type="logical" name="LPLANE"> T  </i>
   <i type="logical" name="LSCALAPACK"> F  </i>
   <i type="logical" name="LSCAAWARE"> F  </i>
   <i type="logical" name="LSCALU"> F  </i>
   <i type="logical" name="LASYNC"> F  </i>
   <i type="logical" name="LORBITALREAL"> F  </i>
  </separator>
  <separator name="miscellaneous" >
   <i type="int" name="IDIOT">     3</i>
   <i type="logical" name="LMUSIC"> F  </i>
   <v name="POMASS">     55.84700000</v>
   <v name="DARWINR">      0.00000000</v>
   <v name="DARWINV">      1.00000000</v>
   <i type="logical" name="LCORR"> T  </i>
  </separator>
  <i type="logical" name="GGA_COMPAT"> T  </i>
  <i type="logical" name="LBERRY"> F  </i>
  <i type="int" name="ICORELEVEL">     0</i>
  <i type="logical" name="LDAU"> F  </i>
  <i type="int" name="I_CONSTRAINED_M">     0</i>
  <separator name="electronic exchange-correlation" >
   <i type="string" name="GGA">--</i>
   <i type="int" name="VOSKOWN">     0</i>
   <i type="logical" name="LHFCALC"> F  </i>
   <i type="string" name="PRECFOCK"></i>
   <i type="logical" name="LSYMGRAD"> F  </i>
   <i type="logical" name="LHFONE"> F  </i>
   <i type="logical" name="LRHFCALC"> F  </i>
   <i type="logical" name="LTHOMAS"> F  </i>
   <i type="logical" name="LMODELHF"> F  </i>
   <i name="ENCUT4O">     -1.00000000</i>
   <i type="int" name="EXXOEP">     0</i>
   <i type="int" name="FOURORBIT">     0</i>
   <i name="AEXX">      0.00000000</i>
   <i name="HFALPHA">      0.00000000</i>
   <i name="MCALPHA">      0.00000000</i>
   <i name="ALDAX">      1.00000000</i>
   <i name="AGGAX">      1.00000000</i>
   <i name="ALDAC">      1.00000000</i>
   <i name="AGGAC">      1.00000000</i>
   <i type="int" name="NKREDX">     1</i>
   <i type="int" name="NKREDY">     1</i>
   <i type="int" name="NKREDZ">     1</i>
   <i type="logical" name="SHIFTRED"> F  </i>
   <i type="logical" name="ODDONLY"> F  </i>
   <i type="logical" name="EVENONLY"> F  </i>
   <i type="int" name="LMAXFOCK">     0</i>
   <i type="int" name="NMAXFOCKAE">     0</i>
   <i type="logical" name="LFOCKAEDFT"> F  </i>
   <i name="HFSCREEN">      0.00000000</i>
   <i name="HFSCREENC">      0.00000000</i>
   <i type="int" name="NBANDSGWLOW">     0</i>
  </separator>
  <separator name="vdW DFT" >
   <i type="logical" name="LUSE_VDW"> F  </i>
   <i name="Zab_VDW">     -0.84910000</i>
   <i name="PARAM1">      0.12340000</i>
   <i name="PARAM2">      1.00000000</i>
   <i name="PARAM3">      0.00000000</i>
  </separator>
  <separator name="model GW" >
   <i type="int" name="MODEL_GW">     0</i>
   <i name="MODEL_EPS0">      5.27280000</i>
   <i name="MODEL_ALPHA">      1.00000000</i>
  </separator>
  <separator name="linear response parameters" >
   <i type="logical" name="LEPSILON"> F  </i>
   <i type="logical" name="LRPA"> F  </i>
   <i type="logical" name="LNABLA"> F  </i>
   <i type="logical" name="LVEL"> F  </i>
   <i type="int" name="KINTER">     0</i>
   <i name="CSHIFT">      0.10000000</i>
   <i name="OMEGAMAX">     -1.00000000</i>
   <i name="DEG_THRESHOLD">      0.00200000</i>
  </separator>
  <separator name="orbital magnetization" >
   <i type="logical" name="NUCIND"> F  </i>
   <v name="MAGPOS">      0.00000000      0.00000000      0.00000000</v>
   <i type="logical" name="LNICSALL"> T  </i>
   <i type="logical" name="ORBITALMAG"> F  </i>
   <i type="logical" name="LMAGBLOCH"> F  </i>
   <i type="logical" name="LCHIMAG"> F  </i>
   <i type="logical" name="LGAUGE"> T  </i>
   <i type="int" name="MAGATOM">     0</i>
   <v name="MAGDIPOL">      0.00000000      0.00000000      0.00000000</v>
   <v name="AVECCONST">      0.00000000      0.00000000      0.00000000</v>
  </separator>
  <separator name="response functions" >
   <i type="logical" name="LADDER"> F  </i>
   <i type="logical" name="LFXC"> F  </i>
   <i type="logical" name="LHARTREE"> T  </i>
   <i type="int" name="IBSE">     0</i>
   <v type="int" name="KPOINT">    -1     0     0     0</v>
   <i type="logical" name="LTCTE"> F  </i>
   <i type="logical" name="LTETE"> F  </i>
   <i type="logical" name="LTRIPLET"> F  </i>
   <i type="logical" name="LFXCEPS"> F  </i>
   <i type="logical" name="LFXHEG"> F  </i>
   <i type="int" name="NATURALO">     0</i>
   <i type="logical" name="L2ORDER"> F  </i>
   <i type="logical" name="LUSEW"> F  </i>
   <i name="ENCUTGW">     -2.00000000</i>
   <i name="ENCUTGWSOFT">     -2.00000000</i>
   <i name="ENCUTLF">     -1.00000000</i>
   <i type="int" name="LMAXMP2">    -1</i>
   <i name="SCISSOR">      0.00000000</i>
   <i type="int" name="NOMEGA">     0</i>
   <i type="int" name="NOMEGAR">     0</i>
   <i type="int" name="NBANDSGW">    -1</i>
   <i type="int" name="NBANDSO">    -1</i>
   <i type="int" name="NBANDSV">    -1</i>
   <i type="int" name="NELM">     1</i>
   <i type="int" name="NELMHF">     1</i>
   <i type="int" name="DIM">     3</i>
   <i type="int" name="ANTIRES">     0</i>
   <i name="OMEGAMAX">    -30.00000000</i>
   <i name="OMEGAMIN">    -30.00000000</i>
   <i name="OMEGATL">   -200.00000000</i>
   <i type="int" name="OMEGAGRID">     0</i>
   <i name="CSHIFT">     -0.10000000</i>
   <i type="logical" name="SELFENERGY"> F  </i>
   <i type="logical" name="LSPECTRAL"> F  </i>
   <i type="logical" name="LSPECTRALGW"> F  </i>
   <i type="logical" name="LSINGLES"> F  </i>
   <i type="logical" name="LFERMIGW"> F  </i>
   <i type="logical" name="ODDONLYGW"> F  </i>
   <i type="logical" name="EVENONLYGW"> F  </i>
   <i type="int" name="NKREDLFX">     1</i>
   <i type="int" name="NKREDLFY">     1</i>
   <i type="int" name="NKREDLFZ">     1</i>
   <i type="int" name="MAXMEM">  1800</i>
   <i type="int" name="TELESCOPE">     0</i>
   <i type="int" name="TAUPAR">     1</i>
   <i type="int" name="OMEGAPAR">    -1</i>
   <i name="LAMBDA">      1.00000000</i>
  </separator>
  <separator name="External order field" >
   <i name="OFIELD_KAPPA">      0.00000000</i>
   <v name="OFIELD_K">      0.00000000      0.00000000      0.00000000</v>
   <i name="OFIELD_Q6_NEAR">      0.00000000</i>
   <i name="OFIELD_Q6_FAR">      0.00000000</i>
   <i name="OFIELD_A">      0.00000000</i>
  </separator>
 </parameters>
 <atominfo>
  <atoms>       1 </atoms>
  <types>       1 </types>
  <array name="atoms" >
   <dimension dim="1">ion</dimension>
   <field type="string">element</field>
   <field type="int">atomtype</field>
   <set>
    <rc><c>Fe</c><c>   1</c></rc>
   </set>
  </array>
  <array name="atomtypes" >
   <dimension dim="1">type</dimension>
   <field type="int">atomspertype</field>
   <field type="string">element</field>
   <field>mass</field>
   <field>valence</field>
   <field type="string">pseudopotential</field>
   <set>
    <rc><c>   1</c><c>Fe</c><c>     55.84700000</c><c>      8.00000000</c><c>  PAW_PBE Fe 06Sep2000                  </c></rc>
   </set>
  </array>
 </atominfo>
 <structure name="initialpos" >
  <crystal>
   <varray name="basis" >
    <v>      -1.30000000       1.30000000       1.30000000 </v>
    <v>       1.30000000      -1.30000000       1.30000000 </v>
    <v>       1.30000000       1.30000000      -1.30000000 </v>
   </varray>
   <i name="volume">      8.78800000 </i>
   <varray name="rec_basis" >
    <v>       0.00000000       0.38461538       0.38461538 </v>
    <v>       0.38461538       0.00000000       0.38461538 </v>
    <v>       0.38461538       0.38461538       0.00000000 </v>
   </varray>
  </crystal>
  <varray name="positions" >
   <v>       0.00000000       0.00000000       0.00000000 </v>
  </varray>
 </structure>
 <calculation>
  <scstep>
   <time name="dav">    2.42    2.39</time>
   <time name="total">    2.58    2.54</time>
   <energy>
    <i name="alphaZ">     78.64562585 </i>
    <i name="ewald">   -644.97461067 </i>
    <i name="hartreedc">    -92.46749519 </i>
    <i name="XCdc">      6.88005619 </i>
    <i name="pawpsdc">    552.89180568 </i>
    <i name="pawaedc">   -560.64780826 </i>
    <i name="eentropy">      0.00000000 </i>
    <i name="bandstr">     83.61276638 </i>
    <i name="atom">    594.30652615 </i>
    <i name="e_fr_energy">     18.24686614 </i>
    <i name="e_wo_entrp">     18.24686614 </i>
    <i name="e_0_energy">     18.24686614 </i>
   </energy>
  </scstep>
  <scstep>
   <time name="dav">    2.23    2.09</time>
   <time name="total">    2.33    2.18</time>
   <energy>
    <i name="e_fr_energy">     -7.18580742 </i>
    <i name="e_wo_entrp">     -7.18580742 </i>
    <i name="e_0_energy">     -7.18580742 </i>
   </energy>
  </scstep>
  <scstep>
   <time name="dav">    2.90    2.71</time>
   <time name="total">    2.97    2.78</time>
   <energy>
    <i name="e_fr_energy">     -7.69480817 </i>
    <i name="e_wo_entrp">     -7.69480817 </i>
    <i name="e_0_energy">     -7.69480817 </i>
   </energy>
  </scstep>
  <scstep>
   <time name="dav">    2.43    2.44</time>
   <time name="total">    2.52    2.54</time>
   <energy>
    <i name="e_fr_energy">     -7.69615247 </i>
    <i name="e_wo_entrp">     -7.69615247 </i>
    <i name="e_0_energy">     -7.69615247 </i>
   </energy>
  </scstep>
  <scstep>
   <time name="dav">    2.11    2.04</time>
   <time name="total">    2.22    2.15</time>
   <energy>
    <i name="e_fr_energy">     -7.69615773 </i>
    <i name="e_wo_entrp">     -7.69615773 </i>
    <i name="e_0_energy">     -7.69615773 </i>
   </energy>
  </scstep>
  <scstep>
   <time name="dav">    1.51    1.40</time>
   <time name="total">    1.66    1.56</time>
   <energy>
    <i name="e_fr_energy">     -7.71051941 </i>
    <i name="e_wo_entrp">     -7.71051941 </i>
    <i name="e_0_energy">     -7.71051941 </i>
   </energy>
  </scstep>
  <scstep>
   <time name="dav">    1.76    1.67</time>
   <time name="total">    1.91    1.82</time>
   <energy>
    <i name="e_fr_energy">     -7.69834529 </i>
    <i name="e_wo_entrp">     -7.69834529 </i>
    <i name="e_0_energy">     -7.69834529 </i>
   </energy>
  </scstep>
  <scstep>
   <time name="dav">    2.91    2.63</time>
   <time name="total">    3.08    2.80</time>
   <energy>
    <i name="e_fr_energy">     -7.68344001 </i>
    <i name="e_wo_entrp">     -7.68344001 </i>
    <i name="e_0_energy">     -7.68344001 </i>
   </energy>
  </scstep>
  <scstep>
   <time name="dav">    2.69    2.58</time>
   <time name="total">    2.84    2.73</time>
   <energy>
    <i name="e_fr_energy">     -7.67832844 </i>
    <i name="e_wo_entrp">     -7.67832844 </i>
    <i name="e_0_energy">     -7.67832844 </i>
   </energy>
  </scstep>
  <scstep>
   <time name="dav">    3.22    3.05</time>
   <time name="total">    3.39    3.21</time>
   <energy>
    <i name="e_fr_energy">     -7.67859269 </i>
    <i name="e_wo_entrp">     -7.67859269 </i>
    <i name="e_0_energy">     -7.67859269 </i>
   </energy>
  </scstep>
  <scstep>
   <time name="dav">    2.84    2.48</time>
   <time name="total">    3.03    2.66</time>
   <energy>
    <i name="e_fr_energy">     -7.67872499 </i>
    <i name="e_wo_entrp">     -7.67872499 </i>
    <i name="e_0_energy">     -7.67872499 </i>
   </energy>
  </scstep>
  <scstep>
   <time name="dav">    2.74    2.51</time>
   <time name="total">    2.91    2.67</time>
   <energy>
    <i name="e_fr_energy">     -7.67873761 </i>
    <i name="e_wo_entrp">     -7.67873761 </i>
    <i name="e_0_energy">     -7.67873761 </i>
   </energy>
  </scstep>
  <scstep>
   <time name="dav">    2.00    1.81</time>
   <time name="total">    2.19    1.98</time>
   <energy>
    <i name="e_fr_energy">     -7.67871982 </i>
    <i name="e_wo_entrp">     -7.67871982 </i>
    <i name="e_0_energy">     -7.67871982 </i>
   </energy>
  </scstep>
  <scstep>
   <time name="dav">    2.07    1.98</time>
   <time name="total">    2.22    2.13</time>
   <energy>
    <i name="e_fr_energy">     -7.67872165 </i>
    <i name="e_wo_entrp">     -7.67872165 </i>
    <i name="e_0_energy">     -7.67872165 </i>
   </energy>
  </scstep>
  <scstep>
   <time name="dav">    2.05    1.88</time>
   <time name="total">    2.21    2.01</time>
   <energy>
    <i name="alphaZ">     78.64562585 </i>
    <i name="ewald">   -644.97461067 </i>
    <i name="hartreedc">    -76.63607010 </i>
    <i name="XCdc">      4.74875702 </i>
    <i name="pawpsdc">    885.38059165 </i>
    <i name="pawaedc">   -895.66529530 </i>
    <i name="eentropy">      0.00000000 </i>
    <i name="bandstr">     46.51575425 </i>
    <i name="atom">    594.30652615 </i>
    <i name="e_fr_energy">     -7.67872116 </i>
    <i name="e_wo_entrp">     -7.67872116 </i>
    <i name="e_0_energy">     -7.67872116 </i>
   </energy>
  </scstep>
  <structure>
   <crystal>
    <varray name="basis" >
     <v>      -1.30000000       1.30000000       1.30000000 </v>
     <v>       1.30000000      -1.30000000       1.30000000 </v>
     <v>       1.30000000       1.30000000      -1.30000000 </v>
    </varray>
    <i name="volume">      8.78800000 </i>
    <varray name="rec_basis" >
     <v>       0.00000000       0.38461538       0.38461538 </v>
     <v>       0.38461538       0.00000000       0.38461538 </v>
     <v>       0.38461538       0.38461538       0.00000000 </v>
    </varray>
   </crystal>
   <varray name="positions" >
    <v>       0.00000000       0.00000000       0.00000000 </v>
   </varray>
  </structure>
  <varray name="forces" >
   <v>       0.00000000      -0.00000000       0.00000000 </v>
  </varray>
  <varray name="stress" >
   <v>     900.55844644      -0.00000000       0.00000000 </v>
   <v>      -0.00000000     900.55844644      -0.00000000 </v>
   <v>       0.00000000      -0.00000000     900.55844644 </v>
  </varray>
  <energy>
   <i name="e_fr_energy">     -7.67872116 </i>
   <i name="e_wo_entrp">     -7.67872116 </i>
   <i name="e_0_energy">      0.00000000 </i>
  </energy>
  <time name="totalsc">   38.37   36.36</time>
  <eigenvalues>
   <array>
    <dimension dim="1">band</dimension>
    <dimension dim="2">kpoint</dimension>
    <dimension dim="3">spin</dimension>
    <field>eigene</field>
    <field>occ</field>
    <set>
     <set comment="spin 1">
      <set comment="kpoint 1">
       <r>    0.0083    1.0000 </r>
       <r>    5.6726    1.0000 </r>
       <r>    5.6726    1.0000 </r>
       <r>    6.8791    1.0000 </r>
       <r>    7.7814    1.0000 </r>
       <r>    7.7814    1.0028 </r>
       <r>   33.2405    0.0000 </r>
       <r>   33.2405    0.0000 </r>
       <r>   37.4496    0.0000 </r>
       <r>   40.2143    0.0000 </r>
       <r>   44.8143    0.0000 </r>
       <r>   44.8143    0.0000 </r>
      </set>
      <set comment="kpoint 2">
       <r>    1.8365    1.0000 </r>
       <r>    5.0528    1.0000 </r>
       <r>    5.3739    1.0000 </r>
       <r>    7.6929    1.0000 </r>
       <r>    7.9854    1.0026 </r>
       <r>    8.3833    0.7963 </r>
       <r>   27.8874    0.0000 </r>
       <r>   30.8226    0.0000 </r>
       <r>   35.4800    0.0000 </r>
       <r>   38.4038    0.0000 </r>
       <r>   45.1539    0.0000 </r>
       <r>   45.4616    0.0000 </r>
      </set>
      <set comment="kpoint 3">
       <r>    2.7426    1.0000 </r>
       <r>    4.5336    1.0000 </r>
       <r>    6.5470    1.0000 </r>
       <r>    7.9222    1.0000 </r>
       <r>    8.1524    1.0240 </r>
       <r>   10.3438   -0.0339 </r>
       <r>   22.1563    0.0000 </r>
       <r>   28.8047    0.0000 </r>
       <r>   32.5049    0.0000 </r>
       <r>   38.4615    0.0000 </r>
       <r>   44.4013    0.0000 </r>
       <r>   49.0892    0.0000 </r>
      </set>
      <set comment="kpoint 4">
       <r>    2.6452    1.0000 </r>
       <r>    4.3367    1.0000 </r>
       <r>    7.8572    1.0000 </r>
       <r>    8.0315    1.0000 </r>
       <r>    8.2233    1.0171 </r>
       <r>   11.8422   -0.0027 </r>
       <r>   18.9467    0.0000 </r>
       <r>   28.0260    0.0000 </r>
       <r>   31.3865    0.0000 </r>
       <r>   38.3996    0.0000 </r>
       <r>   44.4220    0.0000 </r>
       <r>   48.4753    0.0000 </r>
      </set>
      <set comment="kpoint 5">
       <r>   -0.7413    1.0000 </r>
       <r>    5.9879    1.0000 </r>
       <r>    5.9879    1.0000 </r>
       <r>    6.1198    1.0000 </r>
       <r>    7.6561    1.0000 </r>
       <r>    7.9793    1.0000 </r>
       <r>   34.7659    0.0000 </r>
       <r>   36.3564    0.0000 </r>
       <r>   36.3564    0.0000 </r>
       <r>   41.3811    0.0000 </r>
       <r>   45.1581    0.0000 </r>
       <r>   45.1581    0.0000 </r>
      </set>
      <set comment="kpoint 6">
       <r>    3.4017    1.0000 </r>
       <r>    4.6301    1.0000 </r>
       <r>    5.0022    1.0000 </r>
       <r>    7.8222    1.0000 </r>
       <r>    8.2035    1.0029 </r>
       <r>   10.6554   -0.0513 </r>
       <r>   25.0098    0.0000 </r>
       <r>   26.2640    0.0000 </r>
       <r>   31.2223    0.0000 </r>
       <r>   40.6926    0.0000 </r>
       <r>   45.9224    0.0000 </r>
       <r>   48.8116    0.0000 </r>
      </set>
      <set comment="kpoint 7">
       <r>    3.5271    1.0000 </r>
       <r>    4.4042    1.0000 </r>
       <r>    5.9191    1.0000 </r>
       <r>    8.0466    1.0000 </r>
       <r>    8.3469    1.0110 </r>
       <r>   13.6093   -0.0015 </r>
       <r>   20.1984    0.0000 </r>
       <r>   24.3867    0.0000 </r>
       <r>   29.5004    0.0000 </r>
       <r>   41.4862    0.0000 </r>
       <r>   46.6183    0.0000 </r>
       <r>   49.8966    0.0000 </r>
      </set>
      <set comment="kpoint 8">
       <r>    0.6855    1.0000 </r>
       <r>    5.5764    1.0000 </r>
       <r>    5.8569    1.0000 </r>
       <r>    7.0290    1.0000 </r>
       <r>    7.2786    1.0000 </r>
       <r>    8.1436    1.0009 </r>
       <r>   30.7817    0.0000 </r>
       <r>   34.1303    0.0000 </r>
       <r>   35.7718    0.0000 </r>
       <r>   40.7617    0.0000 </r>
       <r>   41.6984    0.0000 </r>
       <r>   43.2410    0.0000 </r>
      </set>
      <set comment="kpoint 9">
       <r>    3.9149    1.0000 </r>
       <r>    4.9692    1.0000 </r>
       <r>    4.9692    1.0000 </r>
       <r>    8.2595    1.0000 </r>
       <r>    8.2595    1.0200 </r>
       <r>   17.6922    0.0000 </r>
       <r>   17.6922    0.0000 </r>
       <r>   21.3211    0.0000 </r>
       <r>   28.9118    0.0000 </r>
       <r>   44.2436    0.0000 </r>
       <r>   44.2436    0.0000 </r>
       <r>   53.8555    0.0000 </r>
      </set>
      <set comment="kpoint 10">
       <r>    2.3401    1.0000 </r>
       <r>    4.9765    1.0000 </r>
       <r>    5.9783    1.0000 </r>
       <r>    7.6049    1.0000 </r>
       <r>    8.4242    0.9955 </r>
       <r>    8.5337    0.5688 </r>
       <r>   24.9275    0.0000 </r>
       <r>   31.3051    0.0000 </r>
       <r>   34.2330    0.0000 </r>
       <r>   39.0885    0.0000 </r>
       <r>   41.5050    0.0000 </r>
       <r>   44.3156    0.0000 </r>
      </set>
      <set comment="kpoint 11">
       <r>    2.3014    1.0000 </r>
       <r>    5.2130    1.0000 </r>
       <r>    5.5675    1.0000 </r>
       <r>    7.0879    1.0000 </r>
       <r>    8.1453    1.0060 </r>
       <r>    8.7041    0.6004 </r>
       <r>   27.8405    0.0000 </r>
       <r>   29.4139    0.0000 </r>
       <r>   35.9969    0.0000 </r>
       <r>   37.3596    0.0000 </r>
       <r>   41.3529    0.0000 </r>
       <r>   46.5944    0.0000 </r>
      </set>
      <set comment="kpoint 12">
       <r>    2.5064    1.0000 </r>
       <r>    4.5758    1.0000 </r>
       <r>    7.0849    1.0000 </r>
       <r>    7.8824    1.0000 </r>
       <r>    9.7594    0.0658 </r>
       <r>    9.9232   -0.0019 </r>
       <r>   19.8921    0.0000 </r>
       <r>   29.6294    0.0000 </r>
       <r>   32.4872    0.0000 </r>
       <r>   38.2313    0.0000 </r>
       <r>   42.1699    0.0000 </r>
       <r>   45.6080    0.0000 </r>
      </set>
      <set comment="kpoint 13">
       <r>    3.1831    1.0000 </r>
       <r>    4.7867    1.0000 </r>
       <r>    5.6758    1.0000 </r>
       <r>    7.5551    1.0000 </r>
       <r>    8.7531    0.9083 </r>
       <r>   10.9761   -0.0382 </r>
       <r>   22.5273    0.0000 </r>
       <r>   26.7532    0.0000 </r>
       <r>   34.0238    0.0000 </r>
       <r>   37.7089    0.0000 </r>
       <r>   41.7773    0.0000 </r>
       <r>   47.5306    0.0000 </r>
      </set>
      <set comment="kpoint 14">
       <r>    3.0654    1.0000 </r>
       <r>    4.7772    1.0000 </r>
       <r>    5.9036    1.0000 </r>
       <r>    7.7295    1.0000 </r>
       <r>    9.2378    0.3671 </r>
       <r>   13.2036   -0.0009 </r>
       <r>   18.9806    0.0000 </r>
       <r>   25.9283    0.0000 </r>
       <r>   32.9740    0.0000 </r>
       <r>   38.3447    0.0000 </r>
       <r>   42.2561    0.0000 </r>
       <r>   46.8773    0.0000 </r>
      </set>
      <set comment="kpoint 15">
       <r>    4.0529    1.0000 </r>
       <r>    4.3472    1.0000 </r>
       <r>    5.1581    1.0000 </r>
       <r>    8.0070    1.0001 </r>
       <r>    8.6999    0.9384 </r>
       <r>   14.9126   -0.0001 </r>
       <r>   20.0480    0.0000 </r>
       <r>   22.1257    0.0000 </r>
       <r>   34.9152    0.0000 </r>
       <r>   37.5596    0.0000 </r>
       <r>   40.2179    0.0000 </r>
       <r>   50.2853    0.0000 </r>
      </set>
      <set comment="kpoint 16">
       <r>    4.3907    1.0000 </r>
       <r>    4.3907    1.0000 </r>
       <r>    4.8382    1.0000 </r>
       <r>    8.1808    1.0000 </r>
       <r>    8.1808    1.0000 </r>
       <r>   13.7047   -0.0022 </r>
       <r>   23.1267    0.0000 </r>
       <r>   23.1267    0.0000 </r>
       <r>   25.9128    0.0000 </r>
       <r>   45.7592    0.0000 </r>
       <r>   49.8565    0.0000 </r>
       <r>   49.8565    0.0000 </r>
      </set>
      <set comment="kpoint 17">
       <r>    4.2767    1.0000 </r>
       <r>    4.3465    1.0000 </r>
       <r>    5.3396    1.0000 </r>
       <r>    8.2351    1.0000 </r>
       <r>    8.2647    1.0004 </r>
       <r>   16.8248    0.0000 </r>
       <r>   19.3024    0.0000 </r>
       <r>   22.4686    0.0000 </r>
       <r>   24.6669    0.0000 </r>
       <r>   47.3583    0.0000 </r>
       <r>   51.5131    0.0000 </r>
       <r>   52.7629    0.0000 </r>
      </set>
      <set comment="kpoint 18">
       <r>    1.8863    1.0000 </r>
       <r>    6.0341    1.0000 </r>
       <r>    6.1945    1.0000 </r>
       <r>    6.1945    1.0000 </r>
       <r>    7.0386    1.0000 </r>
       <r>    8.7231    0.7393 </r>
       <r>   30.4408    0.0000 </r>
       <r>   32.8729    0.0000 </r>
       <r>   32.8729    0.0000 </r>
       <r>   34.7472    0.0000 </r>
       <r>   45.5220    0.0000 </r>
       <r>   45.5220    0.0000 </r>
      </set>
      <set comment="kpoint 19">
       <r>    3.1804    1.0000 </r>
       <r>    4.9010    1.0000 </r>
       <r>    5.9780    1.0000 </r>
       <r>    6.9691    1.0000 </r>
       <r>    8.3513    1.0297 </r>
       <r>    9.8970   -0.0084 </r>
       <r>   25.8660    0.0000 </r>
       <r>   30.0460    0.0000 </r>
       <r>   30.3962    0.0000 </r>
       <r>   35.3815    0.0000 </r>
       <r>   44.7096    0.0000 </r>
       <r>   46.7697    0.0000 </r>
      </set>
      <set comment="kpoint 20">
       <r>    3.1848    1.0000 </r>
       <r>    4.8659    1.0000 </r>
       <r>    5.6799    1.0000 </r>
       <r>    7.3094    1.0003 </r>
       <r>    9.6339   -0.0371 </r>
       <r>   12.8094   -0.0065 </r>
       <r>   20.3357    0.0000 </r>
       <r>   28.1283    0.0000 </r>
       <r>   29.3966    0.0000 </r>
       <r>   37.8503    0.0000 </r>
       <r>   43.6587    0.0000 </r>
       <r>   44.8828    0.0000 </r>
      </set>
      <set comment="kpoint 21">
       <r>    3.7253    1.0000 </r>
       <r>    3.9662    1.0000 </r>
       <r>    6.0932    1.0001 </r>
       <r>    7.5590    1.0019 </r>
       <r>    8.9994    0.4944 </r>
       <r>   12.8131   -0.0079 </r>
       <r>   23.3636    0.0000 </r>
       <r>   24.3431    0.0000 </r>
       <r>   32.1355    0.0000 </r>
       <r>   34.1892    0.0000 </r>
       <r>   43.3875    0.0000 </r>
       <r>   47.6527    0.0000 </r>
      </set>
      <set comment="kpoint 22">
       <r>    3.4848    1.0000 </r>
       <r>    4.0461    1.0000 </r>
       <r>    5.8131    1.0001 </r>
       <r>    8.0317    1.0036 </r>
       <r>    9.3402    0.0198 </r>
       <r>   16.2284    0.0000 </r>
       <r>   19.2633    0.0000 </r>
       <r>   23.0896    0.0000 </r>
       <r>   32.1828    0.0000 </r>
       <r>   35.5574    0.0000 </r>
       <r>   41.1491    0.0000 </r>
       <r>   46.5096    0.0000 </r>
      </set>
      <set comment="kpoint 23">
       <r>    3.4416    1.0000 </r>
       <r>    3.8643    1.0000 </r>
       <r>    7.3292    1.0002 </r>
       <r>    7.3292    1.0052 </r>
       <r>    8.4002    1.0283 </r>
       <r>   12.0551   -0.0108 </r>
       <r>   26.5501    0.0000 </r>
       <r>   26.5501    0.0000 </r>
       <r>   28.3490    0.0000 </r>
       <r>   31.2205    0.0000 </r>
       <r>   45.9389    0.0000 </r>
       <r>   50.1047    0.0000 </r>
      </set>
      <set comment="kpoint 24">
       <r>    3.0680    1.0000 </r>
       <r>    3.2733    1.0000 </r>
       <r>    7.5324    1.0088 </r>
       <r>    7.9611    1.0439 </r>
       <r>    9.4610    0.0049 </r>
       <r>   15.6910    0.0000 </r>
       <r>   21.4122    0.0000 </r>
       <r>   24.2806    0.0000 </r>
       <r>   28.7745    0.0000 </r>
       <r>   32.0519    0.0000 </r>
       <r>   41.1804    0.0000 </r>
       <r>   49.4317    0.0000 </r>
      </set>
      <set comment="kpoint 25">
       <r>    2.8469    1.0000 </r>
       <r>    2.8469    1.0000 </r>
       <r>    7.6921    1.0262 </r>
       <r>    9.2181    0.7211 </r>
       <r>    9.2181    0.0081 </r>
       <r>   19.5869    0.0000 </r>
       <r>   19.5869    0.0000 </r>
       <r>   21.1683    0.0000 </r>
       <r>   30.3255    0.0000 </r>
       <r>   30.3255    0.0000 </r>
       <r>   38.7779    0.0000 </r>
       <r>   50.1191    0.0000 </r>
      </set>
      <set comment="kpoint 26">
       <r>    2.4351    1.0000 </r>
       <r>    2.4644    1.0000 </r>
       <r>    9.1536    0.8046 </r>
       <r>    9.1536    0.5197 </r>
       <r>    9.4083    0.0009 </r>
       <r>   18.8137    0.0000 </r>
       <r>   21.6883    0.0000 </r>
       <r>   21.6883    0.0000 </r>
       <r>   27.6609    0.0000 </r>
       <r>   28.9908    0.0000 </r>
       <r>   37.1635    0.0000 </r>
       <r>   53.1046    0.0000 </r>
      </set>
     </set>
     <set comment="spin 2">
      <set comment="kpoint 1">
       <r>    0.2303    1.0000 </r>
       <r>    7.1461    1.0000 </r>
       <r>    7.1461    1.0000 </r>
       <r>    8.4344    0.9463 </r>
       <r>   10.0619   -0.0026 </r>
       <r>   10.0619    0.0000 </r>
       <r>   33.4826    0.0000 </r>
       <r>   33.4826    0.0000 </r>
       <r>   37.3198    0.0000 </r>
       <r>   41.0094    0.0000 </r>
       <r>   45.1173    0.0000 </r>
       <r>   45.1173    0.0000 </r>
      </set>
      <set comment="kpoint 2">
       <r>    2.1605    1.0000 </r>
       <r>    6.4511    1.0000 </r>
       <r>    6.7454    1.0000 </r>
       <r>    9.8650   -0.0431 </r>
       <r>    9.9786   -0.0016 </r>
       <r>   10.3007    0.0000 </r>
       <r>   28.4820    0.0000 </r>
       <r>   31.1757    0.0000 </r>
       <r>   36.1809    0.0000 </r>
       <r>   38.4315    0.0000 </r>
       <r>   45.7411    0.0000 </r>
       <r>   45.7652    0.0000 </r>
      </set>
      <set comment="kpoint 3">
       <r>    3.6055    1.0000 </r>
       <r>    5.8662    1.0000 </r>
       <r>    7.4157    1.0000 </r>
       <r>   10.0463   -0.0071 </r>
       <r>   10.5141    0.0000 </r>
       <r>   11.8551    0.0000 </r>
       <r>   23.0524    0.0000 </r>
       <r>   29.1361    0.0000 </r>
       <r>   33.1153    0.0000 </r>
       <r>   38.7176    0.0000 </r>
       <r>   44.9620    0.0000 </r>
       <r>   49.3317    0.0000 </r>
      </set>
      <set comment="kpoint 4">
       <r>    3.7072    1.0000 </r>
       <r>    5.6449    1.0000 </r>
       <r>    8.6340    1.0000 </r>
       <r>   10.1658    0.0000 </r>
       <r>   10.6083    0.0000 </r>
       <r>   13.0598    0.0000 </r>
       <r>   20.1043    0.0000 </r>
       <r>   28.3316    0.0000 </r>
       <r>   31.9497    0.0000 </r>
       <r>   38.7317    0.0000 </r>
       <r>   45.0130    0.0000 </r>
       <r>   48.6076    0.0000 </r>
      </set>
      <set comment="kpoint 5">
       <r>   -0.5290    1.0000 </r>
       <r>    7.4914    1.0000 </r>
       <r>    7.4914    1.0000 </r>
       <r>    7.6422    1.0192 </r>
       <r>    9.9289   -0.0057 </r>
       <r>   10.3107    0.0000 </r>
       <r>   34.7982    0.0000 </r>
       <r>   36.3156    0.0000 </r>
       <r>   36.3156    0.0000 </r>
       <r>   41.7642    0.0000 </r>
       <r>   45.9363    0.0000 </r>
       <r>   45.9363    0.0000 </r>
      </set>
      <set comment="kpoint 6">
       <r>    4.0161    1.0000 </r>
       <r>    5.9665    1.0000 </r>
       <r>    6.1816    1.0000 </r>
       <r>    9.9952   -0.0084 </r>
       <r>   10.5201    0.0000 </r>
       <r>   12.1555    0.0000 </r>
       <r>   25.7127    0.0000 </r>
       <r>   26.8573    0.0000 </r>
       <r>   31.8199    0.0000 </r>
       <r>   40.7118    0.0000 </r>
       <r>   46.2539    0.0000 </r>
       <r>   49.1715    0.0000 </r>
      </set>
      <set comment="kpoint 7">
       <r>    4.5988    1.0000 </r>
       <r>    5.6654    1.0000 </r>
       <r>    6.9209    1.0000 </r>
       <r>   10.2191    0.0000 </r>
       <r>   10.6347    0.0000 </r>
       <r>   14.7975    0.0000 </r>
       <r>   21.1464    0.0000 </r>
       <r>   25.0088    0.0000 </r>
       <r>   30.0456    0.0000 </r>
       <r>   41.6306    0.0000 </r>
       <r>   46.7924    0.0000 </r>
       <r>   50.3638    0.0000 </r>
      </set>
      <set comment="kpoint 8">
       <r>    0.9319    1.0000 </r>
       <r>    7.0287    1.0000 </r>
       <r>    7.3287    1.0000 </r>
       <r>    8.6033    0.8619 </r>
       <r>    9.4173    0.0041 </r>
       <r>   10.4813    0.0000 </r>
       <r>   31.2093    0.0000 </r>
       <r>   34.3113    0.0000 </r>
       <r>   36.0366    0.0000 </r>
       <r>   41.1145    0.0000 </r>
       <r>   42.3388    0.0000 </r>
       <r>   43.8046    0.0000 </r>
      </set>
      <set comment="kpoint 9">
       <r>    5.0833    1.0000 </r>
       <r>    6.1175    1.0000 </r>
       <r>    6.1175    1.0000 </r>
       <r>   10.4741    0.0000 </r>
       <r>   10.4741    0.0000 </r>
       <r>   18.6531    0.0000 </r>
       <r>   18.6531    0.0000 </r>
       <r>   22.1175    0.0000 </r>
       <r>   29.4707    0.0000 </r>
       <r>   44.3597    0.0000 </r>
       <r>   44.3597    0.0000 </r>
       <r>   54.5404    0.0000 </r>
      </set>
      <set comment="kpoint 10">
       <r>    2.9129    1.0000 </r>
       <r>    6.3618    1.0000 </r>
       <r>    7.1939    1.0000 </r>
       <r>    9.5753   -0.0050 </r>
       <r>   10.2121   -0.0041 </r>
       <r>   10.6933    0.0000 </r>
       <r>   25.6993    0.0000 </r>
       <r>   31.5112    0.0000 </r>
       <r>   34.7688    0.0000 </r>
       <r>   39.5821    0.0000 </r>
       <r>   42.0160    0.0000 </r>
       <r>   44.6648    0.0000 </r>
      </set>
      <set comment="kpoint 11">
       <r>    2.6960    1.0000 </r>
       <r>    6.7132    1.0000 </r>
       <r>    6.9271    1.0000 </r>
       <r>    9.0496    0.3554 </r>
       <r>    9.8461   -0.0044 </r>
       <r>   10.8850    0.0000 </r>
       <r>   28.4681    0.0000 </r>
       <r>   29.9261    0.0000 </r>
       <r>   36.2584    0.0000 </r>
       <r>   37.8746    0.0000 </r>
       <r>   41.7581    0.0000 </r>
       <r>   47.0349    0.0000 </r>
      </set>
      <set comment="kpoint 12">
       <r>    3.5367    1.0000 </r>
       <r>    5.9199    1.0000 </r>
       <r>    8.3568    1.0000 </r>
       <r>    9.9131   -0.0125 </r>
       <r>   11.3783    0.0000 </r>
       <r>   11.5428    0.0000 </r>
       <r>   20.9758    0.0000 </r>
       <r>   29.8102    0.0000 </r>
       <r>   33.0297    0.0000 </r>
       <r>   38.7287    0.0000 </r>
       <r>   42.7673    0.0000 </r>
       <r>   45.8055    0.0000 </r>
      </set>
      <set comment="kpoint 13">
       <r>    4.1039    1.0000 </r>
       <r>    6.1667    1.0000 </r>
       <r>    6.9224    1.0000 </r>
       <r>    9.4651   -0.0062 </r>
       <r>   10.7495   -0.0005 </r>
       <r>   12.4898    0.0000 </r>
       <r>   23.3985    0.0000 </r>
       <r>   27.3246    0.0000 </r>
       <r>   34.3962    0.0000 </r>
       <r>   38.1231    0.0000 </r>
       <r>   42.1172    0.0000 </r>
       <r>   48.0212    0.0000 </r>
      </set>
      <set comment="kpoint 14">
       <r>    4.2105    1.0000 </r>
       <r>    6.1163    1.0000 </r>
       <r>    7.2243    1.0000 </r>
       <r>    9.6994   -0.0037 </r>
       <r>   11.1066    0.0000 </r>
       <r>   14.3456    0.0000 </r>
       <r>   20.0961    0.0000 </r>
       <r>   26.4925    0.0000 </r>
       <r>   33.3225    0.0000 </r>
       <r>   38.8356    0.0000 </r>
       <r>   42.4376    0.0000 </r>
       <r>   47.4372    0.0000 </r>
      </set>
      <set comment="kpoint 15">
       <r>    5.2058    1.0000 </r>
       <r>    5.7145    1.0000 </r>
       <r>    6.4695    1.0001 </r>
       <r>    9.9061   -0.0058 </r>
       <r>   10.6330    0.0000 </r>
       <r>   16.0683    0.0000 </r>
       <r>   20.9963    0.0000 </r>
[...]
       </set>
       <set comment="band 5">
        <r>  0.0090  0.0023  0.0023  0.0182  0.0990  0.3412  0.1050  0.0990  0.3149 </r>
       </set>
       <set comment="band 6">
        <r>  0.0591  0.0625  0.0625  0.2982  0.0889  0.1535  0.0547  0.0889  0.1641 </r>
       </set>
       <set comment="band 7">
        <r>  0.0000  0.2407  0.2407  0.0000  0.1691  0.0000  0.1927  0.1691  0.0642 </r>
       </set>
       <set comment="band 8">
        <r>  0.4762  0.0429  0.0429  0.0272  0.1207  0.1182  0.0014  0.1207  0.0042 </r>
       </set>
       <set comment="band 9">
        <r>  0.0380  0.1999  0.1999  0.0774  0.0674  0.1045  0.0017  0.0674  0.0051 </r>
       </set>
       <set comment="band 10">
        <r>  0.0000  0.0461  0.0461  0.0000  0.0911  0.0000  0.3976  0.0911  0.1325 </r>
       </set>
       <set comment="band 11">
        <r>  0.0252  0.0044  0.0044  0.0421  0.0272  0.2257  0.1265  0.0272  0.3796 </r>
       </set>
       <set comment="band 12">
        <r>  0.0964  0.0370  0.0370  0.2043  0.3067  0.4077  0.0264  0.3067  0.0792 </r>
       </set>
      </set>
      <set comment="kpoint 16">
       <set comment="band 1">
        <r>  0.1790  0.1229  0.1229  0.1229  0.1556  0.1556  0.0000  0.1556  0.0000 </r>
       </set>
       <set comment="band 2">
        <r>  0.0000  0.0466  0.0038  0.0676  0.0272  0.4891  0.0024  0.3369  0.0486 </r>
       </set>
       <set comment="band 3">
        <r>  0.0000  0.0321  0.0749  0.0110  0.5416  0.0797  0.0486  0.2319  0.0024 </r>
       </set>
       <set comment="band 4">
        <r>  0.0000  0.0000  0.0000  0.0001  0.0065  0.0372  0.1454  0.0183  0.7828 </r>
       </set>
       <set comment="band 5">
        <r>  0.0000  0.0000  0.0001  0.0000  0.0348  0.0041  0.7828  0.0230  0.1454 </r>
       </set>
       <set comment="band 6">
        <r>  0.0783  0.0890  0.0890  0.0890  0.2210  0.2210  0.0000  0.2210  0.0000 </r>
       </set>
       <set comment="band 7">
        <r>  0.0000  0.0848  0.2535  0.0466  0.3655  0.0671  0.0594  0.1222  0.0007 </r>
       </set>
       <set comment="band 8">
        <r>  0.0000  0.1718  0.0030  0.2100  0.0044  0.3028  0.0007  0.2477  0.0594 </r>
       </set>
       <set comment="band 9">
        <r>  0.6046  0.0870  0.0870  0.0870  0.0036  0.0036  0.0000  0.0036  0.0000 </r>
       </set>
       <set comment="band 10">
        <r>  0.0000  0.0000  0.0000  0.0000  0.0000  0.0000  0.0000  0.0000  0.0000 </r>
       </set>
       <set comment="band 11">
        <r>  0.0000  0.0006  0.0046  0.0084  0.2614  0.4803  0.0345  0.0338  0.0337 </r>
       </set>
       <set comment="band 12">
        <r>  0.0000  0.0085  0.0045  0.0006  0.2556  0.0367  0.0337  0.4831  0.0345 </r>
       </set>
      </set>
      <set comment="kpoint 17">
       <set comment="band 1">
        <r>  0.0394  0.0000  0.0000  0.1893  0.0000  0.7345  0.0144  0.0000  0.0433 </r>
       </set>
       <set comment="band 2">
        <r>  0.0000  0.0664  0.0664  0.0000  0.4476  0.0000  0.0000  0.4476  0.0000 </r>
       </set>
       <set comment="band 3">
        <r>  0.0000  0.1694  0.1694  0.0000  0.3389  0.0000  0.0000  0.3389  0.0000 </r>
       </set>
       <set comment="band 4">
        <r>  0.0005  0.0000  0.0000  0.0005  0.0000  0.0722  0.2298  0.0000  0.6893 </r>
       </set>
       <set comment="band 5">
        <r>  0.0000  0.0000  0.0000  0.0000  0.0000  0.0000  0.7452  0.0000  0.2484 </r>
       </set>
       <set comment="band 6">
        <r>  0.0000  0.2276  0.2276  0.0000  0.2743  0.0000  0.0000  0.2743  0.0000 </r>
       </set>
       <set comment="band 7">
        <r>  0.1885  0.0000  0.0000  0.2688  0.0000  0.5258  0.0101  0.0000  0.0302 </r>
       </set>
       <set comment="band 8">
        <r>  0.0000  0.1994  0.1994  0.0000  0.2946  0.0000  0.0000  0.2946  0.0000 </r>
       </set>
       <set comment="band 9">
        <r>  0.6316  0.0000  0.0000  0.2023  0.0000  0.0361  0.0020  0.0000  0.0059 </r>
       </set>
       <set comment="band 10">
        <r>  0.0000  0.0008  0.0008  0.0000  0.1581  0.0000  0.0000  0.1581  0.0000 </r>
       </set>
       <set comment="band 11">
        <r>  0.0000  0.0388  0.0388  0.0000  0.0886  0.0000  0.0000  0.0886  0.0000 </r>
       </set>
       <set comment="band 12">
        <r>  0.0015  0.0000  0.0000  0.0139  0.0000  0.0206  0.0426  0.0000  0.1170 </r>
       </set>
      </set>
      <set comment="kpoint 18">
       <set comment="band 1">
        <r>  0.6702  0.0000  0.0000  0.2674  0.0000  0.0000  0.0179  0.0000  0.0537 </r>
       </set>
       <set comment="band 2">
        <r>  0.0000  0.0187  0.0187  0.0000  0.4856  0.0000  0.0000  0.4856  0.0000 </r>
       </set>
       <set comment="band 3">
        <r>  0.0000  0.0187  0.0187  0.0000  0.4856  0.0000  0.0000  0.4856  0.0000 </r>
       </set>
       <set comment="band 4">
        <r>  0.0000  0.0000  0.0000  0.0000  0.0000  0.0000  0.6975  0.0000  0.2325 </r>
       </set>
       <set comment="band 5">
        <r>  0.0000  0.0000  0.0000  0.0000  0.0000  0.9983  0.0000  0.0000  0.0000 </r>
       </set>
       <set comment="band 6">
        <r>  0.0458  0.0000  0.0000  0.0156  0.0000  0.0000  0.2336  0.0000  0.7009 </r>
       </set>
       <set comment="band 7">
        <r>  0.0000  0.0000  0.0000  0.0000  0.0000  0.0000  0.6488  0.0000  0.2163 </r>
       </set>
       <set comment="band 8">
        <r>  0.0000  0.1566  0.1566  0.0000  0.4294  0.0000  0.0000  0.4294  0.0000 </r>
       </set>
       <set comment="band 9">
        <r>  0.0000  0.1566  0.1566  0.0000  0.4294  0.0000  0.0000  0.4294  0.0000 </r>
       </set>
       <set comment="band 10">
        <r>  0.1409  0.0000  0.0000  0.2553  0.0000  0.0000  0.0002  0.0000  0.0007 </r>
       </set>
       <set comment="band 11">
        <r>  0.0000  0.1846  0.1847  0.0000  0.0010  0.0000  0.0000  0.0010  0.0000 </r>
       </set>
       <set comment="band 12">
        <r>  0.0000  0.1847  0.1846  0.0000  0.0010  0.0000  0.0000  0.0010  0.0000 </r>
       </set>
      </set>
      <set comment="kpoint 19">
       <set comment="band 1">
        <r>  0.3735  0.0068  0.0000  0.2986  0.0829  0.0000  0.1129  0.0000  0.1263 </r>
       </set>
       <set comment="band 2">
        <r>  0.0063  0.0423  0.0000  0.0245  0.1611  0.0000  0.4349  0.0000  0.2782 </r>
       </set>
       <set comment="band 3">
        <r>  0.0000  0.0000  0.0367  0.0000  0.0000  0.2943  0.0000  0.6755  0.0000 </r>
       </set>
       <set comment="band 4">
        <r>  0.0000  0.0394  0.0000  0.0148  0.6813  0.0000  0.2424  0.0000  0.0051 </r>
       </set>
       <set comment="band 5">
        <r>  0.0000  0.0000  0.0145  0.0000  0.0000  0.6972  0.0000  0.2746  0.0000 </r>
       </set>
       <set comment="band 6">
        <r>  0.1319  0.0143  0.0000  0.0975  0.0090  0.0000  0.1604  0.0000  0.5958 </r>
       </set>
       <set comment="band 7">
        <r>  0.0824  0.2742  0.0000  0.0310  0.3871  0.0000  0.2260  0.0000  0.0873 </r>
       </set>
       <set comment="band 8">
        <r>  0.0000  0.0000  0.5043  0.0000  0.0000  0.0175  0.0000  0.6522  0.0000 </r>
       </set>
       <set comment="band 9">
        <r>  0.0895  0.0050  0.0000  0.0736  0.0732  0.0000  0.4715  0.0000  0.0663 </r>
       </set>
       <set comment="band 10">
        <r>  0.0526  0.2054  0.0000  0.0541  0.1975  0.0000  0.0372  0.0000  0.1754 </r>
       </set>
       <set comment="band 11">
        <r>  0.0000  0.0000  0.1975  0.0000  0.0000  0.8104  0.0000  0.1468  0.0000 </r>
       </set>
       <set comment="band 12">
        <r>  0.0744  0.2115  0.0000  0.0113  0.0780  0.0000  0.2638  0.0000  0.1071 </r>
       </set>
      </set>
      <set comment="kpoint 20">
       <set comment="band 1">
        <r>  0.1268  0.0050  0.0000  0.0907  0.2907  0.0000  0.4567  0.0000  0.0166 </r>
       </set>
       <set comment="band 2">
        <r>  0.0111  0.1200  0.0000  0.1444  0.0090  0.0000  0.0637  0.0000  0.6131 </r>
       </set>
       <set comment="band 3">
        <r>  0.0000  0.0000  0.0357  0.0000  0.0000  0.4364  0.0000  0.5365  0.0000 </r>
       </set>
       <set comment="band 4">
        <r>  0.0280  0.0181  0.0000  0.0009  0.5378  0.0000  0.3836  0.0000  0.0052 </r>
       </set>
       <set comment="band 5">
        <r>  0.0000  0.0000  0.0042  0.0000  0.0000  0.5561  0.0000  0.4310  0.0000 </r>
       </set>
       <set comment="band 6">
        <r>  0.0807  0.1558  0.0000  0.3173  0.0313  0.0000  0.0310  0.0000  0.4115 </r>
       </set>
       <set comment="band 7">
        <r>  0.2812  0.2229  0.0000  0.0009  0.3921  0.0000  0.1474  0.0000  0.0332 </r>
       </set>
       <set comment="band 8">
        <r>  0.0000  0.0000  0.6413  0.0000  0.0000  0.1018  0.0000  0.3334  0.0000 </r>
       </set>
       <set comment="band 9">
        <r>  0.0959  0.0196  0.0000  0.0497  0.0228  0.0000  0.5489  0.0000  0.0081 </r>
       </set>
       <set comment="band 10">
        <r>  0.0077  0.1398  0.0000  0.0003  0.0384  0.0000  0.0289  0.0000  0.5519 </r>
       </set>
       <set comment="band 11">
        <r>  0.0000  0.0000  0.1591  0.0000  0.0000  0.7141  0.0000  0.4424  0.0000 </r>
       </set>
       <set comment="band 12">
        <r>  0.0099  0.1637  0.0000  0.2005  0.0043  0.0000  0.5411  0.0000  0.1018 </r>
       </set>
      </set>
      <set comment="kpoint 21">
       <set comment="band 1">
        <r>  0.1359  0.0059  0.0059  0.2418  0.0544  0.0008  0.1214  0.0544  0.3643 </r>
       </set>
       <set comment="band 2">
        <r>  0.0000  0.0287  0.0287  0.0000  0.0591  0.0000  0.5819  0.0591  0.1940 </r>
       </set>
       <set comment="band 3">
        <r>  0.0084  0.0236  0.0236  0.0137  0.2558  0.3370  0.0193  0.2558  0.0580 </r>
       </set>
       <set comment="band 4">
        <r>  0.0000  0.0258  0.0258  0.0000  0.3943  0.0000  0.1082  0.3943  0.0361 </r>
       </set>
       <set comment="band 5">
        <r>  0.0157  0.0006  0.0006  0.0086  0.1224  0.6133  0.0256  0.1224  0.0768 </r>
       </set>
       <set comment="band 6">
        <r>  0.1590  0.0286  0.0286  0.2912  0.0399  0.0374  0.1004  0.0399  0.3012 </r>
       </set>
       <set comment="band 7">
        <r>  0.0000  0.2378  0.2378  0.0000  0.1517  0.0000  0.2608  0.1517  0.0869 </r>
       </set>
       <set comment="band 8">
        <r>  0.2408  0.1633  0.1633  0.0300  0.1639  0.0394  0.0051  0.1639  0.0152 </r>
       </set>
       <set comment="band 9">
        <r>  0.0000  0.0715  0.0715  0.0000  0.0851  0.0000  0.5432  0.0851  0.1811 </r>
       </set>
       <set comment="band 10">
        <r>  0.0636  0.1176  0.1176  0.0187  0.0162  0.0042  0.0821  0.0162  0.2462 </r>
       </set>
       <set comment="band 11">
        <r>  0.0041  0.0790  0.0790  0.1105  0.0757  0.3730  0.0664  0.0757  0.1992 </r>
       </set>
       <set comment="band 12">
        <r>  0.1666  0.0012  0.0012  0.2245  0.1393  0.3298  0.0594  0.1393  0.1781 </r>
       </set>
      </set>
      <set comment="kpoint 22">
       <set comment="band 1">
        <r>  0.0296  0.0327  0.0307  0.0327  0.1483  0.0001  0.6932  0.0001  0.0000 </r>
       </set>
       <set comment="band 2">
        <r>  0.0000  0.0981  0.0000  0.0981  0.0000  0.0165  0.0000  0.0165  0.7342 </r>
       </set>
       <set comment="band 3">
        <r>  0.0413  0.0017  0.0307  0.0017  0.1711  0.3569  0.0361  0.3569  0.0000 </r>
       </set>
       <set comment="band 4">
        <r>  0.0134  0.0108  0.0198  0.0108  0.5339  0.1098  0.1737  0.1098  0.0000 </r>
       </set>
       <set comment="band 5">
        <r>  0.0000  0.0152  0.0000  0.0152  0.0000  0.4417  0.0000  0.4417  0.0773 </r>
       </set>
       <set comment="band 6">
        <r>  0.0000  0.3152  0.0000  0.3152  0.0000  0.0519  0.0000  0.0519  0.3155 </r>
       </set>
       <set comment="band 7">
        <r>  0.2509  0.1184  0.0672  0.1184  0.3160  0.0000  0.1882  0.0000  0.0000 </r>
       </set>
       <set comment="band 8">
        <r>  0.1914  0.0011  0.4236  0.0011  0.0102  0.1351  0.1045  0.1351  0.0000 </r>
       </set>
       <set comment="band 9">
        <r>  0.0207  0.0007  0.1586  0.0007  0.0325  0.0241  0.6742  0.0241  0.0000 </r>
       </set>
       <set comment="band 10">
        <r>  0.0000  0.0509  0.0000  0.0509  0.0000  0.0098  0.0000  0.0098  0.7750 </r>
       </set>
       <set comment="band 11">
        <r>  0.0143  0.1931  0.1006  0.1931  0.0046  0.0977  0.1192  0.0977  0.0000 </r>
       </set>
       <set comment="band 12">
        <r>  0.2364  0.0477  0.0039  0.0477  0.2335  0.3779  0.0264  0.3779  0.0000 </r>
       </set>
      </set>
      <set comment="kpoint 23">
       <set comment="band 1">
        <r>  0.1406  0.0000  0.0000  0.2778  0.0000  0.0000  0.1410  0.0000  0.4231 </r>
       </set>
       <set comment="band 2">
        <r>  0.0000  0.0000  0.0000  0.0000  0.0000  0.0000  0.7003  0.0000  0.2334 </r>
       </set>
       <set comment="band 3">
        <r>  0.0000  0.0379  0.0379  0.0000  0.4574  0.0000  0.0000  0.4574  0.0000 </r>
       </set>
       <set comment="band 4">
        <r>  0.0000  0.0379  0.0379  0.0000  0.4574  0.0000  0.0000  0.4574  0.0000 </r>
       </set>
       <set comment="band 5">
        <r>  0.0000  0.0000  0.0000  0.0000  0.0000  0.9819  0.0000  0.0000  0.0000 </r>
       </set>
       <set comment="band 6">
        <r>  0.2360  0.0000  0.0000  0.2797  0.0000  0.0000  0.1253  0.0000  0.3758 </r>
       </set>
       <set comment="band 7">
        <r>  0.0000  0.3177  0.3177  0.0000  0.2304  0.0000  0.0000  0.2304  0.0000 </r>
       </set>
       <set comment="band 8">
        <r>  0.0000  0.3177  0.3177  0.0000  0.2304  0.0000  0.0000  0.2304  0.0000 </r>
       </set>
       <set comment="band 9">
        <r>  0.0000  0.0000  0.0000  0.0000  0.0000  0.0000  0.8861  0.0000  0.2954 </r>
       </set>
       <set comment="band 10">
        <r>  0.2427  0.0000  0.0000  0.0547  0.0000  0.0000  0.0878  0.0000  0.2633 </r>
       </set>
       <set comment="band 11">
        <r>  0.1461  0.0000  0.0000  0.3447  0.0000  0.0000  0.1425  0.0000  0.4274 </r>
       </set>
       <set comment="band 12">
        <r>  0.0000  0.0000  0.0000  0.0000  0.0000  1.3747  0.0000  0.0000  0.0000 </r>
       </set>
      </set>
      <set comment="kpoint 24">
       <set comment="band 1">
        <r>  0.0217  0.0005  0.0000  0.0930  0.0275  0.0000  0.6851  0.0000  0.1344 </r>
       </set>
       <set comment="band 2">
        <r>  0.0022  0.0348  0.0000  0.0432  0.0038  0.0000  0.1818  0.0000  0.6888 </r>
       </set>
       <set comment="band 3">
        <r>  0.0000  0.0000  0.0600  0.0000  0.0000  0.3391  0.0000  0.5874  0.0000 </r>
       </set>
       <set comment="band 4">
        <r>  0.0240  0.0515  0.0000  0.0092  0.8459  0.0000  0.0497  0.0000  0.0013 </r>
       </set>
       <set comment="band 5">
        <r>  0.0000  0.0000  0.0040  0.0000  0.0000  0.6384  0.0000  0.3459  0.0000 </r>
       </set>
       <set comment="band 6">
        <r>  0.1385  0.0607  0.0000  0.5028  0.0276  0.0000  0.0488  0.0000  0.2471 </r>
       </set>
       <set comment="band 7">
        <r>  0.1272  0.5254  0.0000  0.0003  0.2412  0.0000  0.0830  0.0000  0.0625 </r>
       </set>
       <set comment="band 8">
        <r>  0.0000  0.0000  0.7460  0.0000  0.0000  0.0432  0.0000  0.2243  0.0000 </r>
       </set>
       <set comment="band 9">
        <r>  0.0630  0.0070  0.0000  0.0021  0.0187  0.0000  1.0089  0.0000  0.0325 </r>
       </set>
       <set comment="band 10">
        <r>  0.0590  0.0973  0.0000  0.0033  0.0097  0.0000  0.0030  0.0000  0.7978 </r>
       </set>
       <set comment="band 11">
        <r>  0.2968  0.0744  0.0000  0.2780  0.0161  0.0000  0.1037  0.0000  0.1086 </r>
       </set>
       <set comment="band 12">
        <r>  0.0000  0.0000  0.0810  0.0000  0.0000  0.6738  0.0000  0.3056  0.0000 </r>
       </set>
      </set>
      <set comment="kpoint 25">
       <set comment="band 1">
        <r>  0.0000  0.0265  0.0000  0.0265  0.0000  0.0037  0.0000  0.0037  0.8977 </r>
       </set>
       <set comment="band 2">
        <r>  0.0000  0.0088  0.0354  0.0088  0.0049  0.0012  0.8977  0.0012  0.0000 </r>
       </set>
       <set comment="band 3">
        <r>  0.0212  0.0194  0.0194  0.0194  0.3009  0.3009  0.0000  0.3009  0.0000 </r>
       </set>
       <set comment="band 4">
        <r>  0.0000  0.0051  0.0205  0.0051  0.6275  0.1569  0.0153  0.1569  0.0000 </r>
       </set>
       <set comment="band 5">
        <r>  0.0000  0.0154  0.0000  0.0154  0.0000  0.4707  0.0000  0.4707  0.0153 </r>
       </set>
       <set comment="band 6">
        <r>  0.0000  0.3704  0.0000  0.3704  0.0000  0.0375  0.0000  0.0375  0.2169 </r>
       </set>
       <set comment="band 7">
        <r>  0.0000  0.1235  0.4939  0.1235  0.0501  0.0125  0.2169  0.0125  0.0000 </r>
       </set>
       <set comment="band 8">
        <r>  0.2533  0.1627  0.1627  0.1627  0.0721  0.0721  0.0000  0.0721  0.0000 </r>
       </set>
       <set comment="band 9">
        <r>  0.0000  0.0457  0.0000  0.0457  0.0000  0.0064  0.0000  0.0064  1.0501 </r>
       </set>
       <set comment="band 10">
        <r>  0.0000  0.0152  0.0609  0.0152  0.0086  0.0021  1.0501  0.0021  0.0000 </r>
       </set>
       <set comment="band 11">
        <r>  0.4575  0.0990  0.0990  0.0990  0.0032  0.0032  0.0000  0.0032  0.0000 </r>
       </set>
       <set comment="band 12">
        <r>  0.0487  0.0173  0.0173  0.0173  0.2762  0.2762  0.0000  0.2762  0.0000 </r>
       </set>
      </set>
      <set comment="kpoint 26">
       <set comment="band 1">
        <r>  0.0014  0.0000  0.0000  0.0358  0.0000  0.0000  0.2311  0.0000  0.6934 </r>
       </set>
       <set comment="band 2">
        <r>  0.0000  0.0000  0.0000  0.0000  0.0000  0.0000  0.7175  0.0000  0.2392 </r>
       </set>
       <set comment="band 3">
        <r>  0.0000  0.0161  0.0161  0.0000  0.4769  0.0000  0.0000  0.4770  0.0000 </r>
       </set>
       <set comment="band 4">
        <r>  0.0000  0.0161  0.0161  0.0000  0.4770  0.0000  0.0000  0.4769  0.0000 </r>
       </set>
       <set comment="band 5">
        <r>  0.0000  0.0000  0.0000  0.0000  0.0000  0.9874  0.0000  0.0000  0.0000 </r>
       </set>
       <set comment="band 6">
        <r>  0.0843  0.0000  0.0000  0.7513  0.0000  0.0000  0.0354  0.0000  0.1063 </r>
       </set>
       <set comment="band 7">
        <r>  0.0000  0.4327  0.4327  0.0000  0.0406  0.0000  0.0000  0.0406  0.0000 </r>
       </set>
       <set comment="band 8">
        <r>  0.0000  0.4327  0.4327  0.0000  0.0406  0.0000  0.0000  0.0406  0.0000 </r>
       </set>
       <set comment="band 9">
        <r>  0.0000  0.0000  0.0000  0.0000  0.0000  0.0000  1.0008  0.0000  0.3336 </r>
       </set>
       <set comment="band 10">
        <r>  0.0387  0.0000  0.0000  0.0291  0.0000  0.0000  0.2872  0.0000  0.8615 </r>
       </set>
       <set comment="band 11">
        <r>  0.6291  0.0000  0.0000  0.1131  0.0000  0.0000  0.0085  0.0000  0.0256 </r>
       </set>
       <set comment="band 12">
        <r>  0.0000  0.0000  0.0000  0.0000  0.0000  0.3211  0.0000  0.0000  0.0000 </r>
       </set>
      </set>
     </set>
    </set>
   </array>
  </projected>
 </calculation>
 <structure name="finalpos" >
  <crystal>
   <varray name="basis" >
    <v>      -1.30000000       1.30000000       1.30000000 </v>
    <v>       1.30000000      -1.30000000       1.30000000 </v>
    <v>       1.30000000       1.30000000      -1.30000000 </v>
   </varray>
   <i name="volume">      8.78800000 </i>
   <varray name="rec_basis" >
    <v>       0.00000000       0.38461538       0.38461538 </v>
    <v>       0.38461538       0.00000000       0.38461538 </v>
    <v>       0.38461538       0.38461538       0.00000000 </v>
   </varray>
  </crystal>
  <varray name="positions" >
   <v>       0.00000000       0.00000000       0.00000000 </v>
  </varray>
 </structure>
</modeling>
