Si beta-tin                             
   2.58000000000000     
     1.004419   -0.000000   -0.000000
    -0.502210    0.869853    0.000000
     0.000000   -0.000000    1.618651
    S
     2
Direct
  0.000000  0.000000  0.000000
  0.333333  0.666667  0.500000
 
   36   36   60
 -4.1971     -3.8311     -2.7754     -1.1506     0.85996      3.0375      5.1607      7.0380      8.5326      9.5737    
  10.157      10.336      10.204      9.8821      9.4963      9.1431      8.8634      8.6843      8.6227      8.6843    
  8.8634      9.1431      9.4963      9.8821      10.204      10.336      10.157      9.5737      8.5326      7.0380    
  5.1607      3.0375     0.85996     -1.1506     -2.7754     -3.8311     -3.8311     -3.8311     -3.1187     -1.7761    
 0.42866E-01  2.1350      4.2783      6.2651      7.9316      9.1752      9.9606      10.314      10.312      10.062    
  9.6899      9.3122      8.9918      8.7597      8.6380      8.6380      8.7597      8.9918      9.3122      9.6899    
  10.062      10.312      10.314      9.9606      9.1752      7.9316      6.2651      4.2783      2.1350     0.42865E-01
 -1.7761     -3.1187     -2.7754     -3.1221     -2.7754     -1.7761     -.24123      1.6527      3.6962      5.6787    
  7.4195      8.7909      9.7286      10.231      10.352      10.185      9.8451      9.4546      9.1007      8.8214    
  8.6428      8.5814      8.6428      8.8214      9.1007      9.4546      9.8451      10.185      10.352      10.231    
  9.7286      8.7909      7.4195      5.6787      3.6962      1.6527     -.24124     -1.7761     -1.1506     -1.7857    
 -1.7857     -1.1506     0.42868E-01  1.6527      3.4929      5.3625      7.0759      8.4888      9.5133      10.123    
  10.346      10.257      9.9594      9.5692      9.1895      8.8696      8.6388      8.5180      8.5180      8.6388    
  8.8696      9.1895      9.5692      9.9594      10.257      10.346      10.123      9.5133      8.4888      7.0759    
  5.3625      3.4929      1.6527     0.42865E-01 0.85996     0.25514E-01 -.26476     0.25516E-01 0.85996      2.1350    
  3.6962      5.3625      6.9549      8.3228      9.3621      10.025      10.317      10.292      10.036      9.6564    
  9.2588      8.9057      8.6288      8.4525      8.3919      8.4525      8.6288      8.9057      9.2588      9.6564    
  10.036      10.292      10.317      10.025      9.3621      8.3228      6.9549      5.3625      3.6962      2.1350    
  3.0375      2.1097      1.6134      1.6134      2.1097      3.0375      4.2783      5.6787      7.0759      8.3228    
  9.3078      9.9673      10.288      10.303      10.082      9.7175      9.3100      8.9314      8.6158      8.3895    
  8.2714      8.2714      8.3895      8.6158      8.9314      9.3100      9.7175      10.082      10.303      10.288    
  9.9673      9.3078      8.3228      7.0759      5.6787      4.2783      5.1607      4.2459      3.6419      3.4308    
  3.6419      4.2459      5.1607      6.2651      7.4195      8.4888      9.3621      9.9673      10.276      10.305    
  10.106      9.7554      9.3450      8.9489      8.6026      8.3336      8.1631      8.1047      8.1631      8.3336    
  8.6026      8.9489      9.3450      9.7554      10.106      10.305      10.276      9.9673      9.3621      8.4888    
  7.4195      6.2651      7.0380      6.2274      5.6119      5.2799      5.2799      5.6119      6.2274      7.0380    
  7.9316      8.7909      9.5133      10.025      10.288      10.305      10.113      9.7733      9.3654      8.9596    
  8.5916      8.2884      8.0727      7.9605      7.9605      8.0727      8.2884      8.5916      8.9596      9.3654    
  9.7733      10.113      10.305      10.288      10.025      9.5133      8.7909      7.9316      8.5326      7.8904    
  7.3439      6.9772      6.8481      6.9772      7.3439      7.8904      8.5326      9.1752      9.7286      10.123    
  10.317      10.303      10.106      9.7733      9.3720      8.9647      8.5844      8.2569      8.0048      7.8460    
  7.7917      7.8460      8.0048      8.2569      8.5844      8.9647      9.3720      9.7733      10.106      10.303    
  10.317      10.123      9.7286      9.1752      9.5737      9.1323      8.7099      8.3790      8.1975      8.1975    
  8.3790      8.7099      9.1323      9.5737      9.9606      10.231      10.346      10.292      10.082      9.7554    
  9.3654      8.9647      8.5819      8.2407      7.9628      7.7664      7.6649      7.6649      7.7664      7.9628    
  8.2407      8.5819      8.9647      9.3654      9.7554      10.082      10.292      10.346      10.231      9.9606    
  10.157      9.9173      9.6451      9.3972      9.2245      9.1626      9.2245      9.3972      9.6451      9.9173    
  10.157      10.314      10.352      10.257      10.036      9.7175      9.3450      8.9596      8.5844      8.2407    
  7.9485      7.7257      7.5861      7.5386      7.5861      7.7257      7.9485      8.2407      8.5844      8.9596    
  9.3450      9.7175      10.036      10.257      10.352      10.314      10.336      10.271      10.147      10.004    
  9.8796      9.8084      9.8084      9.8796      10.004      10.147      10.271      10.336      10.312      10.185    
  9.9594      9.6564      9.3100      8.9489      8.5916      8.2569      7.9628      7.7257      7.5594      7.4737    
  7.4737      7.5594      7.7257      7.9628      8.2569      8.5916      8.9489      9.3100      9.6564      9.9594    
  10.185      10.312      10.204      10.269      10.269      10.226      10.168      10.120      10.102      10.120    
  10.168      10.226      10.269      10.269      10.204      10.062      9.8451      9.5692      9.2588      8.9314    
  8.6026      8.2884      8.0048      7.7664      7.5861      7.4737      7.4356      7.4737      7.5861      7.7664    
  8.0048      8.2884      8.6026      8.9314      9.2588      9.5692      9.8451      10.062      9.8821      10.020    
  10.102      10.137      10.140      10.129      10.120      10.120      10.129      10.140      10.137      10.102    
  10.020      9.8821      9.6899      9.4546      9.1895      8.9057      8.6158      8.3336      8.0727      7.8460    
  7.6648      7.5386      7.4737      7.4737      7.5386      7.6649      7.8460      8.0727      8.3336      8.6158    
  8.9057      9.1895      9.4546      9.6899      9.4963      9.6480      9.7626      9.8392      9.8833      9.9042    
  9.9117      9.9133      9.9117      9.9042      9.8833      9.8392      9.7626      9.6480      9.4963      9.3122    
  9.1007      8.8696      8.6288      8.3895      8.1631      7.9605      7.7917      7.6648      7.5861      7.5594    
  7.5861      7.6649      7.7917      7.9605      8.1631      8.3895      8.6288      8.8696      9.1007      9.3122    
  9.1431      9.2705      9.3723      9.4489      9.5026      9.5363      9.5548      9.5627      9.5627      9.5548    
  9.5363      9.5026      9.4489      9.3723      9.2705      9.1431      8.9918      8.8214      8.6388      8.4525    
  8.2714      8.1047      7.9605      7.8460      7.7664      7.7257      7.7257      7.7664      7.8460      7.9605    
  8.1047      8.2714      8.4525      8.6388      8.8214      8.9918      8.8634      8.9502      9.0186      9.0691    
  9.1038      9.1261      9.1390      9.1455      9.1475      9.1455      9.1390      9.1261      9.1038      9.0691    
  9.0186      8.9502      8.8634      8.7597      8.6428      8.5180      8.3919      8.2714      8.1631      8.0727    
  8.0048      7.9628      7.9485      7.9628      8.0048      8.0727      8.1631      8.2714      8.3919      8.5180    
  8.6428      8.7597      8.6843      8.7182      8.7393      8.7489      8.7498      8.7452      8.7384      8.7323    
  8.7287      8.7287      8.7323      8.7384      8.7452      8.7498      8.7489      8.7393      8.7182      8.6843    
  8.6380      8.5814      8.5180      8.4525      8.3895      8.3336      8.2884      8.2569      8.2407      8.2407    
  8.2569      8.2884      8.3336      8.3895      8.4525      8.5180      8.5814      8.6380      8.6227      8.5965    
  8.5606      8.5179      8.4722      8.4278      8.3887      8.3583      8.3392      8.3326      8.3392      8.3583    
  8.3887      8.4278      8.4722      8.5179      8.5606      8.5965      8.6227      8.6380      8.6428      8.6388    
  8.6288      8.6158      8.6026      8.5916      8.5844      8.5819      8.5844      8.5916      8.6026      8.6158    
  8.6288      8.6388      8.6428      8.6380      8.6843      8.5965      8.4992      8.3970      8.2954      8.2002    
  8.1172      8.0508      8.0046      7.9810      7.9810      8.0046      8.0508      8.1172      8.2002      8.2954    
  8.3970      8.4992      8.5965      8.6843      8.7597      8.8214      8.8696      8.9057      8.9314      8.9489    
  8.9596      8.9647      8.9647      8.9596      8.9489      8.9314      8.9057      8.8696      8.8214      8.7597    
  8.8634      8.7182      8.5606      8.3970      8.2347      8.0816      7.9452      7.8321      7.7477      7.6955    
  7.6779      7.6955      7.7476      7.8321      7.9452      8.0816      8.2347      8.3970      8.5606      8.7182    
  8.8634      8.9918      9.1007      9.1895      9.2588      9.3100      9.3450      9.3654      9.3720      9.3654    
  9.3450      9.3100      9.2588      9.1895      9.1007      8.9918      9.1431      8.9502      8.7393      8.5179    
  8.2954      8.0816      7.8863      7.7186      7.5860      7.4942      7.4474      7.4474      7.4942      7.5860    
  7.7186      7.8863      8.0816      8.2954      8.5179      8.7393      8.9502      9.1431      9.3122      9.4546    
  9.5692      9.6564      9.7175      9.7554      9.7733      9.7733      9.7554      9.7175      9.6564      9.5692    
  9.4546      9.3122      9.4963      9.2705      9.0186      8.7489      8.4722      8.2002      7.9452      7.7186    
  7.5308      7.3902      7.3033      7.2739      7.3033      7.3902      7.5308      7.7186      7.9452      8.2002    
  8.4722      8.7489      9.0186      9.2705      9.4963      9.6899      9.8451      9.9594      10.036      10.082    
  10.106      10.113      10.106      10.082      10.036      9.9594      9.8451      9.6899      9.8821      9.6480    
  9.3723      9.0691      8.7498      8.4278      8.1172      7.8321      7.5860      7.3902      7.2543      7.1846    
  7.1846      7.2543      7.3902      7.5860      7.8321      8.1172      8.4278      8.7498      9.0691      9.3723    
  9.6480      9.8821      10.062      10.185      10.257      10.292      10.303      10.305      10.305      10.303    
  10.292      10.257      10.185      10.062      10.204      10.020      9.7626      9.4489      9.1038      8.7452    
  8.3887      8.0508      7.7476      7.4942      7.3033      7.1846      7.1443      7.1846      7.3033      7.4942    
  7.7476      8.0508      8.3887      8.7452      9.1038      9.4489      9.7626      10.020      10.204      10.312    
  10.352      10.346      10.317      10.288      10.276      10.288      10.317      10.346      10.352      10.312    
  10.336      10.269      10.102      9.8392      9.5026      9.1261      8.7384      8.3583      8.0046      7.6955    
  7.4474      7.2739      7.1846      7.1846      7.2739      7.4474      7.6955      8.0046      8.3583      8.7384    
  9.1261      9.5026      9.8392      10.102      10.269      10.336      10.314      10.231      10.123      10.025    
  9.9673      9.9673      10.025      10.123      10.231      10.314      10.157      10.271      10.269      10.137    
  9.8833      9.5363      9.1390      8.7323      8.3392      7.9810      7.6779      7.4474      7.3033      7.2543    
  7.3033      7.4474      7.6779      7.9810      8.3392      8.7323      9.1390      9.5363      9.8833      10.137    
  10.269      10.271      10.157      9.9606      9.7286      9.5133      9.3621      9.3078      9.3621      9.5133    
  9.7286      9.9606      9.5737      9.9173      10.147      10.226      10.140      9.9042      9.5548      9.1455    
  8.7287      8.3326      7.9810      7.6955      7.4942      7.3902      7.3902      7.4942      7.6955      7.9810    
  8.3326      8.7287      9.1455      9.5548      9.9042      10.140      10.226      10.147      9.9173      9.5737    
  9.1752      8.7909      8.4888      8.3228      8.3228      8.4888      8.7909      9.1752      8.5326      9.1323    
  9.6451      10.004      10.168      10.129      9.9117      9.5627      9.1475      8.7287      8.3392      8.0046    
  7.7476      7.5860      7.5308      7.5860      7.7477      8.0046      8.3392      8.7287      9.1475      9.5627    
  9.9117      10.129      10.168      10.004      9.6451      9.1323      8.5326      7.9316      7.4195      7.0759    
  6.9549      7.0759      7.4195      7.9316      7.0380      7.8904      8.7099      9.3972      9.8796      10.120    
  10.120      9.9133      9.5627      9.1455      8.7323      8.3583      8.0508      7.8321      7.7186      7.7186    
  7.8321      8.0508      8.3583      8.7323      9.1455      9.5627      9.9133      10.120      10.120      9.8796    
  9.3972      8.7099      7.8904      7.0380      6.2651      5.6787      5.3625      5.3625      5.6787      6.2651    
  5.1607      6.2274      7.3439      8.3790      9.2245      9.8084      10.102      10.120      9.9117      9.5548    
  9.1390      8.7384      8.3887      8.1172      7.9452      7.8863      7.9452      8.1172      8.3887      8.7384    
  9.1390      9.5548      9.9117      10.120      10.102      9.8084      9.2245      8.3790      7.3439      6.2274    
  5.1607      4.2783      3.6962      3.4929      3.6962      4.2783      3.0375      4.2459      5.6119      6.9772    
  8.1975      9.1626      9.8084      10.120      10.129      9.9042      9.5363      9.1261      8.7452      8.4278    
  8.2002      8.0816      8.0816      8.2002      8.4278      8.7452      9.1261      9.5363      9.9042      10.129    
  10.120      9.8084      9.1626      8.1975      6.9772      5.6119      4.2459      3.0375      2.1350      1.6527    
  1.6527      2.1350     0.85996      2.1097      3.6419      5.2799      6.8481      8.1975      9.2245      9.8796    
  10.168      10.140      9.8833      9.5026      9.1038      8.7498      8.4722      8.2954      8.2347      8.2954    
  8.4722      8.7498      9.1038      9.5026      9.8833      10.140      10.168      9.8796      9.2245      8.1975    
  6.8481      5.2799      3.6419      2.1097     0.85996     0.42868E-01 -.24123     0.42866E-01 -1.1506     0.25513E-01
  1.6134      3.4308      5.2799      6.9772      8.3790      9.3972      10.004      10.226      10.137      9.8392    
  9.4489      9.0691      8.7489      8.5179      8.3970      8.3970      8.5179      8.7489      9.0691      9.4489    
  9.8392      10.137      10.226      10.004      9.3972      8.3790      6.9772      5.2799      3.4308      1.6134    
 0.25516E-01 -1.1506     -1.7761     -1.7761     -2.7754     -1.7857     -.26476      1.6134      3.6419      5.6119    
  7.3439      8.7099      9.6451      10.147      10.269      10.102      9.7626      9.3723      9.0186      8.7393    
  8.5606      8.4992      8.5606      8.7393      9.0186      9.3723      9.7626      10.102      10.269      10.147    
  9.6451      8.7099      7.3439      5.6119      3.6419      1.6134     -.26476     -1.7857     -2.7754     -3.1187    
 -3.8311     -3.1221     -1.7857     0.25513E-01  2.1097      4.2459      6.2274      7.8904      9.1323      9.9173    
  10.271      10.269      10.020      9.6480      9.2705      8.9502      8.7182      8.5965      8.5965      8.7182    
  8.9502      9.2705      9.6480      10.020      10.269      10.271      9.9173      9.1323      7.8904      6.2274    
  4.2459      2.1097     0.25514E-01 -1.7857     -3.1221     -3.8311     -3.8400     -3.4813     -2.4468     -.85543    
  1.1126      3.2421      5.3158      7.1460      8.5987      9.6052      10.162      10.321      10.178      9.8502    
  9.4627      9.1092      8.8296      8.6506      8.5891      8.6506      8.8296      9.1092      9.4627      9.8502    
  10.178      10.321      10.162      9.6052      8.5987      7.1460      5.3158      3.2421      1.1126     -.85543    
 -2.4468     -3.4813     -3.4813     -3.4813     -2.7833     -1.4684     0.31219      2.3587      4.4529      6.3914    
  8.0135      9.2192      9.9743      10.305      10.288      10.030      9.6544      9.2762      8.9557      8.7238    
  8.6021      8.6021      8.7238      8.9557      9.2762      9.6543      10.030      10.288      10.305      9.9743    
  9.2192      8.0135      6.3914      4.4529      2.3587     0.31219     -1.4684     -2.7833     -2.4468     -2.7864    
 -2.4468     -1.4684     0.33832E-01  1.8864      3.8834      5.8183      7.5142      8.8458      9.7506      10.228    
  10.332      10.153      9.8084      9.4166      9.0626      8.7834      8.6050      8.5436      8.6050      8.7834    
  9.0626      9.4166      9.8084      10.153      10.332      10.228      9.7506      8.8458      7.5142      5.8183    
  3.8834      1.8864     0.33829E-01 -1.4684     -.85543     -1.4769     -1.4769     -.85543     0.31219      1.8864    
  3.6844      5.5092      7.1787      8.5516      9.5422      10.125      10.328      10.227      9.9222      9.5296    
  9.1497      8.8300      8.5994      8.4787      8.4787      8.5994      8.8300      9.1497      9.5296      9.9222    
  10.227      10.328      10.125      9.5422      8.5516      7.1787      5.5092      3.6844      1.8864     0.31219    
  1.1126     0.29677     0.12928E-01 0.29677      1.1126      2.3587      3.8834      5.5092      7.0605      8.3898    
  9.3954      10.031      10.302      10.263      9.9988      9.6158      9.2176      8.8646      8.5881      8.4120    
  8.3516      8.4120      8.5881      8.8646      9.2176      9.6158      9.9988      10.263      10.302      10.031    
  9.3954      8.3898      7.0605      5.5092      3.8834      2.3587      3.2421      2.3361      1.8514      1.8514    
  2.3361      3.2421      4.4529      5.8183      7.1787      8.3898      9.3427      9.9752      10.275      10.275    
  10.045      9.6762      9.2678      8.8893      8.5741      8.3481      8.2303      8.2303      8.3481      8.5741    
  8.8893      9.2678      9.6762      10.045      10.275      10.275      9.9752      9.3427      8.3898      7.1787    
  5.8183      4.4529      5.3158      4.4241      3.8350      3.6291      3.8350      4.4241      5.3158      6.3914    
  7.5141      8.5516      9.3954      9.9752      10.264      10.278      10.069      9.7137      9.3021      8.9060    
  8.5602      8.2916      8.1215      8.0633      8.1215      8.2916      8.5602      8.9060      9.3021      9.7137    
  10.069      10.278      10.264      9.9752      9.3954      8.5516      7.5142      6.3914      7.1460      6.3578    
  5.7588      5.4355      5.4355      5.7588      6.3578      7.1460      8.0135      8.8458      9.5422      10.031    
  10.275      10.278      10.076      9.7315      9.3220      8.9162      8.5487      8.2461      8.0309      7.9191    
  7.9191      8.0309      8.2461      8.5487      8.9162      9.3220      9.7315      10.076      10.278      10.275    
  10.031      9.5422      8.8458      8.0135      8.5987      7.9768      7.4467      7.0907      6.9653      7.0907    
  7.4467      7.9768      8.5987      9.2192      9.7506      10.125      10.302      10.275      10.069      9.7315    
  9.3285      8.9211      8.5412      8.2143      7.9629      7.8046      7.7505      7.8046      7.9629      8.2143    
  8.5412      8.9211      9.3285      9.7315      10.069      10.275      10.302      10.125      9.7506      9.2192    
  9.6052      9.1810      8.7736      8.4538      8.2782      8.2782      8.4538      8.7736      9.1810      9.6052    
  9.9743      10.228      10.328      10.263      10.045      9.7137      9.3220      8.9211      8.5386      8.1980    
  7.9208      7.7251      7.6239      7.6239      7.7251      7.9208      8.1980      8.5386      8.9211      9.3220    
  9.7137      10.045      10.263      10.328      10.228      9.9743      10.162      9.9358      9.6764      9.4388    
  9.2729      9.2134      9.2729      9.4388      9.6764      9.9358      10.162      10.305      10.332      10.227    
  9.9988      9.6762      9.3021      8.9162      8.5412      8.1980      7.9066      7.6845      7.5454      7.4980    
  7.5454      7.6845      7.9066      8.1980      8.5412      8.9162      9.3021      9.6762      9.9988      10.227    
  10.332      10.305      10.321      10.267      10.154      10.019      9.9015      9.8338      9.8338      9.9015    
  10.019      10.154      10.267      10.321      10.288      10.153      9.9222      9.6158      9.2678      8.9060    
  8.5487      8.2143      7.9208      7.6845      7.5188      7.4334      7.4334      7.5188      7.6845      7.9208    
  8.2143      8.5487      8.9060      9.2678      9.6158      9.9222      10.153      10.288      10.178      10.250    
  10.258      10.222      10.169      10.126      10.109      10.126      10.169      10.222      10.258      10.250    
  10.178      10.030      9.8084      9.5296      9.2176      8.8893      8.5602      8.2461      7.9629      7.7251    
  7.5454      7.4334      7.3954      7.4334      7.5454      7.7251      7.9629      8.2461      8.5602      8.8893    
  9.2176      9.5296      9.8084      10.030      9.8502      9.9925      10.080      10.120      10.128      10.121    
  10.113      10.113      10.121      10.128      10.120      10.080      9.9925      9.8502      9.6543      9.4166    
  9.1497      8.8646      8.5741      8.2916      8.0309      7.8045      7.6239      7.4980      7.4334      7.4334    
  7.4980      7.6239      7.8046      8.0309      8.2916      8.5741      8.8646      9.1497      9.4166      9.6543    
  9.4627      9.6173      9.7353      9.8157      9.8635      9.8873      9.8968      9.8991      9.8968      9.8873    
  9.8635      9.8157      9.7353      9.6173      9.4627      9.2762      9.0626      8.8300      8.5881      8.3481    
  8.1215      7.9191      7.7505      7.6239      7.5454      7.5188      7.5454      7.6239      7.7505      7.9191    
  8.1215      8.3481      8.5881      8.8300      9.0626      9.2762      9.1092      9.2393      9.3438      9.4231    
  9.4794      9.5156      9.5359      9.5447      9.5447      9.5359      9.5156      9.4794      9.4231      9.3438    
  9.2393      9.1092      8.9557      8.7834      8.5994      8.4120      8.2303      8.0633      7.9191      7.8045    
  7.7251      7.6845      7.6845      7.7251      7.8046      7.9191      8.0633      8.2303      8.4120      8.5994    
  8.7834      8.9557      8.8296      8.9189      8.9899      9.0430      9.0803      9.1047      9.1194      9.1270    
  9.1293      9.1270      9.1194      9.1047      9.0803      9.0430      8.9899      8.9189      8.8296      8.7238    
  8.6050      8.4787      8.3516      8.2303      8.1215      8.0309      7.9629      7.9208      7.9066      7.9208    
  7.9629      8.0309      8.1215      8.2303      8.3516      8.4787      8.6050      8.7238      8.6506      8.6870    
  8.7107      8.7230      8.7265      8.7242      8.7193      8.7145      8.7116      8.7116      8.7145      8.7193    
  8.7242      8.7265      8.7230      8.7107      8.6870      8.6506      8.6021      8.5436      8.4787      8.4120    
  8.3481      8.2916      8.2461      8.2143      8.1980      8.1980      8.2143      8.2461      8.2916      8.3481    
  8.4120      8.4787      8.5436      8.6021      8.5891      8.5654      8.5322      8.4923      8.4492      8.4073    
  8.3703      8.3416      8.3234      8.3172      8.3234      8.3416      8.3703      8.4073      8.4492      8.4923    
  8.5322      8.5654      8.5891      8.6021      8.6050      8.5994      8.5881      8.5741      8.5602      8.5487    
  8.5412      8.5386      8.5412      8.5487      8.5602      8.5741      8.5881      8.5994      8.6050      8.6021    
  8.6506      8.5654      8.4708      8.3715      8.2727      8.1802      8.0994      8.0349      7.9901      7.9672    
  7.9672      7.9901      8.0349      8.0994      8.1802      8.2727      8.3715      8.4708      8.5654      8.6506    
  8.7238      8.7834      8.8300      8.8646      8.8893      8.9060      8.9162      8.9211      8.9211      8.9162    
  8.9060      8.8893      8.8646      8.8300      8.7834      8.7238      8.8296      8.6870      8.5322      8.3715    
  8.2121      8.0618      7.9280      7.8170      7.7342      7.6830      7.6657      7.6830      7.7342      7.8170    
  7.9280      8.0618      8.2121      8.3715      8.5322      8.6870      8.8296      8.9557      9.0626      9.1497    
  9.2176      9.2678      9.3021      9.3220      9.3285      9.3220      9.3021      9.2678      9.2176      9.1497    
  9.0626      8.9557      9.1092      8.9189      8.7107      8.4923      8.2727      8.0618      7.8693      7.7039    
  7.5732      7.4828      7.4366      7.4366      7.4828      7.5732      7.7039      7.8693      8.0618      8.2727    
  8.4923      8.7107      8.9189      9.1092      9.2762      9.4166      9.5296      9.6158      9.6762      9.7137    
  9.7315      9.7315      9.7137      9.6762      9.6158      9.5296      9.4166      9.2762      9.4627      9.2393    
  8.9899      8.7230      8.4492      8.1802      7.9280      7.7039      7.5182      7.3793      7.2934      7.2643    
  7.2934      7.3793      7.5182      7.7039      7.9280      8.1802      8.4492      8.7230      8.9899      9.2393    
  9.4627      9.6543      9.8084      9.9222      9.9988      10.045      10.069      10.076      10.069      10.045    
  9.9988      9.9222      9.8084      9.6544      9.8502      9.6173      9.3438      9.0430      8.7265      8.4073    
  8.0994      7.8170      7.5732      7.3793      7.2447      7.1757      7.1757      7.2447      7.3793      7.5732    
  7.8170      8.0994      8.4073      8.7265      9.0430      9.3438      9.6173      9.8502      10.030      10.153    
  10.227      10.263      10.275      10.278      10.278      10.275      10.263      10.227      10.153      10.030    
  10.178      9.9925      9.7353      9.4231      9.0803      8.7242      8.3703      8.0349      7.7342      7.4828    
  7.2934      7.1757      7.1358      7.1757      7.2934      7.4828      7.7342      8.0349      8.3703      8.7242    
  9.0803      9.4231      9.7353      9.9925      10.178      10.288      10.332      10.328      10.302      10.275    
  10.264      10.275      10.302      10.328      10.332      10.288      10.321      10.250      10.080      9.8157    
  9.4794      9.1047      8.7193      8.3416      7.9901      7.6830      7.4366      7.2643      7.1757      7.1757    
  7.2643      7.4366      7.6830      7.9901      8.3416      8.7193      9.1047      9.4794      9.8157      10.080    
  10.250      10.321      10.305      10.228      10.125      10.031      9.9752      9.9752      10.031      10.125    
  10.228      10.305      10.162      10.267      10.258      10.120      9.8635      9.5156      9.1194      8.7145    
  8.3234      7.9671      7.6657      7.4366      7.2934      7.2447      7.2934      7.4366      7.6657      7.9672    
  8.3234      8.7145      9.1194      9.5156      9.8635      10.120      10.258      10.267      10.162      9.9743    
  9.7506      9.5422      9.3954      9.3427      9.3954      9.5422      9.7506      9.9743      9.6052      9.9358    
  10.154      10.222      10.128      9.8873      9.5359      9.1270      8.7116      8.3172      7.9671      7.6830    
  7.4828      7.3793      7.3793      7.4828      7.6830      7.9672      8.3172      8.7116      9.1270      9.5359    
  9.8873      10.128      10.222      10.154      9.9358      9.6052      9.2192      8.8458      8.5516      8.3898    
  8.3898      8.5516      8.8458      9.2192      8.5987      9.1810      9.6764      10.019      10.169      10.121    
  9.8968      9.5447      9.1293      8.7116      8.3234      7.9901      7.7342      7.5732      7.5182      7.5732    
  7.7342      7.9901      8.3234      8.7116      9.1293      9.5447      9.8968      10.121      10.169      10.019    
  9.6764      9.1810      8.5987      8.0135      7.5141      7.1787      7.0605      7.1787      7.5142      8.0135    
  7.1460      7.9768      8.7736      9.4388      9.9015      10.126      10.113      9.8991      9.5447      9.1270    
  8.7145      8.3416      8.0349      7.8170      7.7039      7.7039      7.8170      8.0349      8.3416      8.7145    
  9.1270      9.5447      9.8991      10.113      10.126      9.9015      9.4388      8.7736      7.9768      7.1460    
  6.3914      5.8183      5.5092      5.5092      5.8183      6.3914      5.3158      6.3578      7.4467      8.4538    
  9.2729      9.8338      10.109      10.113      9.8968      9.5359      9.1194      8.7193      8.3703      8.0994    
  7.9280      7.8693      7.9280      8.0994      8.3703      8.7193      9.1194      9.5359      9.8968      10.113    
  10.109      9.8338      9.2729      8.4538      7.4467      6.3578      5.3158      4.4529      3.8834      3.6844    
  3.8834      4.4529      3.2421      4.4240      5.7588      7.0907      8.2782      9.2134      9.8338      10.126    
  10.121      9.8873      9.5156      9.1047      8.7242      8.4073      8.1802      8.0618      8.0618      8.1802    
  8.4073      8.7242      9.1047      9.5156      9.8873      10.121      10.126      9.8338      9.2134      8.2782    
  7.0907      5.7588      4.4241      3.2421      2.3587      1.8864      1.8864      2.3587      1.1126      2.3361    