Si beta-tin                             
   2.58000000000000     
     1.008864   -0.000000   -0.000000
    -0.504432    0.873702    0.000000
     0.000000   -0.000000    1.604420
    S
     2
Direct
 -0.000000 -0.000000 -0.000000
  0.333333  0.666667  0.500000
 
   36   36   60
 -.41967901649E+01 -.38251480845E+01 -.27540657827E+01 -.11091983833E+01 0.91968669113E+00
 0.31071517730E+01 0.52269075410E+01 0.70854243524E+01 0.85466158387E+01 0.95433856224E+01
 0.10076549973E+02 0.10204609887E+02 0.10028121778E+02 0.96713043696E+01 0.92623576820E+01
 0.88925472831E+01 0.86009890436E+01 0.84147283872E+01 0.83507202986E+01 0.84147283337E+01
 0.86009889782E+01 0.88925472643E+01 0.92623577485E+01 0.96713045107E+01 0.10028121928E+02
 0.10204609949E+02 0.10076549858E+02 0.95433852969E+01 0.85466153437E+01 0.70854237950E+01
 0.52269070552E+01 0.31071514668E+01 0.91968660379E+00 -.11091982948E+01 -.27540656217E+01
 -.38251479665E+01 -.38251479665E+01 -.38251481105E+01 -.31028528891E+01 -.17438436059E+01
 0.92586535590E-01 0.21968293142E+01 0.43412207157E+01 0.63149462152E+01 0.79535542888E+01
 0.91569216706E+01 0.98939832454E+01 0.10196561585E+02 0.10146135190E+02 0.98567263735E+01
 0.94560096072E+01 0.90596977497E+01 0.87252149963E+01 0.84837555225E+01 0.83573450076E+01
 0.83573450039E+01 0.84837555268E+01 0.87252150440E+01 0.90596978689E+01 0.94560097919E+01
 0.98567265717E+01 0.10146135318E+02 0.10196561563E+02 0.98939830393E+01 0.91569213173E+01
 0.79535538945E+01 0.63149459198E+01 0.43412206380E+01 0.21968295001E+01 0.92586933222E-01
 -.17438431327E+01 -.31028525107E+01 -.27540656217E+01 -.31049246743E+01 -.27540659692E+01
 -.17438437343E+01 -.19533730910E+00 0.17094124128E+01 0.37553610552E+01 0.57279976720E+01
 0.74451672275E+01 0.87800942022E+01 0.96719284849E+01 0.10124454957E+02 0.10196219500E+02
 0.99855105268E+01 0.96126386710E+01 0.92004187798E+01 0.88308085643E+01 0.85401677870E+01
 0.83547695672E+01 0.82911009754E+01 0.83547696031E+01 0.85401678638E+01 0.88308086838E+01
 0.92004189289E+01 0.96126388169E+01 0.99855106240E+01 0.10196219509E+02 0.10124454869E+02
 0.96719283367E+01 0.87800940748E+01 0.74451672235E+01 0.57279978772E+01 0.37553614994E+01
 0.17094130472E+01 -.19533660844E+00 -.17438431327E+01 -.11091982948E+01 -.17496412157E+01
 -.17496413723E+01 -.11091987365E+01 0.92586283999E-01 0.17094122998E+01 0.35505036269E+01
 0.54108214036E+01 0.71027004654E+01 0.84818941605E+01 0.94630410692E+01 0.10023435035E+02
 0.10197214795E+02 0.10063201545E+02 0.97290612084E+01 0.93136896253E+01 0.89169268904E+01
 0.85841731749E+01 0.83448498567E+01 0.82198038757E+01 0.82198039018E+01 0.83448499251E+01
 0.85841732584E+01 0.89169269544E+01 0.93136896398E+01 0.97290611605E+01 0.10063201448E+02
 0.10197214688E+02 0.10023434979E+02 0.94630411312E+01 0.84818943951E+01 0.71027008974E+01
 0.54108220155E+01 0.35505043561E+01 0.17094130472E+01 0.92586933222E-01 0.91968660379E+00
 0.82136950808E-01 -.20951295497E+00 0.82136784505E-01 0.91968627657E+00 0.21968290297E+01
 0.37553609246E+01 0.54108214001E+01 0.69819300651E+01 0.83174896634E+01 0.93152569166E+01
 0.99302497285E+01 0.10173240188E+02 0.10101999849E+02 0.98079454153E+01 0.94001942074E+01
 0.89841448831E+01 0.86170255000E+01 0.83302601150E+01 0.81480355894E+01 0.80855667691E+01
 0.81480356260E+01 0.83302601551E+01 0.86170254943E+01 0.89841447920E+01 0.94001940244E+01
 0.98079451773E+01 0.10101999629E+02 0.10173240072E+02 0.99302497866E+01 0.93152571794E+01
 0.83174901120E+01 0.69819306386E+01 0.54108220155E+01 0.37553614994E+01 0.21968295001E+01
 0.31071514668E+01 0.21816494729E+01 0.16858522202E+01 0.16858522339E+01 0.21816494967E+01
 0.31071514579E+01 0.43412205517E+01 0.57279976925E+01 0.71027006339E+01 0.83174898274E+01
 0.92620030740E+01 0.98751454946E+01 0.10147600922E+02 0.10116695301E+02 0.98559271139E+01
 0.94611806249E+01 0.90338914037E+01 0.86404947593E+01 0.83139231983E+01 0.80805021036E+01
 0.79589463062E+01 0.79589463122E+01 0.80805021070E+01 0.83139231636E+01 0.86404946512E+01
 0.90338912109E+01 0.94611803735E+01 0.98559268639E+01 0.10116695125E+02 0.10147600879E+02
 0.98751456022E+01 0.92620033031E+01 0.83174901120E+01 0.71027008974E+01 0.57279978772E+01
 0.43412206380E+01 0.52269070552E+01 0.43219810032E+01 0.37230004200E+01 0.35134834183E+01
 0.37230006279E+01 0.43219813675E+01 0.52269074901E+01 0.63149463336E+01 0.74451675464E+01
 0.84818945974E+01 0.93152572733E+01 0.98751456297E+01 0.10137030968E+02 0.10120277930E+02
 0.98806988458E+01 0.94992124985E+01 0.90678687893E+01 0.86563736122E+01 0.82985087169E+01
 0.80214645872E+01 0.78463401224E+01 0.77864506273E+01 0.78463401064E+01 0.80214645492E+01
 0.82985086507E+01 0.86563735187E+01 0.90678686814E+01 0.94992123984E+01 0.98806987750E+01
 0.10120277897E+02 0.10137030957E+02 0.98751456022E+01 0.93152571794E+01 0.84818943951E+01
 0.74451672235E+01 0.63149459198E+01 0.70854237950E+01 0.62927885567E+01 0.56886293895E+01
 0.53620277933E+01 0.53620279697E+01 0.56886298872E+01 0.62927892881E+01 0.70854246371E+01
 0.79535547164E+01 0.87800947651E+01 0.94630416189E+01 0.99302500500E+01 0.10147600942E+02
 0.10120277817E+02 0.98882145567E+01 0.95172720498E+01 0.90875827268E+01 0.86661349595E+01
 0.82861141156E+01 0.79743669784E+01 0.77531838697E+01 0.76384639901E+01 0.76384639779E+01
 0.77531838412E+01 0.79743669551E+01 0.82861141243E+01 0.86661350217E+01 0.90875828472E+01
 0.95172722086E+01 0.98882147083E+01 0.10120277897E+02 0.10147600879E+02 0.99302497866E+01
 0.94630411312E+01 0.87800940748E+01 0.79535538945E+01 0.85466153437E+01 0.79297388510E+01
 0.74011583590E+01 0.70451066808E+01 0.69195417765E+01 0.70451070775E+01 0.74011590804E+01
 0.79297397691E+01 0.85466163034E+01 0.91569221696E+01 0.96719289684E+01 0.10023435332E+02
 0.10173240149E+02 0.10116694980E+02 0.98806984918E+01 0.95172718803E+01 0.90940374932E+01
 0.86707721119E+01 0.82781571721E+01 0.79416906896E+01 0.76837061739E+01 0.75215678334E+01
 0.74662684491E+01 0.75215678235E+01 0.76837061749E+01 0.79416907352E+01 0.82781572949E+01
 0.86707723279E+01 0.90940377892E+01 0.95172722086E+01 0.98806987750E+01 0.10116695125E+02
 0.10173240072E+02 0.10023434979E+02 0.96719283367E+01 0.91569213173E+01 0.95433852969E+01
 0.91325185093E+01 0.87337261901E+01 0.84188147476E+01 0.82453611294E+01 0.82453613007E+01
 0.84188152198E+01 0.87337268501E+01 0.91325192065E+01 0.95433858856E+01 0.98939834163E+01
 0.10124454995E+02 0.10197214588E+02 0.10101999372E+02 0.98559265366E+01 0.94992120773E+01
 0.90875825819E+01 0.86707721369E+01 0.82754226975E+01 0.79249867449E+01 0.76408667127E+01
 0.74408022920E+01 0.73374699624E+01 0.73374699676E+01 0.74408023097E+01 0.76408667501E+01
 0.79249868153E+01 0.82754228196E+01 0.86707723279E+01 0.90875828472E+01 0.94992123984E+01
 0.98559268639E+01 0.10101999629E+02 0.10197214688E+02 0.10124454869E+02 0.98939830393E+01
 0.10076549858E+02 0.98696968651E+01 0.96249224176E+01 0.93973144921E+01 0.92371557834E+01
 0.91795707019E+01 0.92371559242E+01 0.93973147050E+01 0.96249225942E+01 0.98696969018E+01
 0.10076549699E+02 0.10196561223E+02 0.10196219063E+02 0.10063201003E+02 0.98079448306E+01
 0.94611801763E+01 0.90678686276E+01 0.86661350601E+01 0.82781573584E+01 0.79249868523E+01
 0.76263976017E+01 0.73995652273E+01 0.72578175799E+01 0.72096035763E+01 0.72578176092E+01
 0.73995652616E+01 0.76263976085E+01 0.79249868153E+01 0.82781572949E+01 0.86661350217E+01
 0.90678686814E+01 0.94611803735E+01 0.98079451773E+01 0.10063201448E+02 0.10196219509E+02
 0.10196561563E+02 0.10204609949E+02 0.10172710100E+02 0.10077788625E+02 0.99569626083E+01
 0.98490714478E+01 0.97861147064E+01 0.97861146397E+01 0.98490712359E+01 0.99569622262E+01
 0.10077788060E+02 0.10172709380E+02 0.10204609153E+02 0.10146134566E+02 0.99855100435E+01
 0.97290608430E+01 0.94001939935E+01 0.90338914132E+01 0.86563738441E+01 0.82861144479E+01
 0.79416909621E+01 0.76408668455E+01 0.73995652531E+01 0.72308655741E+01 0.71440886765E+01
 0.71440887009E+01 0.72308656219E+01 0.73995652616E+01 0.76408667501E+01 0.79416907352E+01
 0.82861141243E+01 0.86563735187E+01 0.90338912109E+01 0.94001940244E+01 0.97290611605E+01
 0.99855106240E+01 0.10146135318E+02 0.10028121928E+02 0.10122743398E+02 0.10150211315E+02
 0.10130907204E+02 0.10090708202E+02 0.10054555205E+02 0.10040341010E+02 0.10054554804E+02
 0.10090707457E+02 0.10130906222E+02 0.10150210239E+02 0.10122742387E+02 0.10028121128E+02
 0.98567260862E+01 0.96126386863E+01 0.93136898305E+01 0.89841452070E+01 0.86404951571E+01
 0.82985091156E+01 0.79743672849E+01 0.76837063359E+01 0.74408023291E+01 0.72578175556E+01
 0.71440886498E+01 0.71055071797E+01 0.71440887009E+01 0.72578176092E+01 0.74408023097E+01
 0.76837061749E+01 0.79743669551E+01 0.82985086507E+01 0.86404946512E+01 0.89841447920E+01
 0.93136896398E+01 0.96126388169E+01 0.98567265717E+01 0.96713045107E+01 0.98336627893E+01
 0.99400546528E+01 0.99972218256E+01 0.10018801697E+02 0.10021024403E+02 0.10018045179E+02
 0.10018044906E+02 0.10021023653E+02 0.10018800654E+02 0.99972207375E+01 0.99400537579E+01
 0.98336622545E+01 0.96713043954E+01 0.94560100468E+01 0.92004194271E+01 0.89169275389E+01
 0.86170260256E+01 0.83139235517E+01 0.80214647644E+01 0.77531839045E+01 0.75215677863E+01
 0.73374698893E+01 0.72096035076E+01 0.71440886498E+01 0.71440886765E+01 0.72096035763E+01
 0.73374699676E+01 0.75215678235E+01 0.77531838412E+01 0.80214645492E+01 0.83139231636E+01
 0.86170254943E+01 0.89169269544E+01 0.92004189289E+01 0.94560097919E+01 0.92623577485E+01
 0.94331063445E+01 0.95674591034E+01 0.96631796612E+01 0.97241111279E+01 0.97581293474E+01
 0.97740206774E+01 0.97784876440E+01 0.97740202358E+01 0.97581286279E+01 0.97241103955E+01
 0.96631791825E+01 0.95674590503E+01 0.94331067374E+01 0.92623584609E+01 0.90596986852E+01
 0.88308093849E+01 0.85841736981E+01 0.83302602974E+01 0.80805020165E+01 0.78463399005E+01
 0.76384637689E+01 0.74662683029E+01 0.73374698893E+01 0.72578175556E+01 0.72308655741E+01
 0.72578175799E+01 0.73374699624E+01 0.74662684491E+01 0.76384639779E+01 0.78463401064E+01
 0.80805021070E+01 0.83302601551E+01 0.85841732584E+01 0.88308086838E+01 0.90596978689E+01
 0.88925472643E+01 0.90368228448E+01 0.91552534958E+01 0.92475918506E+01 0.93155012439E+01
 0.93613015621E+01 0.93885577596E+01 0.94010214535E+01 0.94010213635E+01 0.93885575577E+01
 0.93613014200E+01 0.93155013545E+01 0.92475923326E+01 0.91552543299E+01 0.90368238691E+01
 0.88925482330E+01 0.87252157215E+01 0.85401681146E+01 0.83448497592E+01 0.81480351834E+01
 0.79589457951E+01 0.77864502139E+01 0.76384637689E+01 0.75215677863E+01 0.74408023291E+01
 0.73995652531E+01 0.73995652273E+01 0.74408022920E+01 0.75215678334E+01 0.76384639901E+01
 0.77864506273E+01 0.79589463122E+01 0.81480356260E+01 0.83448499251E+01 0.85401678638E+01
 0.87252150440E+01 0.86009889782E+01 0.87022972931E+01 0.87854977094E+01 0.88503972587E+01
 0.88984073248E+01 0.89318989007E+01 0.89534906721E+01 0.89654439927E+01 0.89692553008E+01
 0.89654441768E+01 0.89534910750E+01 0.89318995588E+01 0.88984082282E+01 0.88503983162E+01
 0.87854987500E+01 0.87022981090E+01 0.86009893949E+01 0.84837554709E+01 0.83547691356E+01
 0.82198032004E+01 0.80855660640E+01 0.79589457951E+01 0.78463399005E+01 0.77531839045E+01
 0.76837063359E+01 0.76408668455E+01 0.76263976017E+01 0.76408667127E+01 0.76837061739E+01
 0.77531838697E+01 0.78463401224E+01 0.79589463062E+01 0.80855667691E+01 0.82198039018E+01
 0.83547696031E+01 0.84837555268E+01 0.84147283337E+01 0.84607788962E+01 0.84946661849E+01
 0.85171554766E+01 0.85302278964E+01 0.85364952049E+01 0.85385954785E+01 0.85387313584E+01
 0.85384205020E+01 0.85384207251E+01 0.85387319897E+01 0.85385964084E+01 0.85364962683E+01
 0.85302288994E+01 0.85171562331E+01 0.84946665564E+01 0.84607788265E+01 0.84147278661E+01
 0.83573442735E+01 0.82911001745E+01 0.82198032004E+01 0.81480351834E+01 0.80805020165E+01
 0.80214647644E+01 0.79743672849E+01 0.79416909621E+01 0.79249868523E+01 0.79249867449E+01
 0.79416906896E+01 0.79743669784E+01 0.80214645872E+01 0.80805021036E+01 0.81480355894E+01
 0.82198038757E+01 0.82911009754E+01 0.83573450039E+01 0.83507202986E+01 0.83343301975E+01
 0.83091199043E+01 0.82774296598E+01 0.82425709339E+01 0.82082246022E+01 0.81778445620E+01
 0.81542277341E+01 0.81393226299E+01 0.81342365405E+01 0.81393231172E+01 0.81542285541E+01
 0.81778454571E+01 0.82082252960E+01 0.82425712182E+01 0.82774294549E+01 0.83091192737E+01
 0.83343293161E+01 0.83507193899E+01 0.83573442735E+01 0.83547691356E+01 0.83448497592E+01
 0.83302602974E+01 0.83139235517E+01 0.82985091156E+01 0.82861144479E+01 0.82781573584E+01
 0.82754226975E+01 0.82781571721E+01 0.82861141156E+01 0.82985087169E+01 0.83139231983E+01
 0.83302601150E+01 0.83448498567E+01 0.83547695672E+01 0.83573450076E+01 0.84147283872E+01
 0.83343302476E+01 0.82453966261E+01 0.81521604267E+01 0.80597603812E+01 0.79735830678E+01
 0.78986159148E+01 0.78389689363E+01 0.77976450625E+01 0.77765358140E+01 0.77765359937E+01
 0.77976455105E+01 0.78389694179E+01 0.78986161519E+01 0.79735828574E+01 0.80597596816E+01
 0.81521593768E+01 0.82453954910E+01 0.83343293161E+01 0.84147278661E+01 0.84837554709E+01
 0.85401681146E+01 0.85841736981E+01 0.86170260256E+01 0.86404951571E+01 0.86563738441E+01
 0.86661350601E+01 0.86707721369E+01 0.86707721119E+01 0.86661349595E+01 0.86563736122E+01
 0.86404947593E+01 0.86170255000E+01 0.85841731749E+01 0.85401677870E+01 0.84837555225E+01
 0.86009890436E+01 0.84607790222E+01 0.83091200101E+01 0.81521604681E+01 0.79970881934E+01
 0.78513928648E+01 0.77221371729E+01 0.76153853966E+01 0.75358696173E+01 0.74868873063E+01
 0.74703520935E+01 0.74868873860E+01 0.75358696500E+01 0.76153851975E+01 0.77221366034E+01
 0.78513919215E+01 0.79970870372E+01 0.81521593768E+01 0.83091192737E+01 0.84607788265E+01
 0.86009893949E+01 0.87252157215E+01 0.88308093849E+01 0.89169275389E+01 0.89841452070E+01
 0.90338914132E+01 0.90678686276E+01 0.90875825819E+01 0.90940374932E+01 0.90875827268E+01
 0.90678687893E+01 0.90338914037E+01 0.89841448831E+01 0.89169268904E+01 0.88308085643E+01
 0.87252149963E+01 0.88925472831E+01 0.87022974342E+01 0.84946663552E+01 0.82774297698E+01
 0.80597603997E+01 0.78513928330E+01 0.76617897986E+01 0.74994512985E+01 0.73714397647E+01
 0.72831216401E+01 0.72380727289E+01 0.72380726541E+01 0.72831213932E+01 0.73714392988E+01
 0.74994505939E+01 0.76617889132E+01 0.78513919215E+01 0.80597596816E+01 0.82774294549E+01
 0.84946665564E+01 0.87022981090E+01 0.88925482330E+01 0.90596986852E+01 0.92004194271E+01
 0.93136898305E+01 0.94001939935E+01 0.94611801763E+01 0.94992120773E+01 0.95172718803E+01
 0.95172720498E+01 0.94992124985E+01 0.94611806249E+01 0.94001942074E+01 0.93136896253E+01
 0.92004187798E+01 0.90596977497E+01 0.92623576820E+01 0.90368229334E+01 0.87854978776E+01
 0.85171556164E+01 0.82425709712E+01 0.79735829946E+01 0.77221370491E+01 0.74994512127E+01
 0.73153750475E+01 0.71779401351E+01 0.70930642472E+01 0.70643663779E+01 0.70930639640E+01
 0.71779396232E+01 0.73153744112E+01 0.74994505939E+01 0.77221366034E+01 0.79735828574E+01
 0.82425712182E+01 0.85171562331E+01 0.87854987500E+01 0.90368238691E+01 0.92623584609E+01
 0.94560100468E+01 0.96126386863E+01 0.97290608430E+01 0.98079448306E+01 0.98559265366E+01
 0.98806984918E+01 0.98882145567E+01 0.98806988458E+01 0.98559271139E+01 0.98079454153E+01
 0.97290612084E+01 0.96126386710E+01 0.94560096072E+01 0.96713043696E+01 0.94331063411E+01
 0.91552535962E+01 0.88503973739E+01 0.85302279455E+01 0.82082245397E+01 0.78986157480E+01
 0.76153851929E+01 0.73714396152E+01 0.71779400832E+01 0.70437665205E+01 0.69750951885E+01
 0.69750950366E+01 0.70437661295E+01 0.71779396232E+01 0.73714392988E+01 0.76153851975E+01
 0.78986161519E+01 0.82082252960E+01 0.85302288994E+01 0.88503983162E+01 0.91552543299E+01
 0.94331067374E+01 0.96713043954E+01 0.98567260862E+01 0.99855100435E+01 0.10063201003E+02
 0.10101999372E+02 0.10116694980E+02 0.10120277817E+02 0.10120277930E+02 0.10116695301E+02
 0.10101999849E+02 0.10063201545E+02 0.99855105268E+01 0.98567263735E+01 0.10028121778E+02
 0.98336627047E+01 0.95674590969E+01 0.92475918862E+01 0.88984073623E+01 0.85364952013E+01
 0.81778444713E+01 0.78389687503E+01 0.75358694016E+01 0.72831214980E+01 0.70930642301E+01
 0.69750952424E+01 0.69351033211E+01 0.69750950366E+01 0.70930639640E+01 0.72831213932E+01
 0.75358696500E+01 0.78389694179E+01 0.81778454571E+01 0.85364962683E+01 0.88984082282E+01
 0.92475923326E+01 0.95674590503E+01 0.98336622545E+01 0.10028121128E+02 0.10146134566E+02
 0.10196219063E+02 0.10197214588E+02 0.10173240149E+02 0.10147600942E+02 0.10137030968E+02
 0.10147600922E+02 0.10173240188E+02 0.10197214795E+02 0.10196219500E+02 0.10146135190E+02
 0.10204609887E+02 0.10122743294E+02 0.99400545426E+01 0.96631795773E+01 0.93155012272E+01
 0.89318989636E+01 0.85385955563E+01 0.81542277187E+01 0.77976449134E+01 0.74868871143E+01
 0.72380726454E+01 0.70643664768E+01 0.69750952424E+01 0.69750951885E+01 0.70643663779E+01
 0.72380726541E+01 0.74868873860E+01 0.77976455105E+01 0.81542285541E+01 0.85385964084E+01
 0.89318995588E+01 0.93155013545E+01 0.96631791825E+01 0.99400537579E+01 0.10122742387E+02
 0.10204609153E+02 0.10196561223E+02 0.10124454995E+02 0.10023435332E+02 0.99302500500E+01
 0.98751456297E+01 0.98751454946E+01 0.99302497285E+01 0.10023435035E+02 0.10124454957E+02
 0.10196561585E+02 0.10076549973E+02 0.10172710063E+02 0.10150211148E+02 0.99972216119E+01
 0.97241110045E+01 0.93613016419E+01 0.89534909293E+01 0.85387316087E+01 0.81393226766E+01
 0.77765356366E+01 0.74703518826E+01 0.72380726454E+01 0.70930642301E+01 0.70437665205E+01
 0.70930642472E+01 0.72380727289E+01 0.74703520935E+01 0.77765359937E+01 0.81393231172E+01
 0.85387319897E+01 0.89534910750E+01 0.93613014200E+01 0.97241103955E+01 0.99972207375E+01
 0.10150210239E+02 0.10172709380E+02 0.10076549699E+02 0.98939834163E+01 0.96719289684E+01
 0.94630416189E+01 0.93152572733E+01 0.92620030740E+01 0.93152569166E+01 0.94630410692E+01
 0.96719284849E+01 0.98939832454E+01 0.95433856224E+01 0.98696969754E+01 0.10077788474E+02
 0.10130906887E+02 0.10018801425E+02 0.97581293502E+01 0.93885581092E+01 0.89654444966E+01
 0.85384208169E+01 0.81342364581E+01 0.77765356366E+01 0.74868871143E+01 0.72831214980E+01
 0.71779400832E+01 0.71779401351E+01 0.72831216401E+01 0.74868873063E+01 0.77765358140E+01
 0.81342365405E+01 0.85384207251E+01 0.89654441768E+01 0.93885575577E+01 0.97581286279E+01
 0.10018800654E+02 0.10130906222E+02 0.10077788060E+02 0.98696969018E+01 0.95433858856E+01
 0.91569221696E+01 0.87800947651E+01 0.84818945974E+01 0.83174898274E+01 0.83174896634E+01
 0.84818941605E+01 0.87800942022E+01 0.91569216706E+01 0.85466158387E+01 0.91325188032E+01
 0.96249223605E+01 0.99569622511E+01 0.10090707777E+02 0.10021024231E+02 0.97740209641E+01
 0.94010220878E+01 0.89692558699E+01 0.85384208169E+01 0.81393226766E+01 0.77976449134E+01
 0.75358694016E+01 0.73714396152E+01 0.73153750475E+01 0.73714397647E+01 0.75358696173E+01
 0.77976450625E+01 0.81393226299E+01 0.85384205020E+01 0.89692553008E+01 0.94010213635E+01
 0.97740202358E+01 0.10021023653E+02 0.10090707457E+02 0.99569622262E+01 0.96249225942E+01
 0.91325192065E+01 0.85466163034E+01 0.79535547164E+01 0.74451675464E+01 0.71027006339E+01
 0.69819300651E+01 0.71027004654E+01 0.74451672275E+01 0.79535542888E+01 0.70854243524E+01
 0.79297393067E+01 0.87337262838E+01 0.93973141799E+01 0.98490709167E+01 0.10054554807E+02
 0.10018045245E+02 0.97784882206E+01 0.94010220878E+01 0.89654444966E+01 0.85387316087E+01
 0.81542277187E+01 0.78389687503E+01 0.76153851929E+01 0.74994512127E+01 0.74994512985E+01
 0.76153853966E+01 0.78389689363E+01 0.81542277341E+01 0.85387313584E+01 0.89654439927E+01
 0.94010214535E+01 0.97784876440E+01 0.10018044906E+02 0.10054554804E+02 0.98490712359E+01
 0.93973147050E+01 0.87337268501E+01 0.79297397691E+01 0.70854246371E+01 0.63149463336E+01
 0.57279976925E+01 0.54108214001E+01 0.54108214036E+01 0.57279976720E+01 0.63149462152E+01
 0.52269075410E+01 0.62927891026E+01 0.74011586230E+01 0.84188145678E+01 0.92371552420E+01
 0.97861141124E+01 0.10040340768E+02 0.10018045245E+02 0.97740209641E+01 0.93885581092E+01
 0.89534909293E+01 0.85385955563E+01 0.81778444713E+01 0.78986157480E+01 0.77221370491E+01
 0.76617897986E+01 0.77221371729E+01 0.78986159148E+01 0.81778445620E+01 0.85385954785E+01
 0.89534906721E+01 0.93885577596E+01 0.97740206774E+01 0.10018045179E+02 0.10040341010E+02
 0.97861146397E+01 0.92371559242E+01 0.84188152198E+01 0.74011590804E+01 0.62927892881E+01
 0.52269074901E+01 0.43412205517E+01 0.37553609246E+01 0.35505036269E+01 0.37553610552E+01
 0.43412207157E+01 0.31071517730E+01 0.43219815452E+01 0.56886298021E+01 0.70451066977E+01
 0.82453606991E+01 0.91795700244E+01 0.97861141124E+01 0.10054554807E+02 0.10021024231E+02
 0.97581293502E+01 0.93613016419E+01 0.89318989636E+01 0.85364952013E+01 0.82082245397E+01
 0.79735829946E+01 0.78513928330E+01 0.78513928648E+01 0.79735830678E+01 0.82082246022E+01
 0.85364952049E+01 0.89318989007E+01 0.93613015621E+01 0.97581293474E+01 0.10021024403E+02
 0.10054555205E+02 0.97861147064E+01 0.91795707019E+01 0.82453613007E+01 0.70451070775E+01
 0.56886298872E+01 0.43219813675E+01 0.31071514579E+01 0.21968290297E+01 0.17094122998E+01
 0.17094124128E+01 0.21968293142E+01 0.91968669113E+00 0.21816499286E+01 0.37230009257E+01
 0.53620280270E+01 0.69195415643E+01 0.82453606991E+01 0.92371552420E+01 0.98490709167E+01
 0.10090707777E+02 0.10018801425E+02 0.97241110045E+01 0.93155012272E+01 0.88984073623E+01
 0.85302279455E+01 0.82425709712E+01 0.80597603997E+01 0.79970881934E+01 0.80597603812E+01
 0.82425709339E+01 0.85302278964E+01 0.88984073248E+01 0.93155012439E+01 0.97241111279E+01
 0.10018801697E+02 0.10090708202E+02 0.98490714478E+01 0.92371557834E+01 0.82453611294E+01
 0.69195417765E+01 0.53620279697E+01 0.37230006279E+01 0.21816494967E+01 0.91968627657E+00
 0.92586283999E-01 -.19533730910E+00 0.92586535590E-01 -.11091983833E+01 0.82137275689E-01
 0.16858527456E+01 0.35134838338E+01 0.53620280270E+01 0.70451066977E+01 0.84188145678E+01
 0.93973141799E+01 0.99569622511E+01 0.10130906887E+02 0.99972216119E+01 0.96631795773E+01
 0.92475918862E+01 0.88503973739E+01 0.85171556164E+01 0.82774297698E+01 0.81521604681E+01
 0.81521604267E+01 0.82774296598E+01 0.85171554766E+01 0.88503972587E+01 0.92475918506E+01
 0.96631796612E+01 0.99972218256E+01 0.10130907204E+02 0.99569626083E+01 0.93973144921E+01
 0.84188147476E+01 0.70451066808E+01 0.53620277933E+01 0.35134834183E+01 0.16858522339E+01
 0.82136784505E-01 -.11091987365E+01 -.17438437343E+01 -.17438436059E+01 -.27540657827E+01
 -.17496410219E+01 -.20951248526E+00 0.16858527456E+01 0.37230009257E+01 0.56886298021E+01
 0.74011586230E+01 0.87337262838E+01 0.96249223605E+01 0.10077788474E+02 0.10150211148E+02
 0.99400545426E+01 0.95674590969E+01 0.91552535962E+01 0.87854978776E+01 0.84946663552E+01
 0.83091200101E+01 0.82453966261E+01 0.83091199043E+01 0.84946661849E+01 0.87854977094E+01
 0.91552534958E+01 0.95674591034E+01 0.99400546528E+01 0.10150211315E+02 0.10077788625E+02
 0.96249224176E+01 0.87337261901E+01 0.74011583590E+01 0.56886293895E+01 0.37230004200E+01
 0.16858522202E+01 -.20951295497E+00 -.17496413723E+01 -.27540659692E+01 -.31028528891E+01
 -.38251480845E+01 -.31049245816E+01 -.17496410219E+01 0.82137275689E-01 0.21816499286E+01
 0.43219815452E+01 0.62927891026E+01 0.79297393067E+01 0.91325188032E+01 0.98696969754E+01
 0.10172710063E+02 0.10122743294E+02 0.98336627047E+01 0.94331063411E+01 0.90368229334E+01
 0.87022974342E+01 0.84607790222E+01 0.83343302476E+01 0.83343301975E+01 0.84607788962E+01
 0.87022972931E+01 0.90368228448E+01 0.94331063445E+01 0.98336627893E+01 0.10122743398E+02
 0.10172710100E+02 0.98696968651E+01 0.91325185093E+01 0.79297388510E+01 0.62927885567E+01
 0.43219810032E+01 0.21816494729E+01 0.82136950808E-01 -.17496412157E+01 -.31049246743E+01
 -.38251481105E+01 -.38503948956E+01 -.34857948793E+01 -.24352570593E+01 -.82269344986E+00
 0.11649604295E+01 0.33059183586E+01 0.53778590850E+01 0.71909254301E+01 0.86118971777E+01
 0.95754809420E+01 0.10083240311E+02 0.10193540923E+02 0.10006144932E+02 0.96440300166E+01
 0.92337746534E+01 0.88638065128E+01 0.85723528885E+01 0.83862421036E+01 0.83222984674E+01
 0.83862420506E+01 0.85723528233E+01 0.88638064927E+01 0.92337747164E+01 0.96440301527E+01
 0.10006145078E+02 0.10193540982E+02 0.10083240199E+02 0.95754806246E+01 0.86118966951E+01
 0.71909248868E+01 0.53778586115E+01 0.33059180602E+01 0.11649603444E+01 -.82269336337E+00
 -.24352569021E+01 -.34857947642E+01 -.34857947642E+01 -.34857949074E+01 -.27774793765E+01
 -.14452236584E+01 0.35404655364E+00 0.24140638775E+01 0.45110643877E+01 0.64381078629E+01
 0.80340165769E+01 0.92009646184E+01 0.99091053686E+01 0.10190513401E+02 0.10126162498E+02
 0.98290316292E+01 0.94254106337E+01 0.90287127982E+01 0.86942608984E+01 0.84529674989E+01
 0.83266837906E+01 0.83266837854E+01 0.84529674989E+01 0.86942609398E+01 0.90287129104E+01
 0.94254108123E+01 0.98290318239E+01 0.10126162627E+02 0.10190513385E+02 0.99091051720E+01
 0.92009642775E+01 0.80340161958E+01 0.64381075792E+01 0.45110643184E+01 0.24140640679E+01
 0.35404695207E+00 -.14452231865E+01 -.27774790000E+01 -.24352569021E+01 -.27791782420E+01
 -.24352572500E+01 -.14452237885E+01 0.71682663447E-01 0.19363331065E+01 0.39373327966E+01
 0.58640363421E+01 0.75377897560E+01 0.88344994630E+01 0.96949695201E+01 0.10123640701E+02
 0.10178886786E+02 0.99582050611E+01 0.95806927063E+01 0.91674942366E+01 0.87978274765E+01
 0.85073627374E+01 0.83221576661E+01 0.82585681110E+01 0.83221576976E+01 0.85073628072E+01
 0.87978275887E+01 0.91674943806E+01 0.95806928510E+01 0.99582051614E+01 0.10178886802E+02
 0.10123640621E+02 0.96949693796E+01 0.88344993416E+01 0.75377897557E+01 0.58640365490E+01
 0.39373332415E+01 0.19363337411E+01 0.71683364325E-01 -.14452231865E+01 -.82269336337E+00
 -.14499850156E+01 -.14499851733E+01 -.82269380757E+00 0.35404630111E+00 0.19363329949E+01
 0.37366544753E+01 0.55536473454E+01 0.72031862875E+01 0.85439418796E+01 0.94925578171E+01
 0.10027363158E+02 0.10182672716E+02 0.10036806437E+02 0.96964382188E+01 0.92791474673E+01
 0.88822296099E+01 0.85496559576E+01 0.83105972022E+01 0.81857274577E+01 0.81857274821E+01
 0.83105972664E+01 0.85496560369E+01 0.88822296724E+01 0.92791474845E+01 0.96964381778E+01
 0.10036806349E+02 0.10182672616E+02 0.10027363104E+02 0.94925578760E+01 0.85439421063E+01
 0.72031867094E+01 0.55536479483E+01 0.37366551990E+01 0.19363337411E+01 0.35404695207E+00
 0.11649603444E+01 0.34545099378E+00 0.60024621296E-01 0.34545082429E+00 0.11649600134E+01
 0.24140635968E+01 0.39373326724E+01 0.55536473461E+01 0.70851355857E+01 0.83835930949E+01
 0.93490151045E+01 0.99377712288E+01 0.10161140830E+02 0.10076698325E+02 0.97751235388E+01
 0.93644183810E+01 0.89480491627E+01 0.85811042852E+01 0.82946755859E+01 0.81127402472E+01
 0.80503825730E+01 0.81127402823E+01 0.82946756249E+01 0.85811042811E+01 0.89480490775E+01
 0.93644182079E+01 0.97751233119E+01 0.10076698113E+02 0.10161140715E+02 0.99377712795E+01
 0.93490153520E+01 0.83835935241E+01 0.70851361408E+01 0.55536479483E+01 0.39373332415E+01
 0.24140640679E+01 0.33059180602E+01 0.24015650881E+01 0.19169367693E+01 0.19169367812E+01
 0.24015651078E+01 0.33059180483E+01 0.45110642340E+01 0.58640363735E+01 0.72031864619E+01
 0.83835932592E+01 0.92972375082E+01 0.98846024128E+01 0.10137164030E+02 0.10092342879E+02
 0.98231683315E+01 0.94246327201E+01 0.89967144660E+01 0.86034708313E+01 0.82772995221E+01
 0.80442875254E+01 0.79229802072E+01 0.79229802127E+01 0.80442875280E+01 0.82772994881E+01
 0.86034707273E+01 0.89967142811E+01 0.94246324786E+01 0.98231680900E+01 0.10092342706E+02
 0.10137163982E+02 0.98846025073E+01 0.92972377186E+01 0.83835935241E+01 0.72031867094E+01
 0.58640365490E+01 0.45110643184E+01 0.53778586115E+01 0.44952276392E+01 0.39106894115E+01
 0.37061731887E+01 0.39106896174E+01 0.44952280006E+01 0.53778590448E+01 0.64381079944E+01
 0.75377900838E+01 0.85439423167E+01 0.93490154550E+01 0.98846025425E+01 0.10127182825E+02
 0.10096471385E+02 0.98480692202E+01 0.94622382421E+01 0.90299240567E+01 0.86185369277E+01
 0.82611145581E+01 0.79845918408E+01 0.78098662750E+01 0.77501244807E+01 0.78098662576E+01
 0.79845918010E+01 0.82611144909E+01 0.86185368350E+01 0.90299239515E+01 0.94622381452E+01
 0.98480691516E+01 0.10096471350E+02 0.10127182810E+02 0.98846025073E+01 0.93490153520E+01
 0.85439421063E+01 0.75377897557E+01 0.64381075792E+01 0.71909248868E+01 0.64199078603E+01
 0.58316714741E+01 0.55135189599E+01 0.55135191362E+01 0.58316719711E+01 0.64199085898E+01
 0.71909257251E+01 0.80340170117E+01 0.88345000244E+01 0.94925583558E+01 0.99377715362E+01
 0.10137164042E+02 0.10096471271E+02 0.98556441836E+01 0.94801138263E+01 0.90491793760E+01
 0.86277639766E+01 0.82481924986E+01 0.79370529024E+01 0.77164126538E+01 0.76020074162E+01
 0.76020074034E+01 0.77164126235E+01 0.79370528758E+01 0.82481925025E+01 0.86277640327E+01
 0.90491794900E+01 0.94801139798E+01 0.98556443323E+01 0.10096471350E+02 0.10137163982E+02
 0.99377712795E+01 0.94925578760E+01 0.88344993416E+01 0.80340161958E+01 0.86118966951E+01
 0.80145360908E+01 0.75017324325E+01 0.71559560677E+01 0.70339590685E+01 0.71559564652E+01
 0.75017331535E+01 0.80145370044E+01 0.86118976441E+01 0.92009651127E+01 0.96949699906E+01
 0.10027363438E+02 0.10161140778E+02 0.10092342555E+02 0.98480688722E+01 0.94801136621E+01
 0.90554816378E+01 0.86321363748E+01 0.82399290117E+01 0.79041101339E+01 0.76467821645E+01
 0.74851204785E+01 0.74299942978E+01 0.74851204697E+01 0.76467821661E+01 0.79041101770E+01
 0.82399291273E+01 0.86321365793E+01 0.90554819206E+01 0.94801139798E+01 0.98480691516E+01
 0.10092342706E+02 0.10161140715E+02 0.10027363104E+02 0.96949693796E+01 0.92009642775E+01
 0.95754806246E+01 0.91811225823E+01 0.87967092971E+01 0.84924541521E+01 0.83246761270E+01
 0.83246762989E+01 0.84924546245E+01 0.87967099543E+01 0.91811232706E+01 0.95754811974E+01