   2   2   0   0
  0.1214348E+02  0.2580000E-09  0.2580000E-09  0.4213114E-09  0.5000000E-15
  1.000000000000000E-004
  CAR 
 Si beta-tin                             
     26.43823903     -4.68727517  301     12.68461296      1.00000000
     -4.687  0.0000E+00  0.0000E+00
     -4.584  0.0000E+00  0.0000E+00
     -4.480  0.0000E+00  0.0000E+00
     -4.376  0.0000E+00  0.0000E+00
     -4.272  0.0000E+00  0.0000E+00
     -4.169  0.0000E+00  0.0000E+00
     -4.065  0.0000E+00  0.0000E+00
     -3.961  0.0000E+00  0.0000E+00
     -3.857  0.1982E-18  0.2056E-19
     -3.754  0.1831E-13  0.1900E-14
     -3.650  0.1700E-09  0.1764E-10
     -3.546  0.1955E-06  0.2030E-07
     -3.442  0.2899E-04  0.3028E-05
     -3.339  0.5963E-03  0.6490E-04
     -3.235  0.1885E-02  0.2604E-03
     -3.131  0.9791E-03  0.3620E-03
     -3.027  0.1402E-03  0.3766E-03
     -2.923  0.9890E-03  0.4792E-03
     -2.820  0.3186E-02  0.8097E-03
     -2.716  0.2460E-02  0.1065E-02
     -2.612  0.4378E-03  0.1110E-02
     -2.508  0.2716E-03  0.1139E-02
     -2.405  0.1551E-02  0.1299E-02
     -2.301  0.1519E-02  0.1457E-02
     -2.197  0.6427E-03  0.1524E-02
     -2.093  0.2863E-02  0.1821E-02
     -1.990  0.3383E-02  0.2172E-02
     -1.886  0.1823E-02  0.2361E-02
     -1.782  0.2223E-02  0.2591E-02
     -1.678  0.3465E-02  0.2951E-02
     -1.575  0.5404E-02  0.3512E-02
     -1.471  0.3483E-02  0.3873E-02
     -1.367  0.1757E-02  0.4055E-02
     -1.263  0.1227E-02  0.4183E-02
     -1.160  0.1894E-02  0.4379E-02
     -1.056  0.7275E-03  0.4455E-02
     -0.952  0.1783E-02  0.4640E-02
     -0.848  0.3893E-02  0.5043E-02
     -0.745  0.2737E-02  0.5327E-02
     -0.641  0.3934E-02  0.5735E-02
     -0.537  0.2905E-02  0.6037E-02
     -0.433  0.5356E-02  0.6593E-02
     -0.330  0.4905E-02  0.7101E-02
     -0.226  0.2412E-02  0.7352E-02
     -0.122  0.1408E-02  0.7498E-02
     -0.018  0.1939E-02  0.7699E-02
      0.085  0.7605E-03  0.7778E-02
      0.189  0.1052E-02  0.7887E-02
      0.293  0.3703E-02  0.8271E-02
      0.397  0.2949E-02  0.8577E-02
      0.500  0.3799E-02  0.8971E-02
      0.604  0.5158E-02  0.9506E-02
      0.708  0.9878E-02  0.1053E-01
      0.812  0.7834E-02  0.1134E-01
      0.915  0.1330E-02  0.1148E-01
      1.019  0.1222E-02  0.1161E-01
      1.123  0.5192E-02  0.1215E-01
      1.227  0.3876E-02  0.1255E-01
      1.330  0.1566E-02  0.1271E-01
      1.434  0.3615E-02  0.1309E-01
      1.538  0.2602E-02  0.1336E-01
      1.642  0.3356E-02  0.1371E-01
      1.745  0.5373E-02  0.1426E-01
      1.849  0.7983E-02  0.1509E-01
      1.953  0.7657E-02  0.1589E-01
      2.057  0.4992E-02  0.1640E-01
      2.160  0.2536E-02  0.1667E-01
      2.264  0.1704E-02  0.1684E-01
      2.368  0.1656E-02  0.1702E-01
      2.472  0.2067E-02  0.1723E-01
      2.575  0.7079E-02  0.1796E-01
      2.679  0.4981E-02  0.1848E-01
      2.783  0.2028E-02  0.1869E-01
      2.887  0.3122E-02  0.1902E-01
      2.990  0.6774E-02  0.1972E-01
      3.094  0.8267E-02  0.2058E-01
      3.198  0.3711E-02  0.2096E-01
      3.302  0.1986E-02  0.2117E-01
      3.405  0.3485E-02  0.2153E-01
      3.509  0.2854E-02  0.2182E-01
      3.613  0.2731E-02  0.2211E-01
      3.717  0.8877E-02  0.2303E-01
      3.820  0.7162E-02  0.2377E-01
      3.924  0.5903E-02  0.2438E-01
      4.028  0.5437E-02  0.2495E-01
      4.132  0.5829E-02  0.2555E-01
      4.235  0.6250E-02  0.2620E-01
      4.339  0.4261E-02  0.2664E-01
      4.443  0.3560E-02  0.2701E-01
      4.547  0.2357E-02  0.2726E-01
      4.650  0.1516E-02  0.2741E-01
      4.754  0.3933E-02  0.2782E-01
      4.858  0.1133E-01  0.2900E-01
      4.962  0.8725E-02  0.2990E-01
      5.065  0.5892E-02  0.3051E-01
      5.169  0.1000E-01  0.3155E-01
      5.273  0.1266E-01  0.3287E-01
      5.377  0.6481E-02  0.3354E-01
      5.480  0.1614E-02  0.3371E-01
      5.584  0.1169E-02  0.3383E-01
      5.688  0.1977E-02  0.3403E-01
      5.792  0.1926E-02  0.3423E-01
      5.895  0.4572E-02  0.3471E-01
      5.999  0.8441E-02  0.3558E-01
      6.103  0.5957E-02  0.3620E-01
      6.207  0.2251E-02  0.3643E-01
      6.310  0.7185E-02  0.3718E-01
      6.414  0.1219E-01  0.3844E-01
      6.518  0.7031E-02  0.3917E-01
      6.622  0.1938E-02  0.3937E-01
      6.725  0.4457E-02  0.3984E-01
      6.829  0.4246E-02  0.4028E-01
      6.933  0.1679E-02  0.4045E-01
      7.037  0.4407E-02  0.4091E-01
      7.140  0.9301E-02  0.4187E-01
      7.244  0.8706E-02  0.4278E-01
      7.348  0.2224E-02  0.4301E-01
      7.452  0.4408E-02  0.4347E-01
      7.555  0.9506E-02  0.4445E-01
      7.659  0.7048E-02  0.4518E-01
      7.763  0.4721E-02  0.4567E-01
      7.867  0.5857E-02  0.4628E-01
      7.970  0.5285E-02  0.4683E-01
      8.074  0.6935E-02  0.4755E-01
      8.178  0.7671E-02  0.4834E-01
      8.282  0.7776E-02  0.4915E-01
      8.385  0.5933E-02  0.4977E-01
      8.489  0.3052E-02  0.5008E-01
      8.593  0.4373E-02  0.5054E-01
      8.697  0.5926E-02  0.5115E-01
      8.800  0.6580E-02  0.5183E-01
      8.904  0.1084E-01  0.5296E-01
      9.008  0.1365E-01  0.5437E-01
      9.112  0.5242E-02  0.5492E-01
      9.215  0.5071E-02  0.5544E-01
      9.319  0.7710E-02  0.5624E-01
      9.423  0.8494E-02  0.5713E-01
      9.527  0.4870E-02  0.5763E-01
      9.630  0.1375E-02  0.5777E-01
      9.734  0.1931E-02  0.5797E-01
      9.838  0.9251E-02  0.5893E-01
      9.942  0.9372E-02  0.5991E-01
     10.045  0.5471E-02  0.6047E-01
     10.149  0.8151E-02  0.6132E-01
     10.253  0.1013E-01  0.6237E-01
     10.357  0.5674E-02  0.6296E-01
     10.460  0.6335E-02  0.6362E-01
     10.564  0.1136E-01  0.6480E-01
     10.668  0.1053E-01  0.6589E-01
     10.772  0.1052E-01  0.6698E-01
     10.875  0.1018E-01  0.6803E-01
     10.979  0.6701E-02  0.6873E-01
     11.083  0.7961E-02  0.6956E-01
     11.187  0.5125E-02  0.7009E-01
     11.290  0.6672E-02  0.7078E-01
     11.394  0.6898E-02  0.7150E-01
     11.498  0.3281E-02  0.7184E-01
     11.602  0.2478E-02  0.7209E-01
     11.705  0.3561E-02  0.7246E-01
     11.809  0.1189E-01  0.7370E-01
     11.913  0.1409E-01  0.7516E-01
     12.017  0.9815E-02  0.7618E-01
     12.121  0.6235E-02  0.7682E-01
     12.224  0.3541E-02  0.7719E-01
     12.328  0.8003E-02  0.7802E-01
     12.432  0.7184E-02  0.7877E-01
     12.536  0.2303E-02  0.7900E-01
     12.639  0.5617E-02  0.7959E-01
     12.743  0.8483E-02  0.8047E-01
     12.847  0.4980E-02  0.8098E-01
     12.951  0.7964E-02  0.8181E-01
     13.054  0.1066E-01  0.8292E-01
     13.158  0.7439E-02  0.8369E-01
     13.262  0.4875E-02  0.8419E-01
     13.366  0.9137E-02  0.8514E-01
     13.469  0.7132E-02  0.8588E-01
     13.573  0.3441E-02  0.8624E-01
     13.677  0.3687E-02  0.8662E-01
     13.781  0.6211E-02  0.8727E-01
     13.884  0.1273E-01  0.8859E-01
     13.988  0.1271E-01  0.8990E-01
     14.092  0.9412E-02  0.9088E-01
     14.196  0.1299E-01  0.9223E-01
     14.299  0.8779E-02  0.9314E-01
     14.403  0.4454E-02  0.9360E-01
     14.507  0.3263E-02  0.9394E-01
     14.611  0.7430E-02  0.9471E-01
     14.714  0.6356E-02  0.9537E-01
     14.818  0.1086E-01  0.9650E-01
     14.922  0.1455E-01  0.9801E-01
     15.026  0.1069E-01  0.9912E-01
     15.129  0.1220E-01  0.1004E+00
     15.233  0.1552E-01  0.1020E+00
     15.337  0.8796E-02  0.1029E+00
     15.441  0.5828E-02  0.1035E+00
     15.544  0.3537E-02  0.1039E+00
     15.648  0.4316E-02  0.1043E+00
     15.752  0.3175E-02  0.1047E+00
     15.856  0.1512E-02  0.1048E+00
     15.959  0.2629E-02  0.1051E+00
     16.063  0.8328E-02  0.1059E+00
     16.167  0.1098E-01  0.1071E+00
     16.271  0.1924E-01  0.1091E+00
     16.374  0.1615E-01  0.1108E+00
     16.478  0.1491E-01  0.1123E+00
     16.582  0.9270E-02  0.1133E+00
     16.686  0.4972E-02  0.1138E+00
     16.789  0.9131E-02  0.1147E+00
     16.893  0.7966E-02  0.1156E+00
     16.997  0.7229E-02  0.1163E+00
     17.101  0.9938E-02  0.1173E+00
     17.204  0.8154E-02  0.1182E+00
     17.308  0.6342E-02  0.1188E+00
     17.412  0.6853E-02  0.1196E+00
     17.516  0.7343E-02  0.1203E+00
     17.619  0.7030E-02  0.1210E+00
     17.723  0.8628E-02  0.1219E+00
     17.827  0.7511E-02  0.1227E+00
     17.931  0.9851E-02  0.1237E+00
     18.034  0.8920E-02  0.1247E+00
     18.138  0.6539E-02  0.1253E+00
     18.242  0.6487E-02  0.1260E+00
     18.346  0.7178E-02  0.1268E+00
     18.449  0.1072E-01  0.1279E+00
     18.553  0.1061E-01  0.1290E+00
     18.657  0.1429E-01  0.1305E+00
     18.761  0.1032E-01  0.1315E+00
     18.864  0.6835E-02  0.1322E+00
     18.968  0.3595E-02  0.1326E+00
     19.072  0.4531E-02  0.1331E+00
     19.176  0.1169E-01  0.1343E+00
     19.279  0.1371E-01  0.1357E+00
     19.383  0.6743E-02  0.1364E+00
     19.487  0.5639E-02  0.1370E+00
     19.591  0.5079E-02  0.1375E+00
     19.694  0.5827E-02  0.1381E+00
     19.798  0.4393E-02  0.1386E+00
     19.902  0.4407E-02  0.1390E+00
     20.006  0.6842E-02  0.1398E+00
     20.109  0.7728E-02  0.1406E+00
     20.213  0.1101E-01  0.1417E+00
     20.317  0.1916E-01  0.1437E+00
     20.421  0.1693E-01  0.1454E+00
     20.524  0.1049E-01  0.1465E+00
     20.628  0.4733E-02  0.1470E+00
     20.732  0.4262E-02  0.1475E+00
     20.836  0.7117E-02  0.1482E+00
     20.939  0.3175E-02  0.1485E+00
     21.043  0.2260E-02  0.1488E+00
     21.147  0.3116E-02  0.1491E+00
     21.251  0.1637E-02  0.1493E+00
     21.354  0.2328E-02  0.1495E+00
     21.458  0.9642E-02  0.1505E+00
     21.562  0.1604E-01  0.1522E+00
     21.666  0.9284E-02  0.1531E+00
     21.769  0.6745E-02  0.1538E+00
     21.873  0.9263E-02  0.1548E+00
     21.977  0.7587E-02  0.1556E+00
     22.081  0.3051E-02  0.1559E+00
     22.184  0.3230E-03  0.1559E+00
     22.288  0.7097E-03  0.1560E+00
     22.392  0.1912E-02  0.1562E+00
     22.496  0.8564E-03  0.1563E+00
     22.599  0.3399E-03  0.1563E+00
     22.703  0.2885E-02  0.1566E+00
     22.807  0.5481E-02  0.1572E+00
     22.911  0.1962E-02  0.1574E+00
     23.014  0.6221E-03  0.1575E+00
     23.118  0.1997E-02  0.1577E+00
     23.222  0.2423E-02  0.1579E+00
     23.326  0.2356E-02  0.1582E+00
     23.429  0.3118E-02  0.1585E+00
     23.533  0.3078E-02  0.1588E+00
     23.637  0.8030E-03  0.1589E+00
     23.741  0.8585E-03  0.1590E+00
     23.844  0.1915E-02  0.1592E+00
     23.948  0.7308E-03  0.1593E+00
     24.052  0.4331E-04  0.1593E+00
     24.156  0.3594E-06  0.1593E+00
     24.259  0.6532E-08  0.1593E+00
     24.363  0.2667E-05  0.1593E+00
     24.467  0.1538E-03  0.1593E+00
     24.571  0.1289E-02  0.1594E+00
     24.674  0.1732E-02  0.1596E+00
     24.778  0.3809E-03  0.1596E+00
     24.882  0.9266E-04  0.1596E+00
     24.986  0.9786E-03  0.1597E+00
     25.089  0.1885E-02  0.1599E+00
     25.193  0.5963E-03  0.1600E+00
     25.297  0.2899E-04  0.1600E+00
     25.401  0.1955E-06  0.1600E+00
     25.504  0.1700E-09  0.1600E+00
     25.608  0.1831E-13  0.1600E+00
     25.712  0.0000E+00  0.1600E+00
     25.816  0.0000E+00  0.1600E+00
     25.919  0.0000E+00  0.1600E+00
     26.023  0.0000E+00  0.1600E+00
     26.127  0.0000E+00  0.1600E+00
     26.231  0.0000E+00  0.1600E+00
     26.334  0.0000E+00  0.1600E+00
     26.438  0.0000E+00  0.1600E+00
