    2    2  100    1
  0.1214348E+02  0.2580000E-09  0.2580000E-09  0.4213114E-09  0.5000000E-15
  1.000000000000000E-004
  CAR 
 Si beta-tin                             
      8     36      8
 
  0.8333333E-01  0.8333333E-01  0.8333333E-01  0.1851852E-01
    1       -2.876102   1.000000
    2        4.046661   1.000000
    3        6.761866   1.000000
    4       17.254350   0.000000
    5       17.574836   0.000000
    6       23.237982   0.000000
    7       23.469657   0.000000
    8       23.789115   0.000000
 
  0.2500000E+00  0.8333333E-01  0.8333333E-01  0.3703704E-01
    1       -0.907442   1.000000
    2        5.926994   1.000000
    3        8.564434   1.000000
    4       10.686031   1.000000
    5       14.919130   0.000000
    6       17.152033   0.000000
    7       19.484448   0.000000
    8       21.549098   0.000000
 
  0.4166667E+00  0.8333333E-01  0.8333333E-01  0.3703704E-01
    1        2.565115   1.000000
    2        4.902053   1.000000
    3        9.294286   1.000000
    4       11.278632   1.000000
    5       12.315607   1.000000
    6       13.803848   0.000000
    7       14.562818   0.000000
    8       20.423237   0.000000
 
 -0.4166667E+00  0.8333333E-01  0.8333333E-01  0.3703704E-01
    1        0.650622   1.000000
    2        7.147844   1.000000
    3        7.826103   1.000000
    4       10.165059   1.000000
    5       13.920451   0.000000
    6       14.592706   0.000000
    7       16.817696   0.000000
    8       20.788492   0.000000
 
 -0.2500000E+00  0.8333333E-01  0.8333333E-01  0.3703704E-01
    1       -2.085989   1.000000
    2        4.804321   1.000000
    3        7.503946   1.000000
    4       13.904711   0.000000
    5       16.018166   0.000000
    6       20.224342   0.000000
    7       21.954138   0.000000
    8       22.757581   0.000000
 
 -0.8333333E-01  0.8333333E-01  0.8333333E-01  0.1851852E-01
    1       -3.272479   1.000000
    2        3.665916   1.000000
    3        6.387040   1.000000
    4       19.082393   0.000000
    5       20.321019   0.000000
    6       22.345429   0.000000
    7       24.587720   0.000000
    8       25.023443   0.000000
 
  0.2500000E+00  0.2500000E+00  0.8333333E-01  0.1851852E-01
    1        1.810349   1.000000
    2        8.017752   1.000000
    3        8.916999   1.000000
    4        8.956001   1.000000
    5       11.313460   1.000000
    6       14.917177   0.000000
    7       15.735695   0.000000
    8       17.918084   0.000000
 
  0.4166667E+00  0.2500000E+00  0.8333333E-01  0.3703704E-01
    1        3.711215   1.000000
    2        6.010564   1.000000
    3        8.283801   1.000000
    4       10.460460   1.000000
    5       12.346678   0.999999
    6       13.374655   0.000000
    7       14.791630   0.000000
    8       16.156616   0.000000
 
 -0.4166667E+00  0.2500000E+00  0.8333333E-01  0.3703704E-01
    1        0.263131   1.000000
    2        7.018698   1.000000
    3        9.179015   1.000000
    4       10.035246   1.000000
    5       11.766264   1.000000
    6       16.030170   0.000000
    7       17.849379   0.000000
    8       19.210532   0.000000
 
 -0.2500000E+00  0.2500000E+00  0.8333333E-01  0.1851852E-01
    1       -1.692279   1.000000
    2        5.180573   1.000000
    3        7.866961   1.000000
    4       12.112293   1.000000
    5       17.619236   0.000000
    6       18.447065   0.000000
    7       19.911602   0.000000
    8       21.031540   0.000000
 
  0.4166667E+00  0.4166667E+00  0.8333333E-01  0.1851852E-01
    1        3.874740   1.000000
    2        4.363494   1.000000
    3       10.285703   1.000000
    4       11.039108   1.000000
    5       11.057929   1.000000
    6       13.636313   0.000000
    7       13.762753   0.000000
    8       17.837808   0.000000
 
 -0.4166667E+00  0.4166667E+00  0.8333333E-01  0.1851852E-01
    1        1.421900   1.000000
    2        5.996887   1.000000
    3        8.240740   1.000000
    4       10.806705   1.000000
    5       12.882971   0.002514
    6       15.329483   0.000000
    7       16.254010   0.000000
    8       18.639351   0.000000
 
  0.8333333E-01  0.8333333E-01  0.2500000E+00  0.1851852E-01
    1       -2.406253   1.000000
    2        1.769524   1.000000
    3        9.856709   1.000000
    4       17.665000   0.000000
    5       17.915979   0.000000
    6       21.128851   0.000000
    7       21.495346   0.000000
    8       21.905223   0.000000
 
  0.2500000E+00  0.8333333E-01  0.2500000E+00  0.3703704E-01
    1       -0.442463   1.000000
    2        3.685780   1.000000
    3       10.842745   1.000000
    4       11.828962   1.000000
    5       14.847816   0.000000
    6       15.592288   0.000000
    7       19.208882   0.000000
    8       21.820839   0.000000
 
  0.4166667E+00  0.8333333E-01  0.2500000E+00  0.3703704E-01
    1        3.019835   1.000000
    2        5.319306   1.000000
    3        7.163021   1.000000
    4        9.396447   1.000000
    5       14.142385   0.000000
    6       15.214060   0.000000
    7       17.040356   0.000000
    8       18.639605   0.000000
 
 -0.4166667E+00  0.8333333E-01  0.2500000E+00  0.3703704E-01
    1        1.111540   1.000000
    2        5.183451   1.000000
    3        8.045374   1.000000
    4       11.807286   1.000000
    5       13.345853   0.000000
    6       14.790695   0.000000
    7       18.362977   0.000000
    8       19.997106   0.000000
 
 -0.2500000E+00  0.8333333E-01  0.2500000E+00  0.3703704E-01
    1       -1.618080   1.000000
    2        2.539527   1.000000
    3       10.561914   1.000000
    4       14.330090   0.000000
    5       16.400086   0.000000
    6       18.215011   0.000000
    7       20.295609   0.000000
    8       21.777693   0.000000
 
 -0.8333333E-01  0.8333333E-01  0.2500000E+00  0.1851852E-01
    1       -2.801652   1.000000
    2        1.383006   1.000000
    3        9.494517   1.000000
    4       19.409543   0.000000
    5       20.720841   0.000000
    6       20.796692   0.000000
    7       23.088709   0.000000
    8       23.404537   0.000000
 
  0.2500000E+00  0.2500000E+00  0.2500000E+00  0.1851852E-01
    1        2.267859   1.000000
    2        6.283465   1.000000
    3        8.987404   1.000000
    4        9.346269   1.000000
    5       12.901997   0.001055
    6       12.925264   0.000333
    7       15.027165   0.000000
    8       20.542196   0.000000
 
  0.4166667E+00  0.2500000E+00  0.2500000E+00  0.3703704E-01
    1        4.161035   1.000000
    2        6.413659   1.000000
    3        8.152712   1.000000
    4        8.927240   1.000000
    5       10.559738   1.000000
    6       12.685382   0.495660
    7       16.453190   0.000000
    8       18.571053   0.000000
 
 -0.4166667E+00  0.2500000E+00  0.2500000E+00  0.3703704E-01
    1        0.725077   1.000000
    2        4.818613   1.000000
    3        9.856326   1.000000
    4       12.007807   1.000000
    5       12.677166   0.541938
    6       14.174769   0.000000
    7       16.255760   0.000000
    8       21.465827   0.000000
 
 -0.2500000E+00  0.2500000E+00  0.2500000E+00  0.1851852E-01
    1       -1.225316   1.000000
    2        2.922830   1.000000
    3       10.870501   1.000000
    4       12.584837   0.920884
    5       16.430576   0.000000
    6       18.024317   0.000000
    7       20.107617   0.000000
    8       21.660164   0.000000
 
  0.4166667E+00  0.4166667E+00  0.2500000E+00  0.1851852E-01
    1        4.324128   1.000000
    2        4.802537   1.000000
    3        8.379985   1.000000
    4        8.881422   1.000000
    5       11.429386   1.000000
    6       14.938490   0.000000
    7       16.504269   0.000000
    8       17.389993   0.000000
 
 -0.4166667E+00  0.4166667E+00  0.2500000E+00  0.1851852E-01
    1        1.880577   1.000000
    2        5.814398   1.000000
    3        6.675679   1.000000
    4       10.468034   1.000000
    5       14.034059   0.000000
    6       16.659761   0.000000
    7       18.042107   0.000000
    8       19.117868   0.000000
 
  0.8333333E-01  0.8333333E-01  0.4166667E+00  0.1851852E-01
    1       -1.470134   1.000000
    2       -0.074750   1.000000
    3       13.311630   0.000000
    4       16.937704   0.000000
    5       18.469927   0.000000
    6       19.079100   0.000000
    7       19.845782   0.000000
    8       20.308780   0.000000
 
  0.2500000E+00  0.8333333E-01  0.4166667E+00  0.3703704E-01
    1        0.483820   1.000000
    2        1.863924   1.000000
    3       11.837437   1.000000
    4       13.059068   0.000000
    5       15.184264   0.000000
    6       16.243274   0.000000
    7       17.686147   0.000000
    8       19.203566   0.000000
 
  0.4166667E+00  0.8333333E-01  0.4166667E+00  0.3703704E-01
    1        3.920517   1.000000
    2        5.204510   1.000000
    3        6.390398   1.000000
    4        7.654404   1.000000
    5       15.099410   0.000000
    6       16.262005   0.000000
    7       18.625511   0.000000
    8       20.485317   0.000000
 
 -0.4166667E+00  0.8333333E-01  0.4166667E+00  0.3703704E-01
    1        2.029176   1.000000
    2        3.394009   1.000000
    3        8.916816   1.000000
    4       10.220019   1.000000
    5       15.392295   0.000000
    6       16.235399   0.000000
    7       17.413582   0.000000
    8       20.307469   0.000000
 
 -0.2500000E+00  0.8333333E-01  0.4166667E+00  0.3703704E-01
    1       -0.685849   1.000000
    2        0.703601   1.000000
    3       13.877505   0.000000
    4       15.144745   0.000000
    5       16.467752   0.000000
    6       17.026433   0.000000
    7       18.404181   0.000000
    8       18.828254   0.000000
 
 -0.8333333E-01  0.8333333E-01  0.4166667E+00  0.1851852E-01
    1       -1.863603   1.000000
    2       -0.465295   1.000000
    3       12.976459   0.000018
    4       16.756851   0.000000
    5       20.381179   0.000000
    6       21.519595   0.000000
    7       21.565530   0.000000
    8       22.712729   0.000000
 
  0.2500000E+00  0.2500000E+00  0.4166667E+00  0.1851852E-01
    1        3.178013   1.000000
    2        4.528582   1.000000
    3        9.811463   1.000000
    4       10.148599   1.000000
    5       11.277088   1.000000
    6       11.577960   1.000000
    7       18.005781   0.000000
    8       21.368182   0.000000
 
  0.4166667E+00  0.2500000E+00  0.4166667E+00  0.3703704E-01
    1        5.049114   1.000000
    2        6.292963   1.000000
    3        7.520713   1.000000
    4        8.700979   1.000000
    5        9.812660   1.000000
    6       11.043679   1.000000
    7       19.649330   0.000000
    8       21.476695   0.000000
 
 -0.4166667E+00  0.2500000E+00  0.4166667E+00  0.3703704E-01
    1        1.645075   1.000000
    2        3.014673   1.000000
    3       10.738041   1.000000
    4       11.968217   1.000000
    5       13.044585   0.000000
    6       14.175322   0.000000
    7       16.750068   0.000000
    8       20.202819   0.000000
 
 -0.2500000E+00  0.2500000E+00  0.4166667E+00  0.1851852E-01
    1       -0.295054   1.000000
    2        1.091348   1.000000
    3       13.215441   0.000000
    4       14.062768   0.000000
    5       15.168116   0.000000
    6       18.170009   0.000000
    7       18.834598   0.000000
    8       20.048952   0.000000
 
  0.4166667E+00  0.4166667E+00  0.4166667E+00  0.1851852E-01
    1        5.195404   1.000000
    2        5.614638   1.000000
    3        6.725714   1.000000
    4        7.143968   1.000000
    5       12.285799   1.000000
    6       13.543775   0.000000
    7       19.699238   0.000000
    8       20.305546   0.000000
 
 -0.4166667E+00  0.4166667E+00  0.4166667E+00  0.1851852E-01
    1        2.792820   1.000000
    2        4.143997   1.000000
    3        7.440213   1.000000
    4        8.753417   1.000000
    5       17.233186   0.000000
    6       17.471887   0.000000
    7       18.690810   0.000000
    8       19.306302   0.000000
