 vasp.5.4.1 24Jun15 (build Jul 19 2016 16:50:41) complex                        
  
 executed on           IFC91_ompi date 2019.10.10  11:13:34
 running on    4 total cores
 distrk:  each k-point on    4 cores,    1 groups
 distr:  one band on NCORES_PER_BAND=   1 cores,    4 groups


--------------------------------------------------------------------------------------------------------


 INCAR:
 POTCAR:    PAW_PBE Si 05Jan2001                  
 POTCAR:    PAW_PBE Si 05Jan2001                  
   VRHFIN = Si: s2p2                                                            
   LEXCH  = PE                                                                  
   EATOM  =   103.0669 eV,    7.5752 Ry                                         
                                                                                
   TITEL  = PAW_PBE Si 05Jan2001                                                
   LULTRA =        F    use ultrasoft PP ?                                      
   IUNSCR =        1    unscreen: 0-lin 1-nonlin 2-no                           
   RPACOR =    1.500    partial core radius                                     
   POMASS =   28.085; ZVAL   =    4.000    mass and valenz                      
   RCORE  =    1.900    outmost cutoff radius                                   
   RWIGS  =    2.480; RWIGS  =    1.312    wigner-seitz radius (au A)           
   ENMAX  =  245.345; ENMIN  =  184.009 eV                                      
   ICORE  =        2    local potential                                         
   LCOR   =        T    correct aug charges                                     
   LPAW   =        T    paw PP                                                  
   EAUG   =  322.069                                                            
   DEXC   =    0.000                                                            
   RMAX   =    1.950    core radius for proj-oper                               
   RAUG   =    1.300    factor for augmentation sphere                          
   RDEP   =    1.993    radius for radial grids                                 
   RDEPT  =    1.837    core radius for aug-charge                              
                                                                                
   Atomic configuration                                                         
    6 entries                                                                   
     n  l   j            E        occ.                                          
     1  0  0.50     -1785.8828   2.0000                                         
     2  0  0.50      -139.4969   2.0000                                         
     2  1  1.50       -95.5546   6.0000                                         
     3  0  0.50       -10.8127   2.0000                                         
     3  1  0.50        -4.0811   2.0000                                         
     3  2  1.50        -4.0817   0.0000                                         
   Description                                                                  
     l       E           TYP  RCUT    TYP  RCUT                                 
     0    -10.8127223     23  1.900                                             
     0     -7.6451159     23  1.900                                             
     1     -4.0811372     23  1.900                                             
     1      2.4879257     23  1.900                                             
     2     -4.0817478      7  1.900                                             
  local pseudopotential read in
  partial core-charges read in
  partial kinetic energy density read in
  atomic valenz-charges read in
  non local Contribution for L=           0  read in
    real space projection operators read in
  non local Contribution for L=           0  read in
    real space projection operators read in
  non local Contribution for L=           1  read in
    real space projection operators read in
  non local Contribution for L=           1  read in
    real space projection operators read in
    PAW grid and wavefunctions read in
 
   number of l-projection  operators is LMAX  =           4
   number of lm-projection operators is LMMAX =           8
 
  PAW_PBE Si 05Jan2001                  :
 energy of atom  1       EATOM= -103.0669
 kinetic energy error for atom=    0.0009 (will be added to EATOM!!)
 
 
 POSCAR: Si HCP                                  
  positions in direct lattice
  No initial velocities read in
 exchange correlation table for  LEXCH =        8
   RHO(1)=    0.500       N(1)  =     2000
   RHO(2)=  100.500       N(2)  =     4000
 


--------------------------------------------------------------------------------------------------------


 ion  position               nearest neighbor table
   1  0.000  0.000  0.000-   2 2.58   2 2.58   2 2.58   2 2.58   2 2.58   2 2.58
   2  0.333  0.667  0.500-   1 2.58   1 2.58   1 2.58   1 2.58   1 2.58   1 2.58
 
  LATTYP: Found a hexagonal cell.
 ALAT       =     2.5800000000
 C/A-ratio  =     1.6329900000
  
  Lattice vectors:
  
 A1 = (   2.5800000000,   0.0000000000,   0.0000000000)
 A2 = (  -1.2900000000,   2.2343455418,   0.0000000000)
 A3 = (   0.0000000000,   0.0000000000,   4.2131142000)


Analysis of symmetry for initial positions (statically):
=====================================================================
 Subroutine PRICEL returns:
 Original cell was already a primitive cell.
 

 Routine SETGRP: Setting up the symmetry group for a 
 hexagonal supercell.


 Subroutine GETGRP returns: Found 24 space group operations
 (whereof 12 operations were pure point group operations)
 out of a pool of 24 trial point group operations.


The static configuration has the point symmetry D_3h.
 The point group associated with its full space group is D_6h.


Analysis of symmetry for dynamics (positions and initial velocities):
=====================================================================
 Subroutine PRICEL returns:
 Original cell was already a primitive cell.
 

 Routine SETGRP: Setting up the symmetry group for a 
 hexagonal supercell.


 Subroutine GETGRP returns: Found 24 space group operations
 (whereof 12 operations were pure point group operations)
 out of a pool of 24 trial point group operations.


The dynamic configuration has the point symmetry D_3h.
 The point group associated with its full space group is D_6h.


 Subroutine INISYM returns: Found 24 space group operations
 (whereof 12 operations are pure point group operations),
 and found     1 'primitive' translations

 
 
 KPOINTS: K-Points                                

Automatic generation of k-mesh.
Space group operators:
 irot       det(A)        alpha          n_x          n_y          n_z        tau_x        tau_y        tau_z
    1     1.000000     0.000000     1.000000     0.000000     0.000000     0.000000     0.000000     0.000000
    2    -1.000000    60.000000     0.000000     0.000000    -1.000000     0.000000     0.000000     0.000000
    3     1.000000   120.000000     0.000000     0.000000    -1.000000     0.000000     0.000000     0.000000
    4    -1.000000   180.000000     0.000000     0.000000     1.000000     0.000000     0.000000     0.000000
    5     1.000000   120.000000     0.000000     0.000000     1.000000     0.000000     0.000000     0.000000
    6    -1.000000    60.000000     0.000000     0.000000     1.000000     0.000000     0.000000     0.000000
    7    -1.000000   180.000000     1.000000     0.000000     0.000000     0.000000     0.000000     0.000000
    8     1.000000   180.000000     0.866025    -0.500000     0.000000     0.000000     0.000000     0.000000
    9    -1.000000   180.000000     0.500000    -0.866025     0.000000     0.000000     0.000000     0.000000
   10     1.000000   180.000000     0.000000     1.000000     0.000000     0.000000     0.000000     0.000000
   11    -1.000000   180.000000    -0.500000    -0.866025     0.000000     0.000000     0.000000     0.000000
   12     1.000000   180.000000     0.866025     0.500000     0.000000     0.000000     0.000000     0.000000
   13    -1.000000     0.000000     1.000000     0.000000     0.000000     0.333333     0.666667     0.500000
   14     1.000000    60.000000     0.000000     0.000000    -1.000000     0.333333     0.666667     0.500000
   15    -1.000000   120.000000     0.000000     0.000000    -1.000000     0.333333     0.666667     0.500000
   16     1.000000   180.000000     0.000000     0.000000     1.000000     0.333333     0.666667     0.500000
   17    -1.000000   120.000000     0.000000     0.000000     1.000000     0.333333     0.666667     0.500000
   18     1.000000    60.000000     0.000000     0.000000     1.000000     0.333333     0.666667     0.500000
   19     1.000000   180.000000     1.000000     0.000000     0.000000     0.333333     0.666667     0.500000
   20    -1.000000   180.000000     0.866025    -0.500000     0.000000     0.333333     0.666667     0.500000
   21     1.000000   180.000000     0.500000    -0.866025     0.000000     0.333333     0.666667     0.500000
   22    -1.000000   180.000000     0.000000     1.000000     0.000000     0.333333     0.666667     0.500000
   23     1.000000   180.000000    -0.500000    -0.866025     0.000000     0.333333     0.666667     0.500000
   24    -1.000000   180.000000     0.866025     0.500000     0.000000     0.333333     0.666667     0.500000
 
 Subroutine IBZKPT returns following result:
 ===========================================
 
 Found     36 irreducible k-points:
 
 Following reciprocal coordinates:
            Coordinates               Weight
  0.083333  0.083333  0.083333     96.000000
  0.250000  0.083333  0.083333    192.000000
  0.416667  0.083333  0.083333    192.000000
 -0.416667  0.083333  0.083333    192.000000
 -0.250000  0.083333  0.083333    192.000000
 -0.083333  0.083333  0.083333     96.000000
  0.250000  0.250000  0.083333     96.000000
  0.416667  0.250000  0.083333    192.000000
 -0.416667  0.250000  0.083333    192.000000
 -0.250000  0.250000  0.083333     96.000000
  0.416667  0.416667  0.083333     96.000000
 -0.416667  0.416667  0.083333     96.000000
  0.083333  0.083333  0.250000     96.000000
  0.250000  0.083333  0.250000    192.000000
  0.416667  0.083333  0.250000    192.000000
 -0.416667  0.083333  0.250000    192.000000
 -0.250000  0.083333  0.250000    192.000000
 -0.083333  0.083333  0.250000     96.000000
  0.250000  0.250000  0.250000     96.000000
  0.416667  0.250000  0.250000    192.000000
 -0.416667  0.250000  0.250000    192.000000
 -0.250000  0.250000  0.250000     96.000000
  0.416667  0.416667  0.250000     96.000000
 -0.416667  0.416667  0.250000     96.000000
  0.083333  0.083333  0.416667     96.000000
  0.250000  0.083333  0.416667    192.000000
  0.416667  0.083333  0.416667    192.000000
 -0.416667  0.083333  0.416667    192.000000
 -0.250000  0.083333  0.416667    192.000000
 -0.083333  0.083333  0.416667     96.000000
  0.250000  0.250000  0.416667     96.000000
  0.416667  0.250000  0.416667    192.000000
 -0.416667  0.250000  0.416667    192.000000
 -0.250000  0.250000  0.416667     96.000000
  0.416667  0.416667  0.416667     96.000000
 -0.416667  0.416667  0.416667     96.000000
 
 Following cartesian coordinates:
            Coordinates               Weight
  0.083333  0.144338  0.051031     96.000000
  0.250000  0.240563  0.051031    192.000000
  0.416667  0.336788  0.051031    192.000000
 -0.416667 -0.144338  0.051031    192.000000
 -0.250000 -0.048113  0.051031    192.000000
 -0.083333  0.048113  0.051031     96.000000
  0.250000  0.433013  0.051031     96.000000
  0.416667  0.529238  0.051031    192.000000
 -0.416667  0.048113  0.051031    192.000000
 -0.250000  0.144338  0.051031     96.000000
  0.416667  0.721688  0.051031     96.000000
 -0.416667  0.240563  0.051031     96.000000
  0.083333  0.144338  0.153093     96.000000
  0.250000  0.240563  0.153093    192.000000
  0.416667  0.336788  0.153093    192.000000
 -0.416667 -0.144338  0.153093    192.000000
 -0.250000 -0.048113  0.153093    192.000000
 -0.083333  0.048113  0.153093     96.000000
  0.250000  0.433013  0.153093     96.000000
  0.416667  0.529238  0.153093    192.000000
 -0.416667  0.048113  0.153093    192.000000
 -0.250000  0.144338  0.153093     96.000000
  0.416667  0.721688  0.153093     96.000000
 -0.416667  0.240563  0.153093     96.000000
  0.083333  0.144338  0.255156     96.000000
  0.250000  0.240563  0.255156    192.000000
  0.416667  0.336788  0.255156    192.000000
 -0.416667 -0.144338  0.255156    192.000000
 -0.250000 -0.048113  0.255156    192.000000
 -0.083333  0.048113  0.255156     96.000000
  0.250000  0.433013  0.255156     96.000000
  0.416667  0.529238  0.255156    192.000000
 -0.416667  0.048113  0.255156    192.000000
 -0.250000  0.144338  0.255156     96.000000
  0.416667  0.721688  0.255156     96.000000
 -0.416667  0.240563  0.255156     96.000000
 


--------------------------------------------------------------------------------------------------------




 Dimension of arrays:
   k-points           NKPTS =     36   k-points in BZ     NKDIM =     36   number of bands    NBANDS=      8
   number of dos      NEDOS =    301   number of ions     NIONS =      2
   non local maximal  LDIM  =      4   non local SUM 2l+1 LMDIM =      8
   total plane-waves  NPLWV =   9720
   max r-space proj   IRMAX =      1   max aug-charges    IRDMAX=  13579
   dimension x,y,z NGX =    18 NGY =   18 NGZ =   30
   dimension x,y,z NGXF=    36 NGYF=   36 NGZF=   60
   support grid    NGXF=    36 NGYF=   36 NGZF=   60
   ions per type =               2
 NGX,Y,Z   is equivalent  to a cutoff of  11.60, 11.60, 11.84 a.u.
 NGXF,Y,Z  is equivalent  to a cutoff of  23.20, 23.20, 23.68 a.u.


 I would recommend the setting:
   dimension x,y,z NGX =    18 NGY =   18 NGZ =   29
 SYSTEM =  Si beta-tin                             
 POSCAR =  Si HCP                                  

 Startparameter for this run:
   NWRITE =      2    write-flag & timer
   PREC   = accura    normal or accurate (medium, high low for compatibility)
   ISTART =      0    job   : 0-new  1-cont  2-samecut
   ICHARG =      2    charge: 1-file 2-atom 10-const
   ISPIN  =      1    spin polarized calculation?
   LNONCOLLINEAR =      F non collinear calculations
   LSORBIT =      F    spin-orbit coupling
   INIWAV =      1    electr: 0-lowe 1-rand  2-diag
   LASPH  =      F    aspherical Exc in radial PAW
   METAGGA=      F    non-selfconsistent MetaGGA calc.

 Electronic Relaxation 1
   ENCUT  =  450.0 eV  33.07 Ry    5.75 a.u.   4.46  4.46  7.29*2*pi/ulx,y,z
   ENINI  =  450.0     initial cutoff
   ENAUG  =  322.1 eV  augmentation charge cutoff
   NELM   =     60;   NELMIN=  2; NELMDL= -5     # of ELM steps 
   EDIFF  = 0.1E-04   stopping-criterion for ELM
   LREAL  =      F    real-space projection
   NLSPLINE    = F    spline interpolate recip. space projectors
   LCOMPAT=      F    compatible to vasp.4.4
   GGA_COMPAT  = T    GGA compatible to vasp.4.4-vasp.4.6
   LMAXPAW     = -100 max onsite density
   LMAXMIX     =    2 max onsite mixed and CHGCAR
   VOSKOWN=      0    Vosko Wilk Nusair interpolation
   ROPT   =    0.00000
 Ionic relaxation
   EDIFFG = -.1E-01   stopping-criterion for IOM
   NSW    =    100    number of steps for IOM
   NBLOCK =      1;   KBLOCK =    100    inner block; outer block 
   IBRION =      2    ionic relax: 0-MD 1-quasi-New 2-CG
   NFREE  =      1    steps in history (QN), initial steepest desc. (CG)
   ISIF   =      4    stress and relaxation
   IWAVPR =     11    prediction:  0-non 1-charg 2-wave 3-comb
   ISYM   =      2    0-nonsym 1-usesym 2-fastsym
   LCORR  =      T    Harris-Foulkes like correction to forces

   POTIM  = 0.5000    time-step for ionic-motion
   TEIN   =    0.0    initial temperature
   TEBEG  =    0.0;   TEEND  =   0.0 temperature during run
   SMASS  =  -3.00    Nose mass-parameter (am)
   estimated Nose-frequenzy (Omega)   =  0.10E-29 period in steps =****** mass=  -0.152E-27a.u.
   SCALEE = 1.0000    scale energy and forces
   NPACO  =    256;   APACO  = 16.0  distance and # of slots for P.C.
   PSTRESS=    0.0 pullay stress

  Mass of Ions in am
   POMASS =  28.09
  Ionic Valenz
   ZVAL   =   4.00
  Atomic Wigner-Seitz radii
   RWIGS  =  -1.00
  virtual crystal weights 
   VCA    =   1.00
   NELECT =       8.0000    total number of electrons
   NUPDOWN=      -1.0000    fix difference up-down

 DOS related values:
   EMIN   =  10.00;   EMAX   =-10.00  energy-range for DOS
   EFERMI =   0.00
   ISMEAR =     0;   SIGMA  =   0.10  broadening in eV -4-tet -1-fermi 0-gaus

 Electronic relaxation 2 (details)
   IALGO  =     38    algorithm
   LDIAG  =      T    sub-space diagonalisation (order eigenvalues)
   LSUBROT=      F    optimize rotation matrix (better conditioning)
   TURBO    =      0    0=normal 1=particle mesh
   IRESTART =      0    0=no restart 2=restart with 2 vectors
   NREBOOT  =      0    no. of reboots
   NMIN     =      0    reboot dimension
   EREF     =   0.00    reference energy to select bands
   IMIX   =      4    mixing-type and parameters
     AMIX     =   0.40;   BMIX     =  1.00
     AMIX_MAG =   1.60;   BMIX_MAG =  1.00
     AMIN     =   0.10
     WC   =   100.;   INIMIX=   1;  MIXPRE=   1;  MAXMIX= -45

 Intra band minimization:
   WEIMIN = 0.0010     energy-eigenvalue tresh-hold
   EBREAK =  0.31E-06  absolut break condition
   DEPER  =   0.30     relativ break condition  

   TIME   =   0.40     timestep for ELM

  volume/ion in A,a.u.               =      12.14        81.95
  Fermi-wavevector in a.u.,A,eV,Ry     =   1.130612  2.136548 17.392114  1.278284
  Thomas-Fermi vector in A             =   2.267309
 
 Write flags
   LWAVE  =      T    write WAVECAR
   LCHARG =      T    write CHGCAR
   LVTOT  =      F    write LOCPOT, total local potential
   LVHAR  =      F    write LOCPOT, Hartree potential only
   LELF   =      F    write electronic localiz. function (ELF)
   LORBIT =      0    0 simple, 1 ext, 2 COOP (PROOUT)


 Dipole corrections
   LMONO  =      F    monopole corrections only (constant potential shift)
   LDIPOL =      F    correct potential (dipole corrections)
   IDIPOL =      0    1-x, 2-y, 3-z, 4-all directions 
   EPSILON=  1.0000000 bulk dielectric constant

 Exchange correlation treatment:
   GGA     =    --    GGA type
   LEXCH   =     8    internal setting for exchange type
   VOSKOWN=      0    Vosko Wilk Nusair interpolation
   LHFCALC =     F    Hartree Fock is set to
   LHFONE  =     F    Hartree Fock one center treatment
   AEXX    =    0.0000 exact exchange contribution

 Linear response parameters
   LEPSILON=     F    determine dielectric tensor
   LRPA    =     F    only Hartree local field effects (RPA)
   LNABLA  =     F    use nabla operator in PAW spheres
   LVEL    =     F    velocity operator in full k-point grid
   LINTERFAST=   F  fast interpolation
   KINTER  =     0    interpolate to denser k-point grid
   CSHIFT  =0.1000    complex shift for real part using Kramers Kronig
   OMEGAMAX=  -1.0    maximum frequency
   DEG_THRESHOLD= 0.2000000E-02 threshold for treating states as degnerate
   RTIME   =    0.100 relaxation time in fs

 Orbital magnetization related:
   ORBITALMAG=     F  switch on orbital magnetization
   LCHIMAG   =     F  perturbation theory with respect to B field
   DQ        =  0.001000  dq finite difference perturbation B field



--------------------------------------------------------------------------------------------------------


 conjugate gradient relaxation of ions
 charge density and potential will be updated during run
 non-spin polarized calculation
 Variant of blocked Davidson
 Davidson routine will perform the subspace rotation
 perform sub-space diagonalisation
    after iterative eigenvector-optimisation
 modified Broyden-mixing scheme, WC =      100.0
 initial mixing is a Kerker type mixing with AMIX =  0.4000 and BMIX =      1.0000
 Hartree-type preconditioning will be used
 using additional bands            4
 reciprocal scheme for non local part
 use partial core corrections
 calculate Harris-corrections to forces 
   (improved forces if not selfconsistent)
 use gradient corrections 
 use of overlap-Matrix (Vanderbilt PP)
 Gauss-broadening in eV      SIGMA  =   0.10


--------------------------------------------------------------------------------------------------------


  energy-cutoff  :      450.00
  volume of cell :       24.29
      direct lattice vectors                 reciprocal lattice vectors
     2.580000000  0.000000000  0.000000000     0.387596899  0.223779174  0.000000000
    -1.290000000  2.234345542  0.000000000     0.000000000  0.447558348  0.000000000
     0.000000000  0.000000000  4.213114200     0.000000000  0.000000000  0.237354117

  length of vectors
     2.580000000  2.580000000  4.213114200     0.447558348  0.447558348  0.237354117


 
 k-points in units of 2pi/SCALE and weight: K-Points                                
   0.08333333  0.14433757  0.05103114       0.019
   0.25000000  0.24056261  0.05103114       0.037
   0.41666667  0.33678766  0.05103114       0.037
  -0.41666667 -0.14433757  0.05103114       0.037
  -0.25000000 -0.04811252  0.05103114       0.037
  -0.08333333  0.04811252  0.05103114       0.019
   0.25000000  0.43301270  0.05103114       0.019
   0.41666667  0.52923775  0.05103114       0.037
  -0.41666667  0.04811252  0.05103114       0.037
  -0.25000000  0.14433757  0.05103114       0.019
   0.41666667  0.72168784  0.05103114       0.019
  -0.41666667  0.24056261  0.05103114       0.019
   0.08333333  0.14433757  0.15309341       0.019
   0.25000000  0.24056261  0.15309341       0.037
   0.41666667  0.33678766  0.15309341       0.037
  -0.41666667 -0.14433757  0.15309341       0.037
  -0.25000000 -0.04811252  0.15309341       0.037
  -0.08333333  0.04811252  0.15309341       0.019
   0.25000000  0.43301270  0.15309341       0.019
   0.41666667  0.52923775  0.15309341       0.037
  -0.41666667  0.04811252  0.15309341       0.037
  -0.25000000  0.14433757  0.15309341       0.019
   0.41666667  0.72168784  0.15309341       0.019
  -0.41666667  0.24056261  0.15309341       0.019
   0.08333333  0.14433757  0.25515568       0.019
   0.25000000  0.24056261  0.25515568       0.037
   0.41666667  0.33678766  0.25515568       0.037
  -0.41666667 -0.14433757  0.25515568       0.037
  -0.25000000 -0.04811252  0.25515568       0.037
  -0.08333333  0.04811252  0.25515568       0.019
   0.25000000  0.43301270  0.25515568       0.019
   0.41666667  0.52923775  0.25515568       0.037
  -0.41666667  0.04811252  0.25515568       0.037
  -0.25000000  0.14433757  0.25515568       0.019
   0.41666667  0.72168784  0.25515568       0.019
  -0.41666667  0.24056261  0.25515568       0.019
 
 k-points in reciprocal lattice and weights: K-Points                                
   0.08333333  0.08333333  0.08333333       0.019
   0.25000000  0.08333333  0.08333333       0.037
   0.41666667  0.08333333  0.08333333       0.037
  -0.41666667  0.08333333  0.08333333       0.037
  -0.25000000  0.08333333  0.08333333       0.037
  -0.08333333  0.08333333  0.08333333       0.019
   0.25000000  0.25000000  0.08333333       0.019
   0.41666667  0.25000000  0.08333333       0.037
  -0.41666667  0.25000000  0.08333333       0.037
  -0.25000000  0.25000000  0.08333333       0.019
   0.41666667  0.41666667  0.08333333       0.019
  -0.41666667  0.41666667  0.08333333       0.019
   0.08333333  0.08333333  0.25000000       0.019
   0.25000000  0.08333333  0.25000000       0.037
   0.41666667  0.08333333  0.25000000       0.037
  -0.41666667  0.08333333  0.25000000       0.037
  -0.25000000  0.08333333  0.25000000       0.037
  -0.08333333  0.08333333  0.25000000       0.019
   0.25000000  0.25000000  0.25000000       0.019
   0.41666667  0.25000000  0.25000000       0.037
  -0.41666667  0.25000000  0.25000000       0.037
  -0.25000000  0.25000000  0.25000000       0.019
   0.41666667  0.41666667  0.25000000       0.019
  -0.41666667  0.41666667  0.25000000       0.019
   0.08333333  0.08333333  0.41666667       0.019
   0.25000000  0.08333333  0.41666667       0.037
   0.41666667  0.08333333  0.41666667       0.037
  -0.41666667  0.08333333  0.41666667       0.037
  -0.25000000  0.08333333  0.41666667       0.037
  -0.08333333  0.08333333  0.41666667       0.019
   0.25000000  0.25000000  0.41666667       0.019
   0.41666667  0.25000000  0.41666667       0.037
  -0.41666667  0.25000000  0.41666667       0.037
  -0.25000000  0.25000000  0.41666667       0.019
   0.41666667  0.41666667  0.41666667       0.019
  -0.41666667  0.41666667  0.41666667       0.019
 
 position of ions in fractional coordinates (direct lattice) 
   0.00000000  0.00000000  0.00000000
   0.33333333  0.66666667  0.50000000
 
 position of ions in cartesian coordinates  (Angst):
   0.00000000  0.00000000  0.00000000
  -0.00000000  1.48956369  2.10655710
 


--------------------------------------------------------------------------------------------------------


 k-point  1 :   0.0833 0.0833 0.0833  plane waves:     539
 k-point  2 :   0.2500 0.0833 0.0833  plane waves:     526
 k-point  3 :   0.4167 0.0833 0.0833  plane waves:     520
 k-point  4 :  -0.4167 0.0833 0.0833  plane waves:     521
 k-point  5 :  -0.2500 0.0833 0.0833  plane waves:     538
 k-point  6 :  -0.0833 0.0833 0.0833  plane waves:     543
 k-point  7 :   0.2500 0.2500 0.0833  plane waves:     521
 k-point  8 :   0.4167 0.2500 0.0833  plane waves:     522
 k-point  9 :  -0.4167 0.2500 0.0833  plane waves:     522
 k-point 10 :  -0.2500 0.2500 0.0833  plane waves:     534
 k-point 11 :   0.4167 0.4167 0.0833  plane waves:     521
 k-point 12 :  -0.4167 0.4167 0.0833  plane waves:     524
 k-point 13 :   0.0833 0.0833 0.2500  plane waves:     533
 k-point 14 :   0.2500 0.0833 0.2500  plane waves:     526
 k-point 15 :   0.4167 0.0833 0.2500  plane waves:     522
 k-point 16 :  -0.4167 0.0833 0.2500  plane waves:     527
 k-point 17 :  -0.2500 0.0833 0.2500  plane waves:     533
 k-point 18 :  -0.0833 0.0833 0.2500  plane waves:     535
 k-point 19 :   0.2500 0.2500 0.2500  plane waves:     521
 k-point 20 :   0.4167 0.2500 0.2500  plane waves:     519
 k-point 21 :  -0.4167 0.2500 0.2500  plane waves:     527
 k-point 22 :  -0.2500 0.2500 0.2500  plane waves:     530
 k-point 23 :   0.4167 0.4167 0.2500  plane waves:     519
 k-point 24 :  -0.4167 0.4167 0.2500  plane waves:     523
 k-point 25 :   0.0833 0.0833 0.4167  plane waves:     530
 k-point 26 :   0.2500 0.0833 0.4167  plane waves:     530
 k-point 27 :   0.4167 0.0833 0.4167  plane waves:     520
 k-point 28 :  -0.4167 0.0833 0.4167  plane waves:     526
 k-point 29 :  -0.2500 0.0833 0.4167  plane waves:     532
 k-point 30 :  -0.0833 0.0833 0.4167  plane waves:     528
 k-point 31 :   0.2500 0.2500 0.4167  plane waves:     527
 k-point 32 :   0.4167 0.2500 0.4167  plane waves:     524
 k-point 33 :  -0.4167 0.2500 0.4167  plane waves:     529
 k-point 34 :  -0.2500 0.2500 0.4167  plane waves:     529
 k-point 35 :   0.4167 0.4167 0.4167  plane waves:     520
 k-point 36 :  -0.4167 0.4167 0.4167  plane waves:     525

 maximum and minimum number of plane-waves per node :       543      519

 maximum number of plane-waves:       543
 maximum index in each direction: 
   IXMAX=    4   IYMAX=    4   IZMAX=    7
   IXMIN=   -4   IYMIN=   -4   IZMIN=   -7

 NGX is ok and might be reduce to  18
 NGY is ok and might be reduce to  18
 NGZ is ok and might be reduce to  30

 serial   3D FFT for wavefunctions
 parallel 3D FFT for charge:
    minimum data exchange during FFTs selected (reduces bandwidth)


 total amount of memory used by VASP on root node    33982. kBytes
========================================================================

   base      :      30000. kBytes
   nonl-proj :       1270. kBytes
   fftplans  :        714. kBytes
   grid      :       1347. kBytes
   one-center:          6. kBytes
   wavefun   :        645. kBytes
 
     INWAV:  cpu time    0.0000: real time    0.0000
 Broyden mixing: mesh for mixing (old mesh)
   NGX =  9   NGY =  9   NGZ = 15
  (NGX  = 36   NGY  = 36   NGZ  = 60)
  gives a total of   1215 points

 initial charge density was supplied:
 charge density of overlapping atoms calculated
 number of electron       8.0000000 magnetization 
 keeping initial charge density in first step


--------------------------------------------------------------------------------------------------------


 Maximum index for augmentation-charges         3209 (set IRDMAX)


--------------------------------------------------------------------------------------------------------


 First call to EWALD:  gamma=   0.612
 Maximum number of real-space cells 3x 3x 2
 Maximum number of reciprocal cells 3x 3x 4

 FEWALD executed in parallel
    FEWALD:  cpu time    0.0020: real time    0.0010


----------------------------------------- Iteration    1(   1)  ---------------------------------------


    POTLOK:  cpu time    0.0300: real time    0.0206
    SETDIJ:  cpu time    0.0080: real time    0.0062
     EDDAV:  cpu time    1.2708: real time    0.8041
       DOS:  cpu time    0.0020: real time    0.0010
    --------------------------------------------
      LOOP:  cpu time    1.3218: real time    0.8385

 eigenvalue-minimisations  :   584
 total energy-change (2. order) : 0.3375726E+01  (-0.3424928E+03)
 number of electron       8.0000000 magnetization 
 augmentation part        8.0000000 magnetization 

 Free energy of the ion-electron system (eV)
  ---------------------------------------------------
  alpha Z        PSCENC =         5.54422978
  Ewald energy   TEWEN  =      -289.50142797
  -Hartree energ DENC   =        -0.63428465
  -exchange      EXHF   =         0.00000000
  -V(xc)+E(xc)   XCENC  =       -16.63554372
  PAW double counting   =       176.24759923     -141.06103558
  entropy T*S    EENTRO =        -0.00245942
  eigenvalues    EBANDS =        63.28672084
  atomic energy  EATOM  =       206.13192747
  Solvation  Ediel_sol  =         0.00000000
  ---------------------------------------------------
  free energy    TOTEN  =         3.37572598 eV

  energy without entropy =        3.37818540  energy(sigma->0) =        3.37695569


--------------------------------------------------------------------------------------------------------




----------------------------------------- Iteration    1(   2)  ---------------------------------------


     EDDAV:  cpu time    2.1147: real time    1.3512
       DOS:  cpu time    0.0020: real time    0.0010
    --------------------------------------------
      LOOP:  cpu time    2.1187: real time    1.3540

 eigenvalue-minimisations  :   808
 total energy-change (2. order) :-0.1288172E+02  (-0.1253160E+02)
 number of electron       8.0000000 magnetization 
 augmentation part        8.0000000 magnetization 

 Free energy of the ion-electron system (eV)
  ---------------------------------------------------
  alpha Z        PSCENC =         5.54422978
  Ewald energy   TEWEN  =      -289.50142797
  -Hartree energ DENC   =        -0.63428465
  -exchange      EXHF   =         0.00000000
  -V(xc)+E(xc)   XCENC  =       -16.63554372
  PAW double counting   =       176.24759923     -141.06103558
  entropy T*S    EENTRO =        -0.00190771
  eigenvalues    EBANDS =        50.40445244
  atomic energy  EATOM  =       206.13192747
  Solvation  Ediel_sol  =         0.00000000
  ---------------------------------------------------
  free energy    TOTEN  =        -9.50599071 eV

  energy without entropy =       -9.50408300  energy(sigma->0) =       -9.50503686


--------------------------------------------------------------------------------------------------------




----------------------------------------- Iteration    1(   3)  ---------------------------------------


     EDDAV:  cpu time    1.4978: real time    0.9605
       DOS:  cpu time    0.0030: real time    0.0011
    --------------------------------------------
      LOOP:  cpu time    1.5038: real time    0.9639

 eigenvalue-minimisations  :   752
 total energy-change (2. order) :-0.1517271E+00  (-0.1516634E+00)
 number of electron       8.0000000 magnetization 
 augmentation part        8.0000000 magnetization 

 Free energy of the ion-electron system (eV)
  ---------------------------------------------------
  alpha Z        PSCENC =         5.54422978
  Ewald energy   TEWEN  =      -289.50142797
  -Hartree energ DENC   =        -0.63428465
  -exchange      EXHF   =         0.00000000
  -V(xc)+E(xc)   XCENC  =       -16.63554372
  PAW double counting   =       176.24759923     -141.06103558
  entropy T*S    EENTRO =        -0.00230732
  eigenvalues    EBANDS =        50.25312492
  atomic energy  EATOM  =       206.13192747
  Solvation  Ediel_sol  =         0.00000000
  ---------------------------------------------------
  free energy    TOTEN  =        -9.65771784 eV

  energy without entropy =       -9.65541052  energy(sigma->0) =       -9.65656418


--------------------------------------------------------------------------------------------------------




----------------------------------------- Iteration    1(   4)  ---------------------------------------


     EDDAV:  cpu time    2.0477: real time    1.2925
       DOS:  cpu time    0.0020: real time    0.0010
    --------------------------------------------
      LOOP:  cpu time    2.0527: real time    1.2962

 eigenvalue-minimisations  :   896
 total energy-change (2. order) :-0.9727674E-03  (-0.9727621E-03)
 number of electron       8.0000000 magnetization 
 augmentation part        8.0000000 magnetization 

 Free energy of the ion-electron system (eV)
  ---------------------------------------------------
  alpha Z        PSCENC =         5.54422978
  Ewald energy   TEWEN  =      -289.50142797
  -Hartree energ DENC   =        -0.63428465
  -exchange      EXHF   =         0.00000000
  -V(xc)+E(xc)   XCENC  =       -16.63554372
  PAW double counting   =       176.24759923     -141.06103558
  entropy T*S    EENTRO =        -0.00231002
  eigenvalues    EBANDS =        50.25215485
  atomic energy  EATOM  =       206.13192747
  Solvation  Ediel_sol  =         0.00000000
  ---------------------------------------------------
  free energy    TOTEN  =        -9.65869061 eV

  energy without entropy =       -9.65638059  energy(sigma->0) =       -9.65753560


--------------------------------------------------------------------------------------------------------




----------------------------------------- Iteration    1(   5)  ---------------------------------------


     EDDAV:  cpu time    1.5948: real time    1.0668
       DOS:  cpu time    0.0020: real time    0.0008
    CHARGE:  cpu time    0.0280: real time    0.0187
    MIXING:  cpu time    0.0010: real time    0.0006
    --------------------------------------------
      LOOP:  cpu time    1.6308: real time    1.0896

 eigenvalue-minimisations  :   768
 total energy-change (2. order) :-0.9516539E-06  (-0.9503581E-06)
 number of electron       8.0000000 magnetization 
 augmentation part       -0.4669765 magnetization 

 Broyden mixing:
  rms(total) = 0.52644E+00    rms(broyden)= 0.52644E+00
  rms(prec ) = 0.57950E+00
  weight for this iteration     100.00

 Free energy of the ion-electron system (eV)
  ---------------------------------------------------
  alpha Z        PSCENC =         5.54422978
  Ewald energy   TEWEN  =      -289.50142797
  -Hartree energ DENC   =        -0.63428465
  -exchange      EXHF   =         0.00000000
  -V(xc)+E(xc)   XCENC  =       -16.63554372
  PAW double counting   =       176.24759923     -141.06103558
  entropy T*S    EENTRO =        -0.00231002
  eigenvalues    EBANDS =        50.25215390
  atomic energy  EATOM  =       206.13192747
  Solvation  Ediel_sol  =         0.00000000
  ---------------------------------------------------
  free energy    TOTEN  =        -9.65869156 eV

  energy without entropy =       -9.65638154  energy(sigma->0) =       -9.65753655


--------------------------------------------------------------------------------------------------------




----------------------------------------- Iteration    1(   6)  ---------------------------------------


    POTLOK:  cpu time    0.0370: real time    0.0263
    SETDIJ:  cpu time    0.0030: real time    0.0018
     EDDAV:  cpu time    1.8437: real time    1.1922
       DOS:  cpu time    0.0010: real time    0.0010
    CHARGE:  cpu time    0.0260: real time    0.0175
    MIXING:  cpu time    0.0120: real time    0.0088
    --------------------------------------------
      LOOP:  cpu time    1.9287: real time    1.2501

 eigenvalue-minimisations  :   704
 total energy-change (2. order) : 0.3382382E-01  (-0.7236754E-03)
 number of electron       8.0000000 magnetization 
 augmentation part       -0.4708887 magnetization 

 Broyden mixing:
  rms(total) = 0.29308E+00    rms(broyden)= 0.29308E+00
  rms(prec ) = 0.32740E+00
  weight for this iteration     100.00

 eigenvalues of (default mixing * dielectric matrix)
  average eigenvalue GAMMA=   2.2481
  2.2481

 Free energy of the ion-electron system (eV)
  ---------------------------------------------------
  alpha Z        PSCENC =         5.54422978
  Ewald energy   TEWEN  =      -289.50142797
  -Hartree energ DENC   =        -0.57000046
  -exchange      EXHF   =         0.00000000
  -V(xc)+E(xc)   XCENC  =       -16.55664907
  PAW double counting   =       424.92254918     -389.76819251
  entropy T*S    EENTRO =        -0.00223697
  eigenvalues    EBANDS =        50.17493281
  atomic energy  EATOM  =       206.13192747
  Solvation  Ediel_sol  =         0.00000000
  ---------------------------------------------------
  free energy    TOTEN  =        -9.62486774 eV

  energy without entropy =       -9.62263077  energy(sigma->0) =       -9.62374926


--------------------------------------------------------------------------------------------------------




----------------------------------------- Iteration    1(   7)  ---------------------------------------


    POTLOK:  cpu time    0.0280: real time    0.0187
    SETDIJ:  cpu time    0.0050: real time    0.0031
     EDDAV:  cpu time    1.6747: real time    1.0347
       DOS:  cpu time    0.0020: real time    0.0011
    CHARGE:  cpu time    0.0140: real time    0.0106
    MIXING:  cpu time    0.0020: real time    0.0009
    --------------------------------------------
      LOOP:  cpu time    1.7307: real time    1.0718

 eigenvalue-minimisations  :   784
 total energy-change (2. order) : 0.2001059E-01  (-0.1448689E-02)
 number of electron       8.0000000 magnetization 
 augmentation part       -0.4765467 magnetization 

 Broyden mixing:
  rms(total) = 0.17792E-01    rms(broyden)= 0.17792E-01
  rms(prec ) = 0.22437E-01
  weight for this iteration     100.00

 eigenvalues of (default mixing * dielectric matrix)
  average eigenvalue GAMMA=   2.5018
  2.5018  2.5018

 Free energy of the ion-electron system (eV)
  ---------------------------------------------------
  alpha Z        PSCENC =         5.54422978
  Ewald energy   TEWEN  =      -289.50142797
  -Hartree energ DENC   =        -0.54098840
  -exchange      EXHF   =         0.00000000
  -V(xc)+E(xc)   XCENC  =       -16.43537080
  PAW double counting   =       934.80984022     -899.70777899
  entropy T*S    EENTRO =        -0.00214548
  eigenvalues    EBANDS =        50.09685703
  atomic energy  EATOM  =       206.13192747
  Solvation  Ediel_sol  =         0.00000000
  ---------------------------------------------------
  free energy    TOTEN  =        -9.60485715 eV

  energy without entropy =       -9.60271167  energy(sigma->0) =       -9.60378441


--------------------------------------------------------------------------------------------------------




----------------------------------------- Iteration    1(   8)  ---------------------------------------


    POTLOK:  cpu time    0.0400: real time    0.0227
    SETDIJ:  cpu time    0.0030: real time    0.0017
     EDDAV:  cpu time    2.1307: real time    1.3110
       DOS:  cpu time    0.0030: real time    0.0011
    CHARGE:  cpu time    0.0200: real time    0.0102
    MIXING:  cpu time    0.0030: real time    0.0015
    --------------------------------------------
      LOOP:  cpu time    2.2047: real time    1.3510

 eigenvalue-minimisations  :   856
 total energy-change (2. order) : 0.1896023E-03  (-0.1212623E-04)
 number of electron       8.0000000 magnetization 
 augmentation part       -0.4769351 magnetization 

 Broyden mixing:
  rms(total) = 0.17698E-02    rms(broyden)= 0.17698E-02
  rms(prec ) = 0.25828E-02
  weight for this iteration     100.00

 eigenvalues of (default mixing * dielectric matrix)
  average eigenvalue GAMMA=   2.0213
  0.9611  2.6941  2.4088

 Free energy of the ion-electron system (eV)
  ---------------------------------------------------
  alpha Z        PSCENC =         5.54422978
  Ewald energy   TEWEN  =      -289.50142797
  -Hartree energ DENC   =        -0.54870522
  -exchange      EXHF   =         0.00000000
  -V(xc)+E(xc)   XCENC  =       -16.41950520
  PAW double counting   =       908.77333698     -873.68727291
  entropy T*S    EENTRO =        -0.00214031
  eigenvalues    EBANDS =        50.10488983
  atomic energy  EATOM  =       206.13192747
  Solvation  Ediel_sol  =         0.00000000
  ---------------------------------------------------
  free energy    TOTEN  =        -9.60466755 eV

  energy without entropy =       -9.60252724  energy(sigma->0) =       -9.60359740


--------------------------------------------------------------------------------------------------------




----------------------------------------- Iteration    1(   9)  ---------------------------------------


    POTLOK:  cpu time    0.0420: real time    0.0260
    SETDIJ:  cpu time    0.0100: real time    0.0051
     EDDAV:  cpu time    1.0508: real time    0.6428
       DOS:  cpu time    0.0030: real time    0.0011
    --------------------------------------------
      LOOP:  cpu time    1.1098: real time    0.6778

 eigenvalue-minimisations  :   512
 total energy-change (2. order) : 0.7018252E-06  (-0.2376074E-06)
 number of electron       8.0000000 magnetization 
 augmentation part       -0.4769351 magnetization 

 Free energy of the ion-electron system (eV)
  ---------------------------------------------------
  alpha Z        PSCENC =         5.54422978
  Ewald energy   TEWEN  =      -289.50142797
  -Hartree energ DENC   =        -0.54962249
  -exchange      EXHF   =         0.00000000
  -V(xc)+E(xc)   XCENC  =       -16.41721600
  PAW double counting   =       908.71449646     -873.63005687
  entropy T*S    EENTRO =        -0.00213927
  eigenvalues    EBANDS =        50.10514204
  atomic energy  EATOM  =       206.13192747
  Solvation  Ediel_sol  =         0.00000000
  ---------------------------------------------------
  free energy    TOTEN  =        -9.60466685 eV

  energy without entropy =       -9.60252758  energy(sigma->0) =       -9.60359721


--------------------------------------------------------------------------------------------------------




 average (electrostatic) potential at core
  the test charge radii are     0.9892
  (the norm of the test charge is              1.0000)
       1 -77.3903       2 -77.3903
 
 
 
 E-fermi :  12.6230     XC(G=0): -11.9180     alpha+bet :-19.7509


 k-point     1 :       0.0833    0.0833    0.0833
  band No.  band energies     occupation 
      1      -2.8654      2.00000
      2       3.8243      2.00000
      3       6.4354      2.00000
      4      17.6528      0.00000
      5      17.9015      0.00000
      6      23.3990      0.00000
      7      23.5911      0.00000
      8      23.8326      0.00000

 k-point     2 :       0.2500    0.0833    0.0833
  band No.  band energies     occupation 
      1      -0.8611      2.00000
      2       5.7446      2.00000
      3       8.2901      2.00000
      4      10.9128      2.00000
      5      15.2219      0.00000
      6      17.1913      0.00000
      7      19.4258      0.00000
      8      21.5833      0.00000

 k-point     3 :       0.4167    0.0833    0.0833
  band No.  band energies     occupation 
      1       2.6774      2.00000
      2       5.0357      2.00000
      3       9.1990      2.00000
      4      11.1255      2.00000
      5      12.1667      2.00000
      6      13.8704      0.00000
      7      14.6034      0.00000
      8      20.4710      0.00000

 k-point     4 :      -0.4167    0.0833    0.0833
  band No.  band energies     occupation 
      1       0.7252      2.00000
      2       7.0856      2.00000
      3       7.9204      2.00000
      4       9.9123      2.00000
      5      13.9972      0.00000
      6      14.7843      0.00000
      7      16.6979      0.00000
      8      20.8348      0.00000

 k-point     5 :      -0.2500    0.0833    0.0833
  band No.  band energies     occupation 
      1      -2.0609      2.00000
      2       4.5981      2.00000
      3       7.1926      2.00000
      4      14.2070      0.00000
      5      16.3491      0.00000
      6      20.3093      0.00000
      7      21.9984      0.00000
      8      22.8963      0.00000

 k-point     6 :      -0.0833    0.0833    0.0833
  band No.  band energies     occupation 
      1      -3.2689      2.00000
      2       3.4354      2.00000
      3       6.0535      2.00000
      4      19.4842      0.00000
      5      20.7695      0.00000
      6      22.5960      0.00000
      7      24.5541      0.00000
      8      25.0684      0.00000

 k-point     7 :       0.2500    0.2500    0.0833
  band No.  band energies     occupation 
      1       1.9058      2.00000
      2       8.0328      2.00000
      3       9.0454      2.00000
      4       9.0817      2.00000
      5      11.0855      2.00000
      6      14.9921      0.00000
      7      15.6182      0.00000
      8      17.7695      0.00000

 k-point     8 :       0.4167    0.2500    0.0833
  band No.  band energies     occupation 
      1       3.8439      2.00000
      2       6.1691      2.00000
      3       8.4531      2.00000
      4      10.4046      2.00000
      5      12.2082      2.00000
      6      13.2943      0.00000
      7      14.6601      0.00000
      8      16.0297      0.00000

 k-point     9 :      -0.4167    0.2500    0.0833
  band No.  band energies     occupation 
      1       0.3306      2.00000
      2       6.8616      2.00000
      3       9.1619      2.00000
      4      10.0166      2.00000
      5      12.0045      2.00000
      6      16.0603      0.00000
      7      17.8063      0.00000
      8      19.1347      0.00000

 k-point    10 :      -0.2500    0.2500    0.0833
  band No.  band energies     occupation 
      1      -1.6601      2.00000
      2       4.9824      2.00000
      3       7.5648      2.00000
      4      12.3779      1.99947
      5      18.0176      0.00000
      6      18.4895      0.00000
      7      20.1984      0.00000
      8      21.0069      0.00000

 k-point    11 :       0.4167    0.4167    0.0833
  band No.  band energies     occupation 
      1       4.0391      2.00000
      2       4.4612      2.00000
      3      10.2993      2.00000
      4      10.8693      2.00000
      5      11.2404      2.00000
      6      13.4824      0.00000
      7      13.5795      0.00000
      8      17.8279      0.00000

 k-point    12 :      -0.4167    0.4167    0.0833
  band No.  band energies     occupation 
      1       1.5110      2.00000
      2       6.1406      2.00000
      3       8.1280      2.00000
      4      10.5631      2.00000
      5      12.8118      0.00759
      6      15.1784      0.00000
      7      16.6317      0.00000
      8      18.9389      0.00000

 k-point    13 :       0.0833    0.0833    0.2500
  band No.  band energies     occupation 
      1      -2.4119      2.00000
      2       1.6205      2.00000
      3       9.4333      2.00000
      4      18.0468      0.00000
      5      18.1697      0.00000
      6      20.6393      0.00000
      7      21.6155      0.00000
      8      22.0799      0.00000

 k-point    14 :       0.2500    0.0833    0.2500
  band No.  band energies     occupation 
      1      -0.4124      2.00000
      2       3.5739      2.00000
      3      10.8752      2.00000
      4      11.6491      2.00000
      5      14.9687      0.00000
      6      15.8549      0.00000
      7      19.3574      0.00000
      8      21.6048      0.00000

 k-point    15 :       0.4167    0.0833    0.2500
  band No.  band energies     occupation 
      1       3.1156      2.00000
      2       5.4290      2.00000
      3       7.1361      2.00000
      4       9.3784      2.00000
      5      14.2706      0.00000
      6      15.0608      0.00000
      7      16.8434      0.00000
      8      18.7052      0.00000

 k-point    16 :      -0.4167    0.0833    0.2500
  band No.  band energies     occupation 
      1       1.1699      2.00000
      2       5.1016      2.00000
      3       8.2172      2.00000
      4      11.7781      2.00000
      5      13.0913      0.00000
      6      15.0540      0.00000
      7      18.4407      0.00000
      8      19.8378      0.00000

 k-point    17 :      -0.2500    0.0833    0.2500
  band No.  band energies     occupation 
      1      -1.6094      2.00000
      2       2.4054      2.00000
      3      10.1594      2.00000
      4      14.6097      0.00000
      5      16.7025      0.00000
      6      18.3717      0.00000
      7      20.4499      0.00000
      8      21.2451      0.00000

 k-point    18 :      -0.0833    0.0833    0.2500
  band No.  band energies     occupation 
      1      -2.8145      2.00000
      2       1.2264      2.00000
      3       9.0625      2.00000
      4      19.5660      0.00000
      5      20.3697      0.00000
      6      21.1538      0.00000
      7      23.3260      0.00000
      8      23.7125      0.00000

 k-point    19 :       0.2500    0.2500    0.2500
  band No.  band energies     occupation 
      1       2.3471      2.00000
      2       6.2252      2.00000
      3       9.2112      2.00000
      4       9.4929      2.00000
      5      12.8033      0.01078
      6      13.0392      0.00000
      7      14.7975      0.00000
      8      20.3065      0.00000

 k-point    20 :       0.4167    0.2500    0.2500
  band No.  band energies     occupation 
      1       4.2772      2.00000
      2       6.5469      2.00000
      3       8.1663      2.00000
      4       9.0705      2.00000
      5      10.5848      2.00000
      6      12.7150      0.19342
      7      16.1666      0.00000
      8      18.3103      0.00000

 k-point    21 :      -0.4167    0.2500    0.2500
  band No.  band energies     occupation 
      1       0.7762      2.00000
      2       4.7287      2.00000
      3      10.0547      2.00000
      4      12.0833      2.00000
      5      12.5303      1.81022
      6      14.2339      0.00000
      7      16.3272      0.00000
      8      21.2111      0.00000

 k-point    22 :      -0.2500    0.2500    0.2500
  band No.  band energies     occupation 
      1      -1.2095      2.00000
      2       2.7962      2.00000
      3      10.4950      2.00000
      4      12.8141      0.00689
      5      16.5427      0.00000
      6      18.4072      0.00000
      7      20.2112      0.00000
      8      21.8954      0.00000

 k-point    23 :       0.4167    0.4167    0.2500
  band No.  band energies     occupation 
      1       4.4715      2.00000
      2       4.8828      2.00000
      3       8.4045      2.00000
      4       8.8191      2.00000
      5      11.6544      2.00000
      6      14.9468      0.00000
      7      16.2247      0.00000
      8      17.1731      0.00000

 k-point    24 :      -0.4167    0.4167    0.2500
  band No.  band energies     occupation 
      1       1.9534      2.00000
      2       5.7702      2.00000
      3       6.8001      2.00000
      4      10.4667      2.00000
      5      13.7084      0.00000
      6      17.0222      0.00000
      7      17.8644      0.00000
      8      19.3178      0.00000

 k-point    25 :       0.0833    0.0833    0.4167
  band No.  band energies     occupation 
      1      -1.5084      2.00000
      2      -0.1611      2.00000
      3      12.7832      0.02352
      4      16.3672      0.00000
      5      18.8164      0.00000
      6      19.3128      0.00000
      7      20.1408      0.00000
      8      20.5561      0.00000

 k-point    26 :       0.2500    0.0833    0.4167
  band No.  band energies     occupation 
      1       0.4815      2.00000
      2       1.8139      2.00000
      3      12.0184      2.00000
      4      13.1528      0.00000
      5      14.8232      0.00000
      6      16.4349      0.00000
      7      17.8443      0.00000
      8      18.7141      0.00000

 k-point    27 :       0.4167    0.0833    0.4167
  band No.  band energies     occupation 
      1       3.9834      2.00000
      2       5.2206      2.00000
      3       6.4852      2.00000
      4       7.7017      2.00000
      5      15.3383      0.00000
      6      16.4138      0.00000
      7      18.2608      0.00000
      8      20.1178      0.00000

 k-point    28 :      -0.4167    0.0833    0.4167
  band No.  band energies     occupation 
      1       2.0552      2.00000
      2       3.3725      2.00000
      3       9.0589      2.00000
      4      10.3128      2.00000
      5      15.5302      0.00000
      6      16.1379      0.00000
      7      17.3750      0.00000
      8      19.8241      0.00000

 k-point    29 :      -0.2500    0.0833    0.4167
  band No.  band energies     occupation 
      1      -0.7096      2.00000
      2       0.6318      2.00000
      3      13.4142      0.00000
      4      15.3249      0.00000
      5      16.6524      0.00000
      6      16.9508      0.00000
      7      18.2727      0.00000
      8      19.0025      0.00000

 k-point    30 :      -0.0833    0.0833    0.4167
  band No.  band energies     occupation 
      1      -1.9091      2.00000
      2      -0.5591      2.00000
      3      12.4350      1.99216
      4      16.1138      0.00000
      5      20.7406      0.00000
      6      21.8822      0.00000
      7      21.9212      0.00000
      8      23.0662      0.00000

 k-point    31 :       0.2500    0.2500    0.4167
  band No.  band energies     occupation 
      1       3.2250      2.00000
      2       4.5282      2.00000
      3      10.0035      2.00000
      4      10.2576      2.00000
      5      11.4466      2.00000
      6      11.6485      2.00000
      7      17.5715      0.00000
      8      20.8267      0.00000

 k-point    32 :       0.4167    0.2500    0.4167
  band No.  band energies     occupation 
      1       5.1323      2.00000
      2       6.3321      2.00000
      3       7.6346      2.00000
      4       8.7677      2.00000
      5       9.9687      2.00000
      6      11.1471      2.00000
      7      19.2387      0.00000
      8      21.0580      0.00000

 k-point    33 :      -0.4167    0.2500    0.4167
  band No.  band energies     occupation 
      1       1.6640      2.00000
      2       2.9860      2.00000
      3      10.9123      2.00000
      4      12.0909      2.00000
      5      13.2288      0.00000
      6      14.2809      0.00000
      7      16.3647      0.00000
      8      19.6349      0.00000

 k-point    34 :      -0.2500    0.2500    0.4167
  band No.  band energies     occupation 
      1      -0.3117      2.00000
      2       1.0269      2.00000
      3      13.2824      0.00000
      4      13.8999      0.00000
      5      15.1393      0.00000
      6      17.6302      0.00000
      7      19.1863      0.00000
      8      20.3526      0.00000

 k-point    35 :       0.4167    0.4167    0.4167
  band No.  band energies     occupation 
      1       5.3056      2.00000
      2       5.6589      2.00000
      3       6.8083      2.00000
      4       7.1562      2.00000
      5      12.4830      1.95231
      6      13.6888      0.00000
      7      19.2980      0.00000
      8      19.8965      0.00000

 k-point    36 :      -0.4167    0.4167    0.4167
  band No.  band energies     occupation 
      1       2.8332      2.00000
      2       4.1369      2.00000
      3       7.5568      2.00000
      4       8.8218      2.00000
      5      16.8276      0.00000
      6      17.8035      0.00000
      7      18.9753      0.00000
      8      19.3360      0.00000


--------------------------------------------------------------------------------------------------------


 soft charge-density along one line, spin component           1
         0         1         2         3         4         5         6         7         8         9
 total charge-density along one line
 
 pseudopotential strength for first ion, spin component:           1
 17.690  24.677   0.000   0.000  -0.000   0.000   0.000  -0.000
 24.677  34.427   0.000   0.000  -0.000   0.000   0.000  -0.000
  0.000   0.000   4.060  -0.000   0.000   7.561  -0.000   0.000
  0.000   0.000  -0.000   4.060   0.000  -0.000   7.561   0.000
 -0.000  -0.000   0.000   0.000   4.060   0.000   0.000   7.561
  0.000   0.000   7.561  -0.000   0.000  14.091  -0.000   0.000
  0.000   0.000  -0.000   7.561   0.000  -0.000  14.092   0.000
 -0.000  -0.000   0.000   0.000   7.561   0.000   0.000  14.091
 total augmentation occupancy for first ion, spin component:           1
  6.438  -2.928  -0.000   0.000   0.000   0.000   0.000   0.000
 -2.928   1.731  -0.000   0.000   0.000   0.000   0.000   0.000
  0.000   0.000   3.004   0.000   0.000  -0.774   0.000   0.000
  0.000   0.000   0.000   3.004   0.000  -0.000  -0.775   0.000
  0.000   0.000   0.000   0.000   3.004   0.000   0.000  -0.774
  0.000  -0.000  -0.774   0.000   0.000   0.217   0.000   0.000
  0.000   0.000   0.000  -0.775  -0.000   0.000   0.217   0.000
  0.000   0.000   0.000   0.000  -0.774   0.000   0.000   0.217


------------------------ aborting loop because EDIFF is reached ----------------------------------------


    CHARGE:  cpu time    0.0300: real time    0.0197
    FORLOC:  cpu time    0.0010: real time    0.0005
    FORNL :  cpu time    0.0370: real time    0.0210
    STRESS:  cpu time    0.2810: real time    0.1780
    FORCOR:  cpu time    0.0110: real time    0.0210
    FORHAR:  cpu time    0.0030: real time    0.0030
    MIXING:  cpu time    0.0010: real time    0.0004
    OFIELD:  cpu time    0.0000: real time    0.0000

  FORCE on cell =-STRESS in cart. coord.  units (eV):
  Direction    XX          YY          ZZ          XY          YZ          ZX
  --------------------------------------------------------------------------------------
  Alpha Z     5.54423     5.54423     5.54423
  Ewald     -96.56658   -96.56658   -96.36847    -0.00000     0.00000     0.00000
  Hartree     0.17793     0.17793     0.19374    -0.00000    -0.00000    -0.00000
  E(xc)     -26.61701   -26.61701   -26.64380    -0.00000    -0.00000    -0.00000
  Local      -7.10215    -7.10216    -7.41029    -0.00001    -0.00000    -0.00000
  n-local    74.66277    79.14716    77.52114    -1.34173     0.18338    -0.79783
  augment   -12.10898   -12.10898   -12.10221     0.00001    -0.00000     0.00000
  Kinetic    79.80071    46.59701    62.14969    11.18251     0.04722     0.14311
  Fock        0.00000     0.00000     0.00000     0.00000     0.00000     0.00000
  -------------------------------------------------------------------------------------
  Total       3.43126     3.43126     2.88403     0.00000    -0.00000    -0.00000
  in kB     226.35536   226.35536   190.25522     0.00000    -0.00000    -0.00000
  external pressure =      214.32 kB  Pullay stress =        0.00 kB


 VOLUME and BASIS-vectors are now :
 -----------------------------------------------------------------------------
  energy-cutoff  :      450.00
  volume of cell :       24.29
      direct lattice vectors                 reciprocal lattice vectors
     2.580000000  0.000000000  0.000000000     0.387596899  0.223779174  0.000000000
    -1.290000000  2.234345542  0.000000000     0.000000000  0.447558348  0.000000000
     0.000000000  0.000000000  4.213114200     0.000000000  0.000000000  0.237354117

  length of vectors
     2.580000000  2.580000000  4.213114200     0.447558348  0.447558348  0.237354117


 FORCES acting on ions
    electron-ion (+dipol)            ewald-force                    non-local-force                 convergence-correction
 -----------------------------------------------------------------------------------------------
   -.321E-08 0.186E-08 0.549E-14   -.104E-12 0.820E-13 -.443E-14   -.304E-16 0.520E-17 0.000E+00   0.607E-09 -.350E-09 0.299E-14
   0.321E-08 -.186E-08 -.178E-13   0.103E-12 -.800E-13 0.443E-14   0.304E-16 0.694E-17 0.000E+00   -.607E-09 0.350E-09 -.299E-14
 -----------------------------------------------------------------------------------------------
   -.505E-14 -.250E-14 -.123E-13   -.133E-14 0.203E-14 0.000E+00   0.000E+00 0.121E-16 0.000E+00   0.153E-15 0.563E-16 0.346E-18
 
 
 POSITION                                       TOTAL-FORCE (eV/Angst)
 -----------------------------------------------------------------------------------
      0.00000      0.00000      0.00000        -0.000000     -0.000000      0.000000
     -0.00000      1.48956      2.10656         0.000000      0.000000      0.000000
 -----------------------------------------------------------------------------------
    total drift:                               -0.000000     -0.000000     -0.000000


--------------------------------------------------------------------------------------------------------



  FREE ENERGIE OF THE ION-ELECTRON SYSTEM (eV)
  ---------------------------------------------------
  free  energy   TOTEN  =        -9.60466685 eV

  energy  without entropy=       -9.60252758  energy(sigma->0) =       -9.60359721
 


--------------------------------------------------------------------------------------------------------


    POTLOK:  cpu time    0.0130: real time    0.0266


--------------------------------------------------------------------------------------------------------




--------------------------------------------------------------------------------------------------------


    WAVPRE:  cpu time    0.0020: real time    0.0023
 FEWALD executed in parallel
    FEWALD:  cpu time    0.0000: real time    0.0001
    GENKIN:  cpu time    0.0070: real time    0.0069
    ORTHCH:  cpu time    0.1420: real time    0.0972
     LOOP+:  cpu time   16.2285: real time   10.3773


----------------------------------------- Iteration    2(   1)  ---------------------------------------


    POTLOK:  cpu time    0.0330: real time    0.0196
    SETDIJ:  cpu time    0.0060: real time    0.0056
     EDDAV:  cpu time    2.0977: real time    1.3003
       DOS:  cpu time    0.0140: real time    0.0093
    CHARGE:  cpu time    0.0230: real time    0.0135
    MIXING:  cpu time    0.0010: real time    0.0006
    --------------------------------------------
      LOOP:  cpu time    2.1767: real time    1.3502

 eigenvalue-minimisations  :   896
 total energy-change (2. order) :-0.3458424E-02  (-0.9128977E-02)
 number of electron       8.0000000 magnetization 
 augmentation part       -0.4773505 magnetization 

 Broyden mixing:
  rms(total) = 0.18668E-01    rms(broyden)= 0.18667E-01
  rms(prec ) = 0.43707E-01
  weight for this iteration     100.00

 Free energy of the ion-electron system (eV)
  ---------------------------------------------------
  alpha Z        PSCENC =         5.54422978
  Ewald energy   TEWEN  =      -289.49268496
  -Hartree energ DENC   =        -0.54969119
  -exchange      EXHF   =         0.00000000
  -V(xc)+E(xc)   XCENC  =       -16.41752854
  PAW double counting   =       909.61094681     -874.52586262
  entropy T*S    EENTRO =        -0.00475625
  eigenvalues    EBANDS =        50.09529354
  atomic energy  EATOM  =       206.13192747
  Solvation  Ediel_sol  =         0.00000000
  ---------------------------------------------------
  free energy    TOTEN  =        -9.60812597 eV

  energy without entropy =       -9.60336972  energy(sigma->0) =       -9.60574785


--------------------------------------------------------------------------------------------------------




----------------------------------------- Iteration    2(   2)  ---------------------------------------


    POTLOK:  cpu time    0.0180: real time    0.0184
    SETDIJ:  cpu time    0.0020: real time    0.0017
     EDDAV:  cpu time    1.3378: real time    0.8556
       DOS:  cpu time    0.0020: real time    0.0010
    CHARGE:  cpu time    0.0460: real time    0.0277
    MIXING:  cpu time    0.0130: real time    0.0100
    --------------------------------------------
      LOOP:  cpu time    1.6727: real time    1.2165

 eigenvalue-minimisations  :   680
 total energy-change (2. order) : 0.7403664E-03  (-0.1491974E-03)
 number of electron       8.0000000 magnetization 
 augmentation part       -0.4774083 magnetization 

 Broyden mixing:
  rms(total) = 0.10214E-01    rms(broyden)= 0.10214E-01
  rms(prec ) = 0.24371E-01
  weight for this iteration     100.00

 eigenvalues of (default mixing * dielectric matrix)
  average eigenvalue GAMMA=   2.0326
  2.0326

 Free energy of the ion-electron system (eV)
  ---------------------------------------------------
  alpha Z        PSCENC =         5.54422978
  Ewald energy   TEWEN  =      -289.49268496
  -Hartree energ DENC   =        -0.55033223
  -exchange      EXHF   =         0.00000000
  -V(xc)+E(xc)   XCENC  =       -16.41755318
  PAW double counting   =       909.60324889     -874.51831667
  entropy T*S    EENTRO =        -0.00474868
  eigenvalues    EBANDS =        50.09684399
  atomic energy  EATOM  =       206.13192747
  Solvation  Ediel_sol  =         0.00000000
  ---------------------------------------------------
  free energy    TOTEN  =        -9.60738561 eV

  energy without entropy =       -9.60263692  energy(sigma->0) =       -9.60501127


--------------------------------------------------------------------------------------------------------




----------------------------------------- Iteration    2(   3)  ---------------------------------------


    POTLOK:  cpu time    0.1200: real time    0.0681
    SETDIJ:  cpu time    0.0130: real time    0.0098
     EDDAV:  cpu time    2.2837: real time    1.4295
       DOS:  cpu time    0.0100: real time    0.0059
    CHARGE:  cpu time    0.0270: real time    0.0169
    MIXING:  cpu time    0.0020: real time    0.0008
    --------------------------------------------
      LOOP:  cpu time    2.4576: real time    1.5337

 eigenvalue-minimisations  :   856
 total energy-change (2. order) : 0.3648771E-03  (-0.8727776E-04)
 number of electron       8.0000000 magnetization 
 augmentation part       -0.4773722 magnetization 

 Broyden mixing:
  rms(total) = 0.79770E-03    rms(broyden)= 0.79768E-03
  rms(prec ) = 0.12546E-02
  weight for this iteration     100.00

 eigenvalues of (default mixing * dielectric matrix)
  average eigenvalue GAMMA=   1.6277
  1.0476  2.2077

 Free energy of the ion-electron system (eV)
  ---------------------------------------------------
  alpha Z        PSCENC =         5.54422978
  Ewald energy   TEWEN  =      -289.49268496
  -Hartree energ DENC   =        -0.55192170
  -exchange      EXHF   =         0.00000000
  -V(xc)+E(xc)   XCENC  =       -16.41759291
  PAW double counting   =       908.99138943     -873.90687939
  entropy T*S    EENTRO =        -0.00474033
  eigenvalues    EBANDS =        50.09925188
  atomic energy  EATOM  =       206.13192747
  Solvation  Ediel_sol  =         0.00000000
  ---------------------------------------------------
  free energy    TOTEN  =        -9.60702073 eV

  energy without entropy =       -9.60228040  energy(sigma->0) =       -9.60465057


--------------------------------------------------------------------------------------------------------




----------------------------------------- Iteration    2(   4)  ---------------------------------------


    POTLOK:  cpu time    0.0670: real time    0.0409
    SETDIJ:  cpu time    0.0020: real time    0.0017
     EDDAV:  cpu time    1.9137: real time    1.2113
       DOS:  cpu time    0.0020: real time    0.0010
    --------------------------------------------
      LOOP:  cpu time    1.9957: real time    1.2615

 eigenvalue-minimisations  :   600
 total energy-change (2. order) :-0.2791169E-05  (-0.2672255E-05)
 number of electron       8.0000000 magnetization 
 augmentation part       -0.4773722 magnetization 

 Free energy of the ion-electron system (eV)
  ---------------------------------------------------
  alpha Z        PSCENC =         5.54422978
  Ewald energy   TEWEN  =      -289.49268496
  -Hartree energ DENC   =        -0.55171255
  -exchange      EXHF   =         0.00000000
  -V(xc)+E(xc)   XCENC  =       -16.41762658
  PAW double counting   =       909.04898946     -873.96447682
  entropy T*S    EENTRO =        -0.00474056
  eigenvalues    EBANDS =        50.09907124
  atomic energy  EATOM  =       206.13192747
  Solvation  Ediel_sol  =         0.00000000
  ---------------------------------------------------
  free energy    TOTEN  =        -9.60702352 eV

  energy without entropy =       -9.60228296  energy(sigma->0) =       -9.60465324


--------------------------------------------------------------------------------------------------------




 average (electrostatic) potential at core
  the test charge radii are     0.9892
  (the norm of the test charge is              1.0000)
       1 -77.3897       2 -77.3897
 
 
 
 E-fermi :  12.6638     XC(G=0): -11.9179     alpha+bet :-19.7509


 k-point     1 :       0.0833    0.0833    0.0833
  band No.  band energies     occupation 
      1      -2.8704      2.00000
      2       3.9361      2.00000
      3       6.5957      2.00000
      4      17.4534      0.00000
      5      17.7390      0.00000
      6      23.3219      0.00000
      7      23.5671      0.00000
      8      23.8117      0.00000

 k-point     2 :       0.2500    0.0833    0.0833
  band No.  band energies     occupation 
      1      -0.8840      2.00000
      2       5.8364      2.00000
      3       8.4254      2.00000
      4      10.7985      2.00000
      5      15.0712      0.00000
      6      17.1720      0.00000
      7      19.4520      0.00000
      8      21.5674      0.00000

 k-point     3 :       0.4167    0.0833    0.0833
  band No.  band energies     occupation 
      1       2.6216      2.00000
      2       4.9691      2.00000
      3       9.2473      2.00000
      4      11.2015      2.00000
      5      12.2406      2.00000
      6      13.8527      0.00000
      7      14.5625      0.00000
      8      20.4480      0.00000

 k-point     4 :      -0.4167    0.0833    0.0833
  band No.  band energies     occupation 
      1       0.6882      2.00000
      2       7.1249      2.00000
      3       7.8661      2.00000
      4      10.0354      2.00000
      5      13.9685      0.00000
      6      14.6796      0.00000
      7      16.7542      0.00000
      8      20.8126      0.00000

 k-point     5 :      -0.2500    0.0833    0.0833
  band No.  band energies     occupation 
      1      -2.0732      2.00000
      2       4.7018      2.00000
      3       7.3454      2.00000
      4      14.0560      0.00000
      5      16.1837      0.00000
      6      20.2685      0.00000
      7      21.9752      0.00000
      8      22.8844      0.00000

 k-point     6 :      -0.0833    0.0833    0.0833
  band No.  band energies     occupation 
      1      -3.2704      2.00000
      2       3.5513      2.00000
      3       6.2174      2.00000
      4      19.2841      0.00000
      5      20.5453      0.00000
      6      22.4855      0.00000
      7      24.8268      0.00000
      8      24.8314      0.00000

 k-point     7 :       0.2500    0.2500    0.0833
  band No.  band energies     occupation 
      1       1.8583      2.00000
      2       8.0343      2.00000
      3       8.9928      2.00000
      4       8.9996      2.00000
      5      11.1958      2.00000
      6      14.9538      0.00000
      7      15.6772      0.00000
      8      17.8417      0.00000

 k-point     8 :       0.4167    0.2500    0.0833
  band No.  band energies     occupation 
      1       3.7779      2.00000
      2       6.0902      2.00000
      3       8.3691      2.00000
      4      10.4326      2.00000
      5      12.2775      2.00000
      6      13.3316      0.00000
      7      14.7236      0.00000
      8      16.0919      0.00000

 k-point     9 :      -0.4167    0.2500    0.0833
  band No.  band energies     occupation 
      1       0.2971      2.00000
      2       6.9409      2.00000
      3       9.1867      2.00000
      4      10.0074      2.00000
      5      11.8847      2.00000
      6      16.0461      0.00000
      7      17.8258      0.00000
      8      19.1716      0.00000

 k-point    10 :      -0.2500    0.2500    0.0833
  band No.  band energies     occupation 
      1      -1.6759      2.00000
      2       5.0821      2.00000
      3       7.7131      2.00000
      4      12.2450      2.00000
      5      17.8183      0.00000
      6      18.4698      0.00000
      7      20.0571      0.00000
      8      21.0150      0.00000

 k-point    11 :       0.4167    0.4167    0.0833
  band No.  band energies     occupation 
      1       3.9570      2.00000
      2       4.4128      2.00000
      3      10.2945      2.00000
      4      10.9554      2.00000
      5      11.1477      2.00000
      6      13.5557      0.00000
      7      13.6675      0.00000
      8      17.8333      0.00000

 k-point    12 :      -0.4167    0.4167    0.0833
  band No.  band energies     occupation 
      1       1.4667      2.00000
      2       6.0696      2.00000
      3       8.1842      2.00000
      4      10.6820      2.00000
      5      12.8478      0.00925
      6      15.2510      0.00000
      7      16.4426      0.00000
      8      18.7888      0.00000

 k-point    13 :       0.0833    0.0833    0.2500
  band No.  band energies     occupation 
      1      -2.4088      2.00000
      2       1.6949      2.00000
      3       9.6427      2.00000
      4      17.8557      0.00000
      5      18.0488      0.00000
      6      20.9199      0.00000
      7      21.5175      0.00000
      8      21.9928      0.00000

 k-point    14 :       0.2500    0.0833    0.2500
  band No.  band energies     occupation 
      1      -0.4272      2.00000
      2       3.6297      2.00000
      3      10.8818      2.00000
      4      11.7144      2.00000
      5      14.9103      0.00000
      6      15.7211      0.00000
      7      19.2830      0.00000
      8      21.7582      0.00000

 k-point    15 :       0.4167    0.0833    0.2500
  band No.  band energies     occupation 
      1       3.0680      2.00000
      2       5.3745      2.00000
      3       7.1491      2.00000
      4       9.3870      2.00000
      5      14.2242      0.00000
      6      15.1183      0.00000
      7      16.9424      0.00000
      8      18.6685      0.00000

 k-point    16 :      -0.4167    0.0833    0.2500
  band No.  band energies     occupation 
      1       1.1409      2.00000
      2       5.1425      2.00000
      3       8.1314      2.00000
      4      11.7956      2.00000
      5      13.2157      0.00000
      6      14.9197      0.00000
      7      18.4042      0.00000
      8      19.9137      0.00000

 k-point    17 :      -0.2500    0.0833    0.2500
  band No.  band energies     occupation 
      1      -1.6135      2.00000
      2       2.4724      2.00000
      3      10.3586      2.00000
      4      14.4700      0.00000
      5      16.5518      0.00000
      6      18.2940      0.00000
      7      20.3753      0.00000
      8      21.5219      0.00000

 k-point    18 :      -0.0833    0.0833    0.2500
  band No.  band energies     occupation 
      1      -2.8078      2.00000
      2       1.3046      2.00000
      3       9.2762      2.00000
      4      19.5361      0.00000
      5      20.5413      0.00000
      6      20.9374      0.00000
      7      23.2060      0.00000
      8      23.5524      0.00000

 k-point    19 :       0.2500    0.2500    0.2500
  band No.  band energies     occupation 
      1       2.3077      2.00000
      2       6.2544      2.00000
      3       9.0992      2.00000
      4       9.4198      2.00000
      5      12.8546      0.00697
      6      12.9815      0.00001
      7      14.9076      0.00000
      8      20.4227      0.00000

 k-point    20 :       0.4167    0.2500    0.2500
  band No.  band energies     occupation 
      1       4.2194      2.00000
      2       6.4809      2.00000
      3       8.1601      2.00000
      4       8.9982      2.00000
      5      10.5715      2.00000
      6      12.6993      0.61565
      7      16.3073      0.00000
      8      18.4383      0.00000

 k-point    21 :      -0.4167    0.2500    0.2500
  band No.  band energies     occupation 
      1       0.7509      2.00000
      2       4.7736      2.00000
      3       9.9563      2.00000
      4      12.0712      2.00000
      5      12.5785      1.77216
      6      14.2014      0.00000
      7      16.2902      0.00000
      8      21.3389      0.00000

 k-point    22 :      -0.2500    0.2500    0.2500
  band No.  band energies     occupation 
      1      -1.2172      2.00000
      2       2.8594      2.00000
      3      10.6825      2.00000
      4      12.6977      0.63201
      5      16.4866      0.00000
      6      18.2156      0.00000
      7      20.1777      0.00000
      8      21.7775      0.00000

 k-point    23 :       0.4167    0.4167    0.2500
  band No.  band energies     occupation 
      1       4.3978      2.00000
      2       4.8431      2.00000
      3       8.3917      2.00000
      4       8.8504      2.00000
      5      11.5419      2.00000
      6      14.9442      0.00000
      7      16.3619      0.00000
      8      17.2770      0.00000

 k-point    24 :      -0.4167    0.4167    0.2500
  band No.  band energies     occupation 
      1       1.9172      2.00000
      2       5.7935      2.00000
      3       6.7365      2.00000
      4      10.4672      2.00000
      5      13.8689      0.00000
      6      16.8407      0.00000
      7      17.9573      0.00000
      8      19.2126      0.00000

 k-point    25 :       0.0833    0.0833    0.4167
  band No.  band energies     occupation 
      1      -1.4891      2.00000
      2      -0.1179      2.00000
      3      13.0452      0.00000
      4      16.6563      0.00000
      5      18.6430      0.00000
      6      19.1920      0.00000
      7      19.9910      0.00000
      8      20.4323      0.00000

 k-point    26 :       0.2500    0.0833    0.4167
  band No.  band energies     occupation 
      1       0.4828      2.00000
      2       1.8389      2.00000
      3      11.9287      2.00000
      4      13.1096      0.00000
      5      15.0029      0.00000
      6      16.3397      0.00000
      7      17.7668      0.00000
      8      18.9489      0.00000

 k-point    27 :       0.4167    0.0833    0.4167
  band No.  band energies     occupation 
      1       3.9521      2.00000
      2       5.2127      2.00000
      3       6.4376      2.00000
      4       7.6778      2.00000
      5      15.2195      0.00000
      6      16.3406      0.00000
      7      18.4382      0.00000
      8      20.3026      0.00000

 k-point    28 :      -0.4167    0.0833    0.4167
  band No.  band energies     occupation 
      1       2.0423      2.00000
      2       3.3832      2.00000
      3       8.9878      2.00000
      4      10.2663      2.00000
[...]

 k-point     2 :       0.2500    0.0833    0.0833
  band No.  band energies     occupation 
      1      -0.9074      2.00000
      2       5.9270      2.00000
      3       8.5644      2.00000
      4      10.6860      2.00000
      5      14.9191      0.00000
      6      17.1520      0.00000
      7      19.4844      0.00000
      8      21.5491      0.00000

 k-point     3 :       0.4167    0.0833    0.0833
  band No.  band energies     occupation 
      1       2.5651      2.00000
      2       4.9021      2.00000
      3       9.2943      2.00000
      4      11.2786      2.00000
      5      12.3156      2.00000
      6      13.8038      0.00000
      7      14.5628      0.00000
      8      20.4232      0.00000

 k-point     4 :      -0.4167    0.0833    0.0833
  band No.  band energies     occupation 
      1       0.6506      2.00000
      2       7.1478      2.00000
      3       7.8261      2.00000
      4      10.1651      2.00000
      5      13.9205      0.00000
      6      14.5927      0.00000
      7      16.8177      0.00000
      8      20.7885      0.00000

 k-point     5 :      -0.2500    0.0833    0.0833
  band No.  band energies     occupation 
      1      -2.0860      2.00000
      2       4.8043      2.00000
      3       7.5039      2.00000
      4      13.9047      0.00000
      5      16.0182      0.00000
      6      20.2243      0.00000
      7      21.9541      0.00000
      8      22.7576      0.00000

 k-point     6 :      -0.0833    0.0833    0.0833
  band No.  band energies     occupation 
      1      -3.2725      2.00000
      2       3.6659      2.00000
      3       6.3870      2.00000
      4      19.0824      0.00000
      5      20.3210      0.00000
      6      22.3454      0.00000
      7      24.5877      0.00000
      8      25.0234      0.00000

 k-point     7 :       0.2500    0.2500    0.0833
  band No.  band energies     occupation 
      1       1.8103      2.00000
      2       8.0178      2.00000
      3       8.9170      2.00000
      4       8.9560      2.00000
      5      11.3135      2.00000
      6      14.9172      0.00000
      7      15.7357      0.00000
      8      17.9181      0.00000

 k-point     8 :       0.4167    0.2500    0.0833
  band No.  band energies     occupation 
      1       3.7112      2.00000
      2       6.0106      2.00000
      3       8.2838      2.00000
      4      10.4605      2.00000
      5      12.3467      2.00000
      6      13.3747      0.00000
      7      14.7916      0.00000
      8      16.1566      0.00000

 k-point     9 :      -0.4167    0.2500    0.0833
  band No.  band energies     occupation 
      1       0.2631      2.00000
      2       7.0187      2.00000
      3       9.1790      2.00000
      4      10.0352      2.00000
      5      11.7663      2.00000
      6      16.0302      0.00000
      7      17.8494      0.00000
      8      19.2105      0.00000

 k-point    10 :      -0.2500    0.2500    0.0833
  band No.  band energies     occupation 
      1      -1.6923      2.00000
      2       5.1806      2.00000
      3       7.8670      2.00000
      4      12.1123      2.00000
      5      17.6192      0.00000
      6      18.4471      0.00000
      7      19.9116      0.00000
      8      21.0315      0.00000

 k-point    11 :       0.4167    0.4167    0.0833
  band No.  band energies     occupation 
      1       3.8747      2.00000
      2       4.3635      2.00000
      3      10.2857      2.00000
      4      11.0391      2.00000
      5      11.0579      2.00000
      6      13.6363      0.00000
      7      13.7628      0.00000
      8      17.8378      0.00000

 k-point    12 :      -0.4167    0.4167    0.0833
  band No.  band energies     occupation 
      1       1.4219      2.00000
      2       5.9969      2.00000
      3       8.2407      2.00000
      4      10.8067      2.00000
      5      12.8830      0.00503
      6      15.3295      0.00000
      7      16.2540      0.00000
      8      18.6394      0.00000

 k-point    13 :       0.0833    0.0833    0.2500
  band No.  band energies     occupation 
      1      -2.4063      2.00000
      2       1.7695      2.00000
      3       9.8567      2.00000
      4      17.6650      0.00000
      5      17.9160      0.00000
      6      21.1289      0.00000
      7      21.4953      0.00000
      8      21.9052      0.00000

 k-point    14 :       0.2500    0.0833    0.2500
  band No.  band energies     occupation 
      1      -0.4425      2.00000
      2       3.6858      2.00000
      3      10.8427      2.00000
      4      11.8290      2.00000
      5      14.8478      0.00000
      6      15.5923      0.00000
      7      19.2089      0.00000
      8      21.8208      0.00000

 k-point    15 :       0.4167    0.0833    0.2500
  band No.  band energies     occupation 
      1       3.0198      2.00000
      2       5.3193      2.00000
      3       7.1630      2.00000
      4       9.3964      2.00000
      5      14.1424      0.00000
      6      15.2141      0.00000
      7      17.0404      0.00000
      8      18.6396      0.00000

 k-point    16 :      -0.4167    0.0833    0.2500
  band No.  band energies     occupation 
      1       1.1115      2.00000
      2       5.1835      2.00000
      3       8.0454      2.00000
      4      11.8073      2.00000
      5      13.3459      0.00000
      6      14.7907      0.00000
      7      18.3630      0.00000
      8      19.9971      0.00000

 k-point    17 :      -0.2500    0.0833    0.2500
  band No.  band energies     occupation 
      1      -1.6181      2.00000
      2       2.5395      2.00000
      3      10.5619      2.00000
      4      14.3301      0.00000
      5      16.4001      0.00000
      6      18.2150      0.00000
      7      20.2956      0.00000
      8      21.7777      0.00000

 k-point    18 :      -0.0833    0.0833    0.2500
  band No.  band energies     occupation 
      1      -2.8017      2.00000
      2       1.3830      2.00000
      3       9.4945      2.00000
      4      19.4095      0.00000
      5      20.7208      0.00000
      6      20.7967      0.00000
      7      23.0887      0.00000
      8      23.4045      0.00000

 k-point    19 :       0.2500    0.2500    0.2500
  band No.  band energies     occupation 
      1       2.2679      2.00000
      2       6.2835      2.00000
      3       8.9874      2.00000
      4       9.3463      2.00000
      5      12.9020      0.00211
      6      12.9253      0.00067
      7      15.0272      0.00000
      8      20.5422      0.00000

 k-point    20 :       0.4167    0.2500    0.2500
  band No.  band energies     occupation 
      1       4.1610      2.00000
      2       6.4137      2.00000
      3       8.1527      2.00000
      4       8.9272      2.00000
      5      10.5597      2.00000
      6      12.6854      0.99132
      7      16.4532      0.00000
      8      18.5711      0.00000

 k-point    21 :      -0.4167    0.2500    0.2500
  band No.  band energies     occupation 
      1       0.7251      2.00000
      2       4.8186      2.00000
      3       9.8563      2.00000
      4      12.0078      2.00000
      5      12.6772      1.08388
      6      14.1748      0.00000
      7      16.2558      0.00000
      8      21.4658      0.00000

 k-point    22 :      -0.2500    0.2500    0.2500
  band No.  band energies     occupation 
      1      -1.2253      2.00000
      2       2.9228      2.00000
      3      10.8705      2.00000
      4      12.5848      1.84177
      5      16.4306      0.00000
      6      18.0243      0.00000
      7      20.1076      0.00000
      8      21.6602      0.00000

 k-point    23 :       0.4167    0.4167    0.2500
  band No.  band energies     occupation 
      1       4.3241      2.00000
      2       4.8025      2.00000
      3       8.3800      2.00000
      4       8.8814      2.00000
      5      11.4294      2.00000
      6      14.9385      0.00000
      7      16.5043      0.00000
      8      17.3900      0.00000

 k-point    24 :      -0.4167    0.4167    0.2500
  band No.  band energies     occupation 
      1       1.8806      2.00000
      2       5.8144      2.00000
      3       6.6757      2.00000
      4      10.4680      2.00000
      5      14.0341      0.00000
      6      16.6598      0.00000
      7      18.0421      0.00000
      8      19.1179      0.00000

 k-point    25 :       0.0833    0.0833    0.4167
  band No.  band energies     occupation 
      1      -1.4701      2.00000
      2      -0.0747      2.00000
      3      13.3116      0.00000
      4      16.9377      0.00000
      5      18.4699      0.00000
      6      19.0791      0.00000
      7      19.8458      0.00000
      8      20.3088      0.00000

 k-point    26 :       0.2500    0.0833    0.4167
  band No.  band energies     occupation 
      1       0.4838      2.00000
      2       1.8639      2.00000
      3      11.8374      2.00000
      4      13.0591      0.00000
      5      15.1843      0.00000
      6      16.2433      0.00000
      7      17.6861      0.00000
      8      19.2036      0.00000

 k-point    27 :       0.4167    0.0833    0.4167
  band No.  band energies     occupation 
      1       3.9205      2.00000
      2       5.2045      2.00000
      3       6.3904      2.00000
      4       7.6544      2.00000
      5      15.0994      0.00000
      6      16.2620      0.00000
      7      18.6255      0.00000
      8      20.4853      0.00000

 k-point    28 :      -0.4167    0.0833    0.4167
  band No.  band energies     occupation 
      1       2.0292      2.00000
      2       3.3940      2.00000
      3       8.9168      2.00000
      4      10.2200      2.00000
      5      15.3923      0.00000
      6      16.2354      0.00000
      7      17.4136      0.00000
      8      20.3075      0.00000

 k-point    29 :      -0.2500    0.0833    0.4167
  band No.  band energies     occupation 
      1      -0.6858      2.00000
      2       0.7036      2.00000
      3      13.8775      0.00000
      4      15.1447      0.00000
      5      16.4678      0.00000
      6      17.0264      0.00000
      7      18.4042      0.00000
      8      18.8283      0.00000

 k-point    30 :      -0.0833    0.0833    0.4167
  band No.  band energies     occupation 
      1      -1.8636      2.00000
      2      -0.4653      2.00000
      3      12.9765      0.00004
      4      16.7569      0.00000
      5      20.3812      0.00000
      6      21.5196      0.00000
      7      21.5655      0.00000
      8      22.7127      0.00000

 k-point    31 :       0.2500    0.2500    0.4167
  band No.  band energies     occupation 
      1       3.1780      2.00000
      2       4.5286      2.00000
      3       9.8115      2.00000
      4      10.1486      2.00000
      5      11.2771      2.00000
      6      11.5780      2.00000
      7      18.0058      0.00000
      8      21.3682      0.00000

 k-point    32 :       0.4167    0.2500    0.4167
  band No.  band energies     occupation 
      1       5.0491      2.00000
      2       6.2930      2.00000
      3       7.5207      2.00000
      4       8.7010      2.00000
      5       9.8127      2.00000
      6      11.0437      2.00000
      7      19.6493      0.00000
      8      21.4767      0.00000

 k-point    33 :      -0.4167    0.2500    0.4167
  band No.  band energies     occupation 
      1       1.6451      2.00000
      2       3.0147      2.00000
      3      10.7380      2.00000
      4      11.9682      2.00000
      5      13.0446      0.00000
      6      14.1753      0.00000
      7      16.7501      0.00000
      8      20.2028      0.00000

 k-point    34 :      -0.2500    0.2500    0.4167
  band No.  band energies     occupation 
      1      -0.2951      2.00000
      2       1.0913      2.00000
      3      13.2154      0.00000
      4      14.0628      0.00000
      5      15.1681      0.00000
      6      18.1700      0.00000
      7      18.8346      0.00000
      8      20.0490      0.00000

 k-point    35 :       0.4167    0.4167    0.4167
  band No.  band energies     occupation 
      1       5.1954      2.00000
      2       5.6146      2.00000
      3       6.7257      2.00000
      4       7.1440      2.00000
      5      12.2858      2.00000
      6      13.5438      0.00000
      7      19.6992      0.00000
      8      20.3055      0.00000

 k-point    36 :      -0.4167    0.4167    0.4167
  band No.  band energies     occupation 
      1       2.7928      2.00000
      2       4.1440      2.00000
      3       7.4402      2.00000
      4       8.7534      2.00000
      5      17.2332      0.00000
      6      17.4719      0.00000
      7      18.6908      0.00000
      8      19.3063      0.00000


--------------------------------------------------------------------------------------------------------


 soft charge-density along one line, spin component           1
         0         1         2         3         4         5         6         7         8         9
 total charge-density along one line
 
 pseudopotential strength for first ion, spin component:           1
 17.690  24.677  -0.000   0.000   0.000  -0.000   0.000   0.000
 24.677  34.427  -0.000   0.000   0.000  -0.000   0.000   0.000
 -0.000  -0.000   4.060  -0.000   0.000   7.561  -0.000   0.000
  0.000   0.000  -0.000   4.060   0.000  -0.000   7.561   0.000
  0.000   0.000   0.000   0.000   4.060   0.000   0.000   7.561
 -0.000  -0.000   7.561  -0.000   0.000  14.091  -0.000   0.000
  0.000   0.000  -0.000   7.561   0.000  -0.000  14.092   0.000
  0.000   0.000   0.000   0.000   7.561   0.000   0.000  14.091
 total augmentation occupancy for first ion, spin component:           1
  6.436  -2.928   0.000   0.000  -0.000   0.000   0.000   0.000
 -2.928   1.733   0.000   0.000   0.000   0.000   0.000  -0.000
  0.000   0.000   2.964   0.000   0.000  -0.762   0.000   0.000
  0.000   0.000   0.000   3.079  -0.000   0.000  -0.798  -0.000
 -0.000   0.000   0.000  -0.000   2.964  -0.000   0.000  -0.762
  0.000  -0.000  -0.762   0.000  -0.000   0.214   0.000  -0.000
  0.000   0.000   0.000  -0.798   0.000  -0.000   0.225   0.000
  0.000  -0.000   0.000  -0.000  -0.762   0.000  -0.000   0.214


------------------------ aborting loop because EDIFF is reached ----------------------------------------


    CHARGE:  cpu time    0.0250: real time    0.0147
    FORLOC:  cpu time    0.0020: real time    0.0011
    FORNL :  cpu time    0.0350: real time    0.0229
    STRESS:  cpu time    0.2870: real time    0.1734
    FORCOR:  cpu time    0.0520: real time    0.0300
    FORHAR:  cpu time    0.0150: real time    0.0084
    MIXING:  cpu time    0.0010: real time    0.0011
    OFIELD:  cpu time    0.0000: real time    0.0000

  FORCE on cell =-STRESS in cart. coord.  units (eV):
  Direction    XX          YY          ZZ          XY          YZ          ZX
  --------------------------------------------------------------------------------------
  Alpha Z     5.54423     5.54423     5.54423
  Ewald     -97.58096   -97.58096   -94.30863    -0.00000     0.00000    -0.00000
  Hartree     0.15336     0.15336     0.25145    -0.00000    -0.00000    -0.00000
  E(xc)     -26.60646   -26.60646   -26.67315    -0.00000    -0.00000    -0.00000
  Local      -6.11023    -6.11024    -9.46853    -0.00001     0.00000     0.00000
  n-local    74.59494    78.88480    78.07359    -1.18399     0.15229    -0.75337
  augment   -12.11213   -12.11212   -12.15103     0.00001     0.00000     0.00000
  Kinetic    79.49437    47.02619    62.00144    10.33896     0.07720     0.64218
  Fock        0.00000     0.00000     0.00000     0.00000     0.00000     0.00000
  -------------------------------------------------------------------------------------
  Total       3.28796     3.28796     3.26937     0.00000     0.00000    -0.00000
  in kB     216.90241   216.90241   215.67564     0.00000     0.00000    -0.00000
  external pressure =      216.49 kB  Pullay stress =        0.00 kB


 VOLUME and BASIS-vectors are now :
 -----------------------------------------------------------------------------
  energy-cutoff  :      450.00
  volume of cell :       24.29
      direct lattice vectors                 reciprocal lattice vectors
     2.602869767 -0.000000000 -0.000000000     0.384191331  0.221812968  0.000000000
    -1.301434884  2.254151341  0.000000000     0.000000000  0.443625937  0.000000000
     0.000000000 -0.000000000  4.139403524     0.000000000  0.000000000  0.241580700

  length of vectors
     2.602869767  2.602869767  4.139403524     0.443625937  0.443625937  0.241580700


 FORCES acting on ions
    electron-ion (+dipol)            ewald-force                    non-local-force                 convergence-correction
 -----------------------------------------------------------------------------------------------
   -.164E-08 0.947E-09 0.473E-14   -.117E-12 0.883E-13 -.420E-14   0.105E-15 0.538E-16 0.000E+00   0.809E-11 -.467E-11 -.457E-15
   0.164E-08 -.947E-09 -.211E-13   0.117E-12 -.883E-13 0.419E-14   -.937E-16 -.607E-16 0.000E+00   -.809E-11 0.467E-11 0.443E-15
 -----------------------------------------------------------------------------------------------
   -.690E-14 -.196E-14 -.164E-13   0.476E-15 0.477E-17 -.174E-17   0.113E-16 -.694E-17 0.000E+00   0.500E-16 0.681E-16 -.140E-16
 
 
 POSITION                                       TOTAL-FORCE (eV/Angst)
 -----------------------------------------------------------------------------------
     -0.00000     -0.00000      0.00000         0.000000      0.000000      0.000000
     -0.00000      1.50277      2.06970        -0.000000     -0.000000     -0.000000
 -----------------------------------------------------------------------------------
    total drift:                               -0.000000     -0.000000     -0.000000


--------------------------------------------------------------------------------------------------------



  FREE ENERGIE OF THE ION-ELECTRON SYSTEM (eV)
  ---------------------------------------------------
  free  energy   TOTEN  =        -9.60933133 eV

  energy  without entropy=       -9.60474462  energy(sigma->0) =       -9.60703797
 
 d Force = 0.0000000E+00[ 0.000E+00, 0.000E+00]  d Energy = 0.2058084E-03-0.206E-03
 d Force = 0.0000000E+00[ 0.000E+00, 0.000E+00]  d Ewald  =-0.6714527E-02 0.671E-02


--------------------------------------------------------------------------------------------------------


    POTLOK:  cpu time    0.0540: real time    0.0370


--------------------------------------------------------------------------------------------------------




--------------------------------------------------------------------------------------------------------


  
 reached required accuracy - stopping structural energy minimisation
 writing wavefunctions
     LOOP+:  cpu time    7.5579: real time    4.8390
    4ORBIT:  cpu time    0.0000: real time    0.0000

 total amount of memory used by VASP on root node    33982. kBytes
========================================================================

   base      :      30000. kBytes
   nonl-proj :       1270. kBytes
   fftplans  :        714. kBytes
   grid      :       1347. kBytes
   one-center:          6. kBytes
   wavefun   :        645. kBytes
 
  
  
 General timing and accounting informations for this job:
 ========================================================
  
                  Total CPU time used (sec):       49.190
                            User time (sec):       45.079
                          System time (sec):        4.110
                         Elapsed time (sec):       32.993
  
                   Maximum memory used (kb):       34644.
                   Average memory used (kb):           0.
  
                          Minor page faults:        46605
                          Major page faults:            9
                 Voluntary context switches:          633
