 running on    4 total cores
 distrk:  each k-point on    4 cores,    1 groups
 distr:  one band on    1 cores,    4 groups
 using from now: INCAR     
 vasp.5.4.1 24Jun15 (build Jul 19 2016 16:50:41) complex                        
  
 POSCAR found :  1 types and       2 ions
 LDA part: xc-table for Pade appr. of Perdew
 POSCAR, INCAR and KPOINTS ok, starting setup
 FFT: planning ...
 WAVECAR not read
 entering main loop
       N       E                     dE             d eps       ncg     rms          rms(c)
DAV:   1     0.337572597674E+01    0.33757E+01   -0.34249E+03   584   0.728E+02
DAV:   2    -0.950599070940E+01   -0.12882E+02   -0.12532E+02   808   0.760E+01
DAV:   3    -0.965771783892E+01   -0.15173E+00   -0.15166E+00   752   0.955E+00
DAV:   4    -0.965869060630E+01   -0.97277E-03   -0.97276E-03   896   0.525E-01
DAV:   5    -0.965869155795E+01   -0.95165E-06   -0.95036E-06   768   0.104E-02    0.526E+00
DAV:   6    -0.962486774137E+01    0.33824E-01   -0.72368E-03   704   0.557E-01    0.293E+00
DAV:   7    -0.960485715242E+01    0.20011E-01   -0.14487E-02   784   0.792E-01    0.178E-01
DAV:   8    -0.960466755013E+01    0.18960E-03   -0.12126E-04   856   0.992E-02    0.177E-02
DAV:   9    -0.960466684831E+01    0.70183E-06   -0.23761E-06   512   0.121E-02
   1 F= -.96046668E+01 E0= -.96035972E+01  d E =-.960467E+01
 curvature:   0.00 expect dE= 0.000E+00 dE for cont linesearch  0.000E+00
 trial: gam= 0.00000 g(F)=  0.745E-51 g(S)=  0.482E-02 ort = 0.000E+00 (trialstep = 0.100E+01)
 search vector abs. value=  0.482E-02
 bond charge predicted
       N       E                     dE             d eps       ncg     rms          rms(c)
DAV:   1    -0.960812597390E+01   -0.34584E-02   -0.91290E-02   896   0.190E+00    0.187E-01
DAV:   2    -0.960738560747E+01    0.74037E-03   -0.14920E-03   680   0.333E-01    0.102E-01
DAV:   3    -0.960702073041E+01    0.36488E-03   -0.87278E-04   856   0.173E-01    0.798E-03
DAV:   4    -0.960702352158E+01   -0.27912E-05   -0.26723E-05   600   0.454E-02
   2 F= -.96070235E+01 E0= -.96046532E+01  d E =-.235667E-02
 trial-energy change:   -0.002357  1 .order   -0.003807   -0.004816   -0.002798
 step:   2.3868(harm=  2.3868)  dis= 0.00000  next Energy=    -9.610414 (dE=-0.575E-02)
 bond charge predicted
       N       E                     dE             d eps       ncg     rms          rms(c)
DAV:   1    -0.961095340244E+01   -0.39327E-02   -0.16929E-01   872   0.260E+00    0.258E-01
DAV:   2    -0.960959101421E+01    0.13624E-02   -0.27811E-03   664   0.453E-01    0.141E-01
DAV:   3    -0.960891739067E+01    0.67362E-03   -0.16092E-03   848   0.234E-01    0.113E-02
DAV:   4    -0.960892249674E+01   -0.51061E-05   -0.48938E-05   632   0.616E-02
   3 F= -.96089225E+01 E0= -.96068583E+01  d E =-.425565E-02
 curvature:  -1.19 expect dE=-0.138E-02 dE for cont linesearch -0.138E-02
 ZBRENT: interpolating
 opt :   1.7521  next Energy=    -9.609672 (dE=-0.501E-02)
 bond charge predicted
       N       E                     dE             d eps       ncg     rms          rms(c)
DAV:   1    -0.960956950212E+01   -0.65211E-03   -0.35879E-02   880   0.118E+00    0.119E-01
DAV:   2    -0.960927048675E+01    0.29902E-03   -0.57652E-04   664   0.205E-01    0.649E-02
DAV:   3    -0.960912439596E+01    0.14609E-03   -0.34947E-04   840   0.109E-01    0.499E-03
DAV:   4    -0.960912551828E+01   -0.11223E-05   -0.10594E-05   456   0.289E-02
   4 F= -.96091255E+01 E0= -.96067635E+01  d E =-.445867E-02
 curvature:  -0.65 expect dE=-0.295E-03 dE for cont linesearch -0.295E-03
 ZBRENT: interpolating
 opt :   1.9968  next Energy=    -9.609307 (dE=-0.464E-02)
 bond charge predicted
       N       E                     dE             d eps       ncg     rms          rms(c)
DAV:   1    -0.960939739672E+01   -0.27300E-03   -0.53184E-03   880   0.456E-01    0.461E-02
DAV:   2    -0.960935293369E+01    0.44463E-04   -0.87157E-05   664   0.799E-02    0.252E-02
DAV:   3    -0.960933116813E+01    0.21766E-04   -0.52052E-05   800   0.422E-02    0.195E-03
DAV:   4    -0.960933132672E+01   -0.15859E-06   -0.15725E-06   328   0.112E-02
   5 F= -.96093313E+01 E0= -.96070380E+01  d E =-.466448E-02
 curvature:  -0.40 expect dE=-0.221E-05 dE for cont linesearch -0.221E-05
 trial: gam=-0.03283 g(F)=  0.444E-51 g(S)=  0.556E-05 ort = 0.164E-03 (trialstep = 0.120E+01)
 search vector abs. value=  0.652E-08
 reached required accuracy - stopping structural energy minimisation
 writing wavefunctions
