<?xml version="1.0" encoding="ISO-8859-1"?>
<modeling>
 <generator>
  <i name="program" type="string">vasp </i>
  <i name="version" type="string">5.4.1  </i>
  <i name="subversion" type="string">24Jun15 (build Jul 19 2016 16:50:41) complex                          parallel </i>
  <i name="platform" type="string">IFC91_ompi </i>
  <i name="date" type="string">2019 10 10 </i>
  <i name="time" type="string">11:13:34 </i>
 </generator>
 <incar>
  <i type="string" name="SYSTEM"> Si beta-tin</i>
  <i type="string" name="PREC">accurate</i>
  <i type="int" name="IBRION">     2</i>
  <i name="EDIFF">      0.00001000</i>
  <i name="EDIFFG">     -0.01000000</i>
  <i type="int" name="NSW">   100</i>
  <i type="int" name="ISIF">     4</i>
  <i name="ENMAX">    450.00000000</i>
  <i type="int" name="ISMEAR">     0</i>
  <i name="SIGMA">      0.10000000</i>
  <v type="int" name="KPOINT_BSE">    -1     0     0     0</v>
 </incar>
 <kpoints>
  <generation param="Monkhorst-Pack">
   <v type="int" name="divisions">       6        6        6 </v>
   <v name="usershift">      0.00000000       0.00000000       0.00000000 </v>
   <v name="genvec1">      0.16666667      -0.00000000       0.00000000 </v>
   <v name="genvec2">      0.00000000       0.16666667       0.00000000 </v>
   <v name="genvec3">      0.00000000       0.00000000       0.16666667 </v>
   <v name="shift">      0.50000000       0.50000000       0.50000000 </v>
  </generation>
  <varray name="kpointlist" >
   <v>       0.08333333       0.08333333       0.08333333 </v>
   <v>       0.25000000       0.08333333       0.08333333 </v>
   <v>       0.41666667       0.08333333       0.08333333 </v>
   <v>      -0.41666667       0.08333333       0.08333333 </v>
   <v>      -0.25000000       0.08333333       0.08333333 </v>
   <v>      -0.08333333       0.08333333       0.08333333 </v>
   <v>       0.25000000       0.25000000       0.08333333 </v>
   <v>       0.41666667       0.25000000       0.08333333 </v>
   <v>      -0.41666667       0.25000000       0.08333333 </v>
   <v>      -0.25000000       0.25000000       0.08333333 </v>
   <v>       0.41666667       0.41666667       0.08333333 </v>
   <v>      -0.41666667       0.41666667       0.08333333 </v>
   <v>       0.08333333       0.08333333       0.25000000 </v>
   <v>       0.25000000       0.08333333       0.25000000 </v>
   <v>       0.41666667       0.08333333       0.25000000 </v>
   <v>      -0.41666667       0.08333333       0.25000000 </v>
   <v>      -0.25000000       0.08333333       0.25000000 </v>
   <v>      -0.08333333       0.08333333       0.25000000 </v>
   <v>       0.25000000       0.25000000       0.25000000 </v>
   <v>       0.41666667       0.25000000       0.25000000 </v>
   <v>      -0.41666667       0.25000000       0.25000000 </v>
   <v>      -0.25000000       0.25000000       0.25000000 </v>
   <v>       0.41666667       0.41666667       0.25000000 </v>
   <v>      -0.41666667       0.41666667       0.25000000 </v>
   <v>       0.08333333       0.08333333       0.41666667 </v>
   <v>       0.25000000       0.08333333       0.41666667 </v>
   <v>       0.41666667       0.08333333       0.41666667 </v>
   <v>      -0.41666667       0.08333333       0.41666667 </v>
   <v>      -0.25000000       0.08333333       0.41666667 </v>
   <v>      -0.08333333       0.08333333       0.41666667 </v>
   <v>       0.25000000       0.25000000       0.41666667 </v>
   <v>       0.41666667       0.25000000       0.41666667 </v>
   <v>      -0.41666667       0.25000000       0.41666667 </v>
   <v>      -0.25000000       0.25000000       0.41666667 </v>
   <v>       0.41666667       0.41666667       0.41666667 </v>
   <v>      -0.41666667       0.41666667       0.41666667 </v>
  </varray>
  <varray name="weights" >
   <v>       0.01851852 </v>
   <v>       0.03703704 </v>
   <v>       0.03703704 </v>
   <v>       0.03703704 </v>
   <v>       0.03703704 </v>
   <v>       0.01851852 </v>
   <v>       0.01851852 </v>
   <v>       0.03703704 </v>
   <v>       0.03703704 </v>
   <v>       0.01851852 </v>
   <v>       0.01851852 </v>
   <v>       0.01851852 </v>
   <v>       0.01851852 </v>
   <v>       0.03703704 </v>
   <v>       0.03703704 </v>
   <v>       0.03703704 </v>
   <v>       0.03703704 </v>
   <v>       0.01851852 </v>
   <v>       0.01851852 </v>
   <v>       0.03703704 </v>
   <v>       0.03703704 </v>
   <v>       0.01851852 </v>
   <v>       0.01851852 </v>
   <v>       0.01851852 </v>
   <v>       0.01851852 </v>
   <v>       0.03703704 </v>
   <v>       0.03703704 </v>
   <v>       0.03703704 </v>
   <v>       0.03703704 </v>
   <v>       0.01851852 </v>
   <v>       0.01851852 </v>
   <v>       0.03703704 </v>
   <v>       0.03703704 </v>
   <v>       0.01851852 </v>
   <v>       0.01851852 </v>
   <v>       0.01851852 </v>
  </varray>
 </kpoints>
 <parameters>
  <separator name="general" >
   <i type="string" name="SYSTEM">Si beta-tin</i>
   <i type="logical" name="LCOMPAT"> F  </i>
  </separator>
  <separator name="electronic" >
   <i type="string" name="PREC">accura</i>
   <i name="ENMAX">    450.00000000</i>
   <i name="ENAUG">    322.06900000</i>
   <i name="EDIFF">      0.00001000</i>
   <i type="int" name="IALGO">    38</i>
   <i type="int" name="IWAVPR">    11</i>
   <i type="int" name="NBANDS">     8</i>
   <i name="NELECT">      8.00000000</i>
   <i type="int" name="TURBO">     0</i>
   <i type="int" name="IRESTART">     0</i>
   <i type="int" name="NREBOOT">     0</i>
   <i type="int" name="NMIN">     0</i>
   <i name="EREF">      0.00000000</i>
   <separator name="electronic smearing" >
    <i type="int" name="ISMEAR">     0</i>
    <i name="SIGMA">      0.10000000</i>
    <i name="KSPACING">      0.50000000</i>
    <i type="logical" name="KGAMMA"> T  </i>
   </separator>
   <separator name="electronic projectors" >
    <i type="logical" name="LREAL"> F  </i>
    <v name="ROPT">      0.00000000</v>
    <i type="int" name="LMAXPAW">  -100</i>
    <i type="int" name="LMAXMIX">     2</i>
    <i type="logical" name="NLSPLINE"> F  </i>
   </separator>
   <separator name="electronic startup" >
    <i type="int" name="ISTART">     0</i>
    <i type="int" name="ICHARG">     2</i>
    <i type="int" name="INIWAV">     1</i>
   </separator>
   <separator name="electronic spin" >
    <i type="int" name="ISPIN">     1</i>
    <i type="logical" name="LNONCOLLINEAR"> F  </i>
    <v name="MAGMOM">      1.00000000      1.00000000</v>
    <i name="NUPDOWN">     -1.00000000</i>
    <i type="logical" name="LSORBIT"> F  </i>
    <v name="SAXIS">      0.00000000      0.00000000      1.00000000</v>
    <i type="logical" name="LSPIRAL"> F  </i>
    <v name="QSPIRAL">      0.00000000      0.00000000      0.00000000</v>
    <i type="logical" name="LZEROZ"> F  </i>
   </separator>
   <separator name="electronic exchange-correlation" >
    <i type="logical" name="LASPH"> F  </i>
    <i type="logical" name="LMETAGGA"> F  </i>
   </separator>
   <separator name="electronic convergence" >
    <i type="int" name="NELM">    60</i>
    <i type="int" name="NELMDL">    -5</i>
    <i type="int" name="NELMIN">     2</i>
    <i name="ENINI">    450.00000000</i>
    <separator name="electronic convergence detail" >
     <i type="logical" name="LDIAG"> T  </i>
     <i type="logical" name="LSUBROT"> F  </i>
     <i name="WEIMIN">      0.00100000</i>
     <i name="EBREAK">      0.00000031</i>
     <i name="DEPER">      0.30000000</i>
     <i type="int" name="NRMM">     4</i>
     <i name="TIME">      0.40000000</i>
    </separator>
   </separator>
   <separator name="electronic mixer" >
    <i name="AMIX">      0.40000000</i>
    <i name="BMIX">      1.00000000</i>
    <i name="AMIN">      0.10000000</i>
    <i name="AMIX_MAG">      1.60000000</i>
    <i name="BMIX_MAG">      1.00000000</i>
    <separator name="electronic mixer details" >
     <i type="int" name="IMIX">     4</i>
     <i type="logical" name="MIXFIRST"> F  </i>
     <i type="int" name="MAXMIX">   -45</i>
     <i name="WC">    100.00000000</i>
     <i type="int" name="INIMIX">     1</i>
     <i type="int" name="MIXPRE">     1</i>
     <i type="int" name="MREMOVE">     5</i>
    </separator>
   </separator>
   <separator name="electronic dipolcorrection" >
    <i type="logical" name="LDIPOL"> F  </i>
    <i type="logical" name="LMONO"> F  </i>
    <i type="int" name="IDIPOL">     0</i>
    <i name="EPSILON">      1.00000000</i>
    <v name="DIPOL">   -100.00000000   -100.00000000   -100.00000000</v>
    <i name="EFIELD">      0.00000000</i>
   </separator>
  </separator>
  <separator name="grids" >
   <i type="int" name="NGX">    18</i>
   <i type="int" name="NGY">    18</i>
   <i type="int" name="NGZ">    30</i>
   <i type="int" name="NGXF">    36</i>
   <i type="int" name="NGYF">    36</i>
   <i type="int" name="NGZF">    60</i>
   <i type="logical" name="ADDGRID"> F  </i>
  </separator>
  <separator name="ionic" >
   <i type="int" name="NSW">   100</i>
   <i type="int" name="IBRION">     2</i>
   <i type="int" name="ISIF">     4</i>
   <i name="PSTRESS">      0.00000000</i>
   <i name="EDIFFG">     -0.01000000</i>
   <i type="int" name="NFREE">     1</i>
   <i name="POTIM">      0.50000000</i>
   <i name="SMASS">     -3.00000000</i>
   <i name="SCALEE">      1.00000000</i>
  </separator>
  <separator name="ionic md" >
   <i name="TEBEG">      0.00010000</i>
   <i name="TEEND">      0.00010000</i>
   <i type="int" name="NBLOCK">     1</i>
   <i type="int" name="KBLOCK">   100</i>
   <i type="int" name="NPACO">   256</i>
   <i name="APACO">     16.00000000</i>
  </separator>
  <separator name="symmetry" >
   <i type="int" name="ISYM">     2</i>
   <i name="SYMPREC">      0.00001000</i>
  </separator>
  <separator name="dos" >
   <i type="logical" name="LORBIT"> F  </i>
   <v name="RWIGS">     -1.00000000</v>
   <i type="int" name="NEDOS">   301</i>
   <i name="EMIN">     10.00000000</i>
   <i name="EMAX">    -10.00000000</i>
   <i name="EFERMI">      0.00000000</i>
  </separator>
  <separator name="writing" >
   <i type="int" name="NWRITE">     2</i>
   <i type="logical" name="LWAVE"> T  </i>
   <i type="logical" name="LCHARG"> T  </i>
   <i type="logical" name="LPARD"> F  </i>
   <i type="logical" name="LVTOT"> F  </i>
   <i type="logical" name="LVHAR"> F  </i>
   <i type="logical" name="LELF"> F  </i>
   <i type="logical" name="LOPTICS"> F  </i>
   <v name="STM">      0.00000000      0.00000000      0.00000000      0.00000000      0.00000000      0.00000000      0.00000000</v>
  </separator>
  <separator name="performance" >
   <i type="int" name="NPAR">     4</i>
   <i type="int" name="NSIM">     4</i>
   <i type="int" name="NBLK">    -1</i>
   <i type="logical" name="LPLANE"> T  </i>
   <i type="logical" name="LSCALAPACK"> F  </i>
   <i type="logical" name="LSCAAWARE"> F  </i>
   <i type="logical" name="LSCALU"> F  </i>
   <i type="logical" name="LASYNC"> F  </i>
   <i type="logical" name="LORBITALREAL"> F  </i>
  </separator>
  <separator name="miscellaneous" >
   <i type="int" name="IDIOT">     3</i>
   <i type="logical" name="LMUSIC"> F  </i>
   <v name="POMASS">     28.08500000</v>
   <v name="DARWINR">      0.00000000</v>
   <v name="DARWINV">      1.00000000</v>
   <i type="logical" name="LCORR"> T  </i>
  </separator>
  <i type="logical" name="GGA_COMPAT"> T  </i>
  <i type="logical" name="LBERRY"> F  </i>
  <i type="int" name="ICORELEVEL">     0</i>
  <i type="logical" name="LDAU"> F  </i>
  <i type="int" name="I_CONSTRAINED_M">     0</i>
  <separator name="electronic exchange-correlation" >
   <i type="string" name="GGA">--</i>
   <i type="int" name="VOSKOWN">     0</i>
   <i type="logical" name="LHFCALC"> F  </i>
   <i type="string" name="PRECFOCK"></i>
   <i type="logical" name="LSYMGRAD"> F  </i>
   <i type="logical" name="LHFONE"> F  </i>
   <i type="logical" name="LRHFCALC"> F  </i>
   <i type="logical" name="LTHOMAS"> F  </i>
   <i type="logical" name="LMODELHF"> F  </i>
   <i name="ENCUT4O">     -1.00000000</i>
   <i type="int" name="EXXOEP">     0</i>
   <i type="int" name="FOURORBIT">     0</i>
   <i name="AEXX">      0.00000000</i>
   <i name="HFALPHA">      0.00000000</i>
   <i name="MCALPHA">      0.00000000</i>
   <i name="ALDAX">      1.00000000</i>
   <i name="AGGAX">      1.00000000</i>
   <i name="ALDAC">      1.00000000</i>
   <i name="AGGAC">      1.00000000</i>
   <i type="int" name="NKREDX">     1</i>
   <i type="int" name="NKREDY">     1</i>
   <i type="int" name="NKREDZ">     1</i>
   <i type="logical" name="SHIFTRED"> F  </i>
   <i type="logical" name="ODDONLY"> F  </i>
   <i type="logical" name="EVENONLY"> F  </i>
   <i type="int" name="LMAXFOCK">     0</i>
   <i type="int" name="NMAXFOCKAE">     0</i>
   <i type="logical" name="LFOCKAEDFT"> F  </i>
   <i name="HFSCREEN">      0.00000000</i>
   <i name="HFSCREENC">      0.00000000</i>
   <i type="int" name="NBANDSGWLOW">     0</i>
  </separator>
  <separator name="vdW DFT" >
   <i type="logical" name="LUSE_VDW"> F  </i>
   <i name="Zab_VDW">     -0.84910000</i>
   <i name="PARAM1">      0.12340000</i>
   <i name="PARAM2">      1.00000000</i>
   <i name="PARAM3">      0.00000000</i>
  </separator>
  <separator name="model GW" >
   <i type="int" name="MODEL_GW">     0</i>
   <i name="MODEL_EPS0">      7.28608997</i>
   <i name="MODEL_ALPHA">      1.00000000</i>
  </separator>
  <separator name="linear response parameters" >
   <i type="logical" name="LEPSILON"> F  </i>
   <i type="logical" name="LRPA"> F  </i>
   <i type="logical" name="LNABLA"> F  </i>
   <i type="logical" name="LVEL"> F  </i>
   <i type="int" name="KINTER">     0</i>
   <i name="CSHIFT">      0.10000000</i>
   <i name="OMEGAMAX">     -1.00000000</i>
   <i name="DEG_THRESHOLD">      0.00200000</i>
  </separator>
  <separator name="orbital magnetization" >
   <i type="logical" name="NUCIND"> F  </i>
   <v name="MAGPOS">      0.00000000      0.00000000      0.00000000</v>
   <i type="logical" name="LNICSALL"> T  </i>
   <i type="logical" name="ORBITALMAG"> F  </i>
   <i type="logical" name="LMAGBLOCH"> F  </i>
   <i type="logical" name="LCHIMAG"> F  </i>
   <i type="logical" name="LGAUGE"> T  </i>
   <i type="int" name="MAGATOM">     0</i>
   <v name="MAGDIPOL">      0.00000000      0.00000000      0.00000000</v>
   <v name="AVECCONST">      0.00000000      0.00000000      0.00000000</v>
  </separator>
  <separator name="response functions" >
   <i type="logical" name="LADDER"> F  </i>
   <i type="logical" name="LFXC"> F  </i>
   <i type="logical" name="LHARTREE"> T  </i>
   <i type="int" name="IBSE">     0</i>
   <v type="int" name="KPOINT">    -1     0     0     0</v>
   <i type="logical" name="LTCTE"> F  </i>
   <i type="logical" name="LTETE"> F  </i>
   <i type="logical" name="LTRIPLET"> F  </i>
   <i type="logical" name="LFXCEPS"> F  </i>
   <i type="logical" name="LFXHEG"> F  </i>
   <i type="int" name="NATURALO">     0</i>
   <i type="logical" name="L2ORDER"> F  </i>
   <i type="logical" name="LUSEW"> F  </i>
   <i name="ENCUTGW">     -2.00000000</i>
   <i name="ENCUTGWSOFT">     -2.00000000</i>
   <i name="ENCUTLF">     -1.00000000</i>
   <i type="int" name="LMAXMP2">    -1</i>
   <i name="SCISSOR">      0.00000000</i>
   <i type="int" name="NOMEGA">     0</i>
   <i type="int" name="NOMEGAR">     0</i>
   <i type="int" name="NBANDSGW">    -1</i>
   <i type="int" name="NBANDSO">    -1</i>
   <i type="int" name="NBANDSV">    -1</i>
   <i type="int" name="NELM">     1</i>
   <i type="int" name="NELMHF">     1</i>
   <i type="int" name="DIM">     3</i>
   <i type="int" name="ANTIRES">     0</i>
   <i name="OMEGAMAX">    -30.00000000</i>
   <i name="OMEGAMIN">    -30.00000000</i>
   <i name="OMEGATL">   -200.00000000</i>
   <i type="int" name="OMEGAGRID">     0</i>
   <i name="CSHIFT">     -0.10000000</i>
   <i type="logical" name="SELFENERGY"> F  </i>
   <i type="logical" name="LSPECTRAL"> F  </i>
   <i type="logical" name="LSPECTRALGW"> F  </i>
   <i type="logical" name="LSINGLES"> F  </i>
   <i type="logical" name="LFERMIGW"> F  </i>
   <i type="logical" name="ODDONLYGW"> F  </i>
   <i type="logical" name="EVENONLYGW"> F  </i>
   <i type="int" name="NKREDLFX">     1</i>
   <i type="int" name="NKREDLFY">     1</i>
   <i type="int" name="NKREDLFZ">     1</i>
   <i type="int" name="MAXMEM">  1800</i>
   <i type="int" name="TELESCOPE">     0</i>
   <i type="int" name="TAUPAR">     1</i>
   <i type="int" name="OMEGAPAR">    -1</i>
   <i name="LAMBDA">      1.00000000</i>
  </separator>
  <separator name="External order field" >
   <i name="OFIELD_KAPPA">      0.00000000</i>
   <v name="OFIELD_K">      0.00000000      0.00000000      0.00000000</v>
   <i name="OFIELD_Q6_NEAR">      0.00000000</i>
   <i name="OFIELD_Q6_FAR">      0.00000000</i>
   <i name="OFIELD_A">      0.00000000</i>
  </separator>
 </parameters>
 <atominfo>
  <atoms>       2 </atoms>
  <types>       1 </types>
  <array name="atoms" >
   <dimension dim="1">ion</dimension>
   <field type="string">element</field>
   <field type="int">atomtype</field>
   <set>
    <rc><c> S</c><c>   1</c></rc>
    <rc><c> S</c><c>   1</c></rc>
   </set>
  </array>
  <array name="atomtypes" >
   <dimension dim="1">type</dimension>
   <field type="int">atomspertype</field>
   <field type="string">element</field>
   <field>mass</field>
   <field>valence</field>
   <field type="string">pseudopotential</field>
   <set>
    <rc><c>   2</c><c> S</c><c>     28.08500000</c><c>      4.00000000</c><c>  PAW_PBE Si 05Jan2001                  </c></rc>
   </set>
  </array>
 </atominfo>
 <structure name="initialpos" >
  <crystal>
   <varray name="basis" >
    <v>       2.58000000       0.00000000       0.00000000 </v>
    <v>      -1.29000000       2.23434554       0.00000000 </v>
    <v>       0.00000000       0.00000000       4.21311420 </v>
   </varray>
   <i name="volume">     24.28696656 </i>
   <varray name="rec_basis" >
    <v>       0.38759690       0.22377917       0.00000000 </v>
    <v>       0.00000000       0.44755835       0.00000000 </v>
    <v>       0.00000000       0.00000000       0.23735412 </v>
   </varray>
  </crystal>
  <varray name="positions" >
   <v>       0.00000000       0.00000000       0.00000000 </v>
   <v>       0.33333333       0.66666667       0.50000000 </v>
  </varray>
 </structure>
 <calculation>
  <scstep>
   <time name="dav">    1.27    0.80</time>
   <time name="total">    1.32    0.84</time>
   <energy>
    <i name="alphaZ">      5.54422978 </i>
    <i name="ewald">   -289.50142797 </i>
    <i name="hartreedc">     -0.63428465 </i>
    <i name="XCdc">    -16.63554372 </i>
    <i name="pawpsdc">    176.24759923 </i>
    <i name="pawaedc">   -141.06103558 </i>
    <i name="eentropy">     -0.00245942 </i>
    <i name="bandstr">     63.28672084 </i>
    <i name="atom">    206.13192747 </i>
    <i name="e_fr_energy">      3.37572598 </i>
    <i name="e_wo_entrp">      3.37818540 </i>
    <i name="e_0_energy">      3.37695569 </i>
   </energy>
  </scstep>
  <scstep>
   <time name="dav">    2.11    1.35</time>
   <time name="total">    2.12    1.35</time>
   <energy>
    <i name="e_fr_energy">     -9.50599071 </i>
    <i name="e_wo_entrp">     -9.50408300 </i>
    <i name="e_0_energy">     -9.50503686 </i>
   </energy>
  </scstep>
  <scstep>
   <time name="dav">    1.50    0.96</time>
   <time name="total">    1.50    0.96</time>
   <energy>
    <i name="e_fr_energy">     -9.65771784 </i>
    <i name="e_wo_entrp">     -9.65541052 </i>
    <i name="e_0_energy">     -9.65656418 </i>
   </energy>
  </scstep>
  <scstep>
   <time name="dav">    2.05    1.29</time>
   <time name="total">    2.05    1.30</time>
   <energy>
    <i name="e_fr_energy">     -9.65869061 </i>
    <i name="e_wo_entrp">     -9.65638059 </i>
    <i name="e_0_energy">     -9.65753560 </i>
   </energy>
  </scstep>
  <scstep>
   <time name="dav">    1.59    1.07</time>
   <time name="total">    1.63    1.09</time>
   <energy>
    <i name="e_fr_energy">     -9.65869156 </i>
    <i name="e_wo_entrp">     -9.65638154 </i>
    <i name="e_0_energy">     -9.65753655 </i>
   </energy>
  </scstep>
  <scstep>
   <time name="dav">    1.84    1.19</time>
   <time name="total">    1.93    1.25</time>
   <energy>
    <i name="e_fr_energy">     -9.62486774 </i>
    <i name="e_wo_entrp">     -9.62263077 </i>
    <i name="e_0_energy">     -9.62374926 </i>
   </energy>
  </scstep>
  <scstep>
   <time name="dav">    1.67    1.03</time>
   <time name="total">    1.73    1.07</time>
   <energy>
    <i name="e_fr_energy">     -9.60485715 </i>
    <i name="e_wo_entrp">     -9.60271167 </i>
    <i name="e_0_energy">     -9.60378441 </i>
   </energy>
  </scstep>
  <scstep>
   <time name="dav">    2.13    1.31</time>
   <time name="total">    2.20    1.35</time>
   <energy>
    <i name="e_fr_energy">     -9.60466755 </i>
    <i name="e_wo_entrp">     -9.60252724 </i>
    <i name="e_0_energy">     -9.60359740 </i>
   </energy>
  </scstep>
  <scstep>
   <time name="dav">    1.05    0.64</time>
   <time name="total">    1.11    0.68</time>
   <energy>
    <i name="alphaZ">      5.54422978 </i>
    <i name="ewald">   -289.50142797 </i>
    <i name="hartreedc">     -0.54962249 </i>
    <i name="XCdc">    -16.41721600 </i>
    <i name="pawpsdc">    908.71449646 </i>
    <i name="pawaedc">   -873.63005687 </i>
    <i name="eentropy">     -0.00213927 </i>
    <i name="bandstr">     50.10514204 </i>
    <i name="atom">    206.13192747 </i>
    <i name="e_fr_energy">     -9.60466685 </i>
    <i name="e_wo_entrp">     -9.60252758 </i>
    <i name="e_0_energy">     -9.60359721 </i>
   </energy>
  </scstep>
  <structure>
   <crystal>
    <varray name="basis" >
     <v>       2.58000000       0.00000000       0.00000000 </v>
     <v>      -1.29000000       2.23434554       0.00000000 </v>
     <v>       0.00000000       0.00000000       4.21311420 </v>
    </varray>
    <i name="volume">     24.28696656 </i>
    <varray name="rec_basis" >
     <v>       0.38759690       0.22377917       0.00000000 </v>
     <v>       0.00000000       0.44755835       0.00000000 </v>
     <v>       0.00000000       0.00000000       0.23735412 </v>
    </varray>
   </crystal>
   <varray name="positions" >
    <v>       0.00000000       0.00000000       0.00000000 </v>
    <v>       0.33333333       0.66666667       0.50000000 </v>
   </varray>
  </structure>
  <varray name="forces" >
   <v>      -0.00000000      -0.00000000       0.00000000 </v>
   <v>       0.00000000       0.00000000       0.00000000 </v>
  </varray>
  <varray name="stress" >
   <v>     226.35536212      -0.00000000      -0.00000000 </v>
   <v>       0.00000000     226.35536212       0.00000000 </v>
   <v>       0.00000000      -0.00000000     190.25521720 </v>
  </varray>
  <energy>
   <i name="e_fr_energy">     -9.60466685 </i>
   <i name="e_wo_entrp">     -9.60359721 </i>
   <i name="e_0_energy">     -0.00213927 </i>
  </energy>
  <time name="totalsc">   16.23   10.38</time>
 </calculation>
 <calculation>
  <scstep>
   <time name="dav">    2.10    1.30</time>
   <time name="total">    2.18    1.35</time>
   <energy>
    <i name="alphaZ">      5.54422978 </i>
    <i name="ewald">   -289.49268496 </i>
    <i name="hartreedc">     -0.54969119 </i>
    <i name="XCdc">    -16.41752854 </i>
    <i name="pawpsdc">    909.61094681 </i>
    <i name="pawaedc">   -874.52586262 </i>
    <i name="eentropy">     -0.00475625 </i>
    <i name="bandstr">     50.09529354 </i>
    <i name="atom">    206.13192747 </i>
    <i name="e_fr_energy">     -9.60812597 </i>
    <i name="e_wo_entrp">     -9.60336972 </i>
    <i name="e_0_energy">     -9.60574785 </i>
   </energy>
  </scstep>
  <scstep>
   <time name="dav">    1.34    0.86</time>
   <time name="total">    1.67    1.22</time>
   <energy>
    <i name="e_fr_energy">     -9.60738561 </i>
    <i name="e_wo_entrp">     -9.60263692 </i>
    <i name="e_0_energy">     -9.60501127 </i>
   </energy>
  </scstep>
  <scstep>
   <time name="dav">    2.28    1.43</time>
   <time name="total">    2.46    1.53</time>
   <energy>
    <i name="e_fr_energy">     -9.60702073 </i>
    <i name="e_wo_entrp">     -9.60228040 </i>
    <i name="e_0_energy">     -9.60465057 </i>
   </energy>
  </scstep>
  <scstep>
   <time name="dav">    1.91    1.21</time>
   <time name="total">    2.00    1.26</time>
   <energy>
    <i name="alphaZ">      5.54422978 </i>
    <i name="ewald">   -289.49268496 </i>
    <i name="hartreedc">     -0.55171255 </i>
    <i name="XCdc">    -16.41762658 </i>
    <i name="pawpsdc">    909.04898946 </i>
    <i name="pawaedc">   -873.96447682 </i>
    <i name="eentropy">     -0.00474056 </i>
    <i name="bandstr">     50.09907124 </i>
    <i name="atom">    206.13192747 </i>
    <i name="e_fr_energy">     -9.60702352 </i>
    <i name="e_wo_entrp">     -9.60228296 </i>
    <i name="e_0_energy">     -9.60465324 </i>
   </energy>
  </scstep>
  <structure>
   <crystal>
    <varray name="basis" >
     <v>       2.59140229      -0.00000000      -0.00000000 </v>
     <v>      -1.29570114       2.24422021       0.00000000 </v>
     <v>       0.00000000      -0.00000000       4.17611998 </v>
    </varray>
    <i name="volume">     24.28696656 </i>
    <varray name="rec_basis" >
     <v>       0.38589146       0.22279454       0.00000000 </v>
     <v>       0.00000000       0.44558907       0.00000000 </v>
     <v>       0.00000000       0.00000000       0.23945672 </v>
    </varray>
   </crystal>
   <varray name="positions" >
    <v>      -0.00000000      -0.00000000       0.00000000 </v>
    <v>       0.33333333       0.66666667       0.50000000 </v>
   </varray>
  </structure>
  <varray name="forces" >
   <v>       0.00000000      -0.00000000      -0.00000000 </v>
   <v>      -0.00000000       0.00000000       0.00000000 </v>
  </varray>
  <varray name="stress" >
   <v>     222.61997920       0.00000000       0.00000000 </v>
   <v>       0.00000000     222.61997920       0.00000000 </v>
   <v>      -0.00000000       0.00000000     201.64467780 </v>
  </varray>
  <energy>
   <i name="e_fr_energy">     -9.60702352 </i>
   <i name="e_wo_entrp">     -9.60465324 </i>
   <i name="e_0_energy">     -0.00474056 </i>
  </energy>
  <time name="totalsc">    8.96    5.80</time>
 </calculation>
 <calculation>
  <scstep>
   <time name="dav">    2.36    1.51</time>
   <time name="total">    2.43    1.56</time>
   <energy>
    <i name="alphaZ">      5.54422978 </i>
    <i name="ewald">   -289.45802633 </i>
    <i name="hartreedc">     -0.55225661 </i>
    <i name="XCdc">    -16.41790561 </i>
    <i name="pawpsdc">    909.11712925 </i>
    <i name="pawaedc">   -874.03260521 </i>
    <i name="eentropy">     -0.00413088 </i>
    <i name="bandstr">     50.06068473 </i>
    <i name="atom">    206.13192747 </i>
    <i name="e_fr_energy">     -9.61095340 </i>
    <i name="e_wo_entrp">     -9.60682253 </i>
    <i name="e_0_energy">     -9.60888796 </i>
   </energy>
  </scstep>
  <scstep>
   <time name="dav">    1.61    1.06</time>
   <time name="total">    1.70    1.12</time>
   <energy>
    <i name="e_fr_energy">     -9.60959101 </i>
    <i name="e_wo_entrp">     -9.60546244 </i>
    <i name="e_0_energy">     -9.60752672 </i>
   </energy>
  </scstep>
  <scstep>
   <time name="dav">    2.34    1.56</time>
   <time name="total">    2.43    1.62</time>
   <energy>
    <i name="e_fr_energy">     -9.60891739 </i>
    <i name="e_wo_entrp">     -9.60478900 </i>
    <i name="e_0_energy">     -9.60685320 </i>
   </energy>
  </scstep>
  <scstep>
   <time name="dav">    1.75    1.17</time>
   <time name="total">    1.81    1.21</time>
   <energy>
    <i name="alphaZ">      5.54422978 </i>
    <i name="ewald">   -289.45802633 </i>
    <i name="hartreedc">     -0.56263084 </i>
    <i name="XCdc">    -16.41713924 </i>
    <i name="pawpsdc">    909.34341765 </i>
    <i name="pawaedc">   -874.25890533 </i>
    <i name="eentropy">     -0.00412838 </i>
    <i name="bandstr">     50.07233272 </i>
    <i name="atom">    206.13192747 </i>
    <i name="e_fr_energy">     -9.60892250 </i>
    <i name="e_wo_entrp">     -9.60479412 </i>
    <i name="e_0_energy">     -9.60685831 </i>
   </energy>
  </scstep>
  <structure>
   <crystal>
    <varray name="basis" >
     <v>       2.60738463      -0.00000000      -0.00000000 </v>
     <v>      -1.30369231       2.25806132       0.00000000 </v>
     <v>       0.00000000      -0.00000000       4.12508063 </v>
    </varray>
    <i name="volume">     24.28696656 </i>
    <varray name="rec_basis" >
     <v>       0.38352608       0.22142888       0.00000000 </v>
     <v>       0.00000000       0.44285777       0.00000000 </v>
     <v>       0.00000000       0.00000000       0.24241950 </v>
    </varray>
   </crystal>
   <varray name="positions" >
    <v>      -0.00000000      -0.00000000      -0.00000000 </v>
    <v>       0.33333333       0.66666667       0.50000000 </v>
   </varray>
  </structure>
  <varray name="forces" >
   <v>       0.00000000      -0.00000000      -0.00000000 </v>
   <v>       0.00000000       0.00000000       0.00000000 </v>
  </varray>
  <varray name="stress" >
   <v>     210.65193083       0.00000000       0.00000000 </v>
   <v>       0.00000000     210.65193083       0.00000000 </v>
   <v>      -0.00000000      -0.00000000     228.35464597 </v>
  </varray>
  <energy>
   <i name="e_fr_energy">     -9.60892250 </i>
   <i name="e_wo_entrp">     -9.60685831 </i>
   <i name="e_0_energy">     -0.00412838 </i>
  </energy>
  <time name="totalsc">    8.89    5.97</time>
 </calculation>
 <calculation>
  <scstep>
   <time name="dav">    1.74    1.03</time>
   <time name="total">    1.82    1.09</time>
   <energy>
    <i name="alphaZ">      5.54422978 </i>
    <i name="ewald">   -289.47707180 </i>
    <i name="hartreedc">     -0.56165998 </i>
    <i name="XCdc">    -16.41718378 </i>
    <i name="pawpsdc">    909.43287085 </i>
    <i name="pawaedc">   -874.34829089 </i>
    <i name="eentropy">     -0.00472547 </i>
    <i name="bandstr">     50.09033433 </i>
    <i name="atom">    206.13192747 </i>
    <i name="e_fr_energy">     -9.60956950 </i>
    <i name="e_wo_entrp">     -9.60484403 </i>
    <i name="e_0_energy">     -9.60720677 </i>
   </energy>
  </scstep>
  <scstep>
   <time name="dav">    0.93    0.59</time>
   <time name="total">    1.01    0.65</time>
   <energy>
    <i name="e_fr_energy">     -9.60927049 </i>
    <i name="e_wo_entrp">     -9.60454562 </i>
    <i name="e_0_energy">     -9.60690806 </i>
   </energy>
  </scstep>
  <scstep>
   <time name="dav">    1.87    1.22</time>
   <time name="total">    2.00    1.30</time>
   <energy>
    <i name="e_fr_energy">     -9.60912440 </i>
    <i name="e_wo_entrp">     -9.60440037 </i>
    <i name="e_0_energy">     -9.60676238 </i>
   </energy>
  </scstep>
  <scstep>
   <time name="dav">    0.89    0.56</time>
   <time name="total">    0.93    0.58</time>
   <energy>
    <i name="alphaZ">      5.54422978 </i>
    <i name="ewald">   -289.47707180 </i>
    <i name="hartreedc">     -0.55587981 </i>
    <i name="XCdc">    -16.41764197 </i>
    <i name="pawpsdc">    909.27746620 </i>
    <i name="pawaedc">   -874.19303490 </i>
    <i name="eentropy">     -0.00472407 </i>
    <i name="bandstr">     50.08560356 </i>
    <i name="atom">    206.13192747 </i>
    <i name="e_fr_energy">     -9.60912552 </i>
    <i name="e_wo_entrp">     -9.60440145 </i>
    <i name="e_0_energy">     -9.60676348 </i>
   </energy>
  </scstep>
  <structure>
   <crystal>
    <varray name="basis" >
     <v>       2.60004483      -0.00000000      -0.00000000 </v>
     <v>      -1.30002242       2.25170488       0.00000000 </v>
     <v>       0.00000000      -0.00000000       4.14840329 </v>
    </varray>
    <i name="volume">     24.28696656 </i>
    <varray name="rec_basis" >
     <v>       0.38460875       0.22205397       0.00000000 </v>
     <v>       0.00000000       0.44410793       0.00000000 </v>
     <v>       0.00000000       0.00000000       0.24105660 </v>
    </varray>
   </crystal>
   <varray name="positions" >
    <v>      -0.00000000      -0.00000000       0.00000000 </v>
    <v>       0.33333333       0.66666667       0.50000000 </v>
   </varray>
  </structure>
  <varray name="forces" >
   <v>       0.00000000      -0.00000000      -0.00000000 </v>
   <v>      -0.00000000       0.00000000       0.00000000 </v>
  </varray>
  <varray name="stress" >
   <v>     220.13475259       0.00000000      -0.00000000 </v>
   <v>       0.00000000     220.13475259       0.00000000 </v>
   <v>      -0.00000000       0.00000000     209.02639002 </v>
  </varray>
  <energy>
   <i name="e_fr_energy">     -9.60912552 </i>
   <i name="e_wo_entrp">     -9.60676348 </i>
   <i name="e_0_energy">     -0.00472407 </i>
  </energy>
  <time name="totalsc">    6.74    4.19</time>
 </calculation>
 <calculation>
  <scstep>
   <time name="dav">    1.58    1.01</time>
   <time name="total">    1.67    1.07</time>
   <energy>
    <i name="alphaZ">      5.54422978 </i>
    <i name="ewald">   -289.47035728 </i>
    <i name="hartreedc">     -0.55623072 </i>
    <i name="XCdc">    -16.41763351 </i>
    <i name="pawpsdc">    909.28944905 </i>
    <i name="pawaedc">   -874.20504175 </i>
    <i name="eentropy">     -0.00458523 </i>
    <i name="bandstr">     50.07884479 </i>
    <i name="atom">    206.13192747 </i>
    <i name="e_fr_energy">     -9.60939740 </i>
    <i name="e_wo_entrp">     -9.60481217 </i>
    <i name="e_0_energy">     -9.60710478 </i>
   </energy>
  </scstep>
  <scstep>
   <time name="dav">    1.14    0.71</time>
   <time name="total">    1.24    0.77</time>
   <energy>
    <i name="e_fr_energy">     -9.60935293 </i>
    <i name="e_wo_entrp">     -9.60476703 </i>
    <i name="e_0_energy">     -9.60705998 </i>
   </energy>
  </scstep>
  <scstep>
   <time name="dav">    2.68    1.71</time>
   <time name="total">    2.83    1.81</time>
   <energy>
    <i name="e_fr_energy">     -9.60933117 </i>
    <i name="e_wo_entrp">     -9.60474443 </i>
    <i name="e_0_energy">     -9.60703780 </i>
   </energy>
  </scstep>
  <scstep>
   <time name="dav">    1.26    0.81</time>
   <time name="total">    1.33    0.85</time>
   <energy>
    <i name="alphaZ">      5.54422978 </i>
    <i name="ewald">   -289.47035728 </i>
    <i name="hartreedc">     -0.55826579 </i>
    <i name="XCdc">    -16.41748535 </i>
    <i name="pawpsdc">    909.32834865 </i>
    <i name="pawaedc">   -874.24387351 </i>
    <i name="eentropy">     -0.00458671 </i>
    <i name="bandstr">     50.08073140 </i>
    <i name="atom">    206.13192747 </i>
    <i name="e_fr_energy">     -9.60933133 </i>
    <i name="e_wo_entrp">     -9.60474462 </i>
    <i name="e_0_energy">     -9.60703797 </i>
   </energy>
  </scstep>
  <structure>
   <crystal>
    <varray name="basis" >
     <v>       2.60286977      -0.00000000      -0.00000000 </v>
     <v>      -1.30143488       2.25415134       0.00000000 </v>
     <v>       0.00000000      -0.00000000       4.13940352 </v>
    </varray>
    <i name="volume">     24.28696656 </i>
    <varray name="rec_basis" >
     <v>       0.38419133       0.22181297       0.00000000 </v>
     <v>       0.00000000       0.44362594       0.00000000 </v>
     <v>       0.00000000       0.00000000       0.24158070 </v>
    </varray>
   </crystal>
   <varray name="positions" >
    <v>      -0.00000000      -0.00000000      -0.00000000 </v>
    <v>       0.33333333       0.66666667       0.50000000 </v>
   </varray>
  </structure>
  <varray name="forces" >
   <v>       0.00000000       0.00000000       0.00000000 </v>
   <v>      -0.00000000      -0.00000000      -0.00000000 </v>
  </varray>
  <varray name="stress" >
   <v>     216.90240862       0.00000000      -0.00000000 </v>
   <v>       0.00000000     216.90240862       0.00000000 </v>
   <v>      -0.00000000       0.00000000     215.67563536 </v>
  </varray>
  <energy>
   <i name="e_fr_energy">     -9.60933133 </i>
   <i name="e_wo_entrp">     -9.60703797 </i>
   <i name="e_0_energy">     -0.00458671 </i>
  </energy>
  <time name="totalsc">    7.56    4.84</time>
  <eigenvalues>
   <array>
    <dimension dim="1">band</dimension>
    <dimension dim="2">kpoint</dimension>
    <dimension dim="3">spin</dimension>
    <field>eigene</field>
    <field>occ</field>
    <set>
     <set comment="spin 1">
      <set comment="kpoint 1">
       <r>   -2.8761    1.0000 </r>
       <r>    4.0467    1.0000 </r>
       <r>    6.7619    1.0000 </r>
       <r>   17.2543    0.0000 </r>
       <r>   17.5748    0.0000 </r>
       <r>   23.2380    0.0000 </r>
       <r>   23.4697    0.0000 </r>
       <r>   23.7891    0.0000 </r>
      </set>
      <set comment="kpoint 2">
       <r>   -0.9074    1.0000 </r>
       <r>    5.9270    1.0000 </r>
       <r>    8.5644    1.0000 </r>
       <r>   10.6860    1.0000 </r>
       <r>   14.9191    0.0000 </r>
       <r>   17.1520    0.0000 </r>
       <r>   19.4844    0.0000 </r>
       <r>   21.5491    0.0000 </r>
      </set>
      <set comment="kpoint 3">
       <r>    2.5651    1.0000 </r>
       <r>    4.9021    1.0000 </r>
       <r>    9.2943    1.0000 </r>
       <r>   11.2786    1.0000 </r>
       <r>   12.3156    1.0000 </r>
       <r>   13.8038    0.0000 </r>
       <r>   14.5628    0.0000 </r>
       <r>   20.4232    0.0000 </r>
      </set>
      <set comment="kpoint 4">
       <r>    0.6506    1.0000 </r>
       <r>    7.1478    1.0000 </r>
       <r>    7.8261    1.0000 </r>
       <r>   10.1651    1.0000 </r>
       <r>   13.9205    0.0000 </r>
       <r>   14.5927    0.0000 </r>
       <r>   16.8177    0.0000 </r>
       <r>   20.7885    0.0000 </r>
      </set>
      <set comment="kpoint 5">
       <r>   -2.0860    1.0000 </r>
       <r>    4.8043    1.0000 </r>
       <r>    7.5039    1.0000 </r>
       <r>   13.9047    0.0000 </r>
       <r>   16.0182    0.0000 </r>
       <r>   20.2243    0.0000 </r>
       <r>   21.9541    0.0000 </r>
       <r>   22.7576    0.0000 </r>
      </set>
      <set comment="kpoint 6">
       <r>   -3.2725    1.0000 </r>
       <r>    3.6659    1.0000 </r>
       <r>    6.3870    1.0000 </r>
       <r>   19.0824    0.0000 </r>
       <r>   20.3210    0.0000 </r>
       <r>   22.3454    0.0000 </r>
       <r>   24.5877    0.0000 </r>
       <r>   25.0234    0.0000 </r>
      </set>
      <set comment="kpoint 7">
       <r>    1.8103    1.0000 </r>
       <r>    8.0178    1.0000 </r>
       <r>    8.9170    1.0000 </r>
       <r>    8.9560    1.0000 </r>
       <r>   11.3135    1.0000 </r>
       <r>   14.9172    0.0000 </r>
       <r>   15.7357    0.0000 </r>
       <r>   17.9181    0.0000 </r>
      </set>
      <set comment="kpoint 8">
       <r>    3.7112    1.0000 </r>
       <r>    6.0106    1.0000 </r>
       <r>    8.2838    1.0000 </r>
       <r>   10.4605    1.0000 </r>
       <r>   12.3467    1.0000 </r>
       <r>   13.3747    0.0000 </r>
       <r>   14.7916    0.0000 </r>
       <r>   16.1566    0.0000 </r>
      </set>
      <set comment="kpoint 9">
       <r>    0.2631    1.0000 </r>
       <r>    7.0187    1.0000 </r>
       <r>    9.1790    1.0000 </r>
       <r>   10.0352    1.0000 </r>
       <r>   11.7663    1.0000 </r>
       <r>   16.0302    0.0000 </r>
       <r>   17.8494    0.0000 </r>
       <r>   19.2105    0.0000 </r>
      </set>
      <set comment="kpoint 10">
       <r>   -1.6923    1.0000 </r>
       <r>    5.1806    1.0000 </r>
       <r>    7.8670    1.0000 </r>
       <r>   12.1123    1.0000 </r>
       <r>   17.6192    0.0000 </r>
       <r>   18.4471    0.0000 </r>
       <r>   19.9116    0.0000 </r>
       <r>   21.0315    0.0000 </r>
      </set>
      <set comment="kpoint 11">
       <r>    3.8747    1.0000 </r>
       <r>    4.3635    1.0000 </r>
       <r>   10.2857    1.0000 </r>
       <r>   11.0391    1.0000 </r>
       <r>   11.0579    1.0000 </r>
       <r>   13.6363    0.0000 </r>
       <r>   13.7628    0.0000 </r>
       <r>   17.8378    0.0000 </r>
      </set>
      <set comment="kpoint 12">
       <r>    1.4219    1.0000 </r>
       <r>    5.9969    1.0000 </r>
       <r>    8.2407    1.0000 </r>
       <r>   10.8067    1.0000 </r>
       <r>   12.8830    0.0025 </r>
       <r>   15.3295    0.0000 </r>
       <r>   16.2540    0.0000 </r>
       <r>   18.6394    0.0000 </r>
      </set>
      <set comment="kpoint 13">
       <r>   -2.4063    1.0000 </r>
       <r>    1.7695    1.0000 </r>
       <r>    9.8567    1.0000 </r>
       <r>   17.6650    0.0000 </r>
       <r>   17.9160    0.0000 </r>
       <r>   21.1289    0.0000 </r>
       <r>   21.4953    0.0000 </r>
       <r>   21.9052    0.0000 </r>
      </set>
      <set comment="kpoint 14">
       <r>   -0.4425    1.0000 </r>
       <r>    3.6858    1.0000 </r>
       <r>   10.8427    1.0000 </r>
       <r>   11.8290    1.0000 </r>
       <r>   14.8478    0.0000 </r>
       <r>   15.5923    0.0000 </r>
       <r>   19.2089    0.0000 </r>
       <r>   21.8208    0.0000 </r>
      </set>
      <set comment="kpoint 15">
       <r>    3.0198    1.0000 </r>
       <r>    5.3193    1.0000 </r>
       <r>    7.1630    1.0000 </r>
       <r>    9.3964    1.0000 </r>
       <r>   14.1424    0.0000 </r>
       <r>   15.2141    0.0000 </r>
       <r>   17.0404    0.0000 </r>
       <r>   18.6396    0.0000 </r>
      </set>
      <set comment="kpoint 16">
       <r>    1.1115    1.0000 </r>
       <r>    5.1835    1.0000 </r>
       <r>    8.0454    1.0000 </r>
       <r>   11.8073    1.0000 </r>
       <r>   13.3459    0.0000 </r>
       <r>   14.7907    0.0000 </r>
       <r>   18.3630    0.0000 </r>
       <r>   19.9971    0.0000 </r>
      </set>
      <set comment="kpoint 17">
       <r>   -1.6181    1.0000 </r>
       <r>    2.5395    1.0000 </r>
       <r>   10.5619    1.0000 </r>
       <r>   14.3301    0.0000 </r>
       <r>   16.4001    0.0000 </r>
       <r>   18.2150    0.0000 </r>
       <r>   20.2956    0.0000 </r>
       <r>   21.7777    0.0000 </r>
      </set>
      <set comment="kpoint 18">
       <r>   -2.8017    1.0000 </r>
       <r>    1.3830    1.0000 </r>
       <r>    9.4945    1.0000 </r>
       <r>   19.4095    0.0000 </r>
       <r>   20.7208    0.0000 </r>
       <r>   20.7967    0.0000 </r>
       <r>   23.0887    0.0000 </r>
       <r>   23.4045    0.0000 </r>
      </set>
      <set comment="kpoint 19">
       <r>    2.2679    1.0000 </r>
       <r>    6.2835    1.0000 </r>
       <r>    8.9874    1.0000 </r>
       <r>    9.3463    1.0000 </r>
       <r>   12.9020    0.0011 </r>
       <r>   12.9253    0.0003 </r>
       <r>   15.0272    0.0000 </r>
       <r>   20.5422    0.0000 </r>
      </set>
      <set comment="kpoint 20">
       <r>    4.1610    1.0000 </r>
       <r>    6.4137    1.0000 </r>
       <r>    8.1527    1.0000 </r>
       <r>    8.9272    1.0000 </r>
       <r>   10.5597    1.0000 </r>
       <r>   12.6854    0.4957 </r>
       <r>   16.4532    0.0000 </r>
       <r>   18.5711    0.0000 </r>
      </set>
      <set comment="kpoint 21">
       <r>    0.7251    1.0000 </r>
       <r>    4.8186    1.0000 </r>
       <r>    9.8563    1.0000 </r>
       <r>   12.0078    1.0000 </r>
       <r>   12.6772    0.5419 </r>
       <r>   14.1748    0.0000 </r>
       <r>   16.2558    0.0000 </r>
       <r>   21.4658    0.0000 </r>
      </set>
      <set comment="kpoint 22">
       <r>   -1.2253    1.0000 </r>
       <r>    2.9228    1.0000 </r>
       <r>   10.8705    1.0000 </r>
       <r>   12.5848    0.9209 </r>
       <r>   16.4306    0.0000 </r>
       <r>   18.0243    0.0000 </r>
       <r>   20.1076    0.0000 </r>
       <r>   21.6602    0.0000 </r>
      </set>
      <set comment="kpoint 23">
       <r>    4.3241    1.0000 </r>
       <r>    4.8025    1.0000 </r>
       <r>    8.3800    1.0000 </r>
       <r>    8.8814    1.0000 </r>
       <r>   11.4294    1.0000 </r>
       <r>   14.9385    0.0000 </r>
       <r>   16.5043    0.0000 </r>
       <r>   17.3900    0.0000 </r>
      </set>
      <set comment="kpoint 24">
       <r>    1.8806    1.0000 </r>
       <r>    5.8144    1.0000 </r>
       <r>    6.6757    1.0000 </r>
       <r>   10.4680    1.0000 </r>
       <r>   14.0341    0.0000 </r>
       <r>   16.6598    0.0000 </r>
       <r>   18.0421    0.0000 </r>
       <r>   19.1179    0.0000 </r>
      </set>
      <set comment="kpoint 25">
       <r>   -1.4701    1.0000 </r>
       <r>   -0.0747    1.0000 </r>
       <r>   13.3116    0.0000 </r>
       <r>   16.9377    0.0000 </r>
       <r>   18.4699    0.0000 </r>
       <r>   19.0791    0.0000 </r>
       <r>   19.8458    0.0000 </r>
       <r>   20.3088    0.0000 </r>
      </set>
      <set comment="kpoint 26">
       <r>    0.4838    1.0000 </r>
       <r>    1.8639    1.0000 </r>
       <r>   11.8374    1.0000 </r>
       <r>   13.0591    0.0000 </r>
       <r>   15.1843    0.0000 </r>
       <r>   16.2433    0.0000 </r>
       <r>   17.6861    0.0000 </r>
       <r>   19.2036    0.0000 </r>
      </set>
      <set comment="kpoint 27">
       <r>    3.9205    1.0000 </r>
       <r>    5.2045    1.0000 </r>
       <r>    6.3904    1.0000 </r>
       <r>    7.6544    1.0000 </r>
       <r>   15.0994    0.0000 </r>
       <r>   16.2620    0.0000 </r>
       <r>   18.6255    0.0000 </r>
       <r>   20.4853    0.0000 </r>
      </set>
      <set comment="kpoint 28">
       <r>    2.0292    1.0000 </r>
       <r>    3.3940    1.0000 </r>
       <r>    8.9168    1.0000 </r>
       <r>   10.2200    1.0000 </r>
       <r>   15.3923    0.0000 </r>
       <r>   16.2354    0.0000 </r>
       <r>   17.4136    0.0000 </r>
       <r>   20.3075    0.0000 </r>
      </set>
      <set comment="kpoint 29">
       <r>   -0.6858    1.0000 </r>
       <r>    0.7036    1.0000 </r>
       <r>   13.8775    0.0000 </r>
       <r>   15.1447    0.0000 </r>
       <r>   16.4678    0.0000 </r>
       <r>   17.0264    0.0000 </r>
       <r>   18.4042    0.0000 </r>
       <r>   18.8283    0.0000 </r>
      </set>
      <set comment="kpoint 30">
       <r>   -1.8636    1.0000 </r>
       <r>   -0.4653    1.0000 </r>
       <r>   12.9765    0.0000 </r>
       <r>   16.7569    0.0000 </r>
       <r>   20.3812    0.0000 </r>
       <r>   21.5196    0.0000 </r>
       <r>   21.5655    0.0000 </r>
       <r>   22.7127    0.0000 </r>
      </set>
      <set comment="kpoint 31">
       <r>    3.1780    1.0000 </r>
       <r>    4.5286    1.0000 </r>
       <r>    9.8115    1.0000 </r>
       <r>   10.1486    1.0000 </r>
       <r>   11.2771    1.0000 </r>
       <r>   11.5780    1.0000 </r>
       <r>   18.0058    0.0000 </r>
       <r>   21.3682    0.0000 </r>
      </set>
      <set comment="kpoint 32">
       <r>    5.0491    1.0000 </r>
       <r>    6.2930    1.0000 </r>
       <r>    7.5207    1.0000 </r>
       <r>    8.7010    1.0000 </r>
       <r>    9.8127    1.0000 </r>
       <r>   11.0437    1.0000 </r>
       <r>   19.6493    0.0000 </r>
       <r>   21.4767    0.0000 </r>
      </set>
      <set comment="kpoint 33">
       <r>    1.6451    1.0000 </r>
       <r>    3.0147    1.0000 </r>
       <r>   10.7380    1.0000 </r>
       <r>   11.9682    1.0000 </r>
       <r>   13.0446    0.0000 </r>
       <r>   14.1753    0.0000 </r>
       <r>   16.7501    0.0000 </r>
       <r>   20.2028    0.0000 </r>
      </set>
      <set comment="kpoint 34">
       <r>   -0.2951    1.0000 </r>
       <r>    1.0913    1.0000 </r>
       <r>   13.2154    0.0000 </r>
       <r>   14.0628    0.0000 </r>
       <r>   15.1681    0.0000 </r>
       <r>   18.1700    0.0000 </r>
       <r>   18.8346    0.0000 </r>
       <r>   20.0490    0.0000 </r>
      </set>
      <set comment="kpoint 35">
       <r>    5.1954    1.0000 </r>
       <r>    5.6146    1.0000 </r>
       <r>    6.7257    1.0000 </r>
       <r>    7.1440    1.0000 </r>
       <r>   12.2858    1.0000 </r>
       <r>   13.5438    0.0000 </r>
       <r>   19.6992    0.0000 </r>
       <r>   20.3055    0.0000 </r>
      </set>
      <set comment="kpoint 36">
       <r>    2.7928    1.0000 </r>
       <r>    4.1440    1.0000 </r>
       <r>    7.4402    1.0000 </r>
       <r>    8.7534    1.0000 </r>
       <r>   17.2332    0.0000 </r>
       <r>   17.4719    0.0000 </r>
       <r>   18.6908    0.0000 </r>
       <r>   19.3063    0.0000 </r>
      </set>
     </set>
    </set>
   </array>
  </eigenvalues>
  <separator name="orbital magnetization" >
   <v name="MAGDIPOLOUT">      0.00000000      0.00000000      0.00000000</v>
  </separator>
  <dos>
   <i name="efermi">     12.68461296 </i>
   <total>
    <array>
     <dimension dim="1">gridpoints</dimension>
     <dimension dim="2">spin</dimension>
     <field>energy</field>
     <field>total</field>
     <field>integrated</field>
     <set>
      <set comment="spin 1">
       <r>    -4.6873     0.0000     0.0000 </r>
       <r>    -4.5835     0.0000     0.0000 </r>
       <r>    -4.4798     0.0000     0.0000 </r>
       <r>    -4.3760     0.0000     0.0000 </r>
       <r>    -4.2723     0.0000     0.0000 </r>
       <r>    -4.1685     0.0000     0.0000 </r>
       <r>    -4.0648     0.0000     0.0000 </r>
       <r>    -3.9610     0.0000     0.0000 </r>
       <r>    -3.8573     0.0000     0.0000 </r>
       <r>    -3.7535     0.0000     0.0000 </r>
       <r>    -3.6498     0.0000     0.0000 </r>
       <r>    -3.5460     0.0000     0.0000 </r>
       <r>    -3.4423     0.0029     0.0003 </r>
       <r>    -3.3385     0.0596     0.0065 </r>
       <r>    -3.2348     0.1885     0.0260 </r>
       <r>    -3.1310     0.0979     0.0362 </r>
       <r>    -3.0272     0.0140     0.0377 </r>
       <r>    -2.9235     0.0989     0.0479 </r>
       <r>    -2.8197     0.3186     0.0810 </r>
       <r>    -2.7160     0.2460     0.1065 </r>
       <r>    -2.6122     0.0438     0.1110 </r>
       <r>    -2.5085     0.0272     0.1139 </r>
       <r>    -2.4047     0.1551     0.1299 </r>
       <r>    -2.3010     0.1519     0.1457 </r>
       <r>    -2.1972     0.0643     0.1524 </r>
       <r>    -2.0935     0.2863     0.1821 </r>
       <r>    -1.9897     0.3383     0.2172 </r>
       <r>    -1.8860     0.1823     0.2361 </r>
       <r>    -1.7822     0.2223     0.2591 </r>
       <r>    -1.6785     0.3465     0.2951 </r>
       <r>    -1.5747     0.5404     0.3512 </r>
       <r>    -1.4710     0.3483     0.3873 </r>
       <r>    -1.3672     0.1757     0.4055 </r>
       <r>    -1.2635     0.1227     0.4183 </r>
       <r>    -1.1597     0.1894     0.4379 </r>
       <r>    -1.0560     0.0728     0.4455 </r>
       <r>    -0.9522     0.1783     0.4640 </r>
       <r>    -0.8485     0.3893     0.5043 </r>
       <r>    -0.7447     0.2737     0.5327 </r>
       <r>    -0.6410     0.3934     0.5735 </r>
       <r>    -0.5372     0.2905     0.6037 </r>
       <r>    -0.4335     0.5356     0.6593 </r>
       <r>    -0.3297     0.4905     0.7101 </r>
       <r>    -0.2260     0.2412     0.7352 </r>
       <r>    -0.1222     0.1408     0.7498 </r>
       <r>    -0.0184     0.1939     0.7699 </r>
       <r>     0.0853     0.0760     0.7778 </r>
       <r>     0.1891     0.1052     0.7887 </r>
       <r>     0.2928     0.3703     0.8271 </r>
       <r>     0.3966     0.2949     0.8577 </r>
       <r>     0.5003     0.3799     0.8971 </r>
       <r>     0.6041     0.5158     0.9506 </r>
       <r>     0.7078     0.9878     1.0531 </r>
       <r>     0.8116     0.7834     1.1344 </r>
       <r>     0.9153     0.1330     1.1482 </r>
       <r>     1.0191     0.1222     1.1609 </r>
       <r>     1.1228     0.5192     1.2148 </r>
       <r>     1.2266     0.3876     1.2550 </r>
       <r>     1.3303     0.1566     1.2712 </r>
       <r>     1.4341     0.3615     1.3087 </r>
       <r>     1.5378     0.2602     1.3357 </r>
       <r>     1.6416     0.3356     1.3706 </r>
       <r>     1.7453     0.5373     1.4263 </r>
       <r>     1.8491     0.7983     1.5091 </r>
       <r>     1.9528     0.7657     1.5886 </r>
       <r>     2.0566     0.4992     1.6404 </r>
       <r>     2.1603     0.2536     1.6667 </r>
       <r>     2.2641     0.1704     1.6844 </r>
       <r>     2.3678     0.1656     1.7015 </r>
       <r>     2.4716     0.2067     1.7230 </r>
       <r>     2.5753     0.7079     1.7964 </r>
       <r>     2.6791     0.4981     1.8481 </r>
       <r>     2.7828     0.2028     1.8691 </r>
       <r>     2.8866     0.3122     1.9015 </r>
       <r>     2.9904     0.6774     1.9718 </r>
       <r>     3.0941     0.8267     2.0576 </r>
       <r>     3.1979     0.3711     2.0961 </r>
       <r>     3.3016     0.1986     2.1167 </r>
       <r>     3.4054     0.3485     2.1529 </r>
       <r>     3.5091     0.2854     2.1825 </r>
       <r>     3.6129     0.2731     2.2108 </r>
       <r>     3.7166     0.8877     2.3029 </r>
       <r>     3.8204     0.7162     2.3772 </r>
       <r>     3.9241     0.5903     2.4384 </r>
       <r>     4.0279     0.5437     2.4949 </r>
       <r>     4.1316     0.5829     2.5553 </r>
       <r>     4.2354     0.6250     2.6202 </r>
       <r>     4.3391     0.4261     2.6644 </r>
       <r>     4.4429     0.3560     2.7013 </r>
       <r>     4.5466     0.2357     2.7258 </r>
       <r>     4.6504     0.1516     2.7415 </r>
       <r>     4.7541     0.3933     2.7823 </r>
       <r>     4.8579     1.1325     2.8998 </r>
       <r>     4.9616     0.8725     2.9903 </r>
       <r>     5.0654     0.5892     3.0515 </r>
       <r>     5.1691     1.0002     3.1552 </r>
       <r>     5.2729     1.2661     3.2866 </r>
       <r>     5.3766     0.6481     3.3538 </r>
       <r>     5.4804     0.1614     3.3706 </r>
       <r>     5.5841     0.1169     3.3827 </r>
       <r>     5.6879     0.1977     3.4032 </r>
       <r>     5.7916     0.1926     3.4232 </r>
       <r>     5.8954     0.4572     3.4707 </r>
       <r>     5.9992     0.8441     3.5582 </r>
       <r>     6.1029     0.5957     3.6200 </r>
       <r>     6.2067     0.2251     3.6434 </r>
       <r>     6.3104     0.7185     3.7180 </r>
       <r>     6.4142     1.2190     3.8444 </r>
       <r>     6.5179     0.7031     3.9174 </r>
       <r>     6.6217     0.1938     3.9375 </r>
       <r>     6.7254     0.4457     3.9837 </r>
       <r>     6.8292     0.4246     4.0278 </r>
       <r>     6.9329     0.1679     4.0452 </r>
       <r>     7.0367     0.4407     4.0909 </r>
       <r>     7.1404     0.9301     4.1874 </r>
       <r>     7.2442     0.8706     4.2777 </r>
       <r>     7.3479     0.2224     4.3008 </r>
       <r>     7.4517     0.4408     4.3466 </r>
       <r>     7.5554     0.9506     4.4452 </r>
       <r>     7.6592     0.7048     4.5183 </r>
       <r>     7.7629     0.4721     4.5673 </r>
       <r>     7.8667     0.5857     4.6281 </r>
       <r>     7.9704     0.5285     4.6829 </r>
       <r>     8.0742     0.6935     4.7548 </r>
       <r>     8.1779     0.7671     4.8344 </r>
       <r>     8.2817     0.7776     4.9151 </r>
       <r>     8.3854     0.5933     4.9767 </r>
       <r>     8.4892     0.3052     5.0083 </r>
       <r>     8.5929     0.4373     5.0537 </r>
       <r>     8.6967     0.5926     5.1152 </r>
       <r>     8.8004     0.6580     5.1835 </r>
       <r>     8.9042     1.0836     5.2959 </r>
       <r>     9.0080     1.3647     5.4375 </r>
       <r>     9.1117     0.5242     5.4918 </r>
       <r>     9.2155     0.5071     5.5445 </r>
       <r>     9.3192     0.7710     5.6245 </r>
       <r>     9.4230     0.8494     5.7126 </r>
       <r>     9.5267     0.4870     5.7631 </r>
       <r>     9.6305     0.1375     5.7774 </r>
       <r>     9.7342     0.1931     5.7974 </r>
       <r>     9.8380     0.9251     5.8934 </r>
       <r>     9.9417     0.9372     5.9906 </r>
       <r>    10.0455     0.5471     6.0474 </r>
       <r>    10.1492     0.8151     6.1320 </r>
       <r>    10.2530     1.0126     6.2370 </r>
       <r>    10.3567     0.5674     6.2959 </r>
       <r>    10.4605     0.6335     6.3616 </r>
       <r>    10.5642     1.1364     6.4795 </r>
       <r>    10.6680     1.0526     6.5887 </r>
       <r>    10.7717     1.0518     6.6979 </r>
       <r>    10.8755     1.0176     6.8034 </r>
       <r>    10.9792     0.6701     6.8730 </r>
       <r>    11.0830     0.7961     6.9556 </r>
       <r>    11.1867     0.5125     7.0087 </r>
       <r>    11.2905     0.6672     7.0779 </r>
       <r>    11.3942     0.6898     7.1495 </r>
       <r>    11.4980     0.3281     7.1836 </r>
       <r>    11.6017     0.2478     7.2093 </r>
       <r>    11.7055     0.3561     7.2462 </r>
       <r>    11.8092     1.1891     7.3696 </r>
       <r>    11.9130     1.4087     7.5157 </r>
       <r>    12.0168     0.9815     7.6176 </r>
       <r>    12.1205     0.6235     7.6822 </r>
       <r>    12.2243     0.3541     7.7190 </r>
       <r>    12.3280     0.8003     7.8020 </r>
       <r>    12.4318     0.7184     7.8766 </r>
       <r>    12.5355     0.2303     7.9005 </r>
       <r>    12.6393     0.5617     7.9587 </r>
       <r>    12.7430     0.8483     8.0467 </r>
       <r>    12.8468     0.4980     8.0984 </r>
       <r>    12.9505     0.7964     8.1810 </r>
       <r>    13.0543     1.0656     8.2916 </r>
       <r>    13.1580     0.7439     8.3688 </r>
       <r>    13.2618     0.4875     8.4194 </r>
       <r>    13.3655     0.9137     8.5142 </r>
       <r>    13.4693     0.7132     8.5882 </r>
       <r>    13.5730     0.3441     8.6239 </r>
       <r>    13.6768     0.3687     8.6621 </r>
       <r>    13.7805     0.6211     8.7266 </r>
       <r>    13.8843     1.2729     8.8586 </r>
       <r>    13.9880     1.2707     8.9905 </r>
       <r>    14.0918     0.9412     9.0881 </r>
       <r>    14.1955     1.2995     9.2229 </r>
       <r>    14.2993     0.8779     9.3140 </r>
       <r>    14.4030     0.4454     9.3602 </r>
       <r>    14.5068     0.3263     9.3941 </r>
       <r>    14.6105     0.7430     9.4712 </r>
       <r>    14.7143     0.6356     9.5371 </r>
       <r>    14.8180     1.0858     9.6498 </r>
       <r>    14.9218     1.4553     9.8008 </r>
       <r>    15.0256     1.0692     9.9117 </r>
       <r>    15.1293     1.2204    10.0383 </r>
       <r>    15.2331     1.5516    10.1993 </r>
       <r>    15.3368     0.8796    10.2905 </r>
       <r>    15.4406     0.5828    10.3510 </r>
       <r>    15.5443     0.3537    10.3877 </r>
       <r>    15.6481     0.4316    10.4325 </r>
       <r>    15.7518     0.3175    10.4654 </r>
       <r>    15.8556     0.1512    10.4811 </r>
       <r>    15.9593     0.2629    10.5084 </r>
       <r>    16.0631     0.8328    10.5948 </r>
       <r>    16.1668     1.0978    10.7087 </r>
       <r>    16.2706     1.9236    10.9083 </r>
       <r>    16.3743     1.6151    11.0758 </r>
       <r>    16.4781     1.4913    11.2305 </r>
       <r>    16.5818     0.9270    11.3267 </r>
       <r>    16.6856     0.4972    11.3783 </r>
       <r>    16.7893     0.9131    11.4730 </r>
       <r>    16.8931     0.7966    11.5557 </r>
       <r>    16.9968     0.7229    11.6307 </r>
       <r>    17.1006     0.9938    11.7338 </r>
       <r>    17.2043     0.8154    11.8184 </r>
       <r>    17.3081     0.6342    11.8842 </r>
       <r>    17.4118     0.6853    11.9553 </r>
       <r>    17.5156     0.7343    12.0315 </r>
       <r>    17.6193     0.7030    12.1044 </r>
       <r>    17.7231     0.8628    12.1939 </r>
       <r>    17.8268     0.7511    12.2719 </r>
       <r>    17.9306     0.9851    12.3741 </r>
       <r>    18.0344     0.8920    12.4666 </r>
       <r>    18.1381     0.6539    12.5345 </r>
       <r>    18.2419     0.6487    12.6018 </r>
       <r>    18.3456     0.7178    12.6762 </r>
       <r>    18.4494     1.0720    12.7875 </r>
       <r>    18.5531     1.0614    12.8976 </r>
       <r>    18.6569     1.4293    13.0459 </r>
       <r>    18.7606     1.0324    13.1530 </r>
       <r>    18.8644     0.6835    13.2239 </r>
       <r>    18.9681     0.3595    13.2612 </r>
       <r>    19.0719     0.4531    13.3082 </r>
       <r>    19.1756     1.1694    13.4296 </r>
       <r>    19.2794     1.3712    13.5718 </r>
       <r>    19.3831     0.6743    13.6418 </r>
       <r>    19.4869     0.5639    13.7003 </r>
       <r>    19.5906     0.5079    13.7530 </r>
       <r>    19.6944     0.5827    13.8134 </r>
       <r>    19.7981     0.4393    13.8590 </r>
       <r>    19.9019     0.4407    13.9047 </r>
       <r>    20.0056     0.6842    13.9757 </r>
       <r>    20.1094     0.7728    14.0559 </r>
       <r>    20.2131     1.1015    14.1702 </r>
       <r>    20.3169     1.9159    14.3690 </r>
       <r>    20.4206     1.6926    14.5446 </r>
       <r>    20.5244     1.0489    14.6534 </r>
       <r>    20.6281     0.4733    14.7025 </r>
       <r>    20.7319     0.4262    14.7467 </r>
       <r>    20.8356     0.7117    14.8206 </r>
       <r>    20.9394     0.3175    14.8535 </r>
       <r>    21.0431     0.2260    14.8769 </r>
       <r>    21.1469     0.3116    14.9093 </r>
       <r>    21.2507     0.1637    14.9263 </r>
       <r>    21.3544     0.2328    14.9504 </r>
       <r>    21.4582     0.9642    15.0504 </r>
       <r>    21.5619     1.6037    15.2168 </r>
       <r>    21.6657     0.9284    15.3132 </r>
       <r>    21.7694     0.6745    15.3831 </r>
       <r>    21.8732     0.9263    15.4792 </r>
       <r>    21.9769     0.7587    15.5580 </r>
       <r>    22.0807     0.3051    15.5896 </r>
       <r>    22.1844     0.0323    15.5930 </r>
       <r>    22.2882     0.0710    15.6003 </r>
       <r>    22.3919     0.1912    15.6202 </r>
       <r>    22.4957     0.0856    15.6291 </r>
       <r>    22.5994     0.0340    15.6326 </r>
       <r>    22.7032     0.2885    15.6625 </r>
       <r>    22.8069     0.5481    15.7194 </r>
       <r>    22.9107     0.1962    15.7397 </r>
       <r>    23.0144     0.0622    15.7462 </r>
       <r>    23.1182     0.1997    15.7669 </r>
       <r>    23.2219     0.2423    15.7921 </r>
       <r>    23.3257     0.2356    15.8165 </r>
       <r>    23.4294     0.3118    15.8489 </r>
       <r>    23.5332     0.3078    15.8808 </r>
       <r>    23.6369     0.0803    15.8891 </r>
       <r>    23.7407     0.0858    15.8980 </r>
       <r>    23.8444     0.1915    15.9179 </r>
       <r>    23.9482     0.0731    15.9255 </r>
       <r>    24.0519     0.0043    15.9259 </r>
       <r>    24.1557     0.0000    15.9259 </r>
       <r>    24.2595     0.0000    15.9259 </r>
       <r>    24.3632     0.0003    15.9260 </r>
       <r>    24.4670     0.0154    15.9275 </r>
       <r>    24.5707     0.1289    15.9409 </r>
       <r>    24.6745     0.1732    15.9589 </r>
       <r>    24.7782     0.0381    15.9628 </r>
       <r>    24.8820     0.0093    15.9638 </r>
       <r>    24.9857     0.0979    15.9740 </r>
       <r>    25.0895     0.1885    15.9935 </r>
       <r>    25.1932     0.0596    15.9997 </r>
       <r>    25.2970     0.0029    16.0000 </r>
       <r>    25.4007     0.0000    16.0000 </r>
       <r>    25.5045     0.0000    16.0000 </r>
       <r>    25.6082     0.0000    16.0000 </r>
       <r>    25.7120     0.0000    16.0000 </r>
       <r>    25.8157     0.0000    16.0000 </r>
       <r>    25.9195     0.0000    16.0000 </r>
       <r>    26.0232     0.0000    16.0000 </r>
       <r>    26.1270     0.0000    16.0000 </r>
       <r>    26.2307     0.0000    16.0000 </r>
       <r>    26.3345     0.0000    16.0000 </r>
       <r>    26.4382     0.0000    16.0000 </r>
      </set>
     </set>
    </array>
   </total>
  </dos>
 </calculation>
 <structure name="finalpos" >
  <crystal>
   <varray name="basis" >
    <v>       2.60286977      -0.00000000      -0.00000000 </v>
    <v>      -1.30143488       2.25415134       0.00000000 </v>
    <v>       0.00000000      -0.00000000       4.13940352 </v>
   </varray>
   <i name="volume">     24.28696656 </i>
   <varray name="rec_basis" >
    <v>       0.38419133       0.22181297       0.00000000 </v>
    <v>       0.00000000       0.44362594       0.00000000 </v>
    <v>       0.00000000       0.00000000       0.24158070 </v>
   </varray>
  </crystal>
  <varray name="positions" >
   <v>      -0.00000000      -0.00000000      -0.00000000 </v>
   <v>       0.33333333       0.66666667       0.50000000 </v>
  </varray>
 </structure>
</modeling>
