Fe BCC                                  
   2.50000000000000     
    -0.500000    0.500000    0.500000
     0.500000   -0.500000    0.500000
     0.500000    0.500000   -0.500000
   Fe
     1
Direct
  0.000000  0.000000  0.000000
 
   28   28   28
  65.915      64.367      59.951      53.294      45.256      36.738      28.523      21.200      15.147      10.550    
  7.4175      5.5890      4.7506      4.4869      4.4234      4.4869      4.7506      5.5890      7.4175      10.550    
  15.147      21.200      28.523      36.738      45.256      53.294      59.951      64.367      64.367      63.856    
  60.413      54.536      47.013      38.732      30.513      23.003      16.640      11.669      8.1530      5.9856    
  4.9006      4.5117      4.4057      4.4271      4.5911      5.1647      6.5728      9.1684      13.167      18.620    
  25.403      33.211      41.533      49.659      56.729      61.869      59.951      60.413      58.049      53.204    
  46.549      38.907      31.089      23.767      17.423      12.346      8.6497      6.2766      5.0106      4.5057    
  4.3545      4.3341      4.4374      4.7811      5.7531      7.7313      10.981      15.614      21.574      28.628    
  36.357      44.144      51.214      56.729      53.294      54.536      53.204      49.496      43.936      37.244    
  30.172      23.384      17.376      12.470      8.8154      6.3976      5.0483      4.4669      4.2755      4.2171    
  4.2799      4.4762      5.0648      6.4270      8.8669      12.555      17.502      23.553      30.378      37.465    
  44.144      49.659      45.256      47.013      46.549      43.936      39.554      33.990      27.907      21.919    
  16.515      12.024      8.6185      6.3174      4.9937      4.3926      4.1762      4.0872      4.1113      4.2441    
  4.5612      5.3884      7.0504      9.7679      13.620      18.528      24.249      30.378      36.357      41.533    
  36.738      38.732      38.907      37.244      33.990      29.599      24.622      19.599      14.981      11.086    
  8.0947      6.0463      4.8473      4.2848      4.0644      3.9545      3.9450      4.0404      4.2305      4.6691    
  5.6698      7.4883      10.265      13.996      18.528      23.553      28.628      33.211      28.523      30.513    
  31.089      30.172      27.907      24.622      20.752      16.749      13.005      9.8099      7.3363      5.6332    
  4.6307      4.1525      3.9469      3.8271      3.7927      3.8523      3.9992      4.2359      4.7584      5.8327    
  7.6457      10.265      13.620      17.502      21.574      25.403      21.200      23.003      23.767      23.384    
  21.919      19.599      16.749      13.726      10.855      8.3850      6.4673      5.1504      4.3800      4.0097    
  3.8289      3.7097      3.6611      3.6914      3.8007      3.9792      4.2450      4.7928      5.8327      7.4883    
  9.7679      12.555      15.614      18.620      15.147      16.640      17.423      17.376      16.515      14.981    
  13.005      10.855      8.7863      6.9979      5.6142      4.6748      4.1342      3.8699      3.7143      3.6046    
  3.5522      3.5630      3.6391      3.7788      3.9735      4.2450      4.7584      5.6698      7.0504      8.8669    
  10.981      13.167      10.550      11.669      12.346      12.470      12.024      11.086      9.8099      8.3850    
  6.9979      5.7986      4.8801      4.2690      3.9233      3.7396      3.6063      3.5127      3.4654      3.4670    
  3.5193      3.6234      3.7788      3.9792      4.2359      4.6691      5.3884      6.4270      7.7313      9.1684    
  7.4175      8.1530      8.6497      8.8154      8.6185      8.0947      7.3363      6.4673      5.6142      4.8801    
  4.3270      3.9666      3.7578      3.6181      3.5087      3.4351      3.3993      3.4012      3.4407      3.5193    
  3.6391      3.8007      3.9992      4.2305      4.5612      5.0648      5.7531      6.5728      5.5890      5.9856    
  6.2766      6.3976      6.3174      6.0463      5.6332      5.1504      4.6748      4.2690      3.9666      3.7651    
  3.6243      3.5100      3.4255      3.3737      3.3538      3.3635      3.4012      3.4670      3.5630      3.6914    
  3.8523      4.0404      4.2441      4.4762      4.7811      5.1647      4.7506      4.9006      5.0106      5.0483    
  4.9937      4.8473      4.6307      4.3800      4.1342      3.9233      3.7578      3.6243      3.5103      3.4212    
  3.3614      3.3317      3.3302      3.3538      3.3993      3.4654      3.5522      3.6611      3.7927      3.9450    
  4.1113      4.2799      4.4374      4.5911      4.4869      4.5117      4.5057      4.4669      4.3926      4.2848    
  4.1525      4.0097      3.8699      3.7396      3.6181      3.5100      3.4212      3.3571      3.3208      3.3130    
  3.3317      3.3737      3.4351      3.5127      3.6046      3.7097      3.8271      3.9545      4.0872      4.2171    
  4.3341      4.4271      4.4234      4.4057      4.3545      4.2755      4.1762      4.0644      3.9469      3.8289    
  3.7143      3.6063      3.5087      3.4255      3.3614      3.3208      3.3069      3.3208      3.3614      3.4255    
  3.5087      3.6063      3.7143      3.8289      3.9469      4.0644      4.1762      4.2755      4.3545      4.4057    
  4.4869      4.4271      4.3341      4.2171      4.0872      3.9545      3.8271      3.7097      3.6046      3.5127    
  3.4351      3.3737      3.3317      3.3130      3.3208      3.3571      3.4212      3.5100      3.6181      3.7396    
  3.8699      4.0097      4.1525      4.2848      4.3926      4.4669      4.5057      4.5117      4.7506      4.5911    
  4.4374      4.2799      4.1113      3.9450      3.7927      3.6611      3.5522      3.4654      3.3993      3.3538    
  3.3302      3.3317      3.3614      3.4212      3.5103      3.6243      3.7578      3.9233      4.1342      4.3800    
  4.6307      4.8473      4.9937      5.0483      5.0106      4.9006      5.5890      5.1647      4.7811      4.4762    
  4.2441      4.0404      3.8523      3.6914      3.5630      3.4670      3.4012      3.3635      3.3538      3.3737    
  3.4255      3.5100      3.6243      3.7651      3.9666      4.2690      4.6748      5.1504      5.6332      6.0463    
  6.3174      6.3976      6.2766      5.9856      7.4175      6.5728      5.7531      5.0648      4.5612      4.2305    
  3.9992      3.8007      3.6391      3.5193      3.4407      3.4012      3.3993      3.4351      3.5087      3.6181    
  3.7578      3.9666      4.3270      4.8801      5.6142      6.4673      7.3363      8.0947      8.6185      8.8154    
  8.6497      8.1530      10.550      9.1684      7.7313      6.4270      5.3884      4.6691      4.2359      3.9792    
  3.7788      3.6234      3.5193      3.4670      3.4654      3.5127      3.6063      3.7396      3.9233      4.2690    
  4.8801      5.7986      6.9979      8.3850      9.8099      11.086      12.024      12.470      12.346      11.669    
  15.147      13.167      10.981      8.8669      7.0504      5.6698      4.7584      4.2450      3.9735      3.7788    
  3.6391      3.5630      3.5522      3.6046      3.7143      3.8699      4.1342      4.6748      5.6142      6.9979    
  8.7863      10.855      13.005      14.981      16.515      17.376      17.423      16.640      21.200      18.620    
  15.614      12.555      9.7679      7.4883      5.8327      4.7928      4.2450      3.9792      3.8007      3.6914    
  3.6611      3.7097      3.8289      4.0097      4.3800      5.1504      6.4673      8.3850      10.855      13.726    
  16.749      19.599      21.919      23.384      23.767      23.003      28.523      25.403      21.574      17.502    
  13.620      10.265      7.6457      5.8327      4.7584      4.2359      3.9992      3.8523      3.7927      3.8271    
  3.9469      4.1525      4.6307      5.6332      7.3363      9.8099      13.005      16.749      20.752      24.622    
  27.907      30.172      31.089      30.513      36.738      33.211      28.628      23.553      18.528      13.996    
  10.265      7.4883      5.6698      4.6691      4.2305      4.0404      3.9450      3.9545      4.0644      4.2848    
  4.8473      6.0463      8.0947      11.086      14.981      19.599      24.622      29.599      33.990      37.244    
  38.907      38.732      45.256      41.533      36.357      30.378      24.249      18.528      13.620      9.7679    
  7.0504      5.3884      4.5612      4.2441      4.1113      4.0872      4.1762      4.3926      4.9937      6.3174    
  8.6185      12.024      16.515      21.919      27.907      33.990      39.554      43.936      46.549      47.013    
  53.294      49.659      44.144      37.465      30.378      23.553      17.502      12.555      8.8669      6.4270    
  5.0648      4.4762      4.2799      4.2171      4.2755      4.4669      5.0483      6.3976      8.8154      12.470    
  17.376      23.384      30.172      37.244      43.936      49.496      53.204      54.536      59.951      56.729    
  51.214      44.144      36.357      28.628      21.574      15.614      10.981      7.7313      5.7531      4.7811    
  4.4374      4.3341      4.3545      4.5057      5.0106      6.2766      8.6497      12.346      17.423      23.767    
  31.089      38.907      46.549      53.204      58.049      60.413      64.367      61.869      56.729      49.659    
  41.533      33.211      25.403      18.620      13.167      9.1684      6.5728      5.1647      4.5911      4.4271    
  4.4057      4.5117      4.9006      5.9856      8.1530      11.669      16.640      23.003      30.513      38.732    
  47.013      54.536      60.413      63.856      64.367      63.856      60.413      54.536      47.013      38.732    
  30.513      23.003      16.640      11.669      8.1530      5.9856      4.9006      4.5117      4.4057      4.4271    
  4.5911      5.1647      6.5728      9.1684      13.167      18.620      25.403      33.211      41.533      49.659    
  56.729      61.869      63.856      64.367      61.869      56.729      49.659      41.533      33.211      25.403    
  18.620      13.167      9.1684      6.5728      5.1647      4.5911      4.4271      4.4057      4.5117      4.9006    
  5.9856      8.1530      11.669      16.640      23.003      30.513      38.732      47.013      54.536      60.413    
  60.413      61.869      60.413      56.262      50.003      42.446      34.438      26.721      19.856      14.201    
  9.9322      7.0507      5.3926      4.6478      4.4129      4.3502      4.4129      4.6478      5.3926      7.0507    
  9.9322      14.201      19.856      26.721      34.438      42.446      50.003      56.262      54.536      56.729    
  56.262      53.204      47.997      41.339      34.018      26.766      20.164      14.608      10.313      7.3264    
  5.5324      4.6680      4.3654      4.2663      4.2878      4.4316      4.8793      6.0208      8.1973      11.626    
  16.371      22.325      29.213      36.570      43.756      50.003      47.013      49.659      50.003      47.997    
  43.936      38.380      32.021      25.539      19.504      14.325      10.244      7.3424      5.5455      4.6368    
  4.2909      4.1623      4.1451      4.2439      4.4908      5.1819      6.6700      9.2171      12.948      17.829    
  23.665      30.089      36.570      42.446      38.732      41.533      42.446      41.339      38.380      33.990    
  28.740      23.229      17.984      13.405      9.7399      7.0922      5.4199      4.5478      4.1949      4.0469    
  3.9976      4.0583      4.2186      4.5873      5.4854      7.2021      9.9172      13.669      18.343      23.665    
  29.213      34.438      30.513      33.211      34.438      34.018      32.021      28.740      24.622      20.167    
  15.837      11.997      8.8888      6.6208      5.1741      4.4080      4.0835      3.9282      3.8561      3.8823    
  4.0043      4.2152      4.6870      5.7088      7.5007      10.166      13.669      17.829      22.325      26.721    
  23.003      25.403      26.721      26.766      25.539      23.229      20.167      16.749      13.359      10.315    
  7.8303      6.0118      4.8517      4.2361      3.9639      3.8116      3.7279      3.7272      3.8126      3.9754    
  4.2235      4.7497      5.7907      7.5007      9.9172      12.948      16.371      19.856      16.640      18.620    
  19.856      20.164      19.504      17.984      15.837      13.359      10.855      8.5820      6.7216      5.3648    
  4.5078      4.0566      3.8427      3.7011      3.6162      3.5988      3.6532      3.7777      3.9634      4.2284    
  4.7497      5.7088      7.2021      9.2171      11.626      14.201      11.669      13.167      14.201      14.608    
  14.325      13.405      11.997      10.315      8.5820      6.9979      5.7042      4.7716      4.1937      3.8906    
  3.7235      3.5989      3.5216      3.4980      3.5306      3.6209      3.7675      3.9634      4.2235      4.6870    
  5.4854      6.6700      8.1973      9.9322      8.1530      9.1684      9.9322      10.313      10.244      9.7399    
  8.8888      7.8303      6.7216      5.7042      4.8801      4.2970      3.9428      3.7476      3.6105      3.5072    
  3.4440      3.4228      3.4444      3.5098      3.6209      3.7777      3.9754      4.2152      4.5873      5.1819    
  6.0208      7.0507      5.9856      6.5728      7.0507      7.3264      7.3424      7.0922      6.6208      6.0118    
  5.3648      4.7716      4.2970      3.9666      3.7612      3.6210      3.5087      3.4288      3.3834      3.3716    
  3.3920      3.4444      3.5306      3.6532      3.8126      4.0043      4.2186      4.4908      4.8793      5.3926    
  4.9006      5.1647      5.3926      5.5324      5.5455      5.4199      5.1741      4.8517      4.5078      4.1937    
  3.9428      3.7612      3.6243      3.5101      3.4232      3.3670      3.3414      3.3439      3.3716      3.4228    
  3.4980      3.5988      3.7272      3.8823      4.0583      4.2439      4.4316      4.6478      4.5117      4.5911    
  4.6478      4.6680      4.6368      4.5478      4.4080      4.2361      4.0566      3.8906      3.7476      3.6210    
  3.5101      3.4212      3.3593      3.3262      3.3212      3.3414      3.3834      3.4440      3.5216      3.6162    
  3.7279      3.8561      3.9976      4.1451      4.2878      4.4129      4.4057      4.4271      4.4129      4.3654    
  4.2909      4.1949      4.0835      3.9639      3.8427      3.7235      3.6105      3.5087      3.4232      3.3593    
  3.3208      3.3099      3.3262      3.3670      3.4288      3.5072      3.5989      3.7011      3.8116      3.9282    
  4.0469      4.1623      4.2663      4.3502      4.4271      4.4057      4.3502      4.2663      4.1623      4.0469    
  3.9282      3.8116      3.7011      3.5989      3.5072      3.4288      3.3670      3.3262      3.3099      3.3208    
  3.3593      3.4232      3.5087      3.6105      3.7235      3.8427      3.9639      4.0835      4.1949      4.2909    
  4.3654      4.4129      4.5911      4.5117      4.4129      4.2878      4.1451      3.9976      3.8561      3.7279    
  3.6162      3.5216      3.4440      3.3834      3.3414      3.3212      3.3262      3.3593      3.4212      3.5101    
  3.6210      3.7476      3.8906      4.0566      4.2361      4.4080      4.5478      4.6368      4.6680      4.6478    
  5.1647      4.9006      4.6478      4.4316      4.2439      4.0583      3.8823      3.7272      3.5988      3.4980    
  3.4228      3.3716      3.3439      3.3414      3.3670      3.4232      3.5101      3.6243      3.7612      3.9428    
  4.1937      4.5078      4.8517      5.1741      5.4199      5.5455      5.5324      5.3926      6.5728      5.9856    
  5.3926      4.8793      4.4908      4.2186      4.0043      3.8126      3.6532      3.5306      3.4444      3.3920    
  3.3716      3.3834      3.4288      3.5087      3.6210      3.7612      3.9666      4.2970      4.7716      5.3648    
  6.0118      6.6208      7.0922      7.3424      7.3264      7.0507      9.1684      8.1530      7.0507      6.0208    
  5.1819      4.5873      4.2152      3.9754      3.7777      3.6209      3.5098      3.4444      3.4228      3.4440    
  3.5072      3.6105      3.7476      3.9428      4.2970      4.8801      5.7042      6.7216      7.8303      8.8888    
  9.7399      10.244      10.313      9.9322      13.167      11.669      9.9322      8.1973      6.6700      5.4854    
  4.6870      4.2235      3.9634      3.7675      3.6209      3.5306      3.4980      3.5216      3.5989      3.7235    
  3.8906      4.1937      4.7716      5.7042      6.9979      8.5820      10.315      11.997      13.405      14.325    
  14.608      14.201      18.620      16.640      14.201      11.626      9.2171      7.2021      5.7088      4.7497    
  4.2284      3.9634      3.7777      3.6532      3.5988      3.6162      3.7011      3.8427      4.0566      4.5078    
  5.3648      6.7216      8.5820      10.855      13.359      15.837      17.984      19.504      20.164      19.856    
  25.403      23.003      19.856      16.371      12.948      9.9172      7.5007      5.7907      4.7497      4.2235    
  3.9754      3.8126      3.7272      3.7279      3.8116      3.9639      4.2361      4.8517      6.0118      7.8303    
  10.315      13.359      16.749      20.167      23.229      25.539      26.766      26.721      33.211      30.513    
  26.721      22.325      17.829      13.669      10.166      7.5007      5.7088      4.6870      4.2152      4.0043    
  3.8823      3.8561      3.9282      4.0835      4.4080      5.1741      6.6208      8.8888      11.997      15.837    
  20.167      24.622      28.740      32.021      34.018      34.438      41.533      38.732      34.438      29.213    
  23.665      18.343      13.669      9.9172      7.2021      5.4854      4.5873      4.2186      4.0583      3.9976    
  4.0469      4.1949      4.5478      5.4199      7.0922      9.7399      13.405      17.984      23.229      28.740    
  33.990      38.380      41.339      42.446      49.659      47.013      42.446      36.570      30.089      23.665    
  17.829      12.948      9.2171      6.6700      5.1819      4.4908      4.2439      4.1451      4.1623      4.2909    
  4.6368      5.5455      7.3424      10.244      14.325      19.504      25.539      32.021      38.380      43.936    
  47.997      50.003      56.729      54.536      50.003      43.756      36.570      29.213      22.325      16.371    
  11.626      8.1973      6.0208      4.8793      4.4316      4.2878      4.2663      4.3654      4.6680      5.5324    
  7.3264      10.313      14.608      20.164      26.766      34.018      41.339      47.997      53.204      56.262    
  61.869      60.413      56.262      50.003      42.446      34.438      26.721      19.856      14.201      9.9322    
  7.0507      5.3926      4.6478      4.4129      4.3502      4.4129      4.6478      5.3926      7.0507      9.9322    
  14.201      19.856      26.721      34.438      42.446      50.003      56.262      60.413      59.951      60.413    
  58.049      53.204      46.549      38.907      31.089      23.767      17.423      12.346      8.6497      6.2766    
  5.0106      4.5057      4.3545      4.3341      4.4374      4.7811      5.7531      7.7313      10.981      15.614    
  21.574      28.628      36.357      44.144      51.214      56.729      60.413      61.869      60.413      56.262    
  50.003      42.446      34.438      26.721      19.856      14.201      9.9322      7.0507      5.3926      4.6478    
  4.4129      4.3502      4.4129      4.6478      5.3926      7.0507      9.9322      14.201      19.856      26.721    
  34.438      42.446      50.003      56.262      58.049      60.413      59.951      56.729      51.214      44.144    
  36.357      28.628      21.573      15.614      10.981      7.7313      5.7531      4.7811      4.4374      4.3341    
  4.3545      4.5057      5.0106      6.2766      8.6497      12.346      17.423      23.767      31.089      38.907    
  46.549      53.204      53.204      56.262      56.729      54.536      50.003      43.756      36.570      29.213    
  22.325      16.371      11.626      8.1973      6.0208      4.8793      4.4316      4.2878      4.2663      4.3654    
  4.6680      5.5324      7.3264      10.313      14.608      20.164      26.766      34.018      41.339      47.997    
  46.549      50.003      51.214      50.003      46.549      41.339      35.049      28.393      22.002      16.355    
  11.761      8.3609      6.1358      4.9135      4.3958      4.2161      4.1568      4.2161      4.3958      4.9135    
  6.1358      8.3609      11.761      16.355      22.002      28.393      35.049      41.339      38.907      42.446    
  44.144      43.756      41.339      37.244      32.021      26.297      20.658      15.574      11.363      8.1900    
  6.0678      4.8653      4.3279      4.1256      4.0359      4.0568      4.1836      4.4646      5.1974      6.6975    
  9.1843      12.742      17.304      22.648      28.393      34.018      31.089      34.438      36.357      36.570    
  35.049      32.021      27.907      23.229      18.501      14.157      10.504      7.7156      5.8251      4.7344    
  4.2301      4.0231      3.9131      3.9010      3.9905      4.1686      4.5549      5.4463      7.0936      9.6389    
  13.089      17.304      22.002      26.766      23.767      26.721      28.628      29.213      28.393      26.297    
  23.229      19.599      15.837      12.319      9.3259      7.0221      5.4516      4.5402      4.1102      3.9146    
  3.7953      3.7590      3.8134      3.9524      4.1702      4.6307      5.5909      7.2360      9.6389      12.742    
  16.355      20.164      17.423      19.856      21.573      22.325      22.002      20.658      18.501      15.837    
  13.005      10.315      8.0063      6.2250      5.0139      4.3149      3.9803      3.8050      3.6866      3.6369    
  3.6631      3.7650      3.9340      4.1762      4.6601      5.5909      7.0936      9.1843      11.761      14.608    
  12.346      14.201      15.614      16.371      16.355      15.574      14.157      12.319      10.315      8.3850    
  6.7216      5.4426      4.5829      4.0938      3.8515      3.6978      3.5891      3.5361      3.5438      3.6136    
  3.7444      3.9288      4.1762      4.6307      5.4463      6.6975      8.3609      10.313      8.6497      9.9322    
  10.981      11.626      11.761      11.363      10.504      9.3259      8.0063      6.7216      5.6142      4.7716    
  4.2160      3.9030      3.7284      3.5963      3.5037      3.4560      3.4552      3.5024      3.5988      3.7444    
  3.9340      4.1702      4.5549      5.1974      6.1358      7.3264      6.2766      7.0507      7.7313      8.1973    
  8.3609      8.1900      7.7156      7.0221      6.2250      5.4426      4.7716      4.2690      3.9428      3.7500    
  3.6122      3.5041      3.4313      3.3952      3.3949      3.4302      3.5023      3.6136      3.7650      3.9524    
  4.1686      4.4646      4.9135      5.5324      5.0106      5.3926      5.7531      6.0208      6.1358      6.0678    
  5.8251      5.4516      5.0139      4.5829      4.2160      3.9428      3.7578      3.6210      3.5084      3.4254    
  3.3741      3.3535      3.3611      3.3949      3.4552      3.5438      3.6631      3.8134      3.9905      4.1836    
  4.3958      4.6680      4.5057      4.6478      4.7811      4.8793      4.9135      4.8653      4.7344      4.5402    
  4.3149      4.0938      3.9030      3.7500      3.6210      3.5100      3.4232      3.3646      3.3351      3.3324    
  3.3535      3.3952      3.4560      3.5361      3.6369      3.7590      3.9010      4.0568      4.2161      4.3654    
  4.3545      4.4129      4.4374      4.4316      4.3958      4.3279      4.2301      4.1102      3.9803      3.8515    
  3.7284      3.6122      3.5084      3.4232      3.3614      3.3262      3.3180      3.3351      3.3741      3.4313    
  3.5037      3.5891      3.6866      3.7953      3.9131      4.0359      4.1568      4.2663      4.3341      4.3502    
  4.3341      4.2878      4.2161      4.1256      4.0231      3.9146      3.8050      3.6978      3.5963      3.5041    
  3.4254      3.3646      3.3262      3.3130      3.3262      3.3646      3.4254      3.5041      3.5963      3.6978    
  3.8050      3.9146      4.0231      4.1256      4.2161      4.2878      4.4374      4.4129      4.3545      4.2663    
  4.1568      4.0359      3.9131      3.7953      3.6866      3.5891      3.5037      3.4313      3.3741      3.3351    
  3.3180      3.3262      3.3614      3.4232      3.5085      3.6122      3.7284      3.8515      3.9803      4.1102    
  4.2301      4.3279      4.3958      4.4316      4.7811      4.6478      4.5057      4.3654      4.2161      4.0568    
  3.9010      3.7590      3.6369      3.5361      3.4560      3.3952      3.3535      3.3324      3.3351      3.3646    
  3.4232      3.5100      3.6210      3.7500      3.9030      4.0938      4.3149      4.5402      4.7344      4.8653    
  4.9135      4.8793      5.7531      5.3926      5.0106      4.6680      4.3958      4.1836      3.9905      3.8134    
  3.6631      3.5438      3.4552      3.3949      3.3611      3.3535      3.3741      3.4254      3.5085      3.6210    
  3.7578      3.9428      4.2160      4.5829      5.0139      5.4516      5.8251      6.0678      6.1358      6.0208    
  7.7313      7.0507      6.2766      5.5324      4.9135      4.4646      4.1686      3.9524      3.7650      3.6136    
  3.5024      3.4302      3.3949      3.3952      3.4313      3.5041      3.6122      3.7500      3.9428      4.2690    
  4.7716      5.4426      6.2250      7.0221      7.7156      8.1900      8.3609      8.1973      10.981      9.9322    
  8.6497      7.3264      6.1358      5.1974      4.5549      4.1702      3.9340      3.7444      3.5988      3.5023    
  3.4552      3.4560      3.5037      3.5963      3.7284      3.9030      4.2160      4.7716      5.6142      6.7216    
  8.0063      9.3259      10.504      11.363      11.761      11.626      15.614      14.201      12.346      10.313    
  8.3609      6.6975      5.4463      4.6307      4.1762      3.9288      3.7444      3.6136      3.5438      3.5361    
  3.5891      3.6978      3.8515      4.0938      4.5829      5.4426      6.7216      8.3850      10.315      12.319    
  14.157      15.574      16.355      16.371      21.574      19.856      17.423      14.608      11.761      9.1843    
  7.0936      5.5909      4.6601      4.1762      3.9340      3.7650      3.6631      3.6369      3.6866      3.8050    
  3.9803      4.3149      5.0139      6.2250      8.0063      10.315      13.005      15.837      18.501      20.658    
  22.002      22.325      28.628      26.721      23.767      20.164      16.355      12.742      9.6389      7.2360    
  5.5909      4.6307      4.1702      3.9524      3.8134      3.7590      3.7953      3.9146      4.1102      4.5402    
  5.4516      7.0221      9.3259      12.319      15.837      19.599      23.229      26.297      28.393      29.213    
  36.357      34.438      31.089      26.766      22.002      17.304      13.089      9.6389      7.0936      5.4463    
  4.5549      4.1686      3.9905      3.9010      3.9131      4.0231      4.2301      4.7344      5.8251      7.7156    
  10.504      14.157      18.501      23.229      27.907      32.021      35.049      36.570      44.144      42.446    
  38.907      34.018      28.393      22.648      17.304      12.742      9.1843      6.6975      5.1974      4.4646    
  4.1836      4.0568      4.0359      4.1256      4.3279      4.8653      6.0678      8.1900      11.363      15.574    
  20.658      26.297      32.021      37.244      41.339      43.756      51.214      50.003      46.549      41.339    
  35.049      28.393      22.002      16.355      11.761      8.3609      6.1358      4.9135      4.3958      4.2161    
  4.1568      4.2161      4.3958      4.9135      6.1358      8.3609      11.761      16.355      22.002      28.393    
  35.049      41.339      46.549      50.003      56.729      56.262      53.204      47.997      41.339      34.018    
  26.766      20.164      14.608      10.313      7.3264      5.5324      4.6680      4.3654      4.2663      4.2878    
  4.4316      4.8793      6.0208      8.1973      11.626      16.371      22.325      29.213      36.570      43.756    
  50.003      54.536      53.294      54.536      53.204      49.496      43.936      37.244      30.172      23.384    
  17.376      12.470      8.8154      6.3976      5.0483      4.4669      4.2755      4.2171      4.2799      4.4762    
  5.0648      6.4270      8.8669      12.555      17.502      23.553      30.378      37.465      44.144      49.659    
  54.536      56.729      56.262      53.204      47.997      41.339      34.018      26.766      20.164      14.608    
  10.313      7.3264      5.5324      4.6680      4.3654      4.2663      4.2878      4.4316      4.8793      6.0208    
  8.1973      11.626      16.371      22.325      29.213      36.570      43.756      50.003      53.204      56.262    
  56.729      54.536      50.003      43.756      36.570      29.213      22.325      16.371      11.626      8.1973    
  6.0208      4.8793      4.4316      4.2878      4.2663      4.3654      4.6680      5.5324      7.3264      10.313    
  14.608      20.164      26.766      34.018      41.339      47.997      49.496      53.204      54.536      53.294    
  49.658      44.144      37.465      30.378      23.553      17.502      12.555      8.8669      6.4270      5.0648    