   1   1   1   0
  0.7812500E+01  0.2165064E-09  0.2165064E-09  0.2165064E-09  0.5000000E-15
  1.000000000000000E-004
  CAR 
 Fe BCC                                  
     62.48465626     -2.69112935  301     10.66929532      1.00000000
     -2.691  0.0000E+00  0.0000E+00  0.0000E+00  0.0000E+00
     -2.474  0.0000E+00  0.0000E+00  0.0000E+00  0.0000E+00
     -2.257  0.0000E+00  0.0000E+00  0.0000E+00  0.0000E+00
     -2.039  0.0000E+00  0.0000E+00  0.0000E+00  0.0000E+00
     -1.822  0.0000E+00  0.0000E+00  0.0000E+00  0.0000E+00
     -1.605  0.0000E+00  0.0000E+00  0.0000E+00  0.0000E+00
     -1.388  0.0000E+00  0.0000E+00  0.0000E+00  0.0000E+00
     -1.170  0.0000E+00  0.0000E+00  0.0000E+00  0.0000E+00
     -0.953  0.0000E+00  0.0000E+00  0.0000E+00  0.0000E+00
     -0.736  0.0000E+00  0.0000E+00  0.0000E+00  0.0000E+00
     -0.519  0.0000E+00  0.0000E+00  0.0000E+00  0.0000E+00
     -0.301  0.0000E+00  0.0000E+00  0.0000E+00  0.0000E+00
     -0.084  0.0000E+00  0.0000E+00  0.0000E+00  0.0000E+00
      0.133  0.0000E+00  0.0000E+00  0.0000E+00  0.0000E+00
      0.350  0.9162E-02  0.0000E+00  0.1301E-02  0.0000E+00
      0.568  0.1391E-01  0.8993E-02  0.3818E-02  0.1292E-02
      0.785  0.1804E-01  0.1356E-01  0.7299E-02  0.3753E-02
      1.002  0.2155E-01  0.1750E-01  0.1161E-01  0.7139E-02
      1.219  0.2681E-01  0.2082E-01  0.1677E-01  0.1131E-01
      1.437  0.3281E-01  0.2555E-01  0.2327E-01  0.1626E-01
      1.654  0.3778E-01  0.3106E-01  0.3095E-01  0.2243E-01
      1.871  0.4053E-01  0.3551E-01  0.3953E-01  0.2968E-01
      2.088  0.4685E-01  0.3702E-01  0.4901E-01  0.3774E-01
      2.306  0.5402E-01  0.4177E-01  0.5995E-01  0.4629E-01
      2.523  0.6205E-01  0.4703E-01  0.7254E-01  0.5593E-01
      2.740  0.7093E-01  0.5281E-01  0.8697E-01  0.6677E-01
      2.957  0.8067E-01  0.5911E-01  0.1034E+00  0.7892E-01
      3.175  0.1486E+00  0.6592E-01  0.1268E+00  0.9249E-01
      3.392  0.3976E+00  0.7463E-01  0.1763E+00  0.1076E+00
      3.609  0.4768E+00  0.9424E-01  0.2739E+00  0.1259E+00
      3.826  0.5538E+00  0.1157E+00  0.3853E+00  0.1487E+00
      4.044  0.7169E+00  0.1605E+00  0.5205E+00  0.1776E+00
      4.261  0.7905E+00  0.3048E+00  0.6883E+00  0.2247E+00
      4.478  0.6313E+00  0.3674E+00  0.8463E+00  0.3003E+00
      4.695  0.4481E+00  0.4203E+00  0.9672E+00  0.3859E+00
      4.913  0.3171E+00  0.4801E+00  0.1049E+01  0.4828E+00
      5.130  0.2435E+00  0.7340E+00  0.1109E+01  0.6185E+00
      5.347  0.2799E+00  0.6563E+00  0.1165E+01  0.7721E+00
      5.564  0.1054E+01  0.5315E+00  0.1348E+01  0.9014E+00
      5.782  0.9257E+00  0.3369E+00  0.1574E+01  0.9955E+00
      5.999  0.6440E+00  0.2218E+00  0.1749E+01  0.1057E+01
      6.216  0.3232E+00  0.1707E+00  0.1840E+01  0.1096E+01
      6.433  0.3866E+00  0.5856E+00  0.1915E+01  0.1154E+01
      6.651  0.5190E+00  0.9642E+00  0.2015E+01  0.1346E+01
      6.868  0.7543E+00  0.8367E+00  0.2150E+01  0.1551E+01
      7.085  0.1156E+01  0.6100E+00  0.2351E+01  0.1708E+01
      7.302  0.8743E+00  0.4812E+00  0.2590E+01  0.1826E+01
      7.520  0.3384E+00  0.4816E+00  0.2708E+01  0.1929E+01
      7.737  0.2764E+00  0.5324E+00  0.2773E+01  0.2036E+01
      7.954  0.2460E+00  0.7217E+00  0.2829E+01  0.2173E+01
      8.172  0.2358E+00  0.1048E+01  0.2881E+01  0.2370E+01
      8.389  0.2406E+00  0.9210E+00  0.2933E+01  0.2591E+01
      8.606  0.4085E+00  0.3414E+00  0.3000E+01  0.2726E+01
      8.823  0.4143E+00  0.2345E+00  0.3081E+01  0.2785E+01
      9.041  0.6266E+00  0.2079E+00  0.3192E+01  0.2833E+01
      9.258  0.8637E+00  0.1905E+00  0.3356E+01  0.2876E+01
      9.475  0.1103E+01  0.1848E+00  0.3576E+01  0.2916E+01
      9.692  0.1248E+01  0.1983E+00  0.3830E+01  0.2957E+01
      9.910  0.9192E+00  0.2482E+00  0.4072E+01  0.3007E+01
     10.127  0.1421E+01  0.2651E+00  0.4311E+01  0.3062E+01
     10.344  0.7250E+00  0.3273E+00  0.4529E+01  0.3125E+01
     10.561  0.5926E+00  0.4806E+00  0.4671E+01  0.3214E+01
     10.779  0.5042E+00  0.6332E+00  0.4787E+01  0.3333E+01
     10.996  0.4816E+00  0.8364E+00  0.4894E+01  0.3491E+01
     11.213  0.4990E+00  0.9234E+00  0.5004E+01  0.3685E+01
     11.430  0.6950E+00  0.9262E+00  0.5136E+01  0.3894E+01
     11.648  0.2075E+00  0.8034E+00  0.5217E+01  0.4076E+01
     11.865  0.1020E+00  0.8091E+00  0.5250E+01  0.4251E+01
     12.082  0.1147E+00  0.1272E+01  0.5274E+01  0.4453E+01
     12.299  0.1176E+00  0.7871E+00  0.5299E+01  0.4722E+01
     12.517  0.1202E+00  0.6858E+00  0.5325E+01  0.4876E+01
     12.734  0.1189E+00  0.7030E+00  0.5351E+01  0.5019E+01
     12.951  0.1156E+00  0.3910E+00  0.5377E+01  0.5166E+01
     13.168  0.1113E+00  0.1252E+00  0.5401E+01  0.5227E+01
     13.386  0.1095E+00  0.1451E+00  0.5425E+01  0.5256E+01
     13.603  0.1094E+00  0.1480E+00  0.5449E+01  0.5287E+01
     13.820  0.1095E+00  0.1442E+00  0.5473E+01  0.5319E+01
     14.037  0.1098E+00  0.1386E+00  0.5497E+01  0.5350E+01
     14.255  0.1103E+00  0.1321E+00  0.5521E+01  0.5379E+01
     14.472  0.1104E+00  0.1239E+00  0.5545E+01  0.5407E+01
     14.689  0.1099E+00  0.1224E+00  0.5569E+01  0.5434E+01
     14.906  0.1086E+00  0.1217E+00  0.5592E+01  0.5460E+01
     15.124  0.1066E+00  0.1215E+00  0.5616E+01  0.5487E+01
     15.341  0.1123E+00  0.1218E+00  0.5640E+01  0.5513E+01
     15.558  0.1028E+00  0.1215E+00  0.5663E+01  0.5540E+01
     15.775  0.1010E+00  0.1205E+00  0.5685E+01  0.5566E+01
     15.993  0.1032E+00  0.1184E+00  0.5707E+01  0.5592E+01
     16.210  0.1003E+00  0.1153E+00  0.5730E+01  0.5617E+01
     16.427  0.9482E-01  0.1187E+00  0.5751E+01  0.5643E+01
     16.644  0.9156E-01  0.1078E+00  0.5772E+01  0.5668E+01
     16.862  0.8830E-01  0.1082E+00  0.5791E+01  0.5691E+01
     17.079  0.8503E-01  0.1106E+00  0.5810E+01  0.5715E+01
     17.296  0.8176E-01  0.1021E+00  0.5828E+01  0.5739E+01
     17.513  0.7848E-01  0.9855E-01  0.5845E+01  0.5761E+01
     17.731  0.7388E-01  0.9496E-01  0.5862E+01  0.5782E+01
     17.948  0.6891E-01  0.9137E-01  0.5878E+01  0.5802E+01
     18.165  0.6397E-01  0.8778E-01  0.5892E+01  0.5821E+01
     18.382  0.6724E-01  0.8418E-01  0.5906E+01  0.5840E+01
     18.600  0.6264E-01  0.8045E-01  0.5920E+01  0.5858E+01
     18.817  0.5473E-01  0.7493E-01  0.5933E+01  0.5875E+01
     19.034  0.3820E-01  0.6944E-01  0.5942E+01  0.5890E+01
     19.251  0.3515E-01  0.7170E-01  0.5950E+01  0.5906E+01
     19.469  0.3228E-01  0.6545E-01  0.5958E+01  0.5921E+01
     19.686  0.2710E-01  0.5667E-01  0.5966E+01  0.5934E+01
     19.903  0.2142E-01  0.4049E-01  0.5971E+01  0.5944E+01
     20.120  0.1723E-01  0.3708E-01  0.5975E+01  0.5953E+01
     20.338  0.1452E-01  0.3386E-01  0.5978E+01  0.5960E+01
     20.555  0.1329E-01  0.2708E-01  0.5981E+01  0.5968E+01
     20.772  0.1330E-01  0.2146E-01  0.5984E+01  0.5974E+01
     20.989  0.1448E-01  0.1734E-01  0.5987E+01  0.5978E+01
     21.207  0.1682E-01  0.1472E-01  0.5991E+01  0.5981E+01
     21.424  0.2033E-01  0.1356E-01  0.5995E+01  0.5984E+01
     21.641  0.2819E-01  0.1361E-01  0.6000E+01  0.5987E+01
     21.858  0.3292E-01  0.1483E-01  0.6007E+01  0.5990E+01
     22.076  0.3804E-01  0.1722E-01  0.6015E+01  0.5994E+01
     22.293  0.7736E-01  0.2229E-01  0.6026E+01  0.5999E+01
     22.510  0.1546E+00  0.2556E-01  0.6054E+01  0.6004E+01
     22.727  0.2017E+00  0.2960E-01  0.6093E+01  0.6010E+01
     22.945  0.2459E+00  0.3441E-01  0.6141E+01  0.6017E+01
     23.162  0.2599E+00  0.8168E-01  0.6199E+01  0.6028E+01
     23.379  0.1822E+00  0.1562E+00  0.6247E+01  0.6055E+01
     23.596  0.1703E+00  0.2090E+00  0.6285E+01  0.6095E+01
     23.814  0.1649E+00  0.2586E+00  0.6322E+01  0.6146E+01
     24.031  0.1590E+00  0.2885E+00  0.6357E+01  0.6207E+01
     24.248  0.1526E+00  0.1946E+00  0.6391E+01  0.6257E+01
     24.465  0.1591E+00  0.1812E+00  0.6425E+01  0.6298E+01
     24.683  0.1286E+00  0.1743E+00  0.6464E+01  0.6336E+01
     24.900  0.1277E+00  0.1893E+00  0.6492E+01  0.6376E+01
     25.117  0.1323E+00  0.1820E+00  0.6520E+01  0.6417E+01
     25.334  0.1426E+00  0.1380E+00  0.6550E+01  0.6450E+01
     25.552  0.1626E+00  0.1363E+00  0.6584E+01  0.6480E+01
     25.769  0.1643E+00  0.1411E+00  0.6620E+01  0.6510E+01
     25.986  0.1684E+00  0.1523E+00  0.6656E+01  0.6542E+01
     26.203  0.1733E+00  0.1721E+00  0.6693E+01  0.6579E+01
     26.421  0.1767E+00  0.1740E+00  0.6731E+01  0.6617E+01
     26.638  0.1795E+00  0.1775E+00  0.6770E+01  0.6655E+01
     26.855  0.1818E+00  0.1826E+00  0.6809E+01  0.6694E+01
     27.072  0.1828E+00  0.1859E+00  0.6849E+01  0.6734E+01
     27.290  0.1826E+00  0.1883E+00  0.6889E+01  0.6774E+01
     27.507  0.1811E+00  0.1900E+00  0.6928E+01  0.6816E+01
     27.724  0.1639E+00  0.1905E+00  0.6967E+01  0.6857E+01
     27.941  0.1616E+00  0.1893E+00  0.7003E+01  0.6898E+01
     28.159  0.1599E+00  0.1791E+00  0.7038E+01  0.6939E+01
     28.376  0.1640E+00  0.1689E+00  0.7074E+01  0.6977E+01
     28.593  0.1639E+00  0.1667E+00  0.7109E+01  0.7013E+01
     28.811  0.1639E+00  0.1651E+00  0.7145E+01  0.7049E+01
     29.028  0.1639E+00  0.1698E+00  0.7180E+01  0.7087E+01
     29.245  0.1703E+00  0.1700E+00  0.7216E+01  0.7124E+01
     29.462  0.1682E+00  0.1702E+00  0.7253E+01  0.7161E+01
     29.680  0.1651E+00  0.1707E+00  0.7289E+01  0.7198E+01
     29.897  0.1631E+00  0.1798E+00  0.7325E+01  0.7235E+01
     30.114  0.1621E+00  0.1748E+00  0.7360E+01  0.7274E+01
     30.331  0.1625E+00  0.1717E+00  0.7395E+01  0.7311E+01
     30.549  0.1628E+00  0.1698E+00  0.7431E+01  0.7349E+01
     30.766  0.1631E+00  0.1707E+00  0.7466E+01  0.7386E+01
     30.983  0.1638E+00  0.1716E+00  0.7502E+01  0.7423E+01
     31.200  0.1723E+00  0.1725E+00  0.7539E+01  0.7460E+01
     31.418  0.1767E+00  0.1741E+00  0.7577E+01  0.7498E+01
     31.635  0.1816E+00  0.1742E+00  0.7616E+01  0.7536E+01
     31.852  0.1879E+00  0.1742E+00  0.7656E+01  0.7574E+01
     32.069  0.1971E+00  0.1806E+00  0.7698E+01  0.7613E+01
     32.287  0.1886E+00  0.1811E+00  0.7739E+01  0.7652E+01
     32.504  0.1836E+00  0.1817E+00  0.7780E+01  0.7691E+01
     32.721  0.1857E+00  0.1791E+00  0.7820E+01  0.7730E+01
     32.938  0.1902E+00  0.1803E+00  0.7861E+01  0.7769E+01
     33.156  0.1968E+00  0.1885E+00  0.7903E+01  0.7810E+01
     33.373  0.1980E+00  0.1939E+00  0.7946E+01  0.7851E+01
     33.590  0.1968E+00  0.2019E+00  0.7989E+01  0.7894E+01
     33.807  0.1943E+00  0.2040E+00  0.8031E+01  0.7939E+01
     34.025  0.1922E+00  0.2028E+00  0.8073E+01  0.7983E+01
     34.242  0.1886E+00  0.1967E+00  0.8115E+01  0.8026E+01
     34.459  0.1926E+00  0.1898E+00  0.8156E+01  0.8069E+01
     34.676  0.1966E+00  0.1940E+00  0.8198E+01  0.8111E+01
     34.894  0.2014E+00  0.1981E+00  0.8241E+01  0.8153E+01
     35.111  0.2074E+00  0.2021E+00  0.8286E+01  0.8197E+01
     35.328  0.2134E+00  0.2067E+00  0.8332E+01  0.8241E+01
     35.545  0.2174E+00  0.2123E+00  0.8379E+01  0.8286E+01
     35.763  0.2245E+00  0.2179E+00  0.8426E+01  0.8333E+01
     35.980  0.2346E+00  0.2211E+00  0.8476E+01  0.8382E+01
     36.197  0.2454E+00  0.2279E+00  0.8528E+01  0.8430E+01
     36.414  0.2578E+00  0.2382E+00  0.8583E+01  0.8481E+01
     36.632  0.2416E+00  0.2499E+00  0.8643E+01  0.8534E+01
     36.849  0.2316E+00  0.2745E+00  0.8694E+01  0.8590E+01
     37.066  0.2212E+00  0.2562E+00  0.8743E+01  0.8651E+01
     37.283  0.2002E+00  0.2385E+00  0.8790E+01  0.8704E+01
     37.501  0.1849E+00  0.2161E+00  0.8832E+01  0.8754E+01
     37.718  0.1635E+00  0.1999E+00  0.8871E+01  0.8800E+01
     37.935  0.1478E+00  0.1801E+00  0.8904E+01  0.8841E+01
     38.152  0.1368E+00  0.1626E+00  0.8935E+01  0.8878E+01
     38.370  0.1314E+00  0.1485E+00  0.8964E+01  0.8912E+01
     38.587  0.1293E+00  0.1381E+00  0.8993E+01  0.8943E+01
     38.804  0.1308E+00  0.1339E+00  0.9021E+01  0.8973E+01
     39.021  0.1361E+00  0.1337E+00  0.9050E+01  0.9002E+01
     39.239  0.1343E+00  0.1373E+00  0.9079E+01  0.9031E+01
     39.456  0.1925E+00  0.2348E+00  0.9127E+01  0.9070E+01
     39.673  0.1691E+00  0.1872E+00  0.9166E+01  0.9113E+01
     39.890  0.1422E+00  0.1630E+00  0.9200E+01  0.9150E+01
     40.108  0.1011E+00  0.1419E+00  0.9226E+01  0.9184E+01
     40.325  0.8140E-01  0.1195E+00  0.9245E+01  0.9212E+01
     40.542  0.8293E-01  0.8449E-01  0.9263E+01  0.9234E+01
     40.759  0.8740E-01  0.8017E-01  0.9281E+01  0.9252E+01
     40.977  0.9195E-01  0.8455E-01  0.9301E+01  0.9269E+01
     41.194  0.9617E-01  0.8900E-01  0.9321E+01  0.9288E+01
     41.411  0.1085E+00  0.9259E-01  0.9343E+01  0.9308E+01
     41.628  0.1860E+00  0.1007E+00  0.9373E+01  0.9329E+01
     41.846  0.2235E+00  0.1540E+00  0.9417E+01  0.9355E+01
     42.063  0.2659E+00  0.2009E+00  0.9470E+01  0.9394E+01
     42.280  0.3902E+00  0.2439E+00  0.9540E+01  0.9443E+01
     42.497  0.2068E+00  0.2987E+00  0.9605E+01  0.9501E+01
     42.715  0.1845E+00  0.3239E+00  0.9647E+01  0.9570E+01
     42.932  0.1648E+00  0.1979E+00  0.9685E+01  0.9627E+01
     43.149  0.1476E+00  0.1796E+00  0.9719E+01  0.9669E+01
     43.366  0.1333E+00  0.1606E+00  0.9749E+01  0.9706E+01
     43.584  0.1209E+00  0.1433E+00  0.9777E+01  0.9739E+01
     43.801  0.1089E+00  0.1271E+00  0.9802E+01  0.9768E+01
     44.018  0.1020E+00  0.1113E+00  0.9824E+01  0.9794E+01
     44.235  0.1013E+00  0.9975E-01  0.9846E+01  0.9817E+01
     44.453  0.1011E+00  0.9619E-01  0.9868E+01  0.9838E+01
     44.670  0.1030E+00  0.9300E-01  0.9890E+01  0.9858E+01
     44.887  0.1391E+00  0.9289E-01  0.9919E+01  0.9879E+01
     45.104  0.1367E+00  0.1119E+00  0.9949E+01  0.9901E+01
     45.322  0.1187E+00  0.1201E+00  0.9977E+01  0.9926E+01
     45.539  0.1121E+00  0.1227E+00  0.1000E+02  0.9952E+01
     45.756  0.1728E+00  0.9561E-01  0.1003E+02  0.9982E+01
     45.973  0.2337E+00  0.1179E+00  0.1008E+02  0.1000E+02
     46.191  0.2539E+00  0.1794E+00  0.1013E+02  0.1004E+02
     46.408  0.2674E+00  0.2285E+00  0.1019E+02  0.1008E+02
     46.625  0.2752E+00  0.2520E+00  0.1025E+02  0.1013E+02
     46.842  0.2764E+00  0.2685E+00  0.1031E+02  0.1019E+02
     47.060  0.2678E+00  0.2738E+00  0.1037E+02  0.1025E+02
     47.277  0.2570E+00  0.2767E+00  0.1042E+02  0.1031E+02
     47.494  0.2442E+00  0.2714E+00  0.1048E+02  0.1037E+02
     47.711  0.2292E+00  0.2611E+00  0.1053E+02  0.1043E+02
     47.929  0.2318E+00  0.2485E+00  0.1058E+02  0.1048E+02
     48.146  0.2275E+00  0.2336E+00  0.1063E+02  0.1054E+02
     48.363  0.2276E+00  0.2276E+00  0.1068E+02  0.1058E+02
     48.580  0.2263E+00  0.2279E+00  0.1073E+02  0.1063E+02
     48.798  0.2234E+00  0.2315E+00  0.1078E+02  0.1068E+02
     49.015  0.2194E+00  0.2310E+00  0.1082E+02  0.1073E+02
     49.232  0.2131E+00  0.2271E+00  0.1087E+02  0.1078E+02
     49.449  0.2045E+00  0.2221E+00  0.1092E+02  0.1083E+02
     49.667  0.2169E+00  0.2150E+00  0.1096E+02  0.1088E+02
     49.884  0.2138E+00  0.2068E+00  0.1101E+02  0.1093E+02
     50.101  0.1972E+00  0.2222E+00  0.1106E+02  0.1097E+02
     50.319  0.1960E+00  0.2104E+00  0.1110E+02  0.1102E+02
     50.536  0.1957E+00  0.2069E+00  0.1114E+02  0.1107E+02
     50.753  0.1848E+00  0.1978E+00  0.1118E+02  0.1111E+02
     50.970  0.1924E+00  0.1734E+00  0.1122E+02  0.1115E+02
     51.188  0.2120E+00  0.1780E+00  0.1127E+02  0.1119E+02
     51.405  0.2066E+00  0.1800E+00  0.1131E+02  0.1123E+02
     51.622  0.2160E+00  0.1976E+00  0.1136E+02  0.1127E+02
     51.839  0.2192E+00  0.1988E+00  0.1141E+02  0.1131E+02
     52.057  0.2193E+00  0.2043E+00  0.1146E+02  0.1136E+02
     52.274  0.2068E+00  0.2093E+00  0.1150E+02  0.1140E+02
     52.491  0.1899E+00  0.2123E+00  0.1155E+02  0.1145E+02
     52.708  0.1804E+00  0.2095E+00  0.1159E+02  0.1149E+02
     52.926  0.1740E+00  0.1983E+00  0.1162E+02  0.1154E+02
     53.143  0.1663E+00  0.1872E+00  0.1166E+02  0.1158E+02
     53.360  0.1674E+00  0.1764E+00  0.1170E+02  0.1162E+02
     53.577  0.1594E+00  0.1683E+00  0.1173E+02  0.1166E+02
     53.795  0.1493E+00  0.1709E+00  0.1177E+02  0.1169E+02
     54.012  0.1456E+00  0.1614E+00  0.1180E+02  0.1173E+02
     54.229  0.1283E+00  0.1511E+00  0.1183E+02  0.1176E+02
     54.446  0.1119E+00  0.1442E+00  0.1185E+02  0.1180E+02
     54.664  0.8551E-01  0.1258E+00  0.1187E+02  0.1183E+02
     54.881  0.7392E-01  0.1084E+00  0.1189E+02  0.1185E+02
     55.098  0.6612E-01  0.8649E-01  0.1191E+02  0.1187E+02
     55.315  0.5336E-01  0.7711E-01  0.1192E+02  0.1189E+02
     55.533  0.4913E-01  0.6945E-01  0.1193E+02  0.1191E+02
     55.750  0.4509E-01  0.6257E-01  0.1194E+02  0.1192E+02
     55.967  0.3702E-01  0.5177E-01  0.1195E+02  0.1193E+02
     56.184  0.3380E-01  0.4240E-01  0.1196E+02  0.1194E+02
     56.402  0.3075E-01  0.3859E-01  0.1197E+02  0.1195E+02
     56.619  0.2786E-01  0.3502E-01  0.1197E+02  0.1196E+02
     56.836  0.2514E-01  0.3169E-01  0.1198E+02  0.1197E+02
     57.053  0.2258E-01  0.2859E-01  0.1198E+02  0.1198E+02
     57.271  0.2019E-01  0.2574E-01  0.1199E+02  0.1198E+02
     57.488  0.1539E-01  0.1938E-01  0.1199E+02  0.1199E+02
     57.705  0.8749E-02  0.1552E-01  0.1200E+02  0.1199E+02
     57.922  0.5639E-02  0.9650E-02  0.1200E+02  0.1199E+02
     58.140  0.3209E-02  0.7207E-02  0.1200E+02  0.1200E+02
     58.357  0.1460E-02  0.5120E-02  0.1200E+02  0.1200E+02
     58.574  0.3908E-03  0.3389E-02  0.1200E+02  0.1200E+02
     58.791  0.1762E-05  0.2014E-02  0.1200E+02  0.1200E+02
     59.009  0.0000E+00  0.9943E-03  0.1200E+02  0.1200E+02
     59.226  0.0000E+00  0.3309E-03  0.1200E+02  0.1200E+02
     59.443  0.0000E+00  0.2353E-04  0.1200E+02  0.1200E+02
     59.660  0.0000E+00  0.0000E+00  0.1200E+02  0.1200E+02
     59.878  0.0000E+00  0.0000E+00  0.1200E+02  0.1200E+02
     60.095  0.0000E+00  0.0000E+00  0.1200E+02  0.1200E+02
     60.312  0.0000E+00  0.0000E+00  0.1200E+02  0.1200E+02
     60.529  0.0000E+00  0.0000E+00  0.1200E+02  0.1200E+02
     60.747  0.0000E+00  0.0000E+00  0.1200E+02  0.1200E+02
     60.964  0.0000E+00  0.0000E+00  0.1200E+02  0.1200E+02
     61.181  0.0000E+00  0.0000E+00  0.1200E+02  0.1200E+02
     61.398  0.0000E+00  0.0000E+00  0.1200E+02  0.1200E+02
     61.616  0.0000E+00  0.0000E+00  0.1200E+02  0.1200E+02
     61.833  0.0000E+00  0.0000E+00  0.1200E+02  0.1200E+02
     62.050  0.0000E+00  0.0000E+00  0.1200E+02  0.1200E+02
     62.267  0.0000E+00  0.0000E+00  0.1200E+02  0.1200E+02
     62.485  0.0000E+00  0.0000E+00  0.1200E+02  0.1200E+02
     62.48465626     -2.69112935  301     10.66929532      1.00000000
     -2.691  0.0000E+00  0.0000E+00  0.0000E+00  0.0000E+00  0.0000E+00  0.0000E+00  0.0000E+00  0.0000E+00  0.0000E+00  0.0000E+00  0.0000E+00  0.0000E+00  0.0000E+00  0.0000E+00  0.0000E+00  0.0000E+00  0.0000E+00  0.0000E+00
     -2.474  0.0000E+00  0.0000E+00  0.0000E+00  0.0000E+00  0.0000E+00  0.0000E+00  0.0000E+00  0.0000E+00  0.0000E+00  0.0000E+00  0.0000E+00  0.0000E+00  0.0000E+00  0.0000E+00  0.0000E+00  0.0000E+00  0.0000E+00  0.0000E+00
     -2.257  0.0000E+00  0.0000E+00  0.0000E+00  0.0000E+00  0.0000E+00  0.0000E+00  0.0000E+00  0.0000E+00  0.0000E+00  0.0000E+00  0.0000E+00  0.0000E+00  0.0000E+00  0.0000E+00  0.0000E+00  0.0000E+00  0.0000E+00  0.0000E+00
     -2.039  0.0000E+00  0.0000E+00  0.0000E+00  0.0000E+00  0.0000E+00  0.0000E+00  0.0000E+00  0.0000E+00  0.0000E+00  0.0000E+00  0.0000E+00  0.0000E+00  0.0000E+00  0.0000E+00  0.0000E+00  0.0000E+00  0.0000E+00  0.0000E+00
     -1.822  0.0000E+00  0.0000E+00  0.0000E+00  0.0000E+00  0.0000E+00  0.0000E+00  0.0000E+00  0.0000E+00  0.0000E+00  0.0000E+00  0.0000E+00  0.0000E+00  0.0000E+00  0.0000E+00  0.0000E+00  0.0000E+00  0.0000E+00  0.0000E+00
     -1.605  0.0000E+00  0.0000E+00  0.0000E+00  0.0000E+00  0.0000E+00  0.0000E+00  0.0000E+00  0.0000E+00  0.0000E+00  0.0000E+00  0.0000E+00  0.0000E+00  0.0000E+00  0.0000E+00  0.0000E+00  0.0000E+00  0.0000E+00  0.0000E+00
     -1.388  0.0000E+00  0.0000E+00  0.0000E+00  0.0000E+00  0.0000E+00  0.0000E+00  0.0000E+00  0.0000E+00  0.0000E+00  0.0000E+00  0.0000E+00  0.0000E+00  0.0000E+00  0.0000E+00  0.0000E+00  0.0000E+00  0.0000E+00  0.0000E+00
     -1.170  0.0000E+00  0.0000E+00  0.0000E+00  0.0000E+00  0.0000E+00  0.0000E+00  0.0000E+00  0.0000E+00  0.0000E+00  0.0000E+00  0.0000E+00  0.0000E+00  0.0000E+00  0.0000E+00  0.0000E+00  0.0000E+00  0.0000E+00  0.0000E+00
     -0.953  0.0000E+00  0.0000E+00  0.0000E+00  0.0000E+00  0.0000E+00  0.0000E+00  0.0000E+00  0.0000E+00  0.0000E+00  0.0000E+00  0.0000E+00  0.0000E+00  0.0000E+00  0.0000E+00  0.0000E+00  0.0000E+00  0.0000E+00  0.0000E+00
     -0.736  0.0000E+00  0.0000E+00  0.0000E+00  0.0000E+00  0.0000E+00  0.0000E+00  0.0000E+00  0.0000E+00  0.0000E+00  0.0000E+00  0.0000E+00  0.0000E+00  0.0000E+00  0.0000E+00  0.0000E+00  0.0000E+00  0.0000E+00  0.0000E+00
     -0.519  0.0000E+00  0.0000E+00  0.0000E+00  0.0000E+00  0.0000E+00  0.0000E+00  0.0000E+00  0.0000E+00  0.0000E+00  0.0000E+00  0.0000E+00  0.0000E+00  0.0000E+00  0.0000E+00  0.0000E+00  0.0000E+00  0.0000E+00  0.0000E+00
     -0.301  0.0000E+00  0.0000E+00  0.0000E+00  0.0000E+00  0.0000E+00  0.0000E+00  0.0000E+00  0.0000E+00  0.0000E+00  0.0000E+00  0.0000E+00  0.0000E+00  0.0000E+00  0.0000E+00  0.0000E+00  0.0000E+00  0.0000E+00  0.0000E+00
     -0.084  0.0000E+00  0.0000E+00  0.0000E+00  0.0000E+00  0.0000E+00  0.0000E+00  0.0000E+00  0.0000E+00  0.0000E+00  0.0000E+00  0.0000E+00  0.0000E+00  0.0000E+00  0.0000E+00  0.0000E+00  0.0000E+00  0.0000E+00  0.0000E+00
      0.133  0.0000E+00  0.0000E+00  0.0000E+00  0.0000E+00  0.0000E+00  0.0000E+00  0.0000E+00  0.0000E+00  0.0000E+00  0.0000E+00  0.0000E+00  0.0000E+00  0.0000E+00  0.0000E+00  0.0000E+00  0.0000E+00  0.0000E+00  0.0000E+00
      0.350  0.9856E-02  0.0000E+00  0.1184E-03  0.0000E+00  0.8164E-04  0.0000E+00  0.5259E-03  0.0000E+00  0.4108E-04  0.0000E+00  0.9940E-05  0.0000E+00  0.1433E-04  0.0000E+00  0.9417E-05  0.0000E+00  0.1452E-04  0.0000E+00
      0.568  0.1463E-01  0.9797E-02  0.2539E-03  0.1187E-03  0.1628E-03  0.8143E-04  0.9223E-03  0.5225E-03  0.9854E-04  0.3303E-04  0.2742E-04  0.8358E-05  0.3536E-04  0.1086E-04  0.2006E-04  0.7988E-05  0.3549E-04  0.1167E-04
      0.785  0.1862E-01  0.1447E-01  0.3930E-03  0.2531E-03  0.2306E-03  0.1616E-03  0.1365E-02  0.9102E-03  0.1707E-03  0.7822E-04  0.5288E-04  0.2196E-04  0.6461E-04  0.2629E-04  0.3078E-04  0.1678E-04  0.6794E-04  0.2756E-04
      1.002  0.2180E-01  0.1834E-01  0.5357E-03  0.3910E-03  0.2849E-03  0.2286E-03  0.1854E-02  0.1341E-02  0.2577E-03  0.1344E-03  0.8633E-04  0.4100E-04  0.1021E-03  0.4754E-04  0.4157E-04  0.2546E-04  0.1119E-03  0.5166E-04
      1.219  0.2648E-01  0.2141E-01  0.7776E-03  0.5322E-03  0.4019E-03  0.2825E-03  0.2556E-02  0.1814E-02  0.3933E-03  0.2016E-03  0.1687E-03  0.6548E-04  0.1610E-03  0.7463E-04  0.6330E-04  0.3403E-04  0.1808E-03  0.8397E-04
      1.437  0.3150E-01  0.2570E-01  0.1098E-02  0.7615E-03  0.5959E-03  0.3908E-03  0.3339E-02  0.2476E-02  0.5903E-03  0.3027E-03  0.3444E-03  0.1219E-03  0.2518E-03  0.1153E-03  0.1107E-03  0.5022E-04  0.2853E-03  0.1327E-03
      1.654  0.3514E-01  0.3048E-01  0.1433E-02  0.1072E-02  0.8223E-03  0.5774E-03  0.4064E-02  0.3223E-02  0.8307E-03  0.4473E-03  0.5992E-03  0.2427E-03  0.3689E-03  0.1755E-03  0.1808E-03  0.8514E-04  0.4193E-03  0.2043E-03
      1.871  0.3532E-01  0.3390E-01  0.1771E-02  0.1395E-02  0.1118E-02  0.7951E-03  0.4895E-02  0.3906E-02  0.1180E-02  0.6198E-03  0.1020E-02  0.4161E-03  0.5839E-03  0.2506E-03  0.3204E-03  0.1359E-03  0.7198E-03  0.2939E-03
      2.088  0.3902E-01  0.3338E-01  0.2108E-02  0.1719E-02  0.1379E-02  0.1088E-02  0.5917E-02  0.4598E-02  0.1840E-02  0.8288E-03  0.1374E-02  0.7107E-03  0.9850E-03  0.3659E-03  0.4746E-03  0.2342E-03  0.1013E-02  0.4874E-03
      2.306  0.4304E-01  0.3632E-01  0.2464E-02  0.2026E-02  0.1658E-02  0.1327E-02  0.7081E-02  0.5459E-02  0.2665E-02  0.1249E-02  0.1801E-02  0.9313E-03  0.1499E-02  0.5864E-03  0.6728E-03  0.3350E-03  0.1366E-02  0.6712E-03
      2.523  0.4737E-01  0.3946E-01  0.2840E-02  0.2346E-02  0.1955E-02  0.1579E-02  0.8386E-02  0.6427E-02  0.3656E-02  0.1762E-02  0.2300E-02  0.1192E-02  0.2125E-02  0.8621E-03  0.9152E-03  0.4617E-03  0.1780E-02  0.8886E-03
      2.740  0.5203E-01  0.4281E-01  0.3235E-02  0.2680E-02  0.2270E-02  0.1844E-02  0.9832E-02  0.7503E-02  0.4811E-02  0.2368E-02  0.2873E-02  0.1492E-02  0.2864E-02  0.1193E-02  0.1202E-02  0.6143E-03  0.2254E-02  0.1140E-02
      2.957  0.5700E-01  0.4635E-01  0.3649E-02  0.3028E-02  0.2603E-02  0.2122E-02  0.1142E-01  0.8686E-02  0.6131E-02  0.3068E-02  0.3518E-02  0.1833E-02  0.3715E-02  0.1579E-02  0.1532E-02  0.7930E-03  0.2788E-02  0.1425E-02
      3.175  0.7214E-01  0.5010E-01  0.5503E-02  0.3389E-02  0.4290E-02  0.2413E-02  0.1584E-01  0.9977E-02  0.1139E-01  0.3861E-02  0.7999E-02  0.2213E-02  0.2438E-01  0.2021E-02  0.3005E-02  0.9976E-03  0.2045E-01  0.1743E-02
      3.392  0.1321E+00  0.5409E-01  0.8794E-02  0.3878E-02  0.6884E-02  0.2882E-02  0.3095E-01  0.1147E-01  0.7436E-01  0.4987E-02  0.4241E-01  0.3044E-02  0.8682E-01  0.2698E-02  0.5745E-02  0.1433E-02  0.4682E-01  0.2175E-02
      3.609  0.1307E+00  0.6270E-01  0.8966E-02  0.4945E-02  0.8000E-02  0.3957E-02  0.3811E-01  0.1422E-01  0.8655E-01  0.7729E-02  0.5545E-01  0.5453E-02  0.1178E+00  0.4438E-02  0.9116E-02  0.2277E-02  0.6237E-01  0.3212E-02
      3.826  0.1266E+00  0.6998E-01  0.9729E-02  0.5806E-02  0.8860E-02  0.4936E-02  0.4566E-01  0.1748E-01  0.9464E-01  0.1144E-01  0.5903E-01  0.8409E-02  0.1581E+00  0.7031E-02  0.1314E-01  0.3307E-02  0.7975E-01  0.4703E-02
      4.044  0.1340E+00  0.8278E-01  0.1174E-01  0.6601E-02  0.1095E-01  0.5630E-02  0.6206E-01  0.2329E-01  0.1253E+00  0.2309E-01  0.6790E-01  0.1449E-01  0.2410E+00  0.1476E-01  0.1965E-01  0.4519E-02  0.9298E-01  0.7731E-02
      4.261  0.1295E+00  0.1177E+00  0.1224E-01  0.7720E-02  0.1169E-01  0.6966E-02  0.8065E-01  0.3198E-01  0.1267E+00  0.6907E-01  0.7851E-01  0.3963E-01  0.2454E+00  0.4621E-01  0.3339E-01  0.6066E-02  0.1240E+00  0.1691E-01
      4.478  0.8731E-01  0.1150E+00  0.1082E-01  0.7949E-02  0.9572E-02  0.8274E-02  0.6066E-01  0.3668E-01  0.9328E-01  0.7281E-01  0.8782E-01  0.4685E-01  0.1600E+00  0.7323E-01  0.4309E-01  0.8375E-02  0.1187E+00  0.3808E-01
      4.695  0.4515E-01  0.1134E+00  0.9110E-02  0.8288E-02  0.5705E-02  0.9025E-02  0.3712E-01  0.4175E-01  0.5879E-01  0.7799E-01  0.9353E-01  0.5403E-01  0.8536E-01  0.9478E-01  0.4606E-01  0.1122E-01  0.9408E-01  0.5205E-01
      4.913  0.2337E-01  0.1099E+00  0.8177E-02  0.8824E-02  0.3545E-02  0.9602E-02  0.2338E-01  0.4734E-01  0.3443E-01  0.8463E-01  0.7706E-01  0.6217E-01  0.4956E-01  0.1202E+00  0.3657E-01  0.1470E-01  0.7829E-01  0.6718E-01
      5.130  0.7723E-02  0.1191E+00  0.1033E-01  0.1187E-01  0.3540E-02  0.1220E-01  0.1719E-01  0.8212E-01  0.1120E-01  0.1134E+00  0.5161E-01  0.7409E-01  0.4431E-01  0.2451E+00  0.2498E-01  0.2767E-01  0.8211E-01  0.1060E+00
      5.347  0.4282E-02  0.9049E-01  0.1321E-01  0.1170E-01  0.5457E-02  0.1070E-01  0.1699E-01  0.7260E-01  0.1400E-01  0.9576E-01  0.5025E-01  0.7823E-01  0.5794E-01  0.2017E+00  0.3875E-01  0.3675E-01  0.8860E-01  0.1078E+00
      5.564  0.2449E-02  0.6145E-01  0.4360E-01  0.1076E-01  0.2453E-01  0.8262E-02  0.2634E-01  0.5597E-01  0.2214E+00  0.7534E-01  0.1530E+00  0.8293E-01  0.9340E-01  0.1399E+00  0.4056E+00  0.4257E-01  0.1392E+00  0.9356E-01
      5.782  0.3892E-02  0.3187E-01  0.3359E-01  0.8683E-02  0.1582E-01  0.5088E-02  0.2236E-01  0.2873E-01  0.1247E+00  0.4593E-01  0.1803E+00  0.7540E-01  0.9328E-01  0.6026E-01  0.3583E+00  0.3922E-01  0.1364E+00  0.6627E-01
      5.999  0.4198E-02  0.1375E-01  0.2075E-01  0.7645E-02  0.7334E-02  0.2677E-02  0.1611E-01  0.1925E-01  0.7395E-01  0.1923E-01  0.1165E+00  0.5391E-01  0.8413E-01  0.3383E-01  0.2314E+00  0.2426E-01  0.1127E+00  0.6145E-01
      6.216  0.2887E-02  0.4789E-02  0.7656E-02  0.7886E-02  0.6863E-02  0.1710E-02  0.3717E-02  0.1623E-01  0.6634E-01  0.6110E-02  0.4880E-01  0.3831E-01  0.4596E-01  0.2907E-01  0.1214E+00  0.1258E-01  0.3085E-01  0.6278E-01
      6.433  0.1061E-01  0.7739E-03  0.1850E-01  0.3686E-01  0.2744E-01  0.2471E-01  0.1167E-01  0.1980E-01  0.9479E-01  0.1664E+00  0.7114E-01  0.3301E-01  0.3773E-01  0.5567E-01  0.1024E+00  0.1895E+00  0.3130E-01  0.9873E-01
      6.651  0.1633E-01  0.1712E-02  0.3149E-01  0.4712E-01  0.4098E-01  0.2578E-01  0.2078E-01  0.2837E-01  0.1234E+00  0.1900E+00  0.1089E+00  0.1502E+00  0.4032E-01  0.8956E-01  0.1137E+00  0.3695E+00  0.4969E-01  0.1243E+00
      6.868  0.2345E-01  0.2665E-02  0.4442E-01  0.3743E-01  0.4803E-01  0.1781E-01  0.3480E-01  0.2376E-01  0.1729E+00  0.1139E+00  0.1861E+00  0.1628E+00  0.4749E-01  0.8703E-01  0.1573E+00  0.3231E+00  0.7627E-01  0.1168E+00
      7.085  0.3540E-01  0.5032E-02  0.6885E-01  0.2781E-01  0.5577E-01  0.1502E-01  0.6647E-01  0.1869E-01  0.2773E+00  0.8175E-01  0.2615E+00  0.1120E+00  0.5903E-01  0.7075E-01  0.2465E+00  0.2168E+00  0.1361E+00  0.9387E-01
      7.302  0.2790E-01  0.8004E-02  0.6067E-01  0.2460E-01  0.4758E-01  0.2543E-01  0.4736E-01  0.1128E-01  0.2050E+00  0.1084E+00  0.1676E+00  0.7150E-01  0.4047E-01  0.5640E-01  0.2113E+00  0.1553E+00  0.1036E+00  0.4665E-01
      7.520  0.1363E-01  0.1010E-01  0.3258E-01  0.3151E-01  0.2588E-01  0.3992E-01  0.1991E-01  0.1614E-01  0.5385E-01  0.1297E+00  0.6798E-01  0.7783E-01  0.1406E-01  0.4048E-01  0.7374E-01  0.1305E+00  0.5162E-01  0.3519E-01
      7.737  0.1003E-01  0.1326E-01  0.2669E-01  0.3973E-01  0.2051E-01  0.4764E-01  0.1571E-01  0.2520E-01  0.3975E-01  0.1399E+00  0.5918E-01  0.1057E+00  0.1115E-01  0.3032E-01  0.6148E-01  0.1240E+00  0.4327E-01  0.4123E-01
      7.954  0.7427E-02  0.1887E-01  0.2228E-01  0.5523E-01  0.1672E-01  0.5419E-01  0.1256E-01  0.4228E-01  0.3590E-01  0.1799E+00  0.5547E-01  0.1746E+00  0.1070E-01  0.3499E-01  0.5718E-01  0.1441E+00  0.3684E-01  0.6226E-01
      8.172  0.5605E-02  0.2746E-01  0.1915E-01  0.8147E-01  0.1439E-01  0.5738E-01  0.1005E-01  0.7273E-01  0.3858E-01  0.2408E+00  0.5463E-01  0.2605E+00  0.1223E-01  0.4196E-01  0.5684E-01  0.2248E+00  0.3194E-01  0.9945E-01