Si beta-tin                             
   2.40000000000000     
     1.002440   -0.000000   -0.000000
    -0.501220    0.868138    0.000000
    -0.000000    0.000000    1.625051
    S
     2
Direct
  0.000000  0.000000  0.000000
  0.333333  0.666667  0.500000
 
   36   36   56
 -3.6769     -3.4088     -2.6284     -1.4067     0.14473      1.8848      3.6610      5.3297      6.7748      7.9213    
  8.7389      9.2398      9.4702      9.4993      9.4077      9.2754      9.1614      9.0866      9.0605      9.0866    
  9.1614      9.2754      9.4077      9.4993      9.4702      9.2398      8.7389      7.9213      6.7748      5.3297    
  3.6610      1.8848     0.14473     -1.4067     -2.6284     -3.4088     -3.4088     -3.4088     -2.8834     -1.8806    
 -.49251      1.1534      2.9090      4.6248      6.1707      7.4515      8.4157      9.0555      9.4017      9.5133    
  9.4663      9.3419      9.2132      9.1165      9.0649      9.0649      9.1165      9.2132      9.3419      9.4663    
  9.5133      9.4017      9.0555      8.4157      7.4515      6.1707      4.6248      2.9090      1.1534     -.49251    
 -1.8806     -2.8834     -2.6284     -2.8856     -2.6284     -1.8806     -.71217     0.76776      2.4224      4.1051    
  5.6787      7.0336      8.0997      8.8500      9.2981      9.4898      9.4933      9.3867      9.2479      9.1307    
  9.0541      9.0274      9.0541      9.1307      9.2479      9.3867      9.4933      9.4898      9.2981      8.8500    
  8.0997      7.0336      5.6787      4.1051      2.4224     0.76776     -.71217     -1.8806     -1.4067     -1.8868    
 -1.8868     -1.4066     -.49251     0.76776      2.2542      3.8294      5.3572      6.7203      7.8347      8.6564    
  9.1818      9.4419      9.4940      9.4104      9.2676      9.1314      9.0302      8.9764      8.9764      9.0302    
  9.1314      9.2676      9.4104      9.4940      9.4419      9.1818      8.6564      7.8347      6.7203      5.3572    
  3.8294      2.2542     0.76776     -.49251     0.14473     -.50383     -.72747     -.50382     0.14473      1.1534    
  2.4224      3.8294      5.2454      6.5525      7.6586      8.5063      9.0766      9.3856      9.4779      9.4170    
  9.2751      9.1218      8.9969      8.9158      8.8878      8.9158      8.9969      9.1218      9.2751      9.4170    
  9.4779      9.3856      9.0766      8.5063      7.6586      6.5525      5.2454      3.8294      2.4224      1.1534    
  1.8848      1.1366     0.74177     0.74177      1.1366      1.8848      2.9090      4.1051      5.3572      6.5525    
  7.5968      8.4244      9.0038      9.3371      9.4558      9.4129      9.2738      9.1064      8.9591      8.8511    
  8.7941      8.7941      8.8511      8.9591      9.1064      9.2738      9.4129      9.4558      9.3371      9.0038    
  8.4244      7.5968      6.5525      5.3572      4.1051      2.9090      3.6610      2.8870      2.3858      2.2124    
  2.3858      2.8870      3.6610      4.6248      5.6787      6.7203      7.6586      8.4244      8.9778      9.3092    
  9.4377      9.4051      9.2681      9.0896      8.9221      8.7883      8.7023      8.6727      8.7023      8.7883    
  8.9221      9.0896      9.2681      9.4051      9.4377      9.3092      8.9778      8.4244      7.6586      6.7203    
  5.6787      4.6248      5.3297      4.5989      4.0593      3.7729      3.7729      4.0593      4.5989      5.3297    
  6.1707      7.0336      7.8347      8.5063      9.0038      9.3092      9.4309      9.3995      9.2624      9.0757    
  8.8910      8.7341      8.6203      8.5606      8.5606      8.6203      8.7341      8.8910      9.0757      9.2624    
  9.3995      9.4309      9.3092      9.0038      8.5063      7.8347      7.0336      6.1707      6.7748      6.1422    
  5.6262      5.2889      5.1715      5.2889      5.6262      6.1422      6.7748      7.4515      8.0997      8.6564    
  9.0766      9.3371      9.4377      9.3995      9.2602      9.0678      8.8704      8.6942      8.5554      8.4668    
  8.4364      8.4668      8.5554      8.6942      8.8704      9.0678      9.2602      9.3995      9.4377      9.3371    
  9.0766      8.6564      8.0997      7.4515      7.9213      7.4218      6.9773      6.6440      6.4654      6.4654    
  6.6440      6.9773      7.4218      7.9213      8.4157      8.8500      9.1818      9.3856      9.4558      9.4051    
  9.2624      9.0678      8.8632      8.6730      8.5137      8.3992      8.3393      8.3393      8.3992      8.5137    
  8.6730      8.8632      9.0678      9.2624      9.4051      9.4558      9.3856      9.1818      8.8500      8.4157    
  8.7389      8.3859      8.0421      7.7542      7.5630      7.4960      7.5630      7.7542      8.0421      8.3859    
  8.7389      9.0555      9.2981      9.4419      9.4779      9.4129      9.2681      9.0757      8.8704      8.6730    
  8.4993      8.3637      8.2776      8.2480      8.2776      8.3637      8.4993      8.6730      8.8704      9.0757    
  9.2681      9.4129      9.4779      9.4419      9.2981      9.0555      9.2398      9.0265      8.7930      8.5750    
  8.4066      8.3150      8.3150      8.4066      8.5750      8.7930      9.0265      9.2398      9.4017      9.4899    
  9.4940      9.4170      9.2738      9.0896      8.8910      8.6942      8.5137      8.3637      8.2564      8.2003    
  8.2003      8.2564      8.3637      8.5137      8.6942      8.8910      9.0896      9.2738      9.4170      9.4940    
  9.4898      9.4017      9.4702      9.3738      9.2428      9.1015      8.9762      8.8902      8.8597      8.8902    
  8.9762      9.1015      9.2428      9.3739      9.4702      9.5133      9.4933      9.4104      9.2751      9.1064    
  8.9220      8.7341      8.5554      8.3992      8.2776      8.2003      8.1739      8.2003      8.2776      8.3992    
  8.5554      8.7341      8.9221      9.1064      9.2751      9.4104      9.4933      9.5133      9.4993      9.4866    
  9.4366      9.3639      9.2866      9.2226      9.1866      9.1866      9.2226      9.2866      9.3639      9.4366    
  9.4866      9.4993      9.4663      9.3867      9.2676      9.1218      8.9591      8.7883      8.6203      8.4668    
  8.3393      8.2480      8.2003      8.2003      8.2480      8.3393      8.4668      8.6203      8.7883      8.9591    
  9.1218      9.2676      9.3867      9.4663      9.4077      9.4405      9.4419      9.4185      9.3810      9.3421    
  9.3133      9.3027      9.3133      9.3421      9.3810      9.4185      9.4419      9.4405      9.4077      9.3419    
  9.2479      9.1314      8.9969      8.8511      8.7023      8.5606      8.4364      8.3393      8.2776      8.2564    
  8.2776      8.3393      8.4364      8.5606      8.7023      8.8511      8.9969      9.1314      9.2479      9.3419    
  9.2754      9.3168      9.3368      9.3368      9.3222      9.3006      9.2803      9.2681      9.2681      9.2803    
  9.3006      9.3222      9.3368      9.3367      9.3168      9.2754      9.2132      9.1307      9.0302      8.9158    
  8.7941      8.6727      8.5606      8.4668      8.3992      8.3637      8.3637      8.3992      8.4668      8.5606    
  8.6727      8.7941      8.9158      9.0302      9.1307      9.2132      9.1614      9.1884      9.1988      9.1954    
  9.1820      9.1628      9.1434      9.1291      9.1239      9.1291      9.1434      9.1628      9.1820      9.1954    
  9.1988      9.1884      9.1614      9.1165      9.0541      8.9764      8.8878      8.7941      8.7023      8.6203    
  8.5554      8.5137      8.4993      8.5137      8.5554      8.6203      8.7023      8.7941      8.8878      8.9764    
  9.0541      9.1165      9.0866      9.0919      9.0821      9.0599      9.0296      8.9962      8.9649      8.9409    
  8.9278      8.9278      8.9409      8.9649      8.9962      9.0296      9.0599      9.0821      9.0919      9.0866    
  9.0649      9.0274      8.9764      8.9158      8.8511      8.7883      8.7341      8.6942      8.6730      8.6730    
  8.6942      8.7341      8.7883      8.8511      8.9158      8.9764      9.0274      9.0649      9.0605      9.0404    
  9.0056      8.9591      8.9051      8.8491      8.7971      8.7549      8.7274      8.7178      8.7274      8.7549    
  8.7971      8.8491      8.9051      8.9591      9.0056      9.0404      9.0605      9.0649      9.0541      9.0302    
  8.9969      8.9591      8.9220      8.8910      8.8704      8.8632      8.8704      8.8910      8.9221      8.9591    
  8.9969      9.0302      9.0541      9.0649      9.0866      9.0404      8.9790      8.9054      8.8241      8.7410    
  8.6629      8.5967      8.5486      8.5232      8.5232      8.5486      8.5967      8.6629      8.7410      8.8241    
  8.9054      8.9790      9.0404      9.0866      9.1165      9.1307      9.1314      9.1218      9.1064      9.0896    
  9.0757      9.0678      9.0678      9.0757      9.0896      9.1064      9.1218      9.1314      9.1307      9.1165    
  9.1614      9.0919      9.0056      8.9054      8.7960      8.6839      8.5765      8.4819      8.4078      8.3605    
  8.3443      8.3605      8.4078      8.4819      8.5765      8.6839      8.7960      8.9054      9.0056      9.0919    
  9.1614      9.2132      9.2479      9.2676      9.2751      9.2738      9.2681      9.2624      9.2602      9.2624    
  9.2681      9.2738      9.2751      9.2676      9.2479      9.2132      9.2754      9.1884      9.0821      8.9591    
  8.8241      8.6839      8.5467      8.4216      8.3179      8.2436      8.2048      8.2048      8.2436      8.3179    
  8.4216      8.5467      8.6839      8.8241      8.9591      9.0821      9.1884      9.2754      9.3419      9.3867    
  9.4104      9.4170      9.4129      9.4051      9.3995      9.3995      9.4051      9.4129      9.4170      9.4104    
  9.3867      9.3419      9.4077      9.3168      9.1988      9.0599      8.9051      8.7410      8.5765      8.4216    
  8.2870      8.1825      8.1162      8.0935      8.1162      8.1825      8.2870      8.4216      8.5765      8.7410    
  8.9051      9.0599      9.1988      9.3168      9.4077      9.4663      9.4933      9.4940      9.4779      9.4558    
  9.4377      9.4309      9.4377      9.4558      9.4779      9.4940      9.4933      9.4663      9.4993      9.4405    
  9.3368      9.1954      9.0296      8.8491      8.6629      8.4819      8.3179      8.1825      8.0858      8.0355    
  8.0355      8.0858      8.1825      8.3179      8.4819      8.6629      8.8491      9.0296      9.1954      9.3367    
  9.4405      9.4993      9.5133      9.4899      9.4419      9.3856      9.3371      9.3092      9.3092      9.3371    
  9.3856      9.4419      9.4898      9.5133      9.4702      9.4866      9.4419      9.3368      9.1820      8.9962    
  8.7971      8.5967      8.4078      8.2436      8.1162      8.0355      8.0078      8.0355      8.1162      8.2436    
  8.4078      8.5967      8.7971      8.9962      9.1820      9.3368      9.4419      9.4866      9.4702      9.4017    
  9.2981      9.1818      9.0766      9.0038      8.9778      9.0038      9.0766      9.1818      9.2981      9.4017    
  9.2398      9.3738      9.4366      9.4185      9.3222      9.1628      8.9649      8.7549      8.5486      8.3605    
  8.2048      8.0935      8.0355      8.0355      8.0935      8.2048      8.3605      8.5486      8.7549      8.9649    
  9.1628      9.3222      9.4185      9.4366      9.3739      9.2398      9.0555      8.8500      8.6564      8.5063    
  8.4244      8.4244      8.5063      8.6564      8.8500      9.0555      8.7389      9.0265      9.2428      9.3639    
  9.3810      9.3006      9.1434      8.9409      8.7274      8.5232      8.3443      8.2048      8.1162      8.0858    
  8.1162      8.2048      8.3443      8.5232      8.7274      8.9409      9.1434      9.3006      9.3810      9.3639    
  9.2428      9.0265      8.7389      8.4157      8.0997      7.8347      7.6586      7.5968      7.6586      7.8347    
  8.0997      8.4157      7.9213      8.3859      8.7930      9.1015      9.2866      9.3421      9.2803      9.1291    
  8.9278      8.7178      8.5232      8.3605      8.2436      8.1825      8.1825      8.2436      8.3605      8.5232    
  8.7178      8.9278      9.1291      9.2803      9.3421      9.2866      9.1015      8.7930      8.3859      7.9213    
  7.4515      7.0336      6.7203      6.5525      6.5525      6.7203      7.0336      7.4515      6.7748      7.4218    
  8.0421      8.5750      8.9762      9.2226      9.3133      9.2681      9.1239      8.9278      8.7274      8.5486    
  8.4078      8.3179      8.2870      8.3179      8.4078      8.5486      8.7274      8.9278      9.1239      9.2681    
  9.3133      9.2226      8.9762      8.5750      8.0421      7.4218      6.7748      6.1707      5.6787      5.3572    
  5.2454      5.3572      5.6787      6.1707      5.3297      6.1422      6.9773      7.7542      8.4066      8.8902    
  9.1866      9.3027      9.2681      9.1291      8.9409      8.7549      8.5967      8.4819      8.4216      8.4216    
  8.4819      8.5967      8.7549      8.9409      9.1291      9.2681      9.3027      9.1866      8.8902      8.4066    
  7.7542      6.9773      6.1422      5.3297      4.6248      4.1051      3.8294      3.8294      4.1051      4.6248    
  3.6610      4.5989      5.6262      6.6440      7.5630      8.3150      8.8597      9.1866      9.3133      9.2803    
  9.1434      8.9649      8.7971      8.6629      8.5765      8.5467      8.5765      8.6629      8.7971      8.9649    
  9.1434      9.2803      9.3133      9.1866      8.8597      8.3150      7.5630      6.6440      5.6262      4.5989    
  3.6610      2.9090      2.4224      2.2542      2.4224      2.9090      1.8848      2.8870      4.0593      5.2889    
  6.4654      7.4960      8.3150      8.8902      9.2226      9.3421      9.3006      9.1628      8.9962      8.8491    
  8.7410      8.6839      8.6839      8.7410      8.8491      8.9962      9.1628      9.3006      9.3421      9.2226    
  8.8902      8.3150      7.4960      6.4654      5.2889      4.0593      2.8870      1.8848      1.1534     0.76776    
 0.76776      1.1534     0.14473      1.1366      2.3858      3.7729      5.1715      6.4654      7.5630      8.4066    
  8.9762      9.2866      9.3810      9.3222      9.1820      9.0296      8.9051      8.8241      8.7960      8.8241    
  8.9051      9.0296      9.1820      9.3222      9.3810      9.2866      8.9762      8.4066      7.5630      6.4654    
  5.1715      3.7729      2.3858      1.1366     0.14473     -.49251     -.71217     -.49251     -1.4067     -.50383    
 0.74176      2.2124      3.7729      5.2889      6.6440      7.7542      8.5750      9.1015      9.3639      9.4185    
  9.3368      9.1954      9.0599      8.9591      8.9054      8.9054      8.9591      9.0599      9.1954      9.3368    
  9.4185      9.3639      9.1015      8.5750      7.7542      6.6440      5.2889      3.7729      2.2124     0.74177    
 -.50382     -1.4066     -1.8806     -1.8806     -2.6284     -1.8868     -.72747     0.74176      2.3858      4.0593    
  5.6262      6.9773      8.0421      8.7930      9.2428      9.4366      9.4419      9.3368      9.1988      9.0821    
  9.0056      8.9790      9.0056      9.0821      9.1988      9.3368      9.4419      9.4366      9.2428      8.7930    
  8.0421      6.9773      5.6262      4.0593      2.3858     0.74177     -.72747     -1.8868     -2.6284     -2.8834    
 -3.4088     -2.8856     -1.8868     -.50383      1.1366      2.8870      4.5989      6.1422      7.4218      8.3859    
  9.0265      9.3738      9.4866      9.4405      9.3168      9.1884      9.0919      9.0404      9.0404      9.0919    
  9.1884      9.3168      9.4405      9.4866      9.3738      9.0265      8.3859      7.4218      6.1422      4.5989    
  2.8870      1.1366     -.50383     -1.8868     -2.8856     -3.4088     -3.3758     -3.1126     -2.3468     -1.1485    
 0.37208      2.0762      3.8140      5.4444      6.8541      7.9695      8.7617      9.2429      9.4590      9.4787    
  9.3816      9.2469      9.1318      9.0563      9.0300      9.0563      9.1318      9.2469      9.3816      9.4787    
  9.4590      9.2429      8.7617      7.9695      6.8541      5.4444      3.8140      2.0762     0.37208     -1.1485    
 -2.3468     -3.1126     -3.1126     -3.1126     -2.5972     -1.6138     -.25329      1.3588      3.0766      4.7539    
  6.2628      7.5105      8.4466      9.0641      9.3936      9.4937      9.4396      9.3115      9.1813      9.0837    
  9.0317      9.0317      9.0837      9.1813      9.3115      9.4396      9.4937      9.3936      9.0641      8.4466    
  7.5105      6.2628      4.7539      3.0766      1.3588     -.25330     -1.6138     -2.5972     -2.3468     -2.5990    
 -2.3468     -1.6138     -.46892     0.98031      2.5994      4.2444      5.7808      7.1015      8.1378      8.8639    
  9.2933      9.4717      9.4664      9.3549      9.2139      9.0957      9.0184      8.9915      9.0184      9.0957    
  9.2139      9.3549      9.4664      9.4717      9.2933      8.8639      8.1378      7.1015      5.7808      4.2444    
  2.5994     0.98031     -.46892     -1.6138     -1.1485     -1.6189     -1.6189     -1.1485     -.25329     0.98031    
  2.4343      3.9740      5.4657      6.7946      7.8786      8.6748      9.1800      9.4253      9.4673      9.3776    
  9.2319      9.0944      8.9924      8.9383      8.9383      8.9924      9.0944      9.2319      9.3776      9.4673    
  9.4253      9.1800      8.6748      7.8786      6.7946      5.4657      3.9740      2.4343     0.98031     -.25330    
 0.37208     -.26255     -.48143     -.26254     0.37208      1.3588      2.5994      3.9740      5.3561      6.6302    
  7.7061      8.5280      9.0773      9.3705      9.4516      9.3836      9.2381      9.0833      8.9574      8.8758    
  8.8476      8.8758      8.9574      9.0833      9.2381      9.3836      9.4516      9.3705      9.0774      8.5280    
  7.7061      6.6302      5.3561      3.9740      2.5994      1.3588      2.0762      1.3450     0.95903     0.95903    
  1.3450      2.0762      3.0766      4.2444      5.4657      6.6302      7.6456      8.4478      9.0061      9.3231    
  9.4299      9.3793      9.2358      9.0665      8.9182      8.8096      8.7522      8.7522      8.8096      8.9182    
  9.0666      9.2358      9.3793      9.4299      9.3231      9.0061      8.4478      7.6456      6.6302      5.4657    
  4.2444      3.0766      3.8140      3.0587      2.5694      2.4001      2.5694      3.0587      3.8140      4.7539    
  5.7808      6.7946      7.7061      8.4478      8.9807      9.2958      9.4122      9.3714      9.2295      9.0488    
  8.8802      8.7457      8.6593      8.6295      8.6593      8.7457      8.8802      9.0488      9.2295      9.3714    
  9.4122      9.2958      8.9807      8.4478      7.7061      6.7946      5.7808      4.7539      5.4444      4.7326    
  4.2069      3.9277      3.9277      4.2069      4.7326      5.4444      6.2628      7.1015      7.8786      8.5280    
  9.0061      9.2958      9.4055      9.3658      9.2235      9.0342      8.8484      8.6907      8.5764      8.5165    
  8.5165      8.5764      8.6907      8.8484      9.0342      9.2235      9.3658      9.4055      9.2958      9.0061    
  8.5280      7.8786      7.1015      6.2628      6.8541      6.2395      5.7380      5.4098      5.2957      5.4098    
  5.7380      6.2395      6.8541      7.5105      8.1378      8.6748      9.0774      9.3231      9.4122      9.3658    
  9.2212      9.0261      8.8274      8.6503      8.5110      8.4221      8.3915      8.4221      8.5110      8.6503    
  8.8274      9.0261      9.2212      9.3658      9.4122      9.3231      9.0774      8.6748      8.1378      7.5105    
  7.9695      7.4864      7.0557      6.7324      6.5591      6.5591      6.7324      7.0557      7.4864      7.9695    
  8.4466      8.8639      9.1800      9.3705      9.4299      9.3714      9.2235      9.0261      8.8200      8.6289    
  8.4690      8.3541      8.2940      8.2940      8.3541      8.4690      8.6289      8.8200      9.0261      9.2235    
  9.3714      9.4299      9.3705      9.1800      8.8639      8.4466      8.7617      8.4226      8.0913      7.8133    
  7.6285      7.5637      7.6285      7.8133      8.0913      8.4226      8.7617      9.0641      9.2933      9.4253    
  9.4516      9.3793      9.2295      9.0342      8.8274      8.6289      8.4545      8.3185      8.2321      8.2024    
  8.2321      8.3185      8.4545      8.6289      8.8274      9.0342      9.2295      9.3793      9.4516      9.4253    
  9.2933      9.0641      9.2429      9.0409      8.8182      8.6092      8.4476      8.3595      8.3595      8.4476    
  8.6092      8.8182      9.0409      9.2429      9.3936      9.4717      9.4673      9.3836      9.2358      9.0488    
  8.8484      8.6503      8.4690      8.3185      8.2108      8.1546      8.1546      8.2108      8.3185      8.4690    
  8.6503      8.8484      9.0488      9.2358      9.3836      9.4673      9.4717      9.3936      9.4590      9.3715    
  9.2493      9.1160      8.9970      8.9151      8.8860      8.9151      8.9970      9.1160      9.2493      9.3716    
  9.4590      9.4937      9.4664      9.3776      9.2381      9.0665      8.8802      8.6907      8.5110      8.3541    
  8.2321      8.1546      8.1281      8.1546      8.2321      8.3541      8.5110      8.6907      8.8802      9.0666    
  9.2381      9.3776      9.4664      9.4937      9.4787      9.4727      9.4297      9.3637      9.2919      9.2321    
  9.1982      9.1982      9.2321      9.2919      9.3637      9.4297      9.4727      9.4787      9.4396      9.3549    
  9.2319      9.0833      8.9182      8.7457      8.5764      8.4221      8.2940      8.2024      8.1546      8.1546    
  8.2024      8.2940      8.4221      8.5764      8.7457      8.9182      9.0833      9.2319      9.3549      9.4396    
  9.3816      9.4195      9.4262      9.4081      9.3755      9.3404      9.3140      9.3043      9.3140      9.3404    
  9.3755      9.4081      9.4262      9.4195      9.3816      9.3115      9.2139      9.0944      8.9574      8.8096    
  8.6593      8.5165      8.3915      8.2940      8.2321      8.2108      8.2321      8.2940      8.3915      8.5165    
  8.6593      8.8096      8.9574      9.0944      9.2139      9.3115      9.2469      9.2920      9.3161      9.3204    
  9.3097      9.2915      9.2737      9.2628      9.2628      9.2737      9.2915      9.3097      9.3204      9.3161    
  9.2920      9.2469      9.1813      9.0957      8.9924      8.8758      8.7522      8.6295      8.5165      8.4221    
  8.3541      8.3185      8.3185      8.3541      8.4221      8.5165      8.6295      8.7522      8.8758      8.9924    
  9.0957      9.1813      9.1318      9.1621      9.1759      9.1760      9.1658      9.1496      9.1325      9.1197    
  9.1150      9.1197      9.1325      9.1496      9.1658      9.1760      9.1759      9.1621      9.1318      9.0837    
  9.0184      8.9383      8.8476      8.7522      8.6593      8.5764      8.5110      8.4690      8.4545      8.4690    
  8.5110      8.5764      8.6593      8.7522      8.8476      8.9383      9.0184      9.0837      9.0563      9.0647    
  9.0581      9.0392      9.0120      8.9813      8.9523      8.9298      8.9176      8.9176      8.9298      8.9523    
  8.9813      9.0120      9.0392      9.0581      9.0647      9.0563      9.0317      8.9916      8.9383      8.8758    
  8.8096      8.7457      8.6907      8.6503      8.6289      8.6289      8.6503      8.6907      8.7457      8.8096    
  8.8758      8.9383      8.9915      9.0317      9.0300      9.0127      8.9810      8.9376      8.8866      8.8334    
  8.7837      8.7433      8.7169      8.7077      8.7169      8.7433      8.7837      8.8334      8.8866      8.9376    
  8.9810      9.0127      9.0300      9.0317      9.0184      8.9924      8.9574      8.9182      8.8802      8.8484    
  8.8274      8.8200      8.8274      8.8484      8.8802      8.9182      8.9574      8.9924      9.0184      9.0317    
  9.0563      9.0127      8.9542      8.8835      8.8051      8.7248      8.6491      8.5848      8.5381      8.5134    
  8.5134      8.5381      8.5848      8.6491      8.7248      8.8051      8.8835      8.9542      9.0127      9.0563    
  9.0837      9.0957      9.0944      9.0833      9.0665      9.0488      9.0342      9.0261      9.0261      9.0342    
  9.0488      9.0665      9.0833      9.0944      9.0957      9.0837      9.1318      9.0647      8.9810      8.8835    
  8.7769      8.6674      8.5624      8.4698      8.3973      8.3510      8.3351      8.3510      8.3973      8.4698    
  8.5624      8.6674      8.7769      8.8835      8.9810      9.0647      9.1318      9.1813      9.2139      9.2319    
  9.2381      9.2358      9.2295      9.2235      9.2212      9.2235      9.2295      9.2358      9.2381      9.2319    
  9.2139      9.1813      9.2469      9.1621      9.0581      8.9376      8.8051      8.6674      8.5325      8.4095    
  8.3074      8.2343      8.1961      8.1961      8.2343      8.3074      8.4095      8.5325      8.6674      8.8051    
  8.9376      9.0581      9.1621      9.2469      9.3115      9.3549      9.3776      9.3836      9.3793      9.3714    
  9.3658      9.3658      9.3714      9.3793      9.3836      9.3776      9.3549      9.3115      9.3816      9.2920    
  9.1759      9.0392      8.8866      8.7248      8.5624      8.4095      8.2765      8.1733      8.1079      8.0854    
  8.1079      8.1733      8.2765      8.4095      8.5624      8.7248      8.8866      9.0392      9.1759      9.2920    
  9.3816      9.4396      9.4664      9.4673      9.4516      9.4299      9.4122      9.4055      9.4122      9.4299    
  9.4516      9.4673      9.4664      9.4396      9.4787      9.4195      9.3161      9.1760      9.0120      8.8334    
  8.6491      8.4698      8.3074      8.1733      8.0776      8.0278      8.0278      8.0776      8.1733      8.3074    
  8.4698      8.6491      8.8334      9.0120      9.1760      9.3161      9.4195      9.4787      9.4937      9.4717    
  9.4253      9.3705      9.3231      9.2958      9.2958      9.3231      9.3705      9.4253      9.4717      9.4937    
  9.4590      9.4727      9.4262      9.3204      9.1658      8.9813      8.7837      8.5848      8.3973      8.2343    
  8.1079      8.0278      8.0003      8.0278      8.1079      8.2343      8.3973      8.5848      8.7837      8.9813    
  9.1658      9.3204      9.4262      9.4727      9.4590      9.3936      9.2933      9.1800      9.0774      9.0061    
  8.9807      9.0061      9.0773      9.1800      9.2933      9.3936      9.2429      9.3715      9.4297      9.4081    
  9.3097      9.1496      8.9523      8.7433      8.5381      8.3510      8.1961      8.0854      8.0278      8.0278    
  8.0854      8.1961      8.3510      8.5381      8.7433      8.9523      9.1496      9.3097      9.4081      9.4297    
  9.3716      9.2429      9.0641      8.8639      8.6748      8.5280      8.4478      8.4478      8.5280      8.6748    
  8.8639      9.0641      8.7617      9.0409      9.2493      9.3637      9.3755      9.2915      9.1325      8.9298    
  8.7169      8.5134      8.3351      8.1961      8.1079      8.0776      8.1079      8.1961      8.3351      8.5134    
  8.7169      8.9298      9.1325      9.2915      9.3755      9.3637      9.2493      9.0409      8.7617      8.4466    
  8.1378      7.8786      7.7061      7.6456      7.7061      7.8786      8.1378      8.4466      7.9695      8.4226    
  8.8182      9.1160      9.2919      9.3404      9.2737      9.1197      8.9176      8.7077      8.5134      8.3510    
  8.2343      8.1733      8.1733      8.2343      8.3510      8.5134      8.7077      8.9176      9.1197      9.2737    
  9.3404      9.2919      9.1160      8.8182      8.4226      7.9695      7.5105      7.1015      6.7946      6.6302    
  6.6302      6.7946      7.1015      7.5105      6.8541      7.4864      8.0913      8.6092      8.9970      9.2321    
  9.3140      9.2628      9.1150      8.9176      8.7169      8.5381      8.3973      8.3074      8.2765      8.3074    
  8.3973      8.5381      8.7169      8.9176      9.1150      9.2628      9.3140      9.2321      8.9970      8.6092    
  8.0913      7.4864      6.8541      6.2628      5.7808      5.4657      5.3561      5.4657      5.7808      6.2628    
  5.4444      6.2395      7.0557      7.8133      8.4476      8.9151      9.1982      9.3043      9.2628      9.1197    
  8.9298      8.7433      8.5848      8.4698      8.4095      8.4095      8.4698      8.5848      8.7433      8.9298    
  9.1197      9.2628      9.3043      9.1982      8.9151      8.4476      7.8133      7.0557      6.2395      5.4444    
  4.7539      4.2444      3.9740      3.9740      4.2444      4.7539      3.8140      4.7326      5.7380      6.7324    
  7.6285      8.3595      8.8860      9.1982      9.3140      9.2737      9.1325      8.9523      8.7837      8.6491    
  8.5624      8.5325      8.5624      8.6491      8.7837      8.9523      9.1325      9.2737      9.3140      9.1982    
  8.8860      8.3595      7.6285      6.7324      5.7380      4.7326      3.8140      3.0766      2.5994      2.4343    
  2.5994      3.0766      2.0762      3.0587      4.2069      5.4098      6.5591      7.5637      8.3595      8.9151    
  9.2321      9.3404      9.2915      9.1496      8.9813      8.8334      8.7248      8.6674      8.6674      8.7248    
  8.8334      8.9813      9.1496      9.2915      9.3404      9.2321      8.9151      8.3595      7.5637      6.5591    
  5.4098      4.2069      3.0587      2.0762      1.3588     0.98031     0.98031      1.3588     0.37208      1.3450    