Si beta-tin                             
   2.40000000000000     
     1.002204   -0.000000   -0.000000
    -0.501102    0.867934    0.000000
    -0.000000    0.000000    1.625817
    S
     2
Direct
  0.000000 -0.000000 -0.000000
  0.333333  0.666667  0.500000
 
   36   36   56
 -.36757262933E+01 -.34065831505E+01 -.26236075341E+01 -.13984522050E+01 0.15605089083E+00
 0.18978031174E+01 0.36732463915E+01 0.53381874175E+01 0.67767863347E+01 0.79142709617E+01
 0.87213659907E+01 0.92111813227E+01 0.94308903406E+01 0.94506593660E+01 0.93516691953E+01
 0.92144522699E+01 0.90972344444E+01 0.90203218559E+01 0.89935810389E+01 0.90203218405E+01
 0.90972344178E+01 0.92144522393E+01 0.93516691685E+01 0.94506593495E+01 0.94308903374E+01
 0.92111813322E+01 0.87213660094E+01 0.79142709842E+01 0.67767863559E+01 0.53381874336E+01
 0.36732464009E+01 0.18978031204E+01 0.15605088925E+00 -.13984522088E+01 -.26236075380E+01
 -.34065831529E+01 -.34065831529E+01 -.34065830901E+01 -.28796542396E+01 -.18742074613E+01
 -.48326952617E+00 0.11645005434E+01 0.29199161916E+01 0.46330108422E+01 0.61733474271E+01
 0.74460250277E+01 0.84001023897E+01 0.90289338185E+01 0.93641399502E+01 0.94657169542E+01
 0.94104258559E+01 0.92799571003E+01 0.91473314505E+01 0.90479662407E+01 0.89950042697E+01
 0.89950043671E+01 0.90479664903E+01 0.91473317429E+01 0.92799573061E+01 0.94104258803E+01
 0.94657167751E+01 0.93641396244E+01 0.90289334534E+01 0.84001020952E+01 0.74460248693E+01
 0.61733474027E+01 0.46330108900E+01 0.29199162258E+01 0.11645004984E+01 -.48326966396E+00
 -.18742076487E+01 -.28796543999E+01 -.26236075380E+01 -.28814548100E+01 -.26236073634E+01
 -.18742073832E+01 -.70371510918E+00 0.77766839550E+00 0.24322840881E+01 0.41126052440E+01
 0.56812211442E+01 0.70286899382E+01 0.80852772040E+01 0.88248752473E+01 0.92618795100E+01
 0.94431841145E+01 0.94375441894E+01 0.93240083334E+01 0.91804690361E+01 0.90601114996E+01
 0.89814463496E+01 0.89541430088E+01 0.89814466138E+01 0.90601119055E+01 0.91804693926E+01
 0.93240084641E+01 0.94375440082E+01 0.94431836607E+01 0.92618789277E+01 0.88248747204E+01
 0.80852768762E+01 0.70286898553E+01 0.56812212432E+01 0.41126053916E+01 0.24322841494E+01
 0.77766829891E+00 -.70371534067E+00 -.18742076487E+01 -.13984522088E+01 -.18793181320E+01
 -.18793180524E+01 -.13984520155E+01 -.48326947000E+00 0.77766837210E+00 0.22635522885E+01
 0.38363794041E+01 0.53594414445E+01 0.67155362225E+01 0.78208718899E+01 0.86321336657E+01
 0.91464787273E+01 0.93959694982E+01 0.94385190559E+01 0.93471397591E+01 0.91988370718E+01
 0.90589324891E+01 0.89551799454E+01 0.89001243054E+01 0.89001244173E+01 0.89551802216E+01
 0.90589327786E+01 0.91988372020E+01 0.93471396158E+01 0.94385186373E+01 0.93959689183E+01
 0.91464781675E+01 0.86321332969E+01 0.78208718011E+01 0.67155363871E+01 0.53594417388E+01
 0.38363796683E+01 0.22635524003E+01 0.77766829891E+00 -.48326966396E+00 0.15605088925E+00
 -.49266345237E+00 -.71641922133E+00 -.49266339527E+00 0.15605094358E+00 0.11645004631E+01
 0.24322839600E+01 0.38363793246E+01 0.52475464540E+01 0.65477403048E+01 0.76449269140E+01
 0.84824454791E+01 0.90418766600E+01 0.93401538204E+01 0.94225703339E+01 0.93533739115E+01
 0.92053211876E+01 0.90478646329E+01 0.89199214702E+01 0.88369757185E+01 0.88082877069E+01
 0.88369758294E+01 0.89199216174E+01 0.90478647041E+01 0.92053210891E+01 0.93533736174E+01
 0.94225699059E+01 0.93401533867E+01 0.90418763641E+01 0.84824454206E+01 0.76449271076E+01
 0.65477406769E+01 0.52475468760E+01 0.38363796683E+01 0.24322841494E+01 0.11645004984E+01
 0.18978031204E+01 0.11505353001E+01 0.75610870080E+00 0.75610867592E+00 0.11505352163E+01
 0.18978029572E+01 0.29199159684E+01 0.41126050491E+01 0.53594413527E+01 0.65477403142E+01
 0.75832360489E+01 0.84007452709E+01 0.89693103737E+01 0.92918682339E+01 0.94005510463E+01
 0.93490365785E+01 0.92032342377E+01 0.90311810565E+01 0.88804669997E+01 0.87700795873E+01
 0.87118629258E+01 0.87118629621E+01 0.87700796758E+01 0.88804670887E+01 0.90311810883E+01
 0.92032341773E+01 0.93490364330E+01 0.94005508660E+01 0.92918680941E+01 0.89693103458E+01
 0.84007453944E+01 0.75832363167E+01 0.65477406769E+01 0.53594417388E+01 0.41126053916E+01
 0.29199162258E+01 0.36732464009E+01 0.29017845040E+01 0.24019815035E+01 0.22289629018E+01
 0.24019813674E+01 0.29017842689E+01 0.36732461277E+01 0.46330106422E+01 0.56812210655E+01
 0.67155362925E+01 0.76449270761E+01 0.84007453847E+01 0.89433872386E+01 0.92641067999E+01
 0.93825568753E+01 0.93411028097E+01 0.91969987188E+01 0.90134424385E+01 0.88421622470E+01
 0.87056825460E+01 0.86179869248E+01 0.85877732374E+01 0.86179869932E+01 0.87056826797E+01
 0.88421624369E+01 0.90134426659E+01 0.91969989552E+01 0.93411030214E+01 0.93825570332E+01
 0.92641068906E+01 0.89433872724E+01 0.84007453944E+01 0.76449271076E+01 0.67155363871E+01
 0.56812212432E+01 0.46330108900E+01 0.53381874336E+01 0.46116658415E+01 0.40749064530E+01
 0.37898039542E+01 0.37898038679E+01 0.40749062406E+01 0.46116656206E+01 0.53381873369E+01
 0.61733475141E+01 0.70286901668E+01 0.78208722099E+01 0.84824457693E+01 0.89693104864E+01
 0.92641067442E+01 0.93757046318E+01 0.93354591841E+01 0.91910639476E+01 0.89988649115E+01
 0.88102406727E+01 0.86502151911E+01 0.85343369222E+01 0.84735724505E+01 0.84735724530E+01
 0.85343369577E+01 0.86502153264E+01 0.88102409707E+01 0.89988653852E+01 0.91910645345E+01
 0.93354597574E+01 0.93757050452E+01 0.92641068906E+01 0.89693103458E+01 0.84824454206E+01
 0.78208718011E+01 0.70286898553E+01 0.61733474027E+01 0.67767863559E+01 0.61500323981E+01
 0.56383003932E+01 0.53034204366E+01 0.51869189373E+01 0.53034203311E+01 0.56383002917E+01
 0.61500324599E+01 0.67767867007E+01 0.74460255011E+01 0.80852776596E+01 0.86321340002E+01
 0.90418767515E+01 0.92918680252E+01 0.93825565257E+01 0.93354589822E+01 0.91886882589E+01
 0.89906903838E+01 0.87891127402E+01 0.86094959048E+01 0.84682732916E+01 0.83781777220E+01
 0.83472336034E+01 0.83781775524E+01 0.84682730793E+01 0.86094958395E+01 0.87891129764E+01
 0.89906909556E+01 0.91886890484E+01 0.93354597574E+01 0.93825570332E+01 0.92918680941E+01
 0.90418763641E+01 0.86321332969E+01 0.80852768762E+01 0.74460248693E+01 0.79142709842E+01
 0.74219822429E+01 0.69829996662E+01 0.66534043540E+01 0.64767197361E+01 0.64767197415E+01
 0.66534044125E+01 0.69829998777E+01 0.74219826957E+01 0.79142716826E+01 0.84001029234E+01
 0.88248754666E+01 0.91464786030E+01 0.93401533658E+01 0.94005503995E+01 0.93411022871E+01
 0.91910638145E+01 0.89906905243E+01 0.87817250764E+01 0.85879434804E+01 0.84259172983E+01
 0.83095327345E+01 0.82487471176E+01 0.82487469055E+01 0.83095321941E+01 0.84259166747E+01
 0.85879430610E+01 0.87817250659E+01 0.89906909556E+01 0.91910645345E+01 0.93411030214E+01
 0.94005508660E+01 0.93401533867E+01 0.91464781675E+01 0.88248747204E+01 0.84001020952E+01
 0.87213660094E+01 0.83763357075E+01 0.80390247498E+01 0.77559802703E+01 0.75676755907E+01
 0.75016527222E+01 0.75676757567E+01 0.77559805951E+01 0.80390252061E+01 0.83763362334E+01
 0.87213665051E+01 0.90289338000E+01 0.92618790256E+01 0.93959687326E+01 0.94225694964E+01
 0.93490359515E+01 0.91969986033E+01 0.89988653449E+01 0.87891133379E+01 0.85879437780E+01
 0.84113253254E+01 0.82736080406E+01 0.81861302201E+01 0.81561404367E+01 0.81861297384E+01
 0.82736072289E+01 0.84113244323E+01 0.85879430610E+01 0.87891129764E+01 0.89988653852E+01
 0.91969989552E+01 0.93490364330E+01 0.94225699059E+01 0.93959689183E+01 0.92618789277E+01
 0.90289334534E+01 0.92111813322E+01 0.90060807626E+01 0.87796666943E+01 0.85672211853E+01
 0.84027555085E+01 0.83131184377E+01 0.83131185603E+01 0.84027558219E+01 0.85672215483E+01
 0.87796669361E+01 0.90060807522E+01 0.92111810316E+01 0.93641391057E+01 0.94431830812E+01
 0.94385181844E+01 0.93533734453E+01 0.92032343596E+01 0.90134431803E+01 0.88102417158E+01
 0.86094966738E+01 0.84259174583E+01 0.82736078528E+01 0.81646463095E+01 0.81078446651E+01
 0.81078445299E+01 0.81646459133E+01 0.82736072289E+01 0.84259166747E+01 0.86094958395E+01
 0.88102409707E+01 0.90134426659E+01 0.92032341773E+01 0.93533736174E+01 0.94385186373E+01
 0.94431836607E+01 0.93641396244E+01 0.94308903374E+01 0.93424609995E+01 0.92185899715E+01
 0.90833318374E+01 0.89625782243E+01 0.88794206577E+01 0.88498043552E+01 0.88794207945E+01
 0.89625783564E+01 0.90833317582E+01 0.92185895243E+01 0.93424601760E+01 0.94308893088E+01
 0.94657158386E+01 0.94375434704E+01 0.93471396644E+01 0.92053217119E+01 0.90311820765E+01
 0.88421634716E+01 0.86502161102E+01 0.84682734530E+01 0.83095321867E+01 0.81861295307E+01
 0.81078443493E+01 0.80810175513E+01 0.81078445299E+01 0.81861297384E+01 0.83095321941E+01
 0.84682730793E+01 0.86502153264E+01 0.88421624369E+01 0.90311810883E+01 0.92053210891E+01
 0.93471396158E+01 0.94375440082E+01 0.94657167751E+01 0.94506593495E+01 0.94451714317E+01
 0.94020275917E+01 0.93353868269E+01 0.92628919468E+01 0.92023087565E+01 0.91680049058E+01
 0.91680048607E+01 0.92023085767E+01 0.92628915327E+01 0.93353861044E+01 0.94020265962E+01
 0.94451703437E+01 0.94506584551E+01 0.94104254649E+01 0.93240086858E+01 0.91988380035E+01
 0.90478658105E+01 0.88804681005E+01 0.87056832273E+01 0.85343368521E+01 0.83781768670E+01
 0.82487459488E+01 0.81561396253E+01 0.81078443493E+01 0.81078446651E+01 0.81561404367E+01
 0.82487469055E+01 0.83781775524E+01 0.85343369577E+01 0.87056826797E+01 0.88804670887E+01
 0.90478647041E+01 0.91988372020E+01 0.93240084641E+01 0.94104258803E+01 0.93516691685E+01
 0.93907889398E+01 0.93982656573E+01 0.93805017678E+01 0.93479040446E+01 0.93126624825E+01
 0.92861281392E+01 0.92763196169E+01 0.92861277959E+01 0.93126618481E+01 0.93479032251E+01
 0.93805009190E+01 0.93982649645E+01 0.93907885767E+01 0.93516692432E+01 0.92799578120E+01
 0.91804701870E+01 0.90589336067E+01 0.89199221816E+01 0.87700797326E+01 0.86179864438E+01
 0.84735713921E+01 0.83472323035E+01 0.82487459488E+01 0.81861295307E+01 0.81646463095E+01
 0.81861302201E+01 0.82487471176E+01 0.83472336034E+01 0.84735724530E+01 0.86179869932E+01
 0.87700796758E+01 0.89199216174E+01 0.90589327786E+01 0.91804693926E+01 0.92799573061E+01
 0.92144522393E+01 0.92609375905E+01 0.92861139939E+01 0.92911921220E+01 0.92810762547E+01
 0.92631277965E+01 0.92453736982E+01 0.92345718346E+01 0.92345716266E+01 0.92453731597E+01
 0.92631271500E+01 0.92810757731E+01 0.92911920229E+01 0.92861143562E+01 0.92609383252E+01
 0.92144531228E+01 0.91473324968E+01 0.90601122911E+01 0.89551801120E+01 0.88369752369E+01
 0.87118620174E+01 0.85877721359E+01 0.84735713921E+01 0.83781768670E+01 0.83095321867E+01
 0.82736078528E+01 0.82736080406E+01 0.83095327345E+01 0.83781777220E+01 0.84735724505E+01
 0.85877732374E+01 0.87118629621E+01 0.88369758294E+01 0.89551802216E+01 0.90601119055E+01
 0.91473317429E+01 0.90972344178E+01 0.91286632525E+01 0.91434303503E+01 0.91442738950E+01
 0.91347486369E+01 0.91189495782E+01 0.91021274409E+01 0.90894836643E+01 0.90848075946E+01
 0.90894835068E+01 0.91021272836E+01 0.91189496522E+01 0.91347491198E+01 0.91442748017E+01
 0.91434314971E+01 0.91286643136E+01 0.90972350524E+01 0.90479664831E+01 0.89814459659E+01
 0.89001233459E+01 0.88082865540E+01 0.87118620174E+01 0.86179864438E+01 0.85343368521E+01
 0.84682734530E+01 0.84259174583E+01 0.84113253254E+01 0.84259172983E+01 0.84682732916E+01
 0.85343369222E+01 0.86179869248E+01 0.87118629258E+01 0.88082877069E+01 0.89001244173E+01
 0.89814466138E+01 0.90479664903E+01 0.90203218405E+01 0.90294593758E+01 0.90235039178E+01
 0.90051220636E+01 0.89782923086E+01 0.89478880657E+01 0.89191021845E+01 0.88967514720E+01
 0.88845566612E+01 0.88845567883E+01 0.88967518684E+01 0.89191028743E+01 0.89478890304E+01
 0.89782934386E+01 0.90051231493E+01 0.90235046962E+01 0.90294596218E+01 0.90203214662E+01
 0.89950034802E+01 0.89541418975E+01 0.89001233459E+01 0.88369752369E+01 0.87700797326E+01
 0.87056832273E+01 0.86502161102E+01 0.86094966738E+01 0.85879437780E+01 0.85879434804E+01
 0.86094959048E+01 0.86502151911E+01 0.87056825460E+01 0.87700795873E+01 0.88369757185E+01
 0.89001243054E+01 0.89541430088E+01 0.89950043671E+01 0.89935810389E+01 0.89765518489E+01
 0.89450054344E+01 0.89016827147E+01 0.88507772516E+01 0.87975723813E+01 0.87479014998E+01
 0.87074586083E+01 0.86810420673E+01 0.86718605555E+01 0.86810426488E+01 0.87074596222E+01
 0.87479026877E+01 0.87975734440E+01 0.88507779289E+01 0.89016828545E+01 0.89450050327E+01
 0.89765510505E+01 0.89935800979E+01 0.89950034802E+01 0.89814459659E+01 0.89551801120E+01
 0.89199221816E+01 0.88804681005E+01 0.88421634716E+01 0.88102417158E+01 0.87891133379E+01
 0.87817250764E+01 0.87891127402E+01 0.88102406727E+01 0.88421622470E+01 0.88804669997E+01
 0.89199214702E+01 0.89551799454E+01 0.89814463496E+01 0.89950042697E+01 0.90203218559E+01
 0.89765519581E+01 0.89177401412E+01 0.88467153487E+01 0.87679401504E+01 0.86872167905E+01
 0.86111860134E+01 0.85466331624E+01 0.84996737280E+01 0.84749435654E+01 0.84749438629E+01
 0.84996744963E+01 0.85466340797E+01 0.86111866910E+01 0.86872169289E+01 0.87679396574E+01
 0.88467143727E+01 0.89177390096E+01 0.89765510505E+01 0.90203214662E+01 0.90479664831E+01
 0.90601122911E+01 0.90589336067E+01 0.90478658105E+01 0.90311820765E+01 0.90134431803E+01
 0.89988653449E+01 0.89906905243E+01 0.89906903838E+01 0.89988649115E+01 0.90134424385E+01
 0.90311810565E+01 0.90478646329E+01 0.90589324891E+01 0.90601114996E+01 0.90479662407E+01
 0.90972344444E+01 0.90294596577E+01 0.89450057020E+01 0.88467154518E+01 0.87392599609E+01
 0.86289303781E+01 0.85231944790E+01 0.84300130762E+01 0.83569740564E+01 0.83103650206E+01
 0.82943439633E+01 0.83103651943E+01 0.83569742424E+01 0.84300130365E+01 0.85231940274E+01
 0.86289294911E+01 0.87392588160E+01 0.88467143727E+01 0.89450050327E+01 0.90294596218E+01
 0.90972350524E+01 0.91473324968E+01 0.91804701870E+01 0.91988380035E+01 0.92053217119E+01
 0.92032343596E+01 0.91969986033E+01 0.91910638145E+01 0.91886882589E+01 0.91910639476E+01
 0.91969987188E+01 0.92032342377E+01 0.92053211876E+01 0.91988370718E+01 0.91804690361E+01
 0.91473314505E+01 0.92144522699E+01 0.91286635893E+01 0.90235043305E+01 0.89016829674E+01
 0.87679402337E+01 0.86289304018E+01 0.84928523007E+01 0.83688001888E+01 0.82658705435E+01
 0.81921353376E+01 0.81536461165E+01 0.81536459395E+01 0.81921348201E+01 0.82658697327E+01
 0.83687991803E+01 0.84928512454E+01 0.86289294911E+01 0.87679396574E+01 0.89016828545E+01
 0.90235046962E+01 0.91286643136E+01 0.92144531228E+01 0.92799578120E+01 0.93240086858E+01
 0.93471396644E+01 0.93533734453E+01 0.93490359515E+01 0.93411022871E+01 0.93354589822E+01
 0.93354591841E+01 0.93411028097E+01 0.93490365785E+01 0.93533739115E+01 0.93471397591E+01
 0.93240083334E+01 0.92799571003E+01 0.93516691953E+01 0.92609378416E+01 0.91434307165E+01
 0.90051223228E+01 0.88507773517E+01 0.86872168442E+01 0.85231945368E+01 0.83688001946E+01
 0.82345667145E+01 0.81303732740E+01 0.80643062401E+01 0.80416681044E+01 0.80643055708E+01
 0.81303721415E+01 0.82345654602E+01 0.83687991803E+01 0.85231940274E+01 0.86872169289E+01
 0.88507779289E+01 0.90051231493E+01 0.91434314971E+01 0.92609383252E+01 0.93516692432E+01
 0.94104254649E+01 0.94375434704E+01 0.94385181844E+01 0.94225694964E+01 0.94005503995E+01
 0.93825565257E+01 0.93757046318E+01 0.93825568753E+01 0.94005510463E+01 0.94225703339E+01
 0.94385190559E+01 0.94375441894E+01 0.94104258559E+01 0.94506593660E+01 0.93907889995E+01
 0.92861141359E+01 0.91442739979E+01 0.89782923265E+01 0.87975724217E+01 0.86111861268E+01
 0.84300131193E+01 0.82658703917E+01 0.81303730730E+01 0.80336813914E+01 0.79833301473E+01
 0.79833298382E+01 0.80336805983E+01 0.81303721415E+01 0.82658697327E+01 0.84300130365E+01
 0.86111866910E+01 0.87975734440E+01 0.89782934386E+01 0.91442748017E+01 0.92861143562E+01
 0.93907885767E+01 0.94506584551E+01 0.94657158386E+01 0.94431830812E+01 0.93959687326E+01
 0.93401533658E+01 0.92918680252E+01 0.92641067442E+01 0.92641067999E+01 0.92918682339E+01
 0.93401538204E+01 0.93959694982E+01 0.94431841145E+01 0.94657169542E+01 0.94308903406E+01
 0.94451712703E+01 0.93982654873E+01 0.92911919624E+01 0.91347484930E+01 0.89478880464E+01
 0.87479016620E+01 0.85466333046E+01 0.83569738735E+01 0.81921348274E+01 0.80643057757E+01
 0.79833300162E+01 0.79555997370E+01 0.79833298382E+01 0.80643055708E+01 0.81921348201E+01
 0.83569742424E+01 0.85466340797E+01 0.87479026877E+01 0.89478890304E+01 0.91347491198E+01
 0.92911920229E+01 0.93982649645E+01 0.94451703437E+01 0.94308893088E+01 0.93641391057E+01
 0.92618790256E+01 0.91464786030E+01 0.90418767515E+01 0.89693104864E+01 0.89433872386E+01
 0.89693103737E+01 0.90418766600E+01 0.91464787273E+01 0.92618795100E+01 0.93641399502E+01
 0.92111813227E+01 0.93424606711E+01 0.94020271466E+01 0.93805013477E+01 0.92810759341E+01
 0.91189494754E+01 0.89191023804E+01 0.87074589069E+01 0.84996736940E+01 0.83103644391E+01
 0.81536453366E+01 0.80416677207E+01 0.79833300162E+01 0.79833301473E+01 0.80416681044E+01
 0.81536459395E+01 0.83103651943E+01 0.84996744963E+01 0.87074596222E+01 0.89191028743E+01
 0.91189496522E+01 0.92810757731E+01 0.93805009190E+01 0.94020265962E+01 0.93424601760E+01
 0.92111810316E+01 0.90289338000E+01 0.88248754666E+01 0.86321340002E+01 0.84824457693E+01
 0.84007453847E+01 0.84007452709E+01 0.84824454791E+01 0.86321336657E+01 0.88248752473E+01
 0.90289338185E+01 0.87213659907E+01 0.90060803774E+01 0.92185893933E+01 0.93353862593E+01
 0.93479036135E+01 0.92631276257E+01 0.91021276474E+01 0.88967519369E+01 0.86810423270E+01
 0.84749431902E+01 0.82943431116E+01 0.81536453366E+01 0.80643057757E+01 0.80336813914E+01
 0.80643062401E+01 0.81536461165E+01 0.82943439633E+01 0.84749438629E+01 0.86810426488E+01
 0.88967518684E+01 0.91021272836E+01 0.92631271500E+01 0.93479032251E+01 0.93353861044E+01
 0.92185895243E+01 0.90060807522E+01 0.87213665051E+01 0.84001029234E+01 0.80852776596E+01
 0.78208722099E+01 0.76449270761E+01 0.75832360489E+01 0.76449269140E+01 0.78208718899E+01
 0.80852772040E+01 0.84001023897E+01 0.79142709617E+01 0.83763353816E+01 0.87796661656E+01
 0.90833312983E+01 0.92628915311E+01 0.93126622978E+01 0.92453738874E+01 0.90894842343E+01
 0.88845572429E+01 0.86718605819E+01 0.84749431902E+01 0.83103644391E+01 0.81921348274E+01
 0.81303730730E+01 0.81303732740E+01 0.81921353376E+01 0.83103650206E+01 0.84749435654E+01
 0.86718605555E+01 0.88845567883E+01 0.90894835068E+01 0.92453731597E+01 0.93126618481E+01
 0.92628915327E+01 0.90833317582E+01 0.87796669361E+01 0.83763362334E+01 0.79142716826E+01
 0.74460255011E+01 0.70286901668E+01 0.67155362925E+01 0.65477403142E+01 0.65477403048E+01
 0.67155362225E+01 0.70286899382E+01 0.74460250277E+01 0.67767863347E+01 0.74219820499E+01
 0.80390244147E+01 0.85672208388E+01 0.89625779602E+01 0.92023086319E+01 0.92861282870E+01
 0.92345723882E+01 0.90848083799E+01 0.88845572429E+01 0.86810423270E+01 0.84996736940E+01
 0.83569738735E+01 0.82658703917E+01 0.82345667145E+01 0.82658705435E+01 0.83569740564E+01
 0.84996737280E+01 0.86810420673E+01 0.88845566612E+01 0.90848075946E+01 0.92345716266E+01
 0.92861277959E+01 0.92023085767E+01 0.89625783564E+01 0.85672215483E+01 0.80390252061E+01
 0.74219826957E+01 0.67767867007E+01 0.61733475141E+01 0.56812210655E+01 0.53594413527E+01
 0.52475464540E+01 0.53594414445E+01 0.56812211442E+01 0.61733474271E+01 0.53381874175E+01
 0.61500323430E+01 0.69829995724E+01 0.77559801996E+01 0.84027554861E+01 0.88794206593E+01
 0.91680050014E+01 0.92763200147E+01 0.92345723882E+01 0.90894842343E+01 0.88967519369E+01
 0.87074589069E+01 0.85466333046E+01 0.84300131193E+01 0.83688001946E+01 0.83688001888E+01
 0.84300130762E+01 0.85466331624E+01 0.87074586083E+01 0.88967514720E+01 0.90894836643E+01
 0.92345718346E+01 0.92763196169E+01 0.91680048607E+01 0.88794207945E+01 0.84027558219E+01
 0.77559805951E+01 0.69829998777E+01 0.61500324599E+01 0.53381873369E+01 0.46330106422E+01
 0.41126050491E+01 0.38363793246E+01 0.38363794041E+01 0.41126052440E+01 0.46330108422E+01
 0.36732463915E+01 0.46116658677E+01 0.56383004807E+01 0.66534045297E+01 0.75676758168E+01
 0.83131185973E+01 0.88498044075E+01 0.91680050014E+01 0.92861282870E+01 0.92453738874E+01
 0.91021276474E+01 0.89191023804E+01 0.87479016620E+01 0.86111861268E+01 0.85231945368E+01
 0.84928523007E+01 0.85231944790E+01 0.86111860134E+01 0.87479014998E+01 0.89191021845E+01
 0.91021274409E+01 0.92453736982E+01 0.92861281392E+01 0.91680049058E+01 0.88498043552E+01
 0.83131185603E+01 0.75676757567E+01 0.66534044125E+01 0.56383002917E+01 0.46116656206E+01
 0.36732461277E+01 0.29199159684E+01 0.24322839600E+01 0.22635522885E+01 0.24322840881E+01
 0.29199161916E+01 0.18978031174E+01 0.29017845274E+01 0.40749065918E+01 0.53034207357E+01
 0.64767201325E+01 0.75016530251E+01 0.83131185973E+01 0.88794206593E+01 0.92023086319E+01
 0.93126622978E+01 0.92631276257E+01 0.91189494754E+01 0.89478880464E+01 0.87975724217E+01
 0.86872168442E+01 0.86289304018E+01 0.86289303781E+01 0.86872167905E+01 0.87975723813E+01
 0.89478880657E+01 0.91189495782E+01 0.92631277965E+01 0.93126624825E+01 0.92023087565E+01
 0.88794206577E+01 0.83131184377E+01 0.75016527222E+01 0.64767197415E+01 0.53034203311E+01
 0.40749062406E+01 0.29017842689E+01 0.18978029572E+01 0.11645004631E+01 0.77766837210E+00
 0.77766839550E+00 0.11645005434E+01 0.15605089083E+00 0.11505352539E+01 0.24019815608E+01
 0.37898042198E+01 0.51869193745E+01 0.64767201325E+01 0.75676758168E+01 0.84027554861E+01
 0.89625779602E+01 0.92628915311E+01 0.93479036135E+01 0.92810759341E+01 0.91347484930E+01
 0.89782923265E+01 0.88507773517E+01 0.87679402337E+01 0.87392599609E+01 0.87679401504E+01
 0.88507772516E+01 0.89782923086E+01 0.91347486369E+01 0.92810762547E+01 0.93479040446E+01
 0.92628919468E+01 0.89625782243E+01 0.84027555085E+01 0.75676755907E+01 0.64767197361E+01
 0.51869189373E+01 0.37898038679E+01 0.24019813674E+01 0.11505352163E+01 0.15605094358E+00
 -.48326947000E+00 -.70371510918E+00 -.48326952617E+00 -.13984522050E+01 -.49266358503E+00
 0.75610860558E+00 0.22289630149E+01 0.37898042198E+01 0.53034207357E+01 0.66534045297E+01
 0.77559801996E+01 0.85672208388E+01 0.90833312983E+01 0.93353862593E+01 0.93805013477E+01
 0.92911919624E+01 0.91442739979E+01 0.90051223228E+01 0.89016829674E+01 0.88467154518E+01
 0.88467153487E+01 0.89016827147E+01 0.90051220636E+01 0.91442738950E+01 0.92911921220E+01
 0.93805017678E+01 0.93353868269E+01 0.90833318374E+01 0.85672211853E+01 0.77559802703E+01
 0.66534043540E+01 0.53034204366E+01 0.37898039542E+01 0.22289629018E+01 0.75610867592E+00
 -.49266339527E+00 -.13984520155E+01 -.18742073832E+01 -.18742074613E+01 -.26236075341E+01
 -.18793183119E+01 -.71641944775E+00 0.75610860558E+00 0.24019815608E+01 0.40749065918E+01
 0.56383004807E+01 0.69829995724E+01 0.80390244147E+01 0.87796661656E+01 0.92185893933E+01
 0.94020271466E+01 0.93982654873E+01 0.92861141359E+01 0.91434307165E+01 0.90235043305E+01
 0.89450057020E+01 0.89177401412E+01 0.89450054344E+01 0.90235039178E+01 0.91434303503E+01
 0.92861139939E+01 0.93982656573E+01 0.94020275917E+01 0.92185899715E+01 0.87796666943E+01
 0.80390247498E+01 0.69829996662E+01 0.56383003932E+01 0.40749064530E+01 0.24019815035E+01
 0.75610870080E+00 -.71641922133E+00 -.18793180524E+01 -.26236073634E+01 -.28796542396E+01
 -.34065831505E+01 -.28814549641E+01 -.18793183119E+01 -.49266358503E+00 0.11505352539E+01
 0.29017845274E+01 0.46116658677E+01 0.61500323430E+01 0.74219820499E+01 0.83763353816E+01
 0.90060803774E+01 0.93424606711E+01 0.94451712703E+01 0.93907889995E+01 0.92609378416E+01
 0.91286635893E+01 0.90294596577E+01 0.89765519581E+01 0.89765518489E+01 0.90294593758E+01
 0.91286632525E+01 0.92609375905E+01 0.93907889398E+01 0.94451714317E+01 0.93424609995E+01
 0.90060807626E+01 0.83763357075E+01 0.74219822429E+01 0.61500323981E+01 0.46116658415E+01
 0.29017845040E+01 0.11505353001E+01 -.49266345237E+00 -.18793181320E+01 -.28814548100E+01
 -.34065830901E+01 -.33769209460E+01 -.31126702964E+01 -.23441292812E+01 -.11421581606E+01
 0.38187284686E+00 0.20880170775E+01 0.38253658078E+01 0.54524855764E+01 0.68559655148E+01
 0.79628020772E+01 0.87447041684E+01 0.92150461373E+01 0.94207171051E+01 0.94312392162E+01
 0.93269461675E+01 0.91874018266E+01 0.90690220567E+01 0.89914414875E+01 0.89644822669E+01
 0.89914414755E+01 0.90690220360E+01 0.91874018027E+01 0.93269461465E+01 0.94312392031E+01
 0.94207171023E+01 0.92150461444E+01 0.87447041827E+01 0.79628020947E+01 0.68559655313E+01
 0.54524855891E+01 0.38253658153E+01 0.20880170800E+01 0.38187284572E+00 -.11421581636E+01
 -.23441292843E+01 -.31126702982E+01 -.31126702982E+01 -.31126702394E+01 -.25956038755E+01
 -.16093331010E+01 -.24569596304E+00 0.13685398765E+01 0.30866790402E+01 0.47615326497E+01
 0.62652945362E+01 0.75051563354E+01 0.84315144517E+01 0.90382940520E+01 0.93570556610E+01
 0.94472937658E+01 0.93850003435E+01 0.92509641650E+01 0.91168715520E+01 0.90166184155E+01
 0.89632251582E+01 0.89632252529E+01 0.90166186587E+01 0.91168718383E+01 0.92509643696E+01
 0.93850003744E+01 0.94472936011E+01 0.93570553545E+01 0.90382937064E+01 0.84315141725E+01
 0.75051561861E+01 0.62652945154E+01 0.47615326989E+01 0.30866790776E+01 0.13685398391E+01
 -.24569608905E+00 -.16093332751E+01 -.25956040253E+01 -.23441292843E+01 -.25970089357E+01
 -.23441291214E+01 -.16093330290E+01 -.46214676802E+00 0.98885324594E+00 0.26082745920E+01
 0.42512651741E+01 0.57831106527E+01 0.70966792245E+01 0.81238745384E+01 0.88394640605E+01
 0.92580352659E+01 0.94261608492E+01 0.94119413665E+01 0.92935858507E+01 0.91479963256E+01
 0.90265580041E+01 0.89472700263E+01 0.89197626894E+01 0.89472702819E+01 0.90265583975E+01
 0.91479966730E+01 0.92935859821E+01 0.94119411988E+01 0.94261604198E+01 0.92580347129E+01
 0.88394635604E+01 0.81238742297E+01 0.70966791518E+01 0.57831107561E+01 0.42512653259E+01
 0.26082746624E+01 0.98885316537E+00 -.46214697899E+00 -.16093332751E+01 -.11421581636E+01
 -.16133297106E+01 -.16133296374E+01 -.11421579873E+01 -.24569591697E+00 0.98885321866E+00
 0.24426920775E+01 0.39803082811E+01 0.54676376041E+01 0.67898879007E+01 0.78651236011E+01
 0.86511744948E+01 0.91456472638E+01 0.93804902609E+01 0.94131093596E+01 0.93157711546E+01
 0.91646179309E+01 0.90234697627E+01 0.89189341084E+01 0.88634976506E+01 0.88634977587E+01
 0.89189343756E+01 0.90234700430E+01 0.91646180577E+01 0.93157710174E+01 0.94131089564E+01
 0.93804897019E+01 0.91456467244E+01 0.86511741410E+01 0.78651235196E+01 0.67898880669E+01
 0.54676378991E+01 0.39803085506E+01 0.24426922024E+01 0.98885316537E+00 -.24569608905E+00
 0.38187284572E+00 -.25305905977E+00 -.47210135432E+00 -.25305901306E+00 0.38187288317E+00
 0.13685397866E+01 0.26082744615E+01 0.39803082042E+01 0.53579027814E+01 0.66254150575E+01
 0.76927904425E+01 0.85047234036E+01 0.90434824416E+01 0.93261050839E+01 0.93975504842E+01
 0.93214433088E+01 0.91697546265E+01 0.90108104078E+01 0.88819577201E+01 0.87984883950E+01
 0.87696289308E+01 0.87984885014E+01 0.88819578608E+01 0.90108104740E+01 0.91697545272E+01
 0.93214430190E+01 0.93975500633E+01 0.93261046563E+01 0.90434821471E+01 0.85047233402E+01
 0.76927906265E+01 0.66254154193E+01 0.53579031977E+01 0.39803085506E+01 0.26082746624E+01
 0.13685398391E+01 0.20880170800E+01 0.13575762438E+01 0.97193152325E+00 0.97193149476E+00
 0.13575761509E+01 0.20880169069E+01 0.30866788151E+01 0.42512649869E+01 0.54676375259E+01
 0.66254150763E+01 0.76323410651E+01 0.84247257108E+01 0.89724987614E+01 0.92789121866E+01
 0.93759507860E+01 0.93168156337E+01 0.91667335511E+01 0.89928622938E+01 0.88411409391E+01
 0.87301212589E+01 0.86715980976E+01 0.86715981309E+01 0.87301213395E+01 0.88411410184E+01
 0.89928623172E+01 0.91667334854E+01 0.93168154854E+01 0.93759506026E+01 0.92789120401E+01
 0.89724987206E+01 0.84247258154E+01 0.76323413112E+01 0.66254154193E+01 0.54676378991E+01
 0.42512653259E+01 0.30866790776E+01 0.38253658153E+01 0.30724446157E+01 0.25844793190E+01
 0.24155292416E+01 0.25844791822E+01 0.30724443811E+01 0.38253655468E+01 0.47615324621E+01
 0.57831105961E+01 0.67898879944E+01 0.76927906180E+01 0.84247258254E+01 0.89471238464E+01
 0.92517406881E+01 0.93582686175E+01 0.93087574294E+01 0.91599028533E+01 0.89741855785E+01
 0.88018167168E+01 0.86646228798E+01 0.85765198675E+01 0.85461734101E+01 0.85765199271E+01
 0.86646229985E+01 0.88018168899E+01 0.89741857915E+01 0.91599030796E+01 0.93087576347E+01
 0.93582687697E+01 0.92517407702E+01 0.89471238661E+01 0.84247258154E+01 0.76927906265E+01
 0.67898880669E+01 0.57831107561E+01 0.47615326989E+01 0.54524855891E+01 0.47448165024E+01
 0.42217075930E+01 0.39437728749E+01 0.39437727927E+01 0.42217073922E+01 0.47448162985E+01
 0.54524855120E+01 0.62652946457E+01 0.70966794789E+01 0.78651239392E+01 0.85047236948E+01
 0.89724988635E+01 0.92517406247E+01 0.93515307870E+01 0.93030737230E+01 0.91536432406E+01
 0.89589898088E+01 0.87691950483E+01 0.86083867912E+01 0.84920257977E+01 0.84310302317E+01
 0.84310302304E+01 0.84920258228E+01 0.86083869118E+01 0.87691953305E+01 0.89589902684E+01
 0.91536438173E+01 0.93030742906E+01 0.93515311980E+01 0.92517407702E+01 0.89724987206E+01
 0.85047233402E+01 0.78651235196E+01 0.70966791518E+01 0.62652945154E+01 0.68559655313E+01
 0.62471369734E+01 0.57496033830E+01 0.54238449114E+01 0.53104890067E+01 0.54238448226E+01
 0.57496033088E+01 0.62471370634E+01 0.68559658955E+01 0.75051568228E+01 0.81238750037E+01
 0.86511748263E+01 0.90434825158E+01 0.92789119591E+01 0.93582682600E+01 0.93030735219E+01
 0.91511650030E+01 0.89505115703E+01 0.87476604685E+01 0.85671877802E+01 0.84254184711E+01
 0.83350183726E+01 0.83039763819E+01 0.83350182065E+01 0.84254182632E+01 0.85671877163E+01
 0.87476607006E+01 0.89505121328E+01 0.91511657818E+01 0.93030742906E+01 0.93582687697E+01
 0.92789120401E+01 0.90434821471E+01 0.86511741410E+01 0.81238742297E+01 0.75051561861E+01
 0.79628020947E+01 0.74866025775E+01 0.70612809746E+01 0.67416308799E+01 0.65701873712E+01
 0.65701873870E+01 0.67416309649E+01 0.70612812159E+01 0.74866030490E+01 0.79628027907E+01