   2   2   0   0
  0.9775025E+01  0.2400000E-09  0.2400000E-09  0.3919176E-09  0.5000000E-15
  1.000000000000000E-004
  CAR 
 Si beta-tin                             
     31.68913242     -3.68152435  301     16.20145317      1.00000000
     -3.682  0.0000E+00  0.0000E+00
     -3.564  0.0000E+00  0.0000E+00
     -3.446  0.0000E+00  0.0000E+00
     -3.328  0.0000E+00  0.0000E+00
     -3.210  0.0000E+00  0.0000E+00
     -3.092  0.0000E+00  0.0000E+00
     -2.974  0.0000E+00  0.0000E+00
     -2.856  0.0000E+00  0.0000E+00
     -2.738  0.0000E+00  0.0000E+00
     -2.620  0.1674E-16  0.1974E-17
     -2.503  0.2095E-11  0.2471E-12
     -2.385  0.1733E-07  0.2043E-08
     -2.267  0.9977E-05  0.1178E-05
     -2.149  0.4434E-03  0.5346E-04
     -2.031  0.1833E-02  0.2696E-03
     -1.913  0.8188E-03  0.3661E-03
     -1.795  0.5128E-04  0.3722E-03
     -1.677  0.6373E-03  0.4473E-03
     -1.559  0.3105E-02  0.8134E-03
     -1.441  0.2283E-02  0.1083E-02
     -1.323  0.2404E-03  0.1111E-02
     -1.206  0.1417E-03  0.1128E-02
     -1.088  0.1391E-02  0.1292E-02
     -0.970  0.1451E-02  0.1463E-02
     -0.852  0.2291E-03  0.1490E-02
     -0.734  0.1626E-02  0.1681E-02
     -0.616  0.3815E-02  0.2131E-02
     -0.498  0.2303E-02  0.2403E-02
     -0.380  0.1522E-02  0.2582E-02
     -0.262  0.1716E-02  0.2784E-02
     -0.144  0.5353E-02  0.3416E-02
     -0.027  0.4092E-02  0.3898E-02
      0.091  0.1400E-02  0.4063E-02
      0.209  0.5042E-03  0.4122E-02
      0.327  0.1811E-02  0.4336E-02
      0.445  0.8806E-03  0.4440E-02
      0.563  0.3482E-03  0.4481E-02
      0.681  0.2890E-02  0.4822E-02
      0.799  0.3744E-02  0.5263E-02
      0.917  0.4033E-02  0.5739E-02
      1.035  0.2664E-02  0.6053E-02
      1.152  0.3411E-02  0.6455E-02
      1.270  0.4675E-02  0.7006E-02
      1.388  0.2912E-02  0.7349E-02
      1.506  0.1872E-02  0.7570E-02
      1.624  0.1563E-02  0.7754E-02
      1.742  0.1968E-03  0.7778E-02
      1.860  0.3994E-04  0.7782E-02
      1.978  0.1217E-02  0.7926E-02
      2.096  0.3940E-02  0.8390E-02
      2.214  0.3737E-02  0.8831E-02
      2.331  0.4004E-02  0.9303E-02
      2.449  0.6241E-02  0.1004E-01
      2.567  0.8807E-02  0.1108E-01
      2.685  0.3257E-02  0.1146E-01
      2.803  0.7901E-03  0.1155E-01
      2.921  0.2750E-02  0.1188E-01
      3.039  0.4719E-02  0.1243E-01
      3.157  0.3499E-02  0.1285E-01
      3.275  0.1149E-02  0.1298E-01
      3.393  0.1679E-02  0.1318E-01
      3.511  0.3222E-02  0.1356E-01
      3.628  0.5942E-02  0.1426E-01
      3.746  0.4788E-02  0.1483E-01
      3.864  0.6175E-02  0.1555E-01
      3.982  0.5021E-02  0.1615E-01
      4.100  0.3781E-02  0.1659E-01
      4.218  0.8036E-03  0.1669E-01
      4.336  0.1830E-02  0.1690E-01
      4.454  0.4289E-02  0.1741E-01
      4.572  0.3031E-02  0.1777E-01
      4.690  0.2578E-02  0.1807E-01
      4.807  0.4095E-02  0.1855E-01
      4.925  0.4214E-02  0.1905E-01
      5.043  0.3765E-02  0.1949E-01
      5.161  0.5308E-02  0.2012E-01
      5.279  0.5119E-02  0.2072E-01
      5.397  0.3128E-02  0.2109E-01
      5.515  0.3768E-02  0.2154E-01
      5.633  0.4418E-02  0.2206E-01
      5.751  0.4001E-02  0.2253E-01
      5.869  0.3356E-02  0.2292E-01
      5.986  0.2651E-02  0.2324E-01
      6.104  0.6529E-02  0.2401E-01
      6.222  0.5446E-02  0.2465E-01
      6.340  0.3323E-02  0.2504E-01
      6.458  0.5685E-02  0.2571E-01
      6.576  0.6562E-02  0.2648E-01
      6.694  0.1755E-02  0.2669E-01
      6.812  0.2477E-02  0.2698E-01
      6.930  0.7308E-02  0.2784E-01
      7.048  0.8180E-02  0.2881E-01
      7.165  0.3706E-02  0.2925E-01
      7.283  0.3430E-02  0.2965E-01
      7.401  0.9406E-02  0.3076E-01
      7.519  0.1238E-01  0.3222E-01
      7.637  0.5162E-02  0.3283E-01
      7.755  0.6545E-02  0.3360E-01
      7.873  0.3652E-02  0.3403E-01
      7.991  0.1013E-02  0.3415E-01
      8.109  0.2519E-02  0.3445E-01
      8.227  0.4101E-02  0.3493E-01
      8.344  0.2106E-02  0.3518E-01
      8.462  0.1402E-02  0.3534E-01
      8.580  0.5346E-02  0.3597E-01
      8.698  0.9009E-02  0.3704E-01
      8.816  0.5784E-02  0.3772E-01
      8.934  0.3435E-02  0.3812E-01
      9.052  0.3154E-02  0.3849E-01
      9.170  0.2546E-02  0.3880E-01
      9.288  0.5349E-02  0.3943E-01
      9.406  0.4989E-02  0.4001E-01
      9.524  0.6496E-02  0.4078E-01
      9.641  0.4762E-02  0.4134E-01
      9.759  0.3479E-02  0.4175E-01
      9.877  0.3580E-02  0.4217E-01
      9.995  0.6613E-02  0.4295E-01
     10.113  0.5742E-02  0.4363E-01
     10.231  0.8159E-03  0.4373E-01
     10.349  0.2605E-02  0.4403E-01
     10.467  0.8199E-02  0.4500E-01
     10.585  0.9124E-02  0.4608E-01
     10.703  0.4100E-02  0.4656E-01
     10.820  0.6450E-02  0.4732E-01
     10.938  0.4880E-02  0.4790E-01
     11.056  0.9561E-02  0.4902E-01
     11.174  0.9620E-02  0.5016E-01
     11.292  0.2164E-02  0.5041E-01
     11.410  0.2154E-02  0.5067E-01
     11.528  0.3878E-02  0.5112E-01
     11.646  0.4839E-02  0.5169E-01
     11.764  0.6369E-02  0.5244E-01
     11.882  0.6305E-02  0.5319E-01
     11.999  0.4508E-02  0.5372E-01
     12.117  0.9004E-02  0.5478E-01
     12.235  0.1280E-01  0.5629E-01
     12.353  0.5750E-02  0.5697E-01
     12.471  0.5880E-02  0.5766E-01
     12.589  0.3058E-02  0.5802E-01
     12.707  0.1019E-02  0.5814E-01
     12.825  0.1263E-03  0.5816E-01
     12.943  0.1677E-02  0.5835E-01
     13.061  0.5762E-02  0.5903E-01
     13.178  0.5722E-02  0.5971E-01
     13.296  0.6888E-02  0.6052E-01
     13.414  0.1562E-01  0.6236E-01
     13.532  0.1105E-01  0.6366E-01
     13.650  0.7367E-02  0.6453E-01
     13.768  0.7518E-02  0.6542E-01
     13.886  0.4349E-02  0.6593E-01
     14.004  0.7090E-02  0.6677E-01
     14.122  0.9773E-02  0.6792E-01
     14.240  0.2236E-02  0.6818E-01
     14.358  0.3432E-02  0.6859E-01
     14.475  0.7255E-02  0.6944E-01
     14.593  0.8370E-02  0.7043E-01
     14.711  0.2530E-02  0.7073E-01
     14.829  0.3191E-03  0.7077E-01
     14.947  0.2904E-02  0.7111E-01
     15.065  0.6350E-02  0.7186E-01
     15.183  0.1044E-01  0.7309E-01
     15.301  0.1396E-01  0.7473E-01
     15.419  0.1187E-01  0.7613E-01
     15.537  0.5585E-02  0.7679E-01
     15.654  0.6132E-02  0.7752E-01
     15.772  0.4778E-02  0.7808E-01
     15.890  0.1898E-02  0.7830E-01
     16.008  0.5106E-02  0.7890E-01
     16.126  0.4622E-02  0.7945E-01
     16.244  0.8395E-02  0.8044E-01
     16.362  0.9364E-02  0.8154E-01
     16.480  0.6493E-02  0.8231E-01
     16.598  0.8316E-02  0.8329E-01
     16.716  0.6083E-02  0.8401E-01
     16.833  0.6414E-02  0.8476E-01
     16.951  0.9474E-02  0.8588E-01
     17.069  0.7780E-02  0.8680E-01
     17.187  0.4177E-02  0.8729E-01
     17.305  0.6274E-02  0.8803E-01
     17.423  0.8023E-02  0.8898E-01
     17.541  0.2937E-02  0.8932E-01
     17.659  0.3575E-02  0.8974E-01
     17.777  0.3216E-02  0.9012E-01
     17.895  0.3060E-02  0.9048E-01
     18.012  0.5757E-02  0.9116E-01
     18.130  0.4966E-02  0.9175E-01
     18.248  0.1047E-02  0.9187E-01
     18.366  0.4218E-02  0.9237E-01
     18.484  0.1218E-01  0.9380E-01
     18.602  0.9322E-02  0.9490E-01
     18.720  0.6187E-02  0.9563E-01
     18.838  0.7208E-02  0.9648E-01
     18.956  0.8315E-02  0.9746E-01
     19.074  0.1201E-01  0.9888E-01
     19.192  0.1686E-01  0.1009E+00
     19.309  0.1417E-01  0.1025E+00
     19.427  0.7585E-02  0.1034E+00
     19.545  0.2201E-02  0.1037E+00
     19.663  0.4386E-03  0.1037E+00
     19.781  0.1742E-02  0.1039E+00
     19.899  0.1029E-02  0.1041E+00
     20.017  0.8639E-03  0.1042E+00
     20.135  0.5430E-02  0.1048E+00
     20.253  0.1136E-01  0.1062E+00
     20.371  0.1731E-01  0.1082E+00
     20.488  0.1887E-01  0.1104E+00
     20.606  0.8996E-02  0.1115E+00
     20.724  0.1212E-01  0.1129E+00
     20.842  0.6181E-02  0.1136E+00
     20.960  0.4902E-02  0.1142E+00
     21.078  0.8164E-02  0.1152E+00
     21.196  0.7475E-02  0.1161E+00
     21.314  0.7536E-02  0.1169E+00
     21.432  0.1134E-01  0.1183E+00
     21.550  0.5215E-02  0.1189E+00
     21.667  0.2015E-02  0.1191E+00
     21.785  0.1779E-02  0.1193E+00
     21.903  0.5794E-02  0.1200E+00
     22.021  0.5995E-02  0.1207E+00
     22.139  0.6813E-02  0.1215E+00
     22.257  0.1325E-01  0.1231E+00
     22.375  0.8675E-02  0.1241E+00
     22.493  0.6323E-02  0.1249E+00
     22.611  0.4800E-02  0.1254E+00
     22.729  0.2490E-02  0.1257E+00
     22.846  0.7012E-02  0.1266E+00
     22.964  0.1194E-01  0.1280E+00
     23.082  0.1218E-01  0.1294E+00
     23.200  0.6158E-02  0.1301E+00
     23.318  0.8405E-02  0.1311E+00
     23.436  0.2986E-02  0.1315E+00
     23.554  0.1337E-02  0.1316E+00
     23.672  0.4800E-02  0.1322E+00
     23.790  0.8584E-02  0.1332E+00
     23.908  0.1445E-01  0.1349E+00
     24.025  0.1226E-01  0.1364E+00
     24.143  0.6806E-02  0.1372E+00
     24.261  0.4963E-02  0.1377E+00
     24.379  0.3229E-02  0.1381E+00
     24.497  0.4623E-02  0.1387E+00
     24.615  0.1136E-01  0.1400E+00
     24.733  0.1029E-01  0.1412E+00
     24.851  0.7136E-02  0.1421E+00
     24.969  0.1040E-01  0.1433E+00
     25.087  0.8848E-02  0.1443E+00
     25.205  0.1020E-01  0.1455E+00
     25.322  0.8565E-02  0.1465E+00
     25.440  0.3694E-02  0.1470E+00
     25.558  0.3041E-02  0.1473E+00
     25.676  0.5559E-02  0.1480E+00
     25.794  0.3580E-02  0.1484E+00
     25.912  0.1399E-02  0.1486E+00
     26.030  0.2213E-02  0.1488E+00
     26.148  0.2469E-02  0.1491E+00
     26.266  0.1197E-02  0.1493E+00
     26.384  0.4334E-02  0.1498E+00
     26.501  0.1472E-01  0.1515E+00
     26.619  0.1010E-01  0.1527E+00
     26.737  0.1033E-01  0.1539E+00
     26.855  0.1183E-01  0.1553E+00
     26.973  0.4714E-02  0.1559E+00
     27.091  0.5658E-03  0.1559E+00
     27.209  0.1397E-02  0.1561E+00
     27.327  0.1450E-02  0.1563E+00
     27.445  0.3027E-03  0.1563E+00
     27.563  0.1410E-02  0.1565E+00
     27.680  0.1432E-02  0.1566E+00
     27.798  0.1622E-03  0.1567E+00
     27.916  0.6707E-03  0.1567E+00
     28.034  0.4541E-02  0.1573E+00
     28.152  0.3797E-02  0.1577E+00
     28.270  0.4373E-03  0.1578E+00
     28.388  0.8219E-03  0.1579E+00
     28.506  0.2349E-02  0.1582E+00
     28.624  0.2640E-02  0.1585E+00
     28.742  0.2498E-02  0.1588E+00
     28.859  0.1027E-02  0.1589E+00
     28.977  0.5734E-04  0.1589E+00
     29.095  0.2696E-06  0.1589E+00
     29.213  0.6085E-07  0.1589E+00
     29.331  0.2831E-04  0.1589E+00
     29.449  0.1047E-02  0.1590E+00
     29.567  0.3710E-02  0.1595E+00
     29.685  0.1442E-02  0.1596E+00
     29.803  0.5538E-04  0.1596E+00
     29.921  0.3614E-04  0.1596E+00
     30.039  0.8188E-03  0.1597E+00
     30.156  0.1833E-02  0.1599E+00
     30.274  0.4434E-03  0.1600E+00
     30.392  0.9977E-05  0.1600E+00
     30.510  0.1733E-07  0.1600E+00
     30.628  0.2095E-11  0.1600E+00
     30.746  0.1674E-16  0.1600E+00
     30.864  0.0000E+00  0.1600E+00
     30.982  0.0000E+00  0.1600E+00
     31.100  0.0000E+00  0.1600E+00
     31.218  0.0000E+00  0.1600E+00
     31.335  0.0000E+00  0.1600E+00
     31.453  0.0000E+00  0.1600E+00
     31.571  0.0000E+00  0.1600E+00
     31.689  0.0000E+00  0.1600E+00
