    2    2  100    1
  0.9775025E+01  0.2400000E-09  0.2400000E-09  0.3919176E-09  0.5000000E-15
  1.000000000000000E-004
  CAR 
 Si beta-tin                             
      8     36      8
 
  0.8333333E-01  0.8333333E-01  0.8333333E-01  0.1851852E-01
    1       -1.611259   1.000000
    2        6.057680   1.000000
    3        9.173259   1.000000
    4       21.864757   0.000000
    5       22.158479   0.000000
    6       28.431830   0.000000
    7       28.574646   0.000000
    8       28.711696   0.000000
 
  0.2500000E+00  0.8333333E-01  0.8333333E-01  0.3703704E-01
    1        0.679843   1.000000
    2        8.197723   1.000000
    3       11.118502   1.000000
    4       14.353601   1.000000
    5       18.982956   0.000000
    6       21.412246   0.000000
    7       24.007292   0.000000
    8       26.520302   0.000000
 
  0.4166667E+00  0.8333333E-01  0.8333333E-01  0.3703704E-01
    1        4.709047   1.000000
    2        7.297903   1.000000
    3       12.190064   1.000000
    4       14.504541   1.000000
    5       15.383180   1.000000
    6       17.216670   0.000000
    7       19.398067   0.000000
    8       25.198908   0.000000
 
 -0.4166667E+00  0.8333333E-01  0.8333333E-01  0.3703704E-01
    1        2.486742   1.000000
    2        9.510755   1.000000
    3       10.736337   1.000000
    4       13.348427   1.000000
    5       17.348503   0.000000
    6       18.759819   0.000000
    7       21.226730   0.000000
    8       25.631339   0.000000
 
 -0.2500000E+00  0.8333333E-01  0.8333333E-01  0.3703704E-01
    1       -0.690555   1.000000
    2        6.923768   1.000000
    3       10.004084   1.000000
    4       17.957555   0.000000
    5       20.366907   0.000000
    6       24.898436   0.000000
    7       26.739529   0.000000
    8       28.008482   0.000000
 
 -0.8333333E-01  0.8333333E-01  0.8333333E-01  0.1851852E-01
    1       -2.073767   1.000000
    2        5.621623   1.000000
    3        8.747734   1.000000
    4       23.975696   0.000000
    5       25.557346   0.000000
    6       27.210963   0.000000
    7       29.510295   0.000000
    8       30.081375   0.000000
 
  0.2500000E+00  0.2500000E+00  0.8333333E-01  0.1851852E-01
    1        3.826901   1.000000
    2       10.532300   1.000000
    3       11.708048   1.000000
    4       12.133697   1.000000
    5       14.946184   1.000000
    6       18.849796   0.000000
    7       19.752201   0.000000
    8       22.456555   0.000000
 
  0.4166667E+00  0.2500000E+00  0.8333333E-01  0.3703704E-01
    1        6.026316   1.000000
    2        8.583870   1.000000
    3       11.037078   1.000000
    4       13.652618   1.000000
    5       15.678687   1.000000
    6       17.029355   0.000000
    7       19.082542   0.000000
    8       20.210887   0.000000
 
 -0.4166667E+00  0.2500000E+00  0.8333333E-01  0.3703704E-01
    1        2.037423   1.000000
    2        9.412160   1.000000
    3       11.824690   1.000000
    4       13.435844   1.000000
    5       15.599690   1.000000
    6       20.098603   0.000000
    7       22.262048   0.000000
    8       23.829556   0.000000
 
 -0.2500000E+00  0.2500000E+00  0.8333333E-01  0.1851852E-01
    1       -0.232329   1.000000
    2        7.352131   1.000000
    3       10.396666   1.000000
    4       15.933292   0.999925
    5       22.432686   0.000000
    6       22.491882   0.000000
    7       24.301283   0.000000
    8       26.729640   0.000000
 
  0.4166667E+00  0.4166667E+00  0.8333333E-01  0.1851852E-01
    1        6.417918   1.000000
    2        6.492886   1.000000
    3       13.178053   1.000000
    4       14.061706   1.000000
    5       14.447378   1.000000
    6       16.852378   0.000000
    7       18.572508   0.000000
    8       22.110287   0.000000
 
 -0.4166667E+00  0.4166667E+00  0.8333333E-01  0.1851852E-01
    1        3.380648   1.000000
    2        8.491956   1.000000
    3       11.016073   1.000000
    4       14.023187   1.000000
    5       16.171834   0.662349
    6       18.883289   0.000000
    7       20.966936   0.000000
    8       24.009878   0.000000
 
  0.8333333E-01  0.8333333E-01  0.2500000E+00  0.1851852E-01
    1       -1.085435   1.000000
    2        3.563401   1.000000
    3       12.558419   1.000000
    4       22.180022   0.000000
    5       22.568589   0.000000
    6       25.157437   0.000000
    7       26.781975   0.000000
    8       26.835885   0.000000
 
  0.2500000E+00  0.8333333E-01  0.2500000E+00  0.3703704E-01
    1        1.197478   1.000000
    2        5.763188   1.000000
    3       13.787285   1.000000
    4       15.394920   1.000000
    5       18.446325   0.000000
    6       20.247223   0.000000
    7       23.842356   0.000000
    8       26.678183   0.000000
 
  0.4166667E+00  0.8333333E-01  0.2500000E+00  0.3703704E-01
    1        5.204067   1.000000
    2        7.681023   1.000000
    3        9.987193   1.000000
    4       12.388779   1.000000
    5       17.632964   0.000000
    6       19.279769   0.000000
    7       21.366955   0.000000
    8       23.215622   0.000000
 
 -0.4166667E+00  0.8333333E-01  0.2500000E+00  0.3703704E-01
    1        2.996874   1.000000
    2        7.443177   1.000000
    3       11.051432   1.000000
    4       15.163221   1.000000
    5       16.503022   0.000010
    6       19.259694   0.000000
    7       22.857957   0.000000
    8       24.521742   0.000000
 
 -0.2500000E+00  0.8333333E-01  0.2500000E+00  0.3703704E-01
    1       -0.167955   1.000000
    2        4.450025   1.000000
    3       13.325430   1.000000
    4       18.416813   0.000000
    5       20.676583   0.000000
    6       22.787488   0.000000
    7       24.968611   0.000000
    8       26.460489   0.000000
 
 -0.8333333E-01  0.8333333E-01  0.2500000E+00  0.1851852E-01
    1       -1.546345   1.000000
    2        3.117477   1.000000
    3       12.154072   1.000000
    4       24.003079   0.000000
    5       25.137662   0.000000
    6       25.980135   0.000000
    7       27.563439   0.000000
    8       29.522468   0.000000
 
  0.2500000E+00  0.2500000E+00  0.2500000E+00  0.1851852E-01
    1        4.330562   1.000000
    2        8.664394   1.000000
    3       12.161238   1.000000
    4       12.406284   1.000000
    5       16.179865   0.619930
    6       16.899668   0.000000
    7       19.123767   0.000000
    8       25.750691   0.000000
 
  0.4166667E+00  0.2500000E+00  0.2500000E+00  0.3703704E-01
    1        6.511486   1.000000
    2        8.939648   1.000000
    3       10.821162   1.000000
    4       12.141294   1.000000
    5       13.995593   1.000000
    6       16.279518   0.134797
    7       20.670396   0.000000
    8       23.007403   0.000000
 
 -0.4166667E+00  0.2500000E+00  0.2500000E+00  0.3703704E-01
    1        2.549696   1.000000
    2        7.049007   1.000000
    3       13.030891   1.000000
    4       15.150120   1.000000
    5       16.255851   0.220859
    6       18.397967   0.000000
    7       20.497659   0.000000
    8       26.431546   0.000000
 
 -0.2500000E+00  0.2500000E+00  0.2500000E+00  0.1851852E-01
    1        0.288615   1.000000
    2        4.890077   1.000000
    3       13.623817   1.000000
    4       16.492639   0.000019
    5       20.402214   0.000000
    6       22.927855   0.000000
    7       24.607056   0.000000
    8       26.878592   0.000000
 
  0.4166667E+00  0.4166667E+00  0.2500000E+00  0.1851852E-01
    1        6.888771   1.000000
    2        6.960161   1.000000
    3       11.372935   1.000000
    4       11.660540   1.000000
    5       15.017171   1.000000
    6       18.696742   0.000000
    7       21.144775   0.000000
    8       21.359676   0.000000
 
 -0.4166667E+00  0.4166667E+00  0.2500000E+00  0.1851852E-01
    1        3.885860   1.000000
    2        8.049869   1.000000
    3        9.624605   1.000000
    4       13.637021   1.000000
    5       17.382701   0.000000
    6       21.402574   0.000000
    7       21.638782   0.000000
    8       24.694085   0.000000
 
  0.8333333E-01  0.8333333E-01  0.4166667E+00  0.1851852E-01
    1       -0.039350   1.000000
    2        1.516057   1.000000
    3       16.366418   0.009825
    4       20.423077   0.000000
    5       23.264651   0.000000
    6       23.315285   0.000000
    7       25.246750   0.000000
    8       25.286185   0.000000
 
  0.2500000E+00  0.8333333E-01  0.4166667E+00  0.3703704E-01
    1        2.226795   1.000000
    2        3.755691   1.000000
    3       15.268751   1.000000
    4       16.649796   0.000000
    5       18.554257   0.000000
    6       20.661435   0.000000
    7       22.169262   0.000000
    8       23.675409   0.000000
 
  0.4166667E+00  0.8333333E-01  0.4166667E+00  0.3703704E-01
    1        6.171923   1.000000
    2        7.457661   1.000000
    3        9.248374   1.000000
    4       10.510847   1.000000
    5       19.107980   0.000000
    6       20.397683   0.000000
    7       22.992292   0.000000
    8       24.954462   0.000000
 
 -0.4166667E+00  0.8333333E-01  0.4166667E+00  0.3703704E-01
    1        4.009745   1.000000
    2        5.507466   1.000000
    3       12.003904   1.000000
    4       13.427865   1.000000
    5       19.134536   0.000000
    6       20.375796   0.000000
    7       21.904955   0.000000
    8       24.752598   0.000000
 
 -0.2500000E+00  0.8333333E-01  0.4166667E+00  0.3703704E-01
    1        0.871617   1.000000
    2        2.417002   1.000000
    3       16.953779   0.000000
    4       19.214700   0.000000
    5       20.377862   0.000000
    6       21.080691   0.000000
    7       22.990954   0.000000
    8       23.865378   0.000000
 
 -0.8333333E-01  0.8333333E-01  0.4166667E+00  0.1851852E-01
    1       -0.497037   1.000000
    2        1.063287   1.000000
    3       16.000858   0.997722
    4       20.193373   0.000000
    5       25.381401   0.000000
    6       26.507427   0.000000
    7       26.820515   0.000000
    8       28.056106   0.000000
 
  0.2500000E+00  0.2500000E+00  0.4166667E+00  0.1851852E-01
    1        5.328632   1.000000
    2        6.796945   1.000000
    3       12.971607   1.000000
    4       13.143471   1.000000
    5       14.979680   1.000000
    6       15.201101   1.000000
    7       22.261078   0.000000
    8       26.119187   0.000000
 
  0.4166667E+00  0.2500000E+00  0.4166667E+00  0.3703704E-01
    1        7.453771   1.000000
    2        8.682223   1.000000
    3       10.467206   1.000000
    4       11.526929   1.000000
    5       13.384529   1.000000
    6       14.557047   1.000000
    7       24.200653   0.000000
    8       26.426624   0.000000
 
 -0.4166667E+00  0.2500000E+00  0.4166667E+00  0.3703704E-01
    1        3.567600   1.000000
    2        5.076740   1.000000
    3       14.042522   1.000000
    4       15.285224   1.000000
    5       16.815011   0.000000
    6       18.052056   0.000000
    7       20.975406   0.000000
    8       24.637708   0.000000
 
 -0.2500000E+00  0.2500000E+00  0.4166667E+00  0.1851852E-01
    1        1.324869   1.000000
    2        2.864981   1.000000
    3       16.566842   0.000000
    4       17.801693   0.000000
    5       18.946836   0.000000
    6       21.924564   0.000000
    7       23.801889   0.000000
    8       25.117603   0.000000
 
  0.4166667E+00  0.4166667E+00  0.4166667E+00  0.1851852E-01
    1        7.724826   1.000000
    2        7.782480   1.000000
    3        9.735829   1.000000
    4        9.840303   1.000000
    5       15.985007   0.998897
    6       17.360730   0.000000
    7       24.536520   0.000000
    8       24.540198   0.000000
 
 -0.4166667E+00  0.4166667E+00  0.4166667E+00  0.1851852E-01
    1        4.886046   1.000000
    2        6.347670   1.000000
    3       10.345146   1.000000
    4       11.763589   1.000000
    5       20.792604   0.000000
    6       22.276134   0.000000
    7       23.240260   0.000000
    8       23.591254   0.000000
