 vasp.5.4.1 24Jun15 (build Jul 19 2016 16:50:41) complex                        
  
 executed on           IFC91_ompi date 2019.10.10  11:10:56
 running on    4 total cores
 distrk:  each k-point on    4 cores,    1 groups
 distr:  one band on NCORES_PER_BAND=   1 cores,    4 groups


--------------------------------------------------------------------------------------------------------


 INCAR:
 POTCAR:    PAW_PBE Si 05Jan2001                  
 POTCAR:    PAW_PBE Si 05Jan2001                  
   VRHFIN = Si: s2p2                                                            
   LEXCH  = PE                                                                  
   EATOM  =   103.0669 eV,    7.5752 Ry                                         
                                                                                
   TITEL  = PAW_PBE Si 05Jan2001                                                
   LULTRA =        F    use ultrasoft PP ?                                      
   IUNSCR =        1    unscreen: 0-lin 1-nonlin 2-no                           
   RPACOR =    1.500    partial core radius                                     
   POMASS =   28.085; ZVAL   =    4.000    mass and valenz                      
   RCORE  =    1.900    outmost cutoff radius                                   
   RWIGS  =    2.480; RWIGS  =    1.312    wigner-seitz radius (au A)           
   ENMAX  =  245.345; ENMIN  =  184.009 eV                                      
   ICORE  =        2    local potential                                         
   LCOR   =        T    correct aug charges                                     
   LPAW   =        T    paw PP                                                  
   EAUG   =  322.069                                                            
   DEXC   =    0.000                                                            
   RMAX   =    1.950    core radius for proj-oper                               
   RAUG   =    1.300    factor for augmentation sphere                          
   RDEP   =    1.993    radius for radial grids                                 
   RDEPT  =    1.837    core radius for aug-charge                              
                                                                                
   Atomic configuration                                                         
    6 entries                                                                   
     n  l   j            E        occ.                                          
     1  0  0.50     -1785.8828   2.0000                                         
     2  0  0.50      -139.4969   2.0000                                         
     2  1  1.50       -95.5546   6.0000                                         
     3  0  0.50       -10.8127   2.0000                                         
     3  1  0.50        -4.0811   2.0000                                         
     3  2  1.50        -4.0817   0.0000                                         
   Description                                                                  
     l       E           TYP  RCUT    TYP  RCUT                                 
     0    -10.8127223     23  1.900                                             
     0     -7.6451159     23  1.900                                             
     1     -4.0811372     23  1.900                                             
     1      2.4879257     23  1.900                                             
     2     -4.0817478      7  1.900                                             
  local pseudopotential read in
  partial core-charges read in
  partial kinetic energy density read in
  atomic valenz-charges read in
  non local Contribution for L=           0  read in
    real space projection operators read in
  non local Contribution for L=           0  read in
    real space projection operators read in
  non local Contribution for L=           1  read in
    real space projection operators read in
  non local Contribution for L=           1  read in
    real space projection operators read in
    PAW grid and wavefunctions read in
 
   number of l-projection  operators is LMAX  =           4
   number of lm-projection operators is LMMAX =           8
 
  PAW_PBE Si 05Jan2001                  :
 energy of atom  1       EATOM= -103.0669
 kinetic energy error for atom=    0.0009 (will be added to EATOM!!)
 
 
 POSCAR: Si HCP                                  
  positions in direct lattice
  No initial velocities read in
 exchange correlation table for  LEXCH =        8
   RHO(1)=    0.500       N(1)  =     2000
   RHO(2)=  100.500       N(2)  =     4000
 


--------------------------------------------------------------------------------------------------------


 ion  position               nearest neighbor table
   1  0.000  0.000  0.000-   2 2.40   2 2.40   2 2.40   2 2.40   2 2.40   2 2.40
   2  0.333  0.667  0.500-   1 2.40   1 2.40   1 2.40   1 2.40   1 2.40   1 2.40
 
  LATTYP: Found a hexagonal cell.
 ALAT       =     2.4000000000
 C/A-ratio  =     1.6329900000
  
  Lattice vectors:
  
 A1 = (   2.4000000000,   0.0000000000,   0.0000000000)
 A2 = (  -1.2000000000,   2.0784609691,   0.0000000000)
 A3 = (   0.0000000000,   0.0000000000,   3.9191760000)


Analysis of symmetry for initial positions (statically):
=====================================================================
 Subroutine PRICEL returns:
 Original cell was already a primitive cell.
 

 Routine SETGRP: Setting up the symmetry group for a 
 hexagonal supercell.


 Subroutine GETGRP returns: Found 24 space group operations
 (whereof 12 operations were pure point group operations)
 out of a pool of 24 trial point group operations.


The static configuration has the point symmetry D_3h.
 The point group associated with its full space group is D_6h.


Analysis of symmetry for dynamics (positions and initial velocities):
=====================================================================
 Subroutine PRICEL returns:
 Original cell was already a primitive cell.
 

 Routine SETGRP: Setting up the symmetry group for a 
 hexagonal supercell.


 Subroutine GETGRP returns: Found 24 space group operations
 (whereof 12 operations were pure point group operations)
 out of a pool of 24 trial point group operations.


The dynamic configuration has the point symmetry D_3h.
 The point group associated with its full space group is D_6h.


 Subroutine INISYM returns: Found 24 space group operations
 (whereof 12 operations are pure point group operations),
 and found     1 'primitive' translations

 
 
 KPOINTS: K-Points                                

Automatic generation of k-mesh.
Space group operators:
 irot       det(A)        alpha          n_x          n_y          n_z        tau_x        tau_y        tau_z
    1     1.000000     0.000000     1.000000     0.000000     0.000000     0.000000     0.000000     0.000000
    2    -1.000000    60.000000     0.000000     0.000000    -1.000000     0.000000     0.000000     0.000000
    3     1.000000   120.000000     0.000000     0.000000    -1.000000     0.000000     0.000000     0.000000
    4    -1.000000   180.000000     0.000000     0.000000     1.000000     0.000000     0.000000     0.000000
    5     1.000000   120.000000     0.000000     0.000000     1.000000     0.000000     0.000000     0.000000
    6    -1.000000    60.000000     0.000000     0.000000     1.000000     0.000000     0.000000     0.000000
    7    -1.000000   180.000000     1.000000     0.000000     0.000000     0.000000     0.000000     0.000000
    8     1.000000   180.000000     0.866025    -0.500000     0.000000     0.000000     0.000000     0.000000
    9    -1.000000   180.000000     0.500000    -0.866025     0.000000     0.000000     0.000000     0.000000
   10     1.000000   180.000000     0.000000     1.000000     0.000000     0.000000     0.000000     0.000000
   11    -1.000000   180.000000    -0.500000    -0.866025     0.000000     0.000000     0.000000     0.000000
   12     1.000000   180.000000     0.866025     0.500000     0.000000     0.000000     0.000000     0.000000
   13    -1.000000     0.000000     1.000000     0.000000     0.000000     0.333333     0.666667     0.500000
   14     1.000000    60.000000     0.000000     0.000000    -1.000000     0.333333     0.666667     0.500000
   15    -1.000000   120.000000     0.000000     0.000000    -1.000000     0.333333     0.666667     0.500000
   16     1.000000   180.000000     0.000000     0.000000     1.000000     0.333333     0.666667     0.500000
   17    -1.000000   120.000000     0.000000     0.000000     1.000000     0.333333     0.666667     0.500000
   18     1.000000    60.000000     0.000000     0.000000     1.000000     0.333333     0.666667     0.500000
   19     1.000000   180.000000     1.000000     0.000000     0.000000     0.333333     0.666667     0.500000
   20    -1.000000   180.000000     0.866025    -0.500000     0.000000     0.333333     0.666667     0.500000
   21     1.000000   180.000000     0.500000    -0.866025     0.000000     0.333333     0.666667     0.500000
   22    -1.000000   180.000000     0.000000     1.000000     0.000000     0.333333     0.666667     0.500000
   23     1.000000   180.000000    -0.500000    -0.866025     0.000000     0.333333     0.666667     0.500000
   24    -1.000000   180.000000     0.866025     0.500000     0.000000     0.333333     0.666667     0.500000
 
 Subroutine IBZKPT returns following result:
 ===========================================
 
 Found     36 irreducible k-points:
 
 Following reciprocal coordinates:
            Coordinates               Weight
  0.083333  0.083333  0.083333     96.000000
  0.250000  0.083333  0.083333    192.000000
  0.416667  0.083333  0.083333    192.000000
 -0.416667  0.083333  0.083333    192.000000
 -0.250000  0.083333  0.083333    192.000000
 -0.083333  0.083333  0.083333     96.000000
  0.250000  0.250000  0.083333     96.000000
  0.416667  0.250000  0.083333    192.000000
 -0.416667  0.250000  0.083333    192.000000
 -0.250000  0.250000  0.083333     96.000000
  0.416667  0.416667  0.083333     96.000000
 -0.416667  0.416667  0.083333     96.000000
  0.083333  0.083333  0.250000     96.000000
  0.250000  0.083333  0.250000    192.000000
  0.416667  0.083333  0.250000    192.000000
 -0.416667  0.083333  0.250000    192.000000
 -0.250000  0.083333  0.250000    192.000000
 -0.083333  0.083333  0.250000     96.000000
  0.250000  0.250000  0.250000     96.000000
  0.416667  0.250000  0.250000    192.000000
 -0.416667  0.250000  0.250000    192.000000
 -0.250000  0.250000  0.250000     96.000000
  0.416667  0.416667  0.250000     96.000000
 -0.416667  0.416667  0.250000     96.000000
  0.083333  0.083333  0.416667     96.000000
  0.250000  0.083333  0.416667    192.000000
  0.416667  0.083333  0.416667    192.000000
 -0.416667  0.083333  0.416667    192.000000
 -0.250000  0.083333  0.416667    192.000000
 -0.083333  0.083333  0.416667     96.000000
  0.250000  0.250000  0.416667     96.000000
  0.416667  0.250000  0.416667    192.000000
 -0.416667  0.250000  0.416667    192.000000
 -0.250000  0.250000  0.416667     96.000000
  0.416667  0.416667  0.416667     96.000000
 -0.416667  0.416667  0.416667     96.000000
 
 Following cartesian coordinates:
            Coordinates               Weight
  0.083333  0.144338  0.051031     96.000000
  0.250000  0.240563  0.051031    192.000000
  0.416667  0.336788  0.051031    192.000000
 -0.416667 -0.144338  0.051031    192.000000
 -0.250000 -0.048113  0.051031    192.000000
 -0.083333  0.048113  0.051031     96.000000
  0.250000  0.433013  0.051031     96.000000
  0.416667  0.529238  0.051031    192.000000
 -0.416667  0.048113  0.051031    192.000000
 -0.250000  0.144338  0.051031     96.000000
  0.416667  0.721688  0.051031     96.000000
 -0.416667  0.240563  0.051031     96.000000
  0.083333  0.144338  0.153093     96.000000
  0.250000  0.240563  0.153093    192.000000
  0.416667  0.336788  0.153093    192.000000
 -0.416667 -0.144338  0.153093    192.000000
 -0.250000 -0.048113  0.153093    192.000000
 -0.083333  0.048113  0.153093     96.000000
  0.250000  0.433013  0.153093     96.000000
  0.416667  0.529238  0.153093    192.000000
 -0.416667  0.048113  0.153093    192.000000
 -0.250000  0.144338  0.153093     96.000000
  0.416667  0.721688  0.153093     96.000000
 -0.416667  0.240563  0.153093     96.000000
  0.083333  0.144338  0.255156     96.000000
  0.250000  0.240563  0.255156    192.000000
  0.416667  0.336788  0.255156    192.000000
 -0.416667 -0.144338  0.255156    192.000000
 -0.250000 -0.048113  0.255156    192.000000
 -0.083333  0.048113  0.255156     96.000000
  0.250000  0.433013  0.255156     96.000000
  0.416667  0.529238  0.255156    192.000000
 -0.416667  0.048113  0.255156    192.000000
 -0.250000  0.144338  0.255156     96.000000
  0.416667  0.721688  0.255156     96.000000
 -0.416667  0.240563  0.255156     96.000000
 


--------------------------------------------------------------------------------------------------------




 Dimension of arrays:
   k-points           NKPTS =     36   k-points in BZ     NKDIM =     36   number of bands    NBANDS=      8
   number of dos      NEDOS =    301   number of ions     NIONS =      2
   non local maximal  LDIM  =      4   non local SUM 2l+1 LMDIM =      8
   total plane-waves  NPLWV =   9072
   max r-space proj   IRMAX =      1   max aug-charges    IRDMAX=  15713
   dimension x,y,z NGX =    18 NGY =   18 NGZ =   28
   dimension x,y,z NGXF=    36 NGYF=   36 NGZF=   56
   support grid    NGXF=    36 NGYF=   36 NGZF=   56
   ions per type =               2
 NGX,Y,Z   is equivalent  to a cutoff of  12.47, 12.47, 11.88 a.u.
 NGXF,Y,Z  is equivalent  to a cutoff of  24.94, 24.94, 23.75 a.u.


 I would recommend the setting:
   dimension x,y,z NGX =    17 NGY =   17 NGZ =   27
 SYSTEM =  Si beta-tin                             
 POSCAR =  Si HCP                                  

 Startparameter for this run:
   NWRITE =      2    write-flag & timer
   PREC   = accura    normal or accurate (medium, high low for compatibility)
   ISTART =      0    job   : 0-new  1-cont  2-samecut
   ICHARG =      2    charge: 1-file 2-atom 10-const
   ISPIN  =      1    spin polarized calculation?
   LNONCOLLINEAR =      F non collinear calculations
   LSORBIT =      F    spin-orbit coupling
   INIWAV =      1    electr: 0-lowe 1-rand  2-diag
   LASPH  =      F    aspherical Exc in radial PAW
   METAGGA=      F    non-selfconsistent MetaGGA calc.

 Electronic Relaxation 1
   ENCUT  =  450.0 eV  33.07 Ry    5.75 a.u.   4.15  4.15  6.78*2*pi/ulx,y,z
   ENINI  =  450.0     initial cutoff
   ENAUG  =  322.1 eV  augmentation charge cutoff
   NELM   =     60;   NELMIN=  2; NELMDL= -5     # of ELM steps 
   EDIFF  = 0.1E-04   stopping-criterion for ELM
   LREAL  =      F    real-space projection
   NLSPLINE    = F    spline interpolate recip. space projectors
   LCOMPAT=      F    compatible to vasp.4.4
   GGA_COMPAT  = T    GGA compatible to vasp.4.4-vasp.4.6
   LMAXPAW     = -100 max onsite density
   LMAXMIX     =    2 max onsite mixed and CHGCAR
   VOSKOWN=      0    Vosko Wilk Nusair interpolation
   ROPT   =    0.00000
 Ionic relaxation
   EDIFFG = -.1E-01   stopping-criterion for IOM
   NSW    =    100    number of steps for IOM
   NBLOCK =      1;   KBLOCK =    100    inner block; outer block 
   IBRION =      2    ionic relax: 0-MD 1-quasi-New 2-CG
   NFREE  =      1    steps in history (QN), initial steepest desc. (CG)
   ISIF   =      4    stress and relaxation
   IWAVPR =     11    prediction:  0-non 1-charg 2-wave 3-comb
   ISYM   =      2    0-nonsym 1-usesym 2-fastsym
   LCORR  =      T    Harris-Foulkes like correction to forces

   POTIM  = 0.5000    time-step for ionic-motion
   TEIN   =    0.0    initial temperature
   TEBEG  =    0.0;   TEEND  =   0.0 temperature during run
   SMASS  =  -3.00    Nose mass-parameter (am)
   estimated Nose-frequenzy (Omega)   =  0.10E-29 period in steps =****** mass=  -0.132E-27a.u.
   SCALEE = 1.0000    scale energy and forces
   NPACO  =    256;   APACO  = 16.0  distance and # of slots for P.C.
   PSTRESS=    0.0 pullay stress

  Mass of Ions in am
   POMASS =  28.09
  Ionic Valenz
   ZVAL   =   4.00
  Atomic Wigner-Seitz radii
   RWIGS  =  -1.00
  virtual crystal weights 
   VCA    =   1.00
   NELECT =       8.0000    total number of electrons
   NUPDOWN=      -1.0000    fix difference up-down

 DOS related values:
   EMIN   =  10.00;   EMAX   =-10.00  energy-range for DOS
   EFERMI =   0.00
   ISMEAR =     0;   SIGMA  =   0.10  broadening in eV -4-tet -1-fermi 0-gaus

 Electronic relaxation 2 (details)
   IALGO  =     38    algorithm
   LDIAG  =      T    sub-space diagonalisation (order eigenvalues)
   LSUBROT=      F    optimize rotation matrix (better conditioning)
   TURBO    =      0    0=normal 1=particle mesh
   IRESTART =      0    0=no restart 2=restart with 2 vectors
   NREBOOT  =      0    no. of reboots
   NMIN     =      0    reboot dimension
   EREF     =   0.00    reference energy to select bands
   IMIX   =      4    mixing-type and parameters
     AMIX     =   0.40;   BMIX     =  1.00
     AMIX_MAG =   1.60;   BMIX_MAG =  1.00
     AMIN     =   0.10
     WC   =   100.;   INIMIX=   1;  MIXPRE=   1;  MAXMIX= -45

 Intra band minimization:
   WEIMIN = 0.0010     energy-eigenvalue tresh-hold
   EBREAK =  0.31E-06  absolut break condition
   DEPER  =   0.30     relativ break condition  

   TIME   =   0.40     timestep for ELM

  volume/ion in A,a.u.               =       9.78        65.97
  Fermi-wavevector in a.u.,A,eV,Ry     =   1.215408  2.296789 20.098762  1.477217
  Thomas-Fermi vector in A             =   2.350796
 
 Write flags
   LWAVE  =      T    write WAVECAR
   LCHARG =      T    write CHGCAR
   LVTOT  =      F    write LOCPOT, total local potential
   LVHAR  =      F    write LOCPOT, Hartree potential only
   LELF   =      F    write electronic localiz. function (ELF)
   LORBIT =      0    0 simple, 1 ext, 2 COOP (PROOUT)


 Dipole corrections
   LMONO  =      F    monopole corrections only (constant potential shift)
   LDIPOL =      F    correct potential (dipole corrections)
   IDIPOL =      0    1-x, 2-y, 3-z, 4-all directions 
   EPSILON=  1.0000000 bulk dielectric constant

 Exchange correlation treatment:
   GGA     =    --    GGA type
   LEXCH   =     8    internal setting for exchange type
   VOSKOWN=      0    Vosko Wilk Nusair interpolation
   LHFCALC =     F    Hartree Fock is set to
   LHFONE  =     F    Hartree Fock one center treatment
   AEXX    =    0.0000 exact exchange contribution

 Linear response parameters
   LEPSILON=     F    determine dielectric tensor
   LRPA    =     F    only Hartree local field effects (RPA)
   LNABLA  =     F    use nabla operator in PAW spheres
   LVEL    =     F    velocity operator in full k-point grid
   LINTERFAST=   F  fast interpolation
   KINTER  =     0    interpolate to denser k-point grid
   CSHIFT  =0.1000    complex shift for real part using Kramers Kronig
   OMEGAMAX=  -1.0    maximum frequency
   DEG_THRESHOLD= 0.2000000E-02 threshold for treating states as degnerate
   RTIME   =    0.100 relaxation time in fs

 Orbital magnetization related:
   ORBITALMAG=     F  switch on orbital magnetization
   LCHIMAG   =     F  perturbation theory with respect to B field
   DQ        =  0.001000  dq finite difference perturbation B field



--------------------------------------------------------------------------------------------------------


 conjugate gradient relaxation of ions
 charge density and potential will be updated during run
 non-spin polarized calculation
 Variant of blocked Davidson
 Davidson routine will perform the subspace rotation
 perform sub-space diagonalisation
    after iterative eigenvector-optimisation
 modified Broyden-mixing scheme, WC =      100.0
 initial mixing is a Kerker type mixing with AMIX =  0.4000 and BMIX =      1.0000
 Hartree-type preconditioning will be used
 using additional bands            4
 reciprocal scheme for non local part
 use partial core corrections
 calculate Harris-corrections to forces 
   (improved forces if not selfconsistent)
 use gradient corrections 
 use of overlap-Matrix (Vanderbilt PP)
 Gauss-broadening in eV      SIGMA  =   0.10


--------------------------------------------------------------------------------------------------------


  energy-cutoff  :      450.00
  volume of cell :       19.55
      direct lattice vectors                 reciprocal lattice vectors
     2.400000000  0.000000000  0.000000000     0.416666667  0.240562612  0.000000000
    -1.200000000  2.078460969  0.000000000     0.000000000  0.481125224  0.000000000
     0.000000000  0.000000000  3.919176000     0.000000000  0.000000000  0.255155676

  length of vectors
     2.400000000  2.400000000  3.919176000     0.481125224  0.481125224  0.255155676


 
 k-points in units of 2pi/SCALE and weight: K-Points                                
   0.08333333  0.14433757  0.05103114       0.019
   0.25000000  0.24056261  0.05103114       0.037
   0.41666667  0.33678766  0.05103114       0.037
  -0.41666667 -0.14433757  0.05103114       0.037
  -0.25000000 -0.04811252  0.05103114       0.037
  -0.08333333  0.04811252  0.05103114       0.019
   0.25000000  0.43301270  0.05103114       0.019
   0.41666667  0.52923775  0.05103114       0.037
  -0.41666667  0.04811252  0.05103114       0.037
  -0.25000000  0.14433757  0.05103114       0.019
   0.41666667  0.72168784  0.05103114       0.019
  -0.41666667  0.24056261  0.05103114       0.019
   0.08333333  0.14433757  0.15309341       0.019
   0.25000000  0.24056261  0.15309341       0.037
   0.41666667  0.33678766  0.15309341       0.037
  -0.41666667 -0.14433757  0.15309341       0.037
  -0.25000000 -0.04811252  0.15309341       0.037
  -0.08333333  0.04811252  0.15309341       0.019
   0.25000000  0.43301270  0.15309341       0.019
   0.41666667  0.52923775  0.15309341       0.037
  -0.41666667  0.04811252  0.15309341       0.037
  -0.25000000  0.14433757  0.15309341       0.019
   0.41666667  0.72168784  0.15309341       0.019
  -0.41666667  0.24056261  0.15309341       0.019
   0.08333333  0.14433757  0.25515568       0.019
   0.25000000  0.24056261  0.25515568       0.037
   0.41666667  0.33678766  0.25515568       0.037
  -0.41666667 -0.14433757  0.25515568       0.037
  -0.25000000 -0.04811252  0.25515568       0.037
  -0.08333333  0.04811252  0.25515568       0.019
   0.25000000  0.43301270  0.25515568       0.019
   0.41666667  0.52923775  0.25515568       0.037
  -0.41666667  0.04811252  0.25515568       0.037
  -0.25000000  0.14433757  0.25515568       0.019
   0.41666667  0.72168784  0.25515568       0.019
  -0.41666667  0.24056261  0.25515568       0.019
 
 k-points in reciprocal lattice and weights: K-Points                                
   0.08333333  0.08333333  0.08333333       0.019
   0.25000000  0.08333333  0.08333333       0.037
   0.41666667  0.08333333  0.08333333       0.037
  -0.41666667  0.08333333  0.08333333       0.037
  -0.25000000  0.08333333  0.08333333       0.037
  -0.08333333  0.08333333  0.08333333       0.019
   0.25000000  0.25000000  0.08333333       0.019
   0.41666667  0.25000000  0.08333333       0.037
  -0.41666667  0.25000000  0.08333333       0.037
  -0.25000000  0.25000000  0.08333333       0.019
   0.41666667  0.41666667  0.08333333       0.019
  -0.41666667  0.41666667  0.08333333       0.019
   0.08333333  0.08333333  0.25000000       0.019
   0.25000000  0.08333333  0.25000000       0.037
   0.41666667  0.08333333  0.25000000       0.037
  -0.41666667  0.08333333  0.25000000       0.037
  -0.25000000  0.08333333  0.25000000       0.037
  -0.08333333  0.08333333  0.25000000       0.019
   0.25000000  0.25000000  0.25000000       0.019
   0.41666667  0.25000000  0.25000000       0.037
  -0.41666667  0.25000000  0.25000000       0.037
  -0.25000000  0.25000000  0.25000000       0.019
   0.41666667  0.41666667  0.25000000       0.019
  -0.41666667  0.41666667  0.25000000       0.019
   0.08333333  0.08333333  0.41666667       0.019
   0.25000000  0.08333333  0.41666667       0.037
   0.41666667  0.08333333  0.41666667       0.037
  -0.41666667  0.08333333  0.41666667       0.037
  -0.25000000  0.08333333  0.41666667       0.037
  -0.08333333  0.08333333  0.41666667       0.019
   0.25000000  0.25000000  0.41666667       0.019
   0.41666667  0.25000000  0.41666667       0.037
  -0.41666667  0.25000000  0.41666667       0.037
  -0.25000000  0.25000000  0.41666667       0.019
   0.41666667  0.41666667  0.41666667       0.019
  -0.41666667  0.41666667  0.41666667       0.019
 
 position of ions in fractional coordinates (direct lattice) 
   0.00000000  0.00000000  0.00000000
   0.33333333  0.66666667  0.50000000
 
 position of ions in cartesian coordinates  (Angst):
   0.00000000  0.00000000  0.00000000
  -0.00000000  1.38564065  1.95958800
 


--------------------------------------------------------------------------------------------------------


 k-point  1 :   0.0833 0.0833 0.0833  plane waves:     413
 k-point  2 :   0.2500 0.0833 0.0833  plane waves:     422
 k-point  3 :   0.4167 0.0833 0.0833  plane waves:     431
 k-point  4 :  -0.4167 0.0833 0.0833  plane waves:     426
 k-point  5 :  -0.2500 0.0833 0.0833  plane waves:     420
 k-point  6 :  -0.0833 0.0833 0.0833  plane waves:     414
 k-point  7 :   0.2500 0.2500 0.0833  plane waves:     424
 k-point  8 :   0.4167 0.2500 0.0833  plane waves:     426
 k-point  9 :  -0.4167 0.2500 0.0833  plane waves:     422
 k-point 10 :  -0.2500 0.2500 0.0833  plane waves:     424
 k-point 11 :   0.4167 0.4167 0.0833  plane waves:     429
 k-point 12 :  -0.4167 0.4167 0.0833  plane waves:     429
 k-point 13 :   0.0833 0.0833 0.2500  plane waves:     421
 k-point 14 :   0.2500 0.0833 0.2500  plane waves:     423
 k-point 15 :   0.4167 0.0833 0.2500  plane waves:     429
 k-point 16 :  -0.4167 0.0833 0.2500  plane waves:     426
 k-point 17 :  -0.2500 0.0833 0.2500  plane waves:     421
 k-point 18 :  -0.0833 0.0833 0.2500  plane waves:     415
 k-point 19 :   0.2500 0.2500 0.2500  plane waves:     424
 k-point 20 :   0.4167 0.2500 0.2500  plane waves:     424
 k-point 21 :  -0.4167 0.2500 0.2500  plane waves:     421
 k-point 22 :  -0.2500 0.2500 0.2500  plane waves:     426
 k-point 23 :   0.4167 0.4167 0.2500  plane waves:     423
 k-point 24 :  -0.4167 0.4167 0.2500  plane waves:     428
 k-point 25 :   0.0833 0.0833 0.4167  plane waves:     424
 k-point 26 :   0.2500 0.0833 0.4167  plane waves:     426
 k-point 27 :   0.4167 0.0833 0.4167  plane waves:     424
 k-point 28 :  -0.4167 0.0833 0.4167  plane waves:     423
 k-point 29 :  -0.2500 0.0833 0.4167  plane waves:     419
 k-point 30 :  -0.0833 0.0833 0.4167  plane waves:     424
 k-point 31 :   0.2500 0.2500 0.4167  plane waves:     426
 k-point 32 :   0.4167 0.2500 0.4167  plane waves:     428
 k-point 33 :  -0.4167 0.2500 0.4167  plane waves:     427
 k-point 34 :  -0.2500 0.2500 0.4167  plane waves:     424
 k-point 35 :   0.4167 0.4167 0.4167  plane waves:     419
 k-point 36 :  -0.4167 0.4167 0.4167  plane waves:     425

 maximum and minimum number of plane-waves per node :       431      413

 maximum number of plane-waves:       431
 maximum index in each direction: 
   IXMAX=    4   IYMAX=    4   IZMAX=    6
   IXMIN=   -4   IYMIN=   -4   IZMIN=   -7

 NGX is ok and might be reduce to  18
 NGY is ok and might be reduce to  18
 NGZ is ok and might be reduce to  28

 serial   3D FFT for wavefunctions
 parallel 3D FFT for charge:
    minimum data exchange during FFTs selected (reduces bandwidth)


 total amount of memory used by VASP on root node    33459. kBytes
========================================================================

   base      :      30000. kBytes
   nonl-proj :       1009. kBytes
   fftplans  :        669. kBytes
   grid      :       1259. kBytes
   one-center:          6. kBytes
   wavefun   :        516. kBytes
 
     INWAV:  cpu time    0.0000: real time    0.0000
 Broyden mixing: mesh for mixing (old mesh)
   NGX =  9   NGY =  9   NGZ = 13
  (NGX  = 36   NGY  = 36   NGZ  = 56)
  gives a total of   1053 points

 initial charge density was supplied:
 charge density of overlapping atoms calculated
 number of electron       8.0000000 magnetization 
 keeping initial charge density in first step


--------------------------------------------------------------------------------------------------------


 Maximum index for augmentation-charges         3777 (set IRDMAX)


--------------------------------------------------------------------------------------------------------


 First call to EWALD:  gamma=   0.658
 Maximum number of real-space cells 3x 3x 2
 Maximum number of reciprocal cells 3x 3x 4

 FEWALD executed in parallel
    FEWALD:  cpu time    0.0020: real time    0.0010


----------------------------------------- Iteration    1(   1)  ---------------------------------------


    POTLOK:  cpu time    0.0270: real time    0.0178
    SETDIJ:  cpu time    0.0030: real time    0.0023
     EDDAV:  cpu time    1.3138: real time    0.8169
       DOS:  cpu time    0.0020: real time    0.0006
    --------------------------------------------
      LOOP:  cpu time    1.3488: real time    0.8406

 eigenvalue-minimisations  :   600
 total energy-change (2. order) : 0.6940398E+01  (-0.3761455E+03)
 number of electron       8.0000000 magnetization 
 augmentation part        8.0000000 magnetization 

 Free energy of the ion-electron system (eV)
  ---------------------------------------------------
  alpha Z        PSCENC =         6.88757933
  Ewald energy   TEWEN  =      -311.21403507
  -Hartree energ DENC   =        -0.34332876
  -exchange      EXHF   =         0.00000000
  -V(xc)+E(xc)   XCENC  =       -15.31711000
  PAW double counting   =       176.24759923     -141.06103558
  entropy T*S    EENTRO =        -0.00071317
  eigenvalues    EBANDS =        85.60951427
  atomic energy  EATOM  =       206.13192747
  Solvation  Ediel_sol  =         0.00000000
  ---------------------------------------------------
  free energy    TOTEN  =         6.94039772 eV

  energy without entropy =        6.94111088  energy(sigma->0) =        6.94075430


--------------------------------------------------------------------------------------------------------




----------------------------------------- Iteration    1(   2)  ---------------------------------------


     EDDAV:  cpu time    1.7057: real time    1.0527
       DOS:  cpu time    0.0010: real time    0.0009
    --------------------------------------------
      LOOP:  cpu time    1.7107: real time    1.0559

 eigenvalue-minimisations  :   872
 total energy-change (2. order) :-0.1509187E+02  (-0.1472511E+02)
 number of electron       8.0000000 magnetization 
 augmentation part        8.0000000 magnetization 

 Free energy of the ion-electron system (eV)
  ---------------------------------------------------
  alpha Z        PSCENC =         6.88757933
  Ewald energy   TEWEN  =      -311.21403507
  -Hartree energ DENC   =        -0.34332876
  -exchange      EXHF   =         0.00000000
  -V(xc)+E(xc)   XCENC  =       -15.31711000
  PAW double counting   =       176.24759923     -141.06103558
  entropy T*S    EENTRO =        -0.00510293
  eigenvalues    EBANDS =        70.52203823
  atomic energy  EATOM  =       206.13192747
  Solvation  Ediel_sol  =         0.00000000
  ---------------------------------------------------
  free energy    TOTEN  =        -8.15146809 eV

  energy without entropy =       -8.14636515  energy(sigma->0) =       -8.14891662


--------------------------------------------------------------------------------------------------------




----------------------------------------- Iteration    1(   3)  ---------------------------------------


     EDDAV:  cpu time    1.6867: real time    1.0559
       DOS:  cpu time    0.0020: real time    0.0011
    --------------------------------------------
      LOOP:  cpu time    1.6937: real time    1.0593

 eigenvalue-minimisations  :   752
 total energy-change (2. order) :-0.1620694E+00  (-0.1616488E+00)
 number of electron       8.0000000 magnetization 
 augmentation part        8.0000000 magnetization 

 Free energy of the ion-electron system (eV)
  ---------------------------------------------------
  alpha Z        PSCENC =         6.88757933
  Ewald energy   TEWEN  =      -311.21403507
  -Hartree energ DENC   =        -0.34332876
  -exchange      EXHF   =         0.00000000
  -V(xc)+E(xc)   XCENC  =       -15.31711000
  PAW double counting   =       176.24759923     -141.06103558
  entropy T*S    EENTRO =        -0.00495923
  eigenvalues    EBANDS =        70.35982515
  atomic energy  EATOM  =       206.13192747
  Solvation  Ediel_sol  =         0.00000000
  ---------------------------------------------------
  free energy    TOTEN  =        -8.31353747 eV

  energy without entropy =       -8.30857824  energy(sigma->0) =       -8.31105785


--------------------------------------------------------------------------------------------------------




----------------------------------------- Iteration    1(   4)  ---------------------------------------


     EDDAV:  cpu time    2.2617: real time    1.3986
       DOS:  cpu time    0.0020: real time    0.0009
    --------------------------------------------
      LOOP:  cpu time    2.2687: real time    1.4020

 eigenvalue-minimisations  :   912
 total energy-change (2. order) :-0.3474506E-03  (-0.3474489E-03)
 number of electron       8.0000000 magnetization 
 augmentation part        8.0000000 magnetization 

 Free energy of the ion-electron system (eV)
  ---------------------------------------------------
  alpha Z        PSCENC =         6.88757933
  Ewald energy   TEWEN  =      -311.21403507
  -Hartree energ DENC   =        -0.34332876
  -exchange      EXHF   =         0.00000000
  -V(xc)+E(xc)   XCENC  =       -15.31711000
  PAW double counting   =       176.24759923     -141.06103558
  entropy T*S    EENTRO =        -0.00496098
  eigenvalues    EBANDS =        70.35947944
  atomic energy  EATOM  =       206.13192747
  Solvation  Ediel_sol  =         0.00000000
  ---------------------------------------------------
  free energy    TOTEN  =        -8.31388492 eV

  energy without entropy =       -8.30892394  energy(sigma->0) =       -8.31140443


--------------------------------------------------------------------------------------------------------




----------------------------------------- Iteration    1(   5)  ---------------------------------------


     EDDAV:  cpu time    1.6817: real time    1.0706
       DOS:  cpu time    0.0020: real time    0.0011
    CHARGE:  cpu time    0.0200: real time    0.0151
    MIXING:  cpu time    0.0030: real time    0.0012
    --------------------------------------------
      LOOP:  cpu time    1.7097: real time    1.0908

 eigenvalue-minimisations  :   760
 total energy-change (2. order) :-0.5370359E-07  (-0.5075581E-07)
 number of electron       7.9999999 magnetization 
 augmentation part       -0.4633784 magnetization 

 Broyden mixing:
  rms(total) = 0.80296E+00    rms(broyden)= 0.80296E+00
  rms(prec ) = 0.85399E+00
  weight for this iteration     100.00

 Free energy of the ion-electron system (eV)
  ---------------------------------------------------
  alpha Z        PSCENC =         6.88757933
  Ewald energy   TEWEN  =      -311.21403507
  -Hartree energ DENC   =        -0.34332876
  -exchange      EXHF   =         0.00000000
  -V(xc)+E(xc)   XCENC  =       -15.31711000
  PAW double counting   =       176.24759923     -141.06103558
  entropy T*S    EENTRO =        -0.00496098
  eigenvalues    EBANDS =        70.35947939
  atomic energy  EATOM  =       206.13192747
  Solvation  Ediel_sol  =         0.00000000
  ---------------------------------------------------
  free energy    TOTEN  =        -8.31388497 eV

  energy without entropy =       -8.30892399  energy(sigma->0) =       -8.31140448


--------------------------------------------------------------------------------------------------------




----------------------------------------- Iteration    1(   6)  ---------------------------------------


    POTLOK:  cpu time    0.0530: real time    0.0348
    SETDIJ:  cpu time    0.0030: real time    0.0018
     EDDAV:  cpu time    1.8287: real time    1.1497
       DOS:  cpu time    0.0020: real time    0.0011
    CHARGE:  cpu time    0.0240: real time    0.0169
    MIXING:  cpu time    0.0020: real time    0.0009
    --------------------------------------------
      LOOP:  cpu time    1.9337: real time    1.2190

 eigenvalue-minimisations  :   640
 total energy-change (2. order) : 0.5636554E-01  (-0.5793050E-03)
 number of electron       7.9999999 magnetization 
 augmentation part       -0.4666106 magnetization 

 Broyden mixing:
  rms(total) = 0.45176E+00    rms(broyden)= 0.45176E+00
  rms(prec ) = 0.48516E+00
  weight for this iteration     100.00

 eigenvalues of (default mixing * dielectric matrix)
  average eigenvalue GAMMA=   2.2803
  2.2803

 Free energy of the ion-electron system (eV)
  ---------------------------------------------------
  alpha Z        PSCENC =         6.88757933
  Ewald energy   TEWEN  =      -311.21403507
  -Hartree energ DENC   =        -0.39896880
  -exchange      EXHF   =         0.00000000
  -V(xc)+E(xc)   XCENC  =       -15.17472146
  PAW double counting   =       619.68510175     -584.59977334
  entropy T*S    EENTRO =        -0.00506530
  eigenvalues    EBANDS =        70.43043598
  atomic energy  EATOM  =       206.13192747
  Solvation  Ediel_sol  =         0.00000000
  ---------------------------------------------------
  free energy    TOTEN  =        -8.25751944 eV

  energy without entropy =       -8.25245414  energy(sigma->0) =       -8.25498679


--------------------------------------------------------------------------------------------------------




----------------------------------------- Iteration    1(   7)  ---------------------------------------


    POTLOK:  cpu time    0.0280: real time    0.0192
    SETDIJ:  cpu time    0.0040: real time    0.0024
     EDDAV:  cpu time    1.3468: real time    0.8453
       DOS:  cpu time    0.0030: real time    0.0011
    CHARGE:  cpu time    0.0220: real time    0.0148
    MIXING:  cpu time    0.0010: real time    0.0010
    --------------------------------------------
      LOOP:  cpu time    1.4098: real time    0.8864

 eigenvalue-minimisations  :   608
 total energy-change (2. order) : 0.3418802E-01  (-0.1277688E-02)
 number of electron       7.9999999 magnetization 
 augmentation part       -0.4715494 magnetization 

 Broyden mixing:
  rms(total) = 0.24382E-01    rms(broyden)= 0.24382E-01
  rms(prec ) = 0.29857E-01
  weight for this iteration     100.00

 eigenvalues of (default mixing * dielectric matrix)
  average eigenvalue GAMMA=   2.5519
  2.5519  2.5519

 Free energy of the ion-electron system (eV)
  ---------------------------------------------------
  alpha Z        PSCENC =         6.88757933
  Ewald energy   TEWEN  =      -311.21403507
  -Hartree energ DENC   =        -0.55144216
  -exchange      EXHF   =         0.00000000
  -V(xc)+E(xc)   XCENC  =       -14.95880750
  PAW double counting   =      1680.28039662    -1645.34709281
  entropy T*S    EENTRO =        -0.00519511
  eigenvalues    EBANDS =        70.55333782
  atomic energy  EATOM  =       206.13192747
  Solvation  Ediel_sol  =         0.00000000
  ---------------------------------------------------
  free energy    TOTEN  =        -8.22333142 eV

  energy without entropy =       -8.21813631  energy(sigma->0) =       -8.22073386


--------------------------------------------------------------------------------------------------------




----------------------------------------- Iteration    1(   8)  ---------------------------------------


    POTLOK:  cpu time    0.0430: real time    0.0296
    SETDIJ:  cpu time    0.0030: real time    0.0018
     EDDAV:  cpu time    2.3146: real time    1.4980
       DOS:  cpu time    0.0020: real time    0.0009
    CHARGE:  cpu time    0.0190: real time    0.0119
    MIXING:  cpu time    0.0020: real time    0.0007
    --------------------------------------------
      LOOP:  cpu time    2.3886: real time    1.5462

 eigenvalue-minimisations  :   968
 total energy-change (2. order) : 0.3244412E-03  (-0.1251540E-04)
 number of electron       7.9999999 magnetization 
 augmentation part       -0.4718931 magnetization 

 Broyden mixing:
  rms(total) = 0.43365E-02    rms(broyden)= 0.43365E-02
  rms(prec ) = 0.52612E-02
  weight for this iteration     100.00

 eigenvalues of (default mixing * dielectric matrix)
  average eigenvalue GAMMA=   2.0243
  0.9978  2.4213  2.6538

 Free energy of the ion-electron system (eV)
  ---------------------------------------------------
  alpha Z        PSCENC =         6.88757933
  Ewald energy   TEWEN  =      -311.21403507
  -Hartree energ DENC   =        -0.57224899
  -exchange      EXHF   =         0.00000000
  -V(xc)+E(xc)   XCENC  =       -14.93517957
  PAW double counting   =      1635.13566556    -1600.22204981
  entropy T*S    EENTRO =        -0.00520487
  eigenvalues    EBANDS =        70.57053898
  atomic energy  EATOM  =       206.13192747
  Solvation  Ediel_sol  =         0.00000000
  ---------------------------------------------------
  free energy    TOTEN  =        -8.22300698 eV

  energy without entropy =       -8.21780211  energy(sigma->0) =       -8.22040454


--------------------------------------------------------------------------------------------------------




----------------------------------------- Iteration    1(   9)  ---------------------------------------


    POTLOK:  cpu time    0.0340: real time    0.0237
    SETDIJ:  cpu time    0.0040: real time    0.0018
     EDDAV:  cpu time    1.1028: real time    0.7108
       DOS:  cpu time    0.0020: real time    0.0008
    --------------------------------------------
      LOOP:  cpu time    1.1458: real time    0.7396

 eigenvalue-minimisations  :   488
 total energy-change (2. order) : 0.5040427E-05  (-0.4146366E-06)
 number of electron       7.9999999 magnetization 
 augmentation part       -0.4718931 magnetization 

 Free energy of the ion-electron system (eV)
  ---------------------------------------------------
  alpha Z        PSCENC =         6.88757933
  Ewald energy   TEWEN  =      -311.21403507
  -Hartree energ DENC   =        -0.57646474
  -exchange      EXHF   =         0.00000000
  -V(xc)+E(xc)   XCENC  =       -14.93054632
  PAW double counting   =      1645.94127811    -1611.03089781
  entropy T*S    EENTRO =        -0.00520710
  eigenvalues    EBANDS =        70.57336419
  atomic energy  EATOM  =       206.13192747
  Solvation  Ediel_sol  =         0.00000000
  ---------------------------------------------------
  free energy    TOTEN  =        -8.22300194 eV

  energy without entropy =       -8.21779484  energy(sigma->0) =       -8.22039839


--------------------------------------------------------------------------------------------------------




 average (electrostatic) potential at core
  the test charge radii are     0.9892
  (the norm of the test charge is              1.0000)
       1 -73.8020       2 -73.8020
 
 
 
 E-fermi :  16.1775     XC(G=0): -12.8531     alpha+bet :-24.5365


 k-point     1 :       0.0833    0.0833    0.0833
  band No.  band energies     occupation 
      1      -1.6085      2.00000
      2       6.0007      2.00000
      3       9.0758      2.00000
      4      21.9540      0.00000
      5      22.2683      0.00000
      6      28.4923      0.00000
      7      28.6170      0.00000
      8      28.6939      0.00000

 k-point     2 :       0.2500    0.0833    0.0833
  band No.  band energies     occupation 
      1       0.6926      2.00000
      2       8.1522      2.00000
      3      11.0452      2.00000
      4      14.4069      2.00000
      5      19.0570      0.00000
      6      21.4433      0.00000
      7      23.9991      0.00000
      8      26.5539      0.00000

 k-point     3 :       0.4167    0.0833    0.0833
  band No.  band energies     occupation 
      1       4.7385      2.00000
      2       7.3353      2.00000
      3      12.1688      2.00000
      4      14.4684      2.00000
      5      15.3504      2.00000
      6      17.2045      0.00000
      7      19.4283      0.00000
      8      25.2341      0.00000

 k-point     4 :      -0.4167    0.0833    0.0833
  band No.  band energies     occupation 
      1       2.5071      2.00000
      2       9.4977      2.00000
      3      10.7554      2.00000
      4      13.2821      2.00000
      5      17.3660      0.00000
      6      18.8109      0.00000
      7      21.2079      0.00000
      8      25.6663      0.00000

 k-point     5 :      -0.2500    0.0833    0.0833
  band No.  band energies     occupation 
      1      -0.6837      2.00000
      2       6.8714      2.00000
      3       9.9124      2.00000
      4      18.0374      0.00000
      5      20.4588      0.00000
      6      24.9359      0.00000
      7      26.7723      0.00000
      8      28.0707      0.00000

 k-point     6 :      -0.0833    0.0833    0.0833
  band No.  band energies     occupation 
      1      -2.0730      2.00000
      2       5.5623      2.00000
      3       8.6478      2.00000
      4      24.0810      0.00000
      5      25.6838      0.00000
      6      27.2710      0.00000
      7      29.3742      0.00000
      8      30.2028      0.00000

 k-point     7 :       0.2500    0.2500    0.0833
  band No.  band energies     occupation 
      1       3.8528      2.00000
      2      10.5313      2.00000
      3      11.7562      2.00000
      4      12.1514      2.00000
      5      14.8880      2.00000
      6      18.8751      0.00000
      7      19.7416      0.00000
      8      22.4256      0.00000

 k-point     8 :       0.4167    0.2500    0.0833
  band No.  band energies     occupation 
      1       6.0609      2.00000
      2       8.6262      2.00000
      3      11.0811      2.00000
      4      13.6433      2.00000
      5      15.6413      2.00000
      6      17.0103      0.00000
      7      19.0594      0.00000
      8      20.1787      0.00000

 k-point     9 :      -0.4167    0.2500    0.0833
  band No.  band energies     occupation 
      1       2.0559      2.00000
      2       9.3746      2.00000
      3      11.8074      2.00000
      4      13.4464      2.00000
      5      15.6510      2.00000
      6      20.1199      0.00000
      7      22.2588      0.00000
      8      23.8180      0.00000

 k-point    10 :      -0.2500    0.2500    0.0833
  band No.  band energies     occupation 
      1      -0.2235      2.00000
      2       7.3020      2.00000
      3      10.3094      2.00000
      4      16.0030      1.98637
      5      22.4567      0.00000
      6      22.6094      0.00000
      7      24.3551      0.00000
      8      26.7235      0.00000

 k-point    11 :       0.4167    0.4167    0.0833
  band No.  band energies     occupation 
      1       6.4617      2.00000
      2       6.5205      2.00000
      3      13.1909      2.00000
      4      14.0255      2.00000
      5      14.4784      2.00000
      6      16.7958      0.00000
      7      18.5375      0.00000
      8      22.1283      0.00000

 k-point    12 :      -0.4167    0.4167    0.0833
  band No.  band energies     occupation 
      1       3.4047      2.00000
      2       8.5273      2.00000
      3      10.9935      2.00000
      4      13.9508      2.00000
      5      16.1629      1.16357
      6      18.8451      0.00000
      7      21.0801      0.00000
      8      24.0727      0.00000

 k-point    13 :       0.0833    0.0833    0.2500
  band No.  band energies     occupation 
      1      -1.0872      2.00000
      2       3.5228      2.00000
      3      12.4387      2.00000
      4      22.2445      0.00000
      5      22.6727      0.00000
      6      25.0184      0.00000
      7      26.8399      0.00000
      8      26.8846      0.00000

 k-point    14 :       0.2500    0.0833    0.2500
  band No.  band energies     occupation 
      1       1.2057      2.00000
      2       5.7333      2.00000
      3      13.7683      2.00000
      4      15.3713      2.00000
      5      18.4847      0.00000
      6      20.3177      0.00000
      7      23.8852      0.00000
      8      26.6928      0.00000

 k-point    15 :       0.4167    0.0833    0.2500
  band No.  band energies     occupation 
      1       5.2289      2.00000
      2       7.7097      2.00000
      3       9.9833      2.00000
      4      12.3881      2.00000
      5      17.6389      0.00000
      6      19.2510      0.00000
      7      21.3322      0.00000
      8      23.2440      0.00000

 k-point    16 :      -0.4167    0.0833    0.2500
  band No.  band energies     occupation 
      1       3.0127      2.00000
      2       7.4226      2.00000
      3      11.0967      2.00000
      4      15.1594      2.00000
      5      16.4425      0.00018
      6      19.3205      0.00000
      7      22.8831      0.00000
      8      24.5013      0.00000

 k-point    17 :      -0.2500    0.0833    0.2500
  band No.  band energies     occupation 
      1      -0.1657      2.00000
      2       4.4137      2.00000
      3      13.2145      2.00000
      4      18.4887      0.00000
      5      20.7575      0.00000
      6      22.8289      0.00000
      7      24.9866      0.00000
      8      26.3519      0.00000

 k-point    18 :      -0.0833    0.0833    0.2500
  band No.  band energies     occupation 
      1      -1.5502      2.00000
      2       3.0747      2.00000
      3      12.0312      2.00000
      4      23.9567      0.00000
      5      25.0986      0.00000
      6      26.1022      0.00000
      7      27.6407      0.00000
      8      29.6096      0.00000

 k-point    19 :       0.2500    0.2500    0.2500
  band No.  band energies     occupation 
      1       4.3519      2.00000
      2       8.6512      2.00000
      3      12.2043      2.00000
      4      12.4598      2.00000
      5      16.1551      1.24785
      6      16.9343      0.00000
      7      19.0681      0.00000
      8      25.6819      0.00000

 k-point    20 :       0.4167    0.2500    0.2500
  band No.  band energies     occupation 
      1       6.5415      2.00000
      2       8.9733      2.00000
      3      10.8361      2.00000
      4      12.1670      2.00000
      5      14.0109      2.00000
      6      16.2954      0.09539
      7      20.5917      0.00000
      8      22.9334      0.00000

 k-point    21 :      -0.4167    0.2500    0.2500
  band No.  band energies     occupation 
      1       2.5637      2.00000
      2       7.0255      2.00000
      3      13.0770      2.00000
      4      15.1591      2.00000
      5      16.2302      0.45583
      6      18.4212      0.00000
      7      20.5245      0.00000
      8      26.3664      0.00000

 k-point    22 :      -0.2500    0.2500    0.2500
  band No.  band energies     occupation 
      1       0.2929      2.00000
      2       4.8559      2.00000
      3      13.5260      2.00000
      4      16.5467      0.00000
      5      20.4366      0.00000
      6      23.0414      0.00000
      7      24.6066      0.00000
      8      26.9559      0.00000

 k-point    23 :       0.4167    0.4167    0.2500
  band No.  band energies     occupation 
      1       6.9274      2.00000
      2       6.9830      2.00000
      3      11.3817      2.00000
      4      11.6473      2.00000
      5      15.0751      2.00000
      6      18.6905      0.00000
      7      21.0757      0.00000
      8      21.3098      0.00000

 k-point    24 :      -0.4167    0.4167    0.2500
  band No.  band energies     occupation 
      1       3.9054      2.00000
      2       8.0435      2.00000
      3       9.6546      2.00000
      4      13.6400      2.00000
      5      17.2957      0.00000
      6      21.5117      0.00000
      7      21.6069      0.00000
      8      24.7128      0.00000

 k-point    25 :       0.0833    0.0833    0.4167
  band No.  band energies     occupation 
      1      -0.0502      2.00000
      2       1.4921      2.00000
      3      16.2195      0.55230
      4      20.2615      0.00000
      5      23.3550      0.00000
      6      23.3883      0.00000
      7      25.3258      0.00000
      8      25.3686      0.00000

 k-point    26 :       0.2500    0.0833    0.4167
  band No.  band energies     occupation 
      1       2.2261      2.00000
      2       3.7420      2.00000
      3      15.3114      2.00000
      4      16.6764      0.00000
      5      18.4706      0.00000
      6      20.6841      0.00000
      7      22.1979      0.00000
      8      23.5888      0.00000

 k-point    27 :       0.4167    0.0833    0.4167
  band No.  band energies     occupation 
      1       6.1878      2.00000
      2       7.4634      2.00000
      3       9.2746      2.00000
      4      10.5269      2.00000
      5      19.1637      0.00000
      6      20.4326      0.00000
      7      22.9153      0.00000
      8      24.8879      0.00000

 k-point    28 :      -0.4167    0.0833    0.4167
  band No.  band energies     occupation 
      1       4.0167      2.00000
      2       5.5017      2.00000
      3      12.0433      2.00000
      4      13.4547      2.00000
      5      19.1285      0.00000
      6      20.3848      0.00000
      7      21.9009      0.00000
      8      24.6361      0.00000

 k-point    29 :      -0.2500    0.0833    0.4167
  band No.  band energies     occupation 
      1       0.8649      2.00000
      2       2.3972      2.00000
      3      16.8313      0.00000
      4      19.2456      0.00000
      5      20.4189      0.00000
      6      21.0304      0.00000
      7      23.0268      0.00000
      8      23.9057      0.00000

 k-point    30 :      -0.0833    0.0833    0.4167
  band No.  band energies     occupation 
      1      -0.5099      2.00000
      2       1.0372      2.00000
      3      15.8490      2.00000
      4      20.0137      0.00000
      5      25.4786      0.00000
      6      26.5940      0.00000
      7      26.9338      0.00000
      8      28.1558      0.00000

 k-point    31 :       0.2500    0.2500    0.4167
  band No.  band energies     occupation 
      1       5.3412      2.00000
      2       6.7971      2.00000
      3      13.0049      2.00000
      4      13.1883      2.00000
      5      15.0081      2.00000
      6      15.2486      2.00000
      7      22.1430      0.00000
      8      25.9620      0.00000

 k-point    32 :       0.4167    0.2500    0.4167
  band No.  band energies     occupation 
      1       7.4751      2.00000
      2       8.6946      2.00000
      3      10.4948      2.00000
      4      11.5458      2.00000
      5      13.4320      2.00000
      6      14.5933      2.00000
      7      24.0845      0.00000
      8      26.3086      0.00000

 k-point    33 :      -0.4167    0.2500    0.4167
  band No.  band energies     occupation 
      1       3.5727      2.00000
      2       5.0690      2.00000
      3      14.0878      2.00000
      4      15.3213      2.00000
      5      16.8492      0.00000
      6      18.0842      0.00000
      7      20.8862      0.00000
      8      24.4844      0.00000

 k-point    34 :      -0.2500    0.2500    0.4167
  band No.  band energies     occupation 
      1       1.3202      2.00000
      2       2.8472      2.00000
      3      16.5475      0.00000
      4      17.7840      0.00000
      5      18.9448      0.00000
      6      21.7839      0.00000
      7      23.9074      0.00000
      8      25.2110      0.00000

 k-point    35 :       0.4167    0.4167    0.4167
  band No.  band energies     occupation 
      1       7.7512      2.00000
      2       7.7964      2.00000
      3       9.7577      2.00000
      4       9.8485      2.00000
      5      16.0406      1.94712
      6      17.4031      0.00000
      7      24.4213      0.00000
      8      24.4349      0.00000

 k-point    36 :      -0.4167    0.4167    0.4167
  band No.  band energies     occupation 
      1       4.8967      2.00000
      2       6.3459      2.00000
      3      10.3783      2.00000
      4      11.7845      2.00000
      5      20.6939      0.00000
      6      22.3774      0.00000
      7      23.2209      0.00000
      8      23.6807      0.00000


--------------------------------------------------------------------------------------------------------


 soft charge-density along one line, spin component           1
         0         1         2         3         4         5         6         7         8         9
 total charge-density along one line
 
 pseudopotential strength for first ion, spin component:           1
 17.304  24.136   0.000   0.000  -0.000   0.000   0.000  -0.000
 24.136  33.668   0.000   0.000  -0.000   0.000   0.000  -0.000
  0.000   0.000   4.014  -0.000  -0.000   7.471  -0.000  -0.000
  0.000   0.000  -0.000   4.014  -0.000  -0.000   7.471  -0.000
 -0.000  -0.000  -0.000  -0.000   4.014  -0.000  -0.000   7.471
  0.000   0.000   7.471  -0.000  -0.000  13.918  -0.000  -0.000
  0.000   0.000  -0.000   7.471  -0.000  -0.000  13.918  -0.000
 -0.000  -0.000  -0.000  -0.000   7.471  -0.000  -0.000  13.918
 total augmentation occupancy for first ion, spin component:           1
  9.407  -4.673  -0.000   0.000   0.000  -0.000   0.000   0.000
 -4.673   2.666   0.000   0.000   0.000   0.000   0.000  -0.000
 -0.000  -0.000   4.222   0.000   0.000  -1.196   0.000   0.000
  0.000   0.000  -0.000   4.219  -0.000   0.000  -1.195   0.000
  0.000   0.000   0.000   0.000   4.222   0.000   0.000  -1.196
  0.000   0.000  -1.196   0.000   0.000   0.362   0.000   0.000
  0.000   0.000   0.000  -1.195   0.000   0.000   0.362   0.000
  0.000   0.000  -0.000  -0.000  -1.196   0.000   0.000   0.362


------------------------ aborting loop because EDIFF is reached ----------------------------------------


    CHARGE:  cpu time    0.0220: real time    0.0135
    FORLOC:  cpu time    0.0030: real time    0.0019
    FORNL :  cpu time    0.0380: real time    0.0257
    STRESS:  cpu time    0.2220: real time    0.1381
    FORCOR:  cpu time    0.0340: real time    0.0222
    FORHAR:  cpu time    0.0090: real time    0.0074
    MIXING:  cpu time    0.0020: real time    0.0009
    OFIELD:  cpu time    0.0000: real time    0.0000

  FORCE on cell =-STRESS in cart. coord.  units (eV):
  Direction    XX          YY          ZZ          XY          YZ          ZX
  --------------------------------------------------------------------------------------
  Alpha Z     6.88758     6.88758     6.88758
  Ewald    -103.80908  -103.80908  -103.59610    -0.00000    -0.00000     0.00000
  Hartree     0.18583     0.18583     0.20486    -0.00000    -0.00000    -0.00000
  E(xc)     -28.52584   -28.52584   -28.55721    -0.00000    -0.00000    -0.00000
  Local      -4.74193    -4.74194    -5.07197    -0.00000    -0.00000    -0.00000
  n-local    76.41272    83.14316    80.56700    -1.88343     0.28580    -0.95988
  augment   -11.87236   -11.87235   -11.86940     0.00001    -0.00000     0.00000
  Kinetic    91.09033    53.25492    71.20733    12.43075     0.24150     0.48211
  Fock        0.00000     0.00000     0.00000     0.00000     0.00000     0.00000
  -------------------------------------------------------------------------------------
  Total      10.07477    10.07477     9.77208    -0.00000     0.00000    -0.00000
  in kB     825.65325   825.65325   800.84738    -0.00000     0.00000    -0.00000
  external pressure =      817.38 kB  Pullay stress =        0.00 kB


 VOLUME and BASIS-vectors are now :
 -----------------------------------------------------------------------------
  energy-cutoff  :      450.00
  volume of cell :       19.55
      direct lattice vectors                 reciprocal lattice vectors
     2.400000000  0.000000000  0.000000000     0.416666667  0.240562612  0.000000000
    -1.200000000  2.078460969  0.000000000     0.000000000  0.481125224  0.000000000
     0.000000000  0.000000000  3.919176000     0.000000000  0.000000000  0.255155676

  length of vectors
     2.400000000  2.400000000  3.919176000     0.481125224  0.481125224  0.255155676


 FORCES acting on ions
    electron-ion (+dipol)            ewald-force                    non-local-force                 convergence-correction
 -----------------------------------------------------------------------------------------------
   -.117E-08 0.673E-09 0.114E-13   -.110E-12 0.865E-13 -.467E-14   0.824E-17 -.520E-16 0.000E+00   -.151E-09 0.869E-10 0.253E-14
   0.117E-08 -.673E-09 -.450E-13   0.108E-12 -.888E-13 0.467E-14   -.278E-16 0.494E-16 0.000E+00   0.151E-09 -.869E-10 -.258E-14
 -----------------------------------------------------------------------------------------------
   -.769E-14 0.695E-15 -.336E-13   -.190E-14 -.231E-14 0.000E+00   -.195E-16 -.260E-17 0.000E+00   -.159E-15 0.221E-15 -.438E-16
 
 
 POSITION                                       TOTAL-FORCE (eV/Angst)
 -----------------------------------------------------------------------------------
      0.00000      0.00000      0.00000         0.000000     -0.000000      0.000000
     -0.00000      1.38564      1.95959        -0.000000      0.000000      0.000000
 -----------------------------------------------------------------------------------
    total drift:                               -0.000000     -0.000000     -0.000000


--------------------------------------------------------------------------------------------------------



  FREE ENERGIE OF THE ION-ELECTRON SYSTEM (eV)
  ---------------------------------------------------
  free  energy   TOTEN  =        -8.22300194 eV

  energy  without entropy=       -8.21779484  energy(sigma->0) =       -8.22039839
 


--------------------------------------------------------------------------------------------------------


    POTLOK:  cpu time    0.0450: real time    0.0297


--------------------------------------------------------------------------------------------------------




--------------------------------------------------------------------------------------------------------


    WAVPRE:  cpu time    0.0020: real time    0.0022
 FEWALD executed in parallel
    FEWALD:  cpu time    0.0000: real time    0.0002
    GENKIN:  cpu time    0.0060: real time    0.0065
    ORTHCH:  cpu time    0.1190: real time    0.0851
     LOOP+:  cpu time   16.2245: real time   10.2892


----------------------------------------- Iteration    2(   1)  ---------------------------------------


    POTLOK:  cpu time    0.0410: real time    0.0273
    SETDIJ:  cpu time    0.0030: real time    0.0018
     EDDAV:  cpu time    2.3516: real time    1.4966
       DOS:  cpu time    0.0020: real time    0.0009
    CHARGE:  cpu time    0.0250: real time    0.0162
    MIXING:  cpu time    0.0030: real time    0.0026
    --------------------------------------------
      LOOP:  cpu time    2.4286: real time    1.5468

 eigenvalue-minimisations  :   888
 total energy-change (2. order) :-0.1230231E-02  (-0.3200215E-02)
 number of electron       7.9999998 magnetization 
 augmentation part       -0.4721671 magnetization 

 Broyden mixing:
  rms(total) = 0.11596E-01    rms(broyden)= 0.11596E-01
  rms(prec ) = 0.26963E-01
  weight for this iteration     100.00

 Free energy of the ion-electron system (eV)
  ---------------------------------------------------
  alpha Z        PSCENC =         6.88757933
  Ewald energy   TEWEN  =      -311.21068454
  -Hartree energ DENC   =        -0.57657015
  -exchange      EXHF   =         0.00000000
  -V(xc)+E(xc)   XCENC  =       -14.93068964
  PAW double counting   =      1646.79723290    -1611.88645232
  entropy T*S    EENTRO =        -0.00477256
  eigenvalues    EBANDS =        70.56819231
  atomic energy  EATOM  =       206.13192747
  Solvation  Ediel_sol  =         0.00000000
  ---------------------------------------------------
  free energy    TOTEN  =        -8.22423721 eV

  energy without entropy =       -8.21946464  energy(sigma->0) =       -8.22185093


--------------------------------------------------------------------------------------------------------




----------------------------------------- Iteration    2(   2)  ---------------------------------------


    POTLOK:  cpu time    0.0320: real time    0.0173
    SETDIJ:  cpu time    0.0020: real time    0.0018
     EDDAV:  cpu time    1.3518: real time    0.8423
       DOS:  cpu time    0.0080: real time    0.0064
    CHARGE:  cpu time    0.0210: real time    0.0123
    MIXING:  cpu time    0.0010: real time    0.0006
    --------------------------------------------
      LOOP:  cpu time    1.4208: real time    0.8836

 eigenvalue-minimisations  :   616
 total energy-change (2. order) : 0.2666590E-03  (-0.4517567E-04)
 number of electron       7.9999998 magnetization 
 augmentation part       -0.4721960 magnetization 

 Broyden mixing:
  rms(total) = 0.61327E-02    rms(broyden)= 0.61326E-02
  rms(prec ) = 0.14569E-01
  weight for this iteration     100.00

 eigenvalues of (default mixing * dielectric matrix)
  average eigenvalue GAMMA=   1.9959
  1.9959

 Free energy of the ion-electron system (eV)
  ---------------------------------------------------
  alpha Z        PSCENC =         6.88757933
  Ewald energy   TEWEN  =      -311.21068454
  -Hartree energ DENC   =        -0.57676345
  -exchange      EXHF   =         0.00000000
  -V(xc)+E(xc)   XCENC  =       -14.93077689
  PAW double counting   =      1646.48560321    -1611.57457060
  entropy T*S    EENTRO =        -0.00476782
  eigenvalues    EBANDS =        70.56848275
  atomic energy  EATOM  =       206.13192747
  Solvation  Ediel_sol  =         0.00000000
  ---------------------------------------------------
  free energy    TOTEN  =        -8.22397055 eV

  energy without entropy =       -8.21920272  energy(sigma->0) =       -8.22158664


--------------------------------------------------------------------------------------------------------




----------------------------------------- Iteration    2(   3)  ---------------------------------------


    POTLOK:  cpu time    0.0410: real time    0.0261
    SETDIJ:  cpu time    0.0040: real time    0.0017
     EDDAV:  cpu time    2.1037: real time    1.3040
       DOS:  cpu time    0.0130: real time    0.0070
    CHARGE:  cpu time    0.0140: real time    0.0071
    MIXING:  cpu time    0.0020: real time    0.0009
    --------------------------------------------
      LOOP:  cpu time    2.1827: real time    1.3492

 eigenvalue-minimisations  :   864
 total energy-change (2. order) : 0.1173472E-03  (-0.2798544E-04)
 number of electron       7.9999998 magnetization 
 augmentation part       -0.4721947 magnetization 

 Broyden mixing:
  rms(total) = 0.44606E-03    rms(broyden)= 0.44604E-03
  rms(prec ) = 0.70963E-03
  weight for this iteration     100.00

 eigenvalues of (default mixing * dielectric matrix)
  average eigenvalue GAMMA=   1.6109
  1.0730  2.1487

 Free energy of the ion-electron system (eV)
  ---------------------------------------------------
  alpha Z        PSCENC =         6.88757933
  Ewald energy   TEWEN  =      -311.21068454
  -Hartree energ DENC   =        -0.57705309
  -exchange      EXHF   =         0.00000000
  -V(xc)+E(xc)   XCENC  =       -14.93092734
  PAW double counting   =      1645.55667532    -1610.64547099
  entropy T*S    EENTRO =        -0.00476077
  eigenvalues    EBANDS =        70.56886140
  atomic energy  EATOM  =       206.13192747
  Solvation  Ediel_sol  =         0.00000000
  ---------------------------------------------------
  free energy    TOTEN  =        -8.22385320 eV

  energy without entropy =       -8.21909243  energy(sigma->0) =       -8.22147282


--------------------------------------------------------------------------------------------------------




----------------------------------------- Iteration    2(   4)  ---------------------------------------


    POTLOK:  cpu time    0.0340: real time    0.0199
    SETDIJ:  cpu time    0.0030: real time    0.0018
     EDDAV:  cpu time    0.9279: real time    0.5790
       DOS:  cpu time    0.0010: real time    0.0006
    --------------------------------------------
      LOOP:  cpu time    0.9759: real time    0.6092

 eigenvalue-minimisations  :   360
 total energy-change (2. order) :-0.7380684E-06  (-0.6770043E-06)
 number of electron       7.9999998 magnetization 
 augmentation part       -0.4721947 magnetization 

 Free energy of the ion-electron system (eV)
  ---------------------------------------------------
  alpha Z        PSCENC =         6.88757933
  Ewald energy   TEWEN  =      -311.21068454
  -Hartree energ DENC   =        -0.57692345
  -exchange      EXHF   =         0.00000000
  -V(xc)+E(xc)   XCENC  =       -14.93095532
  PAW double counting   =      1645.45266678    -1610.54148665
  entropy T*S    EENTRO =        -0.00476089
  eigenvalues    EBANDS =        70.56878333
  atomic energy  EATOM  =       206.13192747
  Solvation  Ediel_sol  =         0.00000000
  ---------------------------------------------------
  free energy    TOTEN  =        -8.22385394 eV

  energy without entropy =       -8.21909305  energy(sigma->0) =       -8.22147350


--------------------------------------------------------------------------------------------------------




 average (electrostatic) potential at core
  the test charge radii are     0.9892
  (the norm of the test charge is              1.0000)
       1 -73.8029       2 -73.8029
 
 
 
 E-fermi :  16.2031     XC(G=0): -12.8532     alpha+bet :-24.5365


 k-point     1 :       0.0833    0.0833    0.0833
  band No.  band energies     occupation 
      1      -1.6116      2.00000
      2       6.0637      2.00000
      3       9.1840      2.00000
      4      21.8554      0.00000
      5      22.1467      0.00000
      6      28.4243      0.00000
      7      28.5704      0.00000
      8      28.7127      0.00000

 k-point     2 :       0.2500    0.0833    0.0833
  band No.  band energies     occupation 
      1       0.6785      2.00000
      2       8.2025      2.00000
      3      11.1265      2.00000
      4      14.3481      2.00000
      5      18.9751      0.00000
      6      21.4087      0.00000
      7      24.0084      0.00000
      8      26.5165      0.00000

 k-point     3 :       0.4167    0.0833    0.0833
  band No.  band energies     occupation 
      1       4.7059      2.00000
      2       7.2939      2.00000
      3      12.1921      2.00000
      4      14.5084      2.00000
      5      15.3869      2.00000
      6      17.2180      0.00000
      7      19.3952      0.00000
      8      25.1950      0.00000

 k-point     4 :      -0.4167    0.0833    0.0833
  band No.  band energies     occupation 
      1       2.4846      2.00000
      2       9.5121      2.00000
      3      10.7341      2.00000
      4      13.3559      2.00000
      5      17.3467      0.00000
      6      18.7541      0.00000
      7      21.2291      0.00000
      8      25.6274      0.00000

 k-point     5 :      -0.2500    0.0833    0.0833
  band No.  band energies     occupation 
      1      -0.6913      2.00000
      2       6.9293      2.00000
      3      10.0142      2.00000
      4      17.9491      0.00000
      5      20.3571      0.00000
      6      24.8942      0.00000
      7      26.7361      0.00000
      8      28.0015      0.00000

 k-point     6 :      -0.0833    0.0833    0.0833
  band No.  band energies     occupation 
      1      -2.0738      2.00000
      2       5.6279      2.00000
      3       8.7587      2.00000
      4      23.9645      0.00000
      5      25.5440      0.00000
      6      27.2040      0.00000
      7      29.5250      0.00000
      8      30.0686      0.00000

 k-point     7 :       0.2500    0.2500    0.0833
  band No.  band energies     occupation 
      1       3.8241      2.00000
      2      10.5323      2.00000
      3      11.7031      2.00000
      4      12.1314      2.00000
      5      14.9529      2.00000
      6      18.8465      0.00000
      7      19.7535      0.00000
      8      22.4601      0.00000

 k-point     8 :       0.4167    0.2500    0.0833
  band No.  band energies     occupation 
      1       6.0226      2.00000
      2       8.5794      2.00000
      3      11.0325      2.00000
      4      13.6533      2.00000
      5      15.6828      2.00000
      6      17.0313      0.00000
      7      19.0851      0.00000
      8      20.2145      0.00000

 k-point     9 :      -0.4167    0.2500    0.0833
  band No.  band energies     occupation 
      1       2.0354      2.00000
      2       9.4161      2.00000
      3      11.8262      2.00000
      4      13.4352      2.00000
      5      15.5944      2.00000
      6      20.0960      0.00000
      7      22.2625      0.00000
      8      23.8309      0.00000

 k-point    10 :      -0.2500    0.2500    0.0833
  band No.  band energies     occupation 
      1      -0.2333      2.00000
      2       7.3574      2.00000
      3      10.4063      2.00000
      4      15.9259      1.99991
      5      22.4302      0.00000
      6      22.4794      0.00000
      7      24.2952      0.00000
      8      26.7303      0.00000

 k-point    11 :       0.4167    0.4167    0.0833
  band No.  band energies     occupation 
      1       6.4131      2.00000
      2       6.4901      2.00000
      3      13.1766      2.00000
      4      14.0657      2.00000
      5      14.4437      2.00000
      6      16.8587      0.00000
      7      18.5766      0.00000
      8      22.1082      0.00000

 k-point    12 :      -0.4167    0.4167    0.0833
  band No.  band energies     occupation 
      1       3.3781      2.00000
      2       8.4882      2.00000
      3      11.0183      2.00000
      4      14.0313      2.00000
      5      16.1727      1.33280
      6      18.8876      0.00000
      7      20.9549      0.00000
      8      24.0030      0.00000

 k-point    13 :       0.0833    0.0833    0.2500
  band No.  band energies     occupation 
      1      -1.0852      2.00000
      2       3.5678      2.00000
      3      12.5714      2.00000
      4      22.1731      0.00000
      5      22.5574      0.00000
      6      25.1720      0.00000
      7      26.7760      0.00000
      8      26.8310      0.00000

 k-point    14 :       0.2500    0.0833    0.2500
  band No.  band energies     occupation 
      1       1.1966      2.00000
      2       5.7664      2.00000
      3      13.7888      2.00000
      4      15.3981      2.00000
      5      18.4423      0.00000
      6      20.2396      0.00000
      7      23.8377      0.00000
      8      26.6755      0.00000

 k-point    15 :       0.4167    0.0833    0.2500
  band No.  band energies     occupation 
      1       5.2014      2.00000
      2       7.6780      2.00000
      3       9.9875      2.00000
      4      12.3889      2.00000
      5      17.6320      0.00000
      6      19.2832      0.00000
      7      21.3708      0.00000
      8      23.2127      0.00000

 k-point    16 :      -0.4167    0.0833    0.2500
  band No.  band energies     occupation 
      1       2.9952      2.00000
      2       7.4454      2.00000
      3      11.0466      2.00000
      4      15.1635      2.00000
      5      16.5097      0.00001
      6      19.2532      0.00000
      7      22.8552      0.00000
      8      24.5240      0.00000

 k-point    17 :      -0.2500    0.0833    0.2500
  band No.  band energies     occupation 
      1      -0.1682      2.00000
      2       4.4539      2.00000
      3      13.3374      2.00000
      4      18.4092      0.00000
      5      20.6680      0.00000
      6      22.7828      0.00000
      7      24.9662      0.00000
      8      26.4724      0.00000

 k-point    18 :      -0.0833    0.0833    0.2500
  band No.  band energies     occupation 
      1      -1.5459      2.00000
      2       3.1221      2.00000
      3      12.1674      2.00000
      4      24.0057      0.00000
      5      25.1441      0.00000
      6      25.9672      0.00000
      7      27.5554      0.00000
      8      29.5134      0.00000

 k-point    19 :       0.2500    0.2500    0.2500
  band No.  band energies     occupation 
      1       4.3283      2.00000
      2       8.6658      2.00000
      3      12.1569      2.00000
      4      12.4003      2.00000
      5      16.1826      1.22782
      6      16.8956      0.00000
      7      19.1300      0.00000
      8      25.7581      0.00000

 k-point    20 :       0.4167    0.2500    0.2500
  band No.  band energies     occupation 
      1       6.5083      2.00000
      2       8.9361      2.00000
      3      10.8196      2.00000
      4      12.1385      2.00000
      5      13.9938      2.00000
      6      16.2777      0.29137
      7      20.6790      0.00000
      8      23.0155      0.00000

 k-point    21 :      -0.4167    0.2500    0.2500
  band No.  band energies     occupation 
      1       2.5482      2.00000
      2       7.0515      2.00000
      3      13.0259      2.00000
      4      15.1488      2.00000
      5      16.2592      0.42774
      6      18.3954      0.00000
      7      20.4948      0.00000
      8      26.4385      0.00000

 k-point    22 :      -0.2500    0.2500    0.2500
  band No.  band energies     occupation 
      1       0.2882      2.00000
      2       4.8937      2.00000
      3      13.6343      2.00000
      4      16.4870      0.00006
      5      20.3986      0.00000
      6      22.9158      0.00000
      7      24.6063      0.00000
      8      26.8704      0.00000

 k-point    23 :       0.4167    0.4167    0.2500
  band No.  band energies     occupation 
      1       6.8845      2.00000
      2       6.9579      2.00000
      3      11.3718      2.00000
      4      11.6621      2.00000
      5      15.0108      2.00000
      6      18.6973      0.00000
      7      21.1523      0.00000
      8      21.3653      0.00000

 k-point    24 :      -0.4167    0.4167    0.2500
  band No.  band energies     occupation 
      1       3.8838      2.00000
      2       8.0506      2.00000
      3       9.6214      2.00000
      4      13.6367      2.00000
      5      17.3922      0.00000
      6      21.3910      0.00000
      7      21.6422      0.00000
      8      24.6920      0.00000

 k-point    25 :       0.0833    0.0833    0.4167
  band No.  band energies     occupation 
      1      -0.0382      2.00000
      2       1.5186      2.00000
      3      16.3823      0.01128
      4      20.4403      0.00000
      5      23.2550      0.00000
      6      23.3078      0.00000
      7      25.2385      0.00000
      8      25.2774      0.00000

 k-point    26 :       0.2500    0.0833    0.4167
  band No.  band energies     occupation 
      1       2.2269      2.00000
      2       3.7572      2.00000
      3      15.2641      2.00000
      4      16.6469      0.00000
      5      18.5633      0.00000
      6      20.6587      0.00000
      7      22.1661      0.00000
      8      23.6853      0.00000

 k-point    27 :       0.4167    0.0833    0.4167
  band No.  band energies     occupation 
      1       6.1702      2.00000
      2       7.4571      2.00000
      3       9.2455      2.00000
      4      10.5091      2.00000
      5      19.1019      0.00000
      6      20.3938      0.00000
      7      23.0008      0.00000
      8      24.9614      0.00000

 k-point    28 :      -0.4167    0.0833    0.4167
  band No.  band energies     occupation 
      1       4.0090      2.00000
      2       5.5081      2.00000
      3      11.9997      2.00000
      4      13.4250      2.00000
[...]

 k-point     2 :       0.2500    0.0833    0.0833
  band No.  band energies     occupation 
      1       0.6798      2.00000
      2       8.1977      2.00000
      3      11.1185      2.00000
      4      14.3536      2.00000
      5      18.9830      0.00000
      6      21.4122      0.00000
      7      24.0073      0.00000
      8      26.5203      0.00000

 k-point     3 :       0.4167    0.0833    0.0833
  band No.  band energies     occupation 
      1       4.7090      2.00000
      2       7.2979      2.00000
      3      12.1901      2.00000
      4      14.5045      2.00000
      5      15.3832      2.00000
      6      17.2167      0.00000
      7      19.3981      0.00000
      8      25.1989      0.00000

 k-point     4 :      -0.4167    0.0833    0.0833
  band No.  band energies     occupation 
      1       2.4867      2.00000
      2       9.5108      2.00000
      3      10.7363      2.00000
      4      13.3484      2.00000
      5      17.3485      0.00000
      6      18.7598      0.00000
      7      21.2267      0.00000
      8      25.6313      0.00000

 k-point     5 :      -0.2500    0.0833    0.0833
  band No.  band energies     occupation 
      1      -0.6906      2.00000
      2       6.9238      2.00000
      3      10.0041      2.00000
      4      17.9576      0.00000
      5      20.3669      0.00000
      6      24.8984      0.00000
      7      26.7395      0.00000
      8      28.0085      0.00000

 k-point     6 :      -0.0833    0.0833    0.0833
  band No.  band energies     occupation 
      1      -2.0738      2.00000
      2       5.6216      2.00000
      3       8.7477      2.00000
      4      23.9757      0.00000
      5      25.5573      0.00000
      6      27.2110      0.00000
      7      29.5103      0.00000
      8      30.0814      0.00000

 k-point     7 :       0.2500    0.2500    0.0833
  band No.  band energies     occupation 
      1       3.8269      2.00000
      2      10.5323      2.00000
      3      11.7080      2.00000
      4      12.1337      2.00000
      5      14.9462      2.00000
      6      18.8498      0.00000
      7      19.7522      0.00000
      8      22.4566      0.00000

 k-point     8 :       0.4167    0.2500    0.0833
  band No.  band energies     occupation 
      1       6.0263      2.00000
      2       8.5839      2.00000
      3      11.0371      2.00000
      4      13.6526      2.00000
      5      15.6787      2.00000
      6      17.0294      0.00000
      7      19.0825      0.00000
      8      20.2109      0.00000

 k-point     9 :      -0.4167    0.2500    0.0833
  band No.  band energies     occupation 
      1       2.0374      2.00000
      2       9.4122      2.00000
      3      11.8247      2.00000
      4      13.4358      2.00000
      5      15.5997      2.00000
      6      20.0986      0.00000
      7      22.2620      0.00000
      8      23.8296      0.00000

 k-point    10 :      -0.2500    0.2500    0.0833
  band No.  band energies     occupation 
      1      -0.2323      2.00000
      2       7.3521      2.00000
      3      10.3967      2.00000
      4      15.9333      1.99985
      5      22.4327      0.00000
      6      22.4919      0.00000
      7      24.3013      0.00000
      8      26.7296      0.00000

 k-point    11 :       0.4167    0.4167    0.0833
  band No.  band energies     occupation 
      1       6.4179      2.00000
      2       6.4929      2.00000
      3      13.1781      2.00000
      4      14.0617      2.00000
      5      14.4474      2.00000
      6      16.8524      0.00000
      7      18.5725      0.00000
      8      22.1103      0.00000

 k-point    12 :      -0.4167    0.4167    0.0833
  band No.  band energies     occupation 
      1       3.3806      2.00000
      2       8.4920      2.00000
      3      11.0161      2.00000
      4      14.0232      2.00000
      5      16.1718      1.32470
      6      18.8833      0.00000
      7      20.9669      0.00000
      8      24.0099      0.00000

 k-point    13 :       0.0833    0.0833    0.2500
  band No.  band energies     occupation 
      1      -1.0854      2.00000
      2       3.5634      2.00000
      3      12.5584      2.00000
      4      22.1800      0.00000
      5      22.5686      0.00000
      6      25.1574      0.00000
      7      26.7820      0.00000
      8      26.8359      0.00000

 k-point    14 :       0.2500    0.0833    0.2500
  band No.  band energies     occupation 
      1       1.1975      2.00000
      2       5.7632      2.00000
      3      13.7873      2.00000
      4      15.3949      2.00000
      5      18.4463      0.00000
      6      20.2472      0.00000
      7      23.8424      0.00000
      8      26.6782      0.00000

 k-point    15 :       0.4167    0.0833    0.2500
  band No.  band energies     occupation 
      1       5.2041      2.00000
      2       7.6810      2.00000
      3       9.9872      2.00000
      4      12.3888      2.00000
      5      17.6330      0.00000
      6      19.2798      0.00000
      7      21.3670      0.00000
      8      23.2156      0.00000

 k-point    16 :      -0.4167    0.0833    0.2500
  band No.  band energies     occupation 
      1       2.9969      2.00000
      2       7.4432      2.00000
      3      11.0514      2.00000
      4      15.1632      2.00000
      5      16.5030      0.00002
      6      19.2597      0.00000
      7      22.8580      0.00000
      8      24.5217      0.00000

 k-point    17 :      -0.2500    0.0833    0.2500
  band No.  band energies     occupation 
      1      -0.1680      2.00000
      2       4.4500      2.00000
      3      13.3254      2.00000
      4      18.4168      0.00000
      5      20.6766      0.00000
      6      22.7875      0.00000
      7      24.9686      0.00000
      8      26.4605      0.00000

 k-point    18 :      -0.0833    0.0833    0.2500
  band No.  band energies     occupation 
      1      -1.5463      2.00000
      2       3.1175      2.00000
      3      12.1541      2.00000
      4      24.0031      0.00000
      5      25.1377      0.00000
      6      25.9801      0.00000
      7      27.5634      0.00000
      8      29.5225      0.00000

 k-point    19 :       0.2500    0.2500    0.2500
  band No.  band energies     occupation 
      1       4.3306      2.00000
      2       8.6644      2.00000
      3      12.1612      2.00000
      4      12.4063      2.00000
      5      16.1799      1.23986
      6      16.8997      0.00000
      7      19.1238      0.00000
      8      25.7507      0.00000

 k-point    20 :       0.4167    0.2500    0.2500
  band No.  band energies     occupation 
      1       6.5115      2.00000
      2       8.9396      2.00000
      3      10.8212      2.00000
      4      12.1413      2.00000
      5      13.9956      2.00000
      6      16.2795      0.26959
      7      20.6704      0.00000
      8      23.0074      0.00000

 k-point    21 :      -0.4167    0.2500    0.2500
  band No.  band energies     occupation 
      1       2.5497      2.00000
      2       7.0490      2.00000
      3      13.0309      2.00000
      4      15.1501      2.00000
      5      16.2559      0.44172
      6      18.3980      0.00000
      7      20.4977      0.00000
      8      26.4315      0.00000

 k-point    22 :      -0.2500    0.2500    0.2500
  band No.  band energies     occupation 
      1       0.2886      2.00000
      2       4.8901      2.00000
      3      13.6238      2.00000
      4      16.4926      0.00004
      5      20.4022      0.00000
      6      22.9279      0.00000
      7      24.6071      0.00000
      8      26.8786      0.00000

 k-point    23 :       0.4167    0.4167    0.2500
  band No.  band energies     occupation 
      1       6.8888      2.00000
      2       6.9602      2.00000
      3      11.3729      2.00000
      4      11.6605      2.00000
      5      15.0172      2.00000
      6      18.6967      0.00000
      7      21.1448      0.00000
      8      21.3597      0.00000

 k-point    24 :      -0.4167    0.4167    0.2500
  band No.  band energies     occupation 
      1       3.8859      2.00000
      2       8.0499      2.00000
      3       9.6246      2.00000
      4      13.6370      2.00000
      5      17.3827      0.00000
      6      21.4026      0.00000
      7      21.6388      0.00000
      8      24.6941      0.00000

 k-point    25 :       0.0833    0.0833    0.4167
  band No.  band energies     occupation 
      1      -0.0393      2.00000
      2       1.5161      2.00000
      3      16.3664      0.01965
      4      20.4231      0.00000
      5      23.2647      0.00000
      6      23.3153      0.00000
      7      25.2467      0.00000
      8      25.2862      0.00000

 k-point    26 :       0.2500    0.0833    0.4167
  band No.  band energies     occupation 
      1       2.2268      2.00000
      2       3.7557      2.00000
      3      15.2688      2.00000
      4      16.6498      0.00000
      5      18.5543      0.00000
      6      20.6614      0.00000
      7      22.1693      0.00000
      8      23.6754      0.00000

 k-point    27 :       0.4167    0.0833    0.4167
  band No.  band energies     occupation 
      1       6.1719      2.00000
      2       7.4577      2.00000
      3       9.2484      2.00000
      4      10.5108      2.00000
      5      19.1080      0.00000
      6      20.3977      0.00000
      7      22.9923      0.00000
      8      24.9545      0.00000

 k-point    28 :      -0.4167    0.0833    0.4167
  band No.  band energies     occupation 
      1       4.0097      2.00000
      2       5.5075      2.00000
      3      12.0039      2.00000
      4      13.4279      2.00000
      5      19.1345      0.00000
      6      20.3758      0.00000
      7      21.9050      0.00000
      8      24.7526      0.00000

 k-point    29 :      -0.2500    0.0833    0.4167
  band No.  band energies     occupation 
      1       0.8716      2.00000
      2       2.4170      2.00000
      3      16.9538      0.00000
      4      19.2147      0.00000
      5      20.3779      0.00000
      6      21.0807      0.00000
      7      22.9910      0.00000
      8      23.8654      0.00000

 k-point    30 :      -0.0833    0.0833    0.4167
  band No.  band energies     occupation 
      1      -0.4970      2.00000
      2       1.0633      2.00000
      3      16.0009      1.99544
      4      20.1934      0.00000
      5      25.3814      0.00000
      6      26.5074      0.00000
      7      26.8205      0.00000
      8      28.0561      0.00000

 k-point    31 :       0.2500    0.2500    0.4167
  band No.  band energies     occupation 
      1       5.3286      2.00000
      2       6.7969      2.00000
      3      12.9716      2.00000
      4      13.1435      2.00000
      5      14.9797      2.00000
      6      15.2011      2.00000
      7      22.2611      0.00000
      8      26.1192      0.00000

 k-point    32 :       0.4167    0.2500    0.4167
  band No.  band energies     occupation 
      1       7.4538      2.00000
      2       8.6822      2.00000
      3      10.4672      2.00000
      4      11.5269      2.00000
      5      13.3845      2.00000
      6      14.5570      2.00000
      7      24.2007      0.00000
      8      26.4266      0.00000

 k-point    33 :      -0.4167    0.2500    0.4167
  band No.  band energies     occupation 
      1       3.5676      2.00000
      2       5.0767      2.00000
      3      14.0425      2.00000
      4      15.2852      2.00000
      5      16.8150      0.00000
      6      18.0521      0.00000
      7      20.9754      0.00000
      8      24.6377      0.00000

 k-point    34 :      -0.2500    0.2500    0.4167
  band No.  band energies     occupation 
      1       1.3249      2.00000
      2       2.8650      2.00000
      3      16.5668      0.00000
      4      17.8017      0.00000
      5      18.9468      0.00000
      6      21.9246      0.00000
      7      23.8019      0.00000
      8      25.1176      0.00000

 k-point    35 :       0.4167    0.4167    0.4167
  band No.  band energies     occupation 
      1       7.7248      2.00000
      2       7.7825      2.00000
      3       9.7358      2.00000
      4       9.8403      2.00000
      5      15.9850      1.99779
      6      17.3607      0.00000
      7      24.5365      0.00000
      8      24.5402      0.00000

 k-point    36 :      -0.4167    0.4167    0.4167
  band No.  band energies     occupation 
      1       4.8860      2.00000
      2       6.3477      2.00000
      3      10.3451      2.00000
      4      11.7636      2.00000
      5      20.7926      0.00000
      6      22.2761      0.00000
      7      23.2403      0.00000
      8      23.5913      0.00000


--------------------------------------------------------------------------------------------------------


 soft charge-density along one line, spin component           1
         0         1         2         3         4         5         6         7         8         9
 total charge-density along one line
 
 pseudopotential strength for first ion, spin component:           1
 17.304  24.136  -0.000   0.000   0.000  -0.000   0.000   0.000
 24.136  33.668  -0.000   0.000   0.000  -0.000   0.000   0.000
 -0.000  -0.000   4.014  -0.000   0.000   7.471  -0.000   0.000
  0.000   0.000  -0.000   4.014  -0.000  -0.000   7.471  -0.000
  0.000   0.000   0.000  -0.000   4.014   0.000  -0.000   7.471
 -0.000  -0.000   7.471  -0.000   0.000  13.918  -0.000   0.000
  0.000   0.000  -0.000   7.471  -0.000  -0.000  13.918  -0.000
  0.000   0.000   0.000  -0.000   7.471   0.000  -0.000  13.918
 total augmentation occupancy for first ion, spin component:           1
  9.393  -4.665   0.000   0.000  -0.000   0.000   0.000   0.000
 -4.665   2.664  -0.000   0.000   0.000   0.000   0.000  -0.000
 -0.000   0.000   4.206   0.000  -0.000  -1.191   0.000   0.000
  0.000   0.000   0.000   4.243  -0.000  -0.000  -1.202  -0.000
 -0.000   0.000   0.000  -0.000   4.206   0.000   0.000  -1.191
 -0.000   0.000  -1.191  -0.000  -0.000   0.361   0.000  -0.000
  0.000   0.000   0.000  -1.202   0.000   0.000   0.364   0.000
  0.000  -0.000   0.000   0.000  -1.191   0.000  -0.000   0.361


------------------------ aborting loop because EDIFF is reached ----------------------------------------


    CHARGE:  cpu time    0.0280: real time    0.0182
    FORLOC:  cpu time    0.0010: real time    0.0005
    FORNL :  cpu time    0.0350: real time    0.0232
    STRESS:  cpu time    0.2250: real time    0.1355
    FORCOR:  cpu time    0.0460: real time    0.0282
    FORHAR:  cpu time    0.0040: real time    0.0099
    MIXING:  cpu time    0.0000: real time    0.0004
    OFIELD:  cpu time    0.0000: real time    0.0000

  FORCE on cell =-STRESS in cart. coord.  units (eV):
  Direction    XX          YY          ZZ          XY          YZ          ZX
  --------------------------------------------------------------------------------------
  Alpha Z     6.88758     6.88758     6.88758
  Ewald    -104.09303  -104.09303  -103.02536    -0.00000     0.00000     0.00000
  Hartree     0.18617     0.18617     0.20425    -0.00000    -0.00000    -0.00000
  E(xc)     -28.52029   -28.52029   -28.56799    -0.00000     0.00000    -0.00000
  Local      -4.47422    -4.47422    -5.60821    -0.00001     0.00000     0.00000
  n-local    76.35493    83.04446    80.75675    -1.88427     0.28539    -0.93934
  augment   -11.87029   -11.87029   -11.88803     0.00001    -0.00000     0.00000
  Kinetic    90.91877    53.38959    71.22552    12.34558     0.25634     0.42462
  Fock        0.00000     0.00000     0.00000     0.00000     0.00000     0.00000
  -------------------------------------------------------------------------------------
  Total       9.96979     9.96979     9.98450    -0.00000     0.00000     0.00000
  in kB     817.05019   817.05019   818.25604    -0.00000     0.00000     0.00000
  external pressure =      817.45 kB  Pullay stress =        0.00 kB


 VOLUME and BASIS-vectors are now :
 -----------------------------------------------------------------------------
  energy-cutoff  :      450.00
  volume of cell :       19.55
      direct lattice vectors                 reciprocal lattice vectors
     2.405288764 -0.000000000 -0.000000000     0.415750497  0.240033662  0.000000000
    -1.202644382  2.083041173  0.000000000     0.000000000  0.480067323  0.000000000
    -0.000000000  0.000000000  3.901959932     0.000000000  0.000000000  0.256281463

  length of vectors
     2.405288764  2.405288764  3.901959932     0.480067323  0.480067323  0.256281463


 FORCES acting on ions
    electron-ion (+dipol)            ewald-force                    non-local-force                 convergence-correction
 -----------------------------------------------------------------------------------------------
   -.161E-08 0.932E-09 0.114E-13   -.114E-12 0.111E-12 -.466E-14   -.911E-17 -.520E-16 0.000E+00   0.111E-09 -.642E-10 -.166E-15
   0.161E-08 -.932E-09 -.468E-13   0.114E-12 -.111E-12 0.466E-14   0.117E-16 0.503E-16 0.000E+00   -.111E-09 0.642E-10 0.134E-15
 -----------------------------------------------------------------------------------------------
   -.743E-14 -.161E-14 -.354E-13   -.529E-15 0.278E-15 -.867E-18   0.260E-17 -.173E-17 0.000E+00   0.179E-15 0.957E-16 -.318E-16
 
 
 POSITION                                       TOTAL-FORCE (eV/Angst)
 -----------------------------------------------------------------------------------
      0.00000     -0.00000     -0.00000         0.000000     -0.000000      0.000000
     -0.00000      1.38869      1.95098        -0.000000      0.000000      0.000000
 -----------------------------------------------------------------------------------
    total drift:                               -0.000000     -0.000000     -0.000000


--------------------------------------------------------------------------------------------------------



  FREE ENERGIE OF THE ION-ELECTRON SYSTEM (eV)
  ---------------------------------------------------
  free  energy   TOTEN  =        -8.22387152 eV

  energy  without entropy=       -8.21912854  energy(sigma->0) =       -8.22150003
 
 d Force = 0.0000000E+00[ 0.000E+00, 0.000E+00]  d Energy = 0.1757894E-04-0.176E-04
 d Force = 0.0000000E+00[ 0.000E+00, 0.000E+00]  d Ewald  = 0.5240729E-03-0.524E-03


--------------------------------------------------------------------------------------------------------


    POTLOK:  cpu time    0.0110: real time    0.0208


--------------------------------------------------------------------------------------------------------




--------------------------------------------------------------------------------------------------------


  
 reached required accuracy - stopping structural energy minimisation
 writing wavefunctions
     LOOP+:  cpu time    3.6974: real time    2.3653
    4ORBIT:  cpu time    0.0000: real time    0.0000

 total amount of memory used by VASP on root node    33459. kBytes
========================================================================

   base      :      30000. kBytes
   nonl-proj :       1009. kBytes
   fftplans  :        669. kBytes
   grid      :       1259. kBytes
   one-center:          6. kBytes
   wavefun   :        516. kBytes
 
  
  
 General timing and accounting informations for this job:
 ========================================================
  
                  Total CPU time used (sec):       28.143
                            User time (sec):       25.815
                          System time (sec):        2.328
                         Elapsed time (sec):       19.070
  
                   Maximum memory used (kb):       35872.
                   Average memory used (kb):           0.
  
                          Minor page faults:        32582
                          Major page faults:            8
                 Voluntary context switches:          685
