 running on    4 total cores
 distrk:  each k-point on    4 cores,    1 groups
 distr:  one band on    1 cores,    4 groups
 using from now: INCAR     
 vasp.5.4.1 24Jun15 (build Jul 19 2016 16:50:41) complex                        
  
 POSCAR found :  1 types and       2 ions
 LDA part: xc-table for Pade appr. of Perdew
 POSCAR, INCAR and KPOINTS ok, starting setup
 FFT: planning ...
 WAVECAR not read
 entering main loop
       N       E                     dE             d eps       ncg     rms          rms(c)
DAV:   1     0.694039771736E+01    0.69404E+01   -0.37615E+03   600   0.764E+02
DAV:   2    -0.815146808720E+01   -0.15092E+02   -0.14725E+02   872   0.865E+01
DAV:   3    -0.831353746933E+01   -0.16207E+00   -0.16165E+00   752   0.987E+00
DAV:   4    -0.831388491988E+01   -0.34745E-03   -0.34745E-03   912   0.407E-01
DAV:   5    -0.831388497359E+01   -0.53704E-07   -0.50756E-07   760   0.326E-03    0.803E+00
DAV:   6    -0.825751943820E+01    0.56366E-01   -0.57930E-03   640   0.565E-01    0.452E+00
DAV:   7    -0.822333141762E+01    0.34188E-01   -0.12777E-02   608   0.852E-01    0.244E-01
DAV:   8    -0.822300697641E+01    0.32444E-03   -0.12515E-04   968   0.108E-01    0.434E-02
DAV:   9    -0.822300193599E+01    0.50404E-05   -0.41464E-06   488   0.164E-02
   1 F= -.82230019E+01 E0= -.82203984E+01  d E =-.822300E+01
 curvature:   0.00 expect dE= 0.000E+00 dE for cont linesearch  0.000E+00
 trial: gam= 0.00000 g(F)=  0.481E-51 g(S)=  0.147E-02 ort = 0.000E+00 (trialstep = 0.100E+01)
 search vector abs. value=  0.147E-02
 bond charge predicted
       N       E                     dE             d eps       ncg     rms          rms(c)
DAV:   1    -0.822423720726E+01   -0.12302E-02   -0.32002E-02   888   0.111E+00    0.116E-01
DAV:   2    -0.822397054827E+01    0.26666E-03   -0.45176E-04   616   0.187E-01    0.613E-02
DAV:   3    -0.822385320107E+01    0.11735E-03   -0.27985E-04   864   0.103E-01    0.446E-03
DAV:   4    -0.822385393913E+01   -0.73807E-06   -0.67700E-06   360   0.251E-02
   2 F= -.82238539E+01 E0= -.82214735E+01  d E =-.852003E-03
 trial-energy change:   -0.000852  1 .order   -0.000579   -0.001473    0.000316
 step:   0.9035(harm=  0.8236)  dis= 0.00000  next Energy=    -8.223869 (dE=-0.867E-03)
 bond charge predicted
       N       E                     dE             d eps       ncg     rms          rms(c)
DAV:   1    -0.822387420915E+01   -0.21008E-04   -0.29559E-04   904   0.106E-01    0.115E-02
DAV:   2    -0.822387151807E+01    0.26911E-05   -0.43158E-06   424   0.184E-02
   3 F= -.82238715E+01 E0= -.82215000E+01  d E =-.869582E-03
 curvature:  -0.33 expect dE=-0.114E-05 dE for cont linesearch -0.114E-05
 trial: gam= 0.00000 g(F)=  0.171E-52 g(S)=  0.348E-05 ort =-0.716E-04 (trialstep = 0.981E+00)
 search vector abs. value=  0.348E-05
 reached required accuracy - stopping structural energy minimisation
 writing wavefunctions
