<?xml version="1.0" encoding="ISO-8859-1"?>
<modeling>
 <generator>
  <i name="program" type="string">vasp </i>
  <i name="version" type="string">5.4.1  </i>
  <i name="subversion" type="string">24Jun15 (build Jul 19 2016 16:50:41) complex                          parallel </i>
  <i name="platform" type="string">IFC91_ompi </i>
  <i name="date" type="string">2019 10 10 </i>
  <i name="time" type="string">11:10:56 </i>
 </generator>
 <incar>
  <i type="string" name="SYSTEM"> Si beta-tin</i>
  <i type="string" name="PREC">accurate</i>
  <i type="int" name="IBRION">     2</i>
  <i name="EDIFF">      0.00001000</i>
  <i name="EDIFFG">     -0.01000000</i>
  <i type="int" name="NSW">   100</i>
  <i type="int" name="ISIF">     4</i>
  <i name="ENMAX">    450.00000000</i>
  <i type="int" name="ISMEAR">     0</i>
  <i name="SIGMA">      0.10000000</i>
  <v type="int" name="KPOINT_BSE">    -1     0     0     0</v>
 </incar>
 <kpoints>
  <generation param="Monkhorst-Pack">
   <v type="int" name="divisions">       6        6        6 </v>
   <v name="usershift">      0.00000000       0.00000000       0.00000000 </v>
   <v name="genvec1">      0.16666667       0.00000000       0.00000000 </v>
   <v name="genvec2">      0.00000000       0.16666667       0.00000000 </v>
   <v name="genvec3">      0.00000000       0.00000000       0.16666667 </v>
   <v name="shift">      0.50000000       0.50000000       0.50000000 </v>
  </generation>
  <varray name="kpointlist" >
   <v>       0.08333333       0.08333333       0.08333333 </v>
   <v>       0.25000000       0.08333333       0.08333333 </v>
   <v>       0.41666667       0.08333333       0.08333333 </v>
   <v>      -0.41666667       0.08333333       0.08333333 </v>
   <v>      -0.25000000       0.08333333       0.08333333 </v>
   <v>      -0.08333333       0.08333333       0.08333333 </v>
   <v>       0.25000000       0.25000000       0.08333333 </v>
   <v>       0.41666667       0.25000000       0.08333333 </v>
   <v>      -0.41666667       0.25000000       0.08333333 </v>
   <v>      -0.25000000       0.25000000       0.08333333 </v>
   <v>       0.41666667       0.41666667       0.08333333 </v>
   <v>      -0.41666667       0.41666667       0.08333333 </v>
   <v>       0.08333333       0.08333333       0.25000000 </v>
   <v>       0.25000000       0.08333333       0.25000000 </v>
   <v>       0.41666667       0.08333333       0.25000000 </v>
   <v>      -0.41666667       0.08333333       0.25000000 </v>
   <v>      -0.25000000       0.08333333       0.25000000 </v>
   <v>      -0.08333333       0.08333333       0.25000000 </v>
   <v>       0.25000000       0.25000000       0.25000000 </v>
   <v>       0.41666667       0.25000000       0.25000000 </v>
   <v>      -0.41666667       0.25000000       0.25000000 </v>
   <v>      -0.25000000       0.25000000       0.25000000 </v>
   <v>       0.41666667       0.41666667       0.25000000 </v>
   <v>      -0.41666667       0.41666667       0.25000000 </v>
   <v>       0.08333333       0.08333333       0.41666667 </v>
   <v>       0.25000000       0.08333333       0.41666667 </v>
   <v>       0.41666667       0.08333333       0.41666667 </v>
   <v>      -0.41666667       0.08333333       0.41666667 </v>
   <v>      -0.25000000       0.08333333       0.41666667 </v>
   <v>      -0.08333333       0.08333333       0.41666667 </v>
   <v>       0.25000000       0.25000000       0.41666667 </v>
   <v>       0.41666667       0.25000000       0.41666667 </v>
   <v>      -0.41666667       0.25000000       0.41666667 </v>
   <v>      -0.25000000       0.25000000       0.41666667 </v>
   <v>       0.41666667       0.41666667       0.41666667 </v>
   <v>      -0.41666667       0.41666667       0.41666667 </v>
  </varray>
  <varray name="weights" >
   <v>       0.01851852 </v>
   <v>       0.03703704 </v>
   <v>       0.03703704 </v>
   <v>       0.03703704 </v>
   <v>       0.03703704 </v>
   <v>       0.01851852 </v>
   <v>       0.01851852 </v>
   <v>       0.03703704 </v>
   <v>       0.03703704 </v>
   <v>       0.01851852 </v>
   <v>       0.01851852 </v>
   <v>       0.01851852 </v>
   <v>       0.01851852 </v>
   <v>       0.03703704 </v>
   <v>       0.03703704 </v>
   <v>       0.03703704 </v>
   <v>       0.03703704 </v>
   <v>       0.01851852 </v>
   <v>       0.01851852 </v>
   <v>       0.03703704 </v>
   <v>       0.03703704 </v>
   <v>       0.01851852 </v>
   <v>       0.01851852 </v>
   <v>       0.01851852 </v>
   <v>       0.01851852 </v>
   <v>       0.03703704 </v>
   <v>       0.03703704 </v>
   <v>       0.03703704 </v>
   <v>       0.03703704 </v>
   <v>       0.01851852 </v>
   <v>       0.01851852 </v>
   <v>       0.03703704 </v>
   <v>       0.03703704 </v>
   <v>       0.01851852 </v>
   <v>       0.01851852 </v>
   <v>       0.01851852 </v>
  </varray>
 </kpoints>
 <parameters>
  <separator name="general" >
   <i type="string" name="SYSTEM">Si beta-tin</i>
   <i type="logical" name="LCOMPAT"> F  </i>
  </separator>
  <separator name="electronic" >
   <i type="string" name="PREC">accura</i>
   <i name="ENMAX">    450.00000000</i>
   <i name="ENAUG">    322.06900000</i>
   <i name="EDIFF">      0.00001000</i>
   <i type="int" name="IALGO">    38</i>
   <i type="int" name="IWAVPR">    11</i>
   <i type="int" name="NBANDS">     8</i>
   <i name="NELECT">      8.00000000</i>
   <i type="int" name="TURBO">     0</i>
   <i type="int" name="IRESTART">     0</i>
   <i type="int" name="NREBOOT">     0</i>
   <i type="int" name="NMIN">     0</i>
   <i name="EREF">      0.00000000</i>
   <separator name="electronic smearing" >
    <i type="int" name="ISMEAR">     0</i>
    <i name="SIGMA">      0.10000000</i>
    <i name="KSPACING">      0.50000000</i>
    <i type="logical" name="KGAMMA"> T  </i>
   </separator>
   <separator name="electronic projectors" >
    <i type="logical" name="LREAL"> F  </i>
    <v name="ROPT">      0.00000000</v>
    <i type="int" name="LMAXPAW">  -100</i>
    <i type="int" name="LMAXMIX">     2</i>
    <i type="logical" name="NLSPLINE"> F  </i>
   </separator>
   <separator name="electronic startup" >
    <i type="int" name="ISTART">     0</i>
    <i type="int" name="ICHARG">     2</i>
    <i type="int" name="INIWAV">     1</i>
   </separator>
   <separator name="electronic spin" >
    <i type="int" name="ISPIN">     1</i>
    <i type="logical" name="LNONCOLLINEAR"> F  </i>
    <v name="MAGMOM">      1.00000000      1.00000000</v>
    <i name="NUPDOWN">     -1.00000000</i>
    <i type="logical" name="LSORBIT"> F  </i>
    <v name="SAXIS">      0.00000000      0.00000000      1.00000000</v>
    <i type="logical" name="LSPIRAL"> F  </i>
    <v name="QSPIRAL">      0.00000000      0.00000000      0.00000000</v>
    <i type="logical" name="LZEROZ"> F  </i>
   </separator>
   <separator name="electronic exchange-correlation" >
    <i type="logical" name="LASPH"> F  </i>
    <i type="logical" name="LMETAGGA"> F  </i>
   </separator>
   <separator name="electronic convergence" >
    <i type="int" name="NELM">    60</i>
    <i type="int" name="NELMDL">    -5</i>
    <i type="int" name="NELMIN">     2</i>
    <i name="ENINI">    450.00000000</i>
    <separator name="electronic convergence detail" >
     <i type="logical" name="LDIAG"> T  </i>
     <i type="logical" name="LSUBROT"> F  </i>
     <i name="WEIMIN">      0.00100000</i>
     <i name="EBREAK">      0.00000031</i>
     <i name="DEPER">      0.30000000</i>
     <i type="int" name="NRMM">     4</i>
     <i name="TIME">      0.40000000</i>
    </separator>
   </separator>
   <separator name="electronic mixer" >
    <i name="AMIX">      0.40000000</i>
    <i name="BMIX">      1.00000000</i>
    <i name="AMIN">      0.10000000</i>
    <i name="AMIX_MAG">      1.60000000</i>
    <i name="BMIX_MAG">      1.00000000</i>
    <separator name="electronic mixer details" >
     <i type="int" name="IMIX">     4</i>
     <i type="logical" name="MIXFIRST"> F  </i>
     <i type="int" name="MAXMIX">   -45</i>
     <i name="WC">    100.00000000</i>
     <i type="int" name="INIMIX">     1</i>
     <i type="int" name="MIXPRE">     1</i>
     <i type="int" name="MREMOVE">     5</i>
    </separator>
   </separator>
   <separator name="electronic dipolcorrection" >
    <i type="logical" name="LDIPOL"> F  </i>
    <i type="logical" name="LMONO"> F  </i>
    <i type="int" name="IDIPOL">     0</i>
    <i name="EPSILON">      1.00000000</i>
    <v name="DIPOL">   -100.00000000   -100.00000000   -100.00000000</v>
    <i name="EFIELD">      0.00000000</i>
   </separator>
  </separator>
  <separator name="grids" >
   <i type="int" name="NGX">    18</i>
   <i type="int" name="NGY">    18</i>
   <i type="int" name="NGZ">    28</i>
   <i type="int" name="NGXF">    36</i>
   <i type="int" name="NGYF">    36</i>
   <i type="int" name="NGZF">    56</i>
   <i type="logical" name="ADDGRID"> F  </i>
  </separator>
  <separator name="ionic" >
   <i type="int" name="NSW">   100</i>
   <i type="int" name="IBRION">     2</i>
   <i type="int" name="ISIF">     4</i>
   <i name="PSTRESS">      0.00000000</i>
   <i name="EDIFFG">     -0.01000000</i>
   <i type="int" name="NFREE">     1</i>
   <i name="POTIM">      0.50000000</i>
   <i name="SMASS">     -3.00000000</i>
   <i name="SCALEE">      1.00000000</i>
  </separator>
  <separator name="ionic md" >
   <i name="TEBEG">      0.00010000</i>
   <i name="TEEND">      0.00010000</i>
   <i type="int" name="NBLOCK">     1</i>
   <i type="int" name="KBLOCK">   100</i>
   <i type="int" name="NPACO">   256</i>
   <i name="APACO">     16.00000000</i>
  </separator>
  <separator name="symmetry" >
   <i type="int" name="ISYM">     2</i>
   <i name="SYMPREC">      0.00001000</i>
  </separator>
  <separator name="dos" >
   <i type="logical" name="LORBIT"> F  </i>
   <v name="RWIGS">     -1.00000000</v>
   <i type="int" name="NEDOS">   301</i>
   <i name="EMIN">     10.00000000</i>
   <i name="EMAX">    -10.00000000</i>
   <i name="EFERMI">      0.00000000</i>
  </separator>
  <separator name="writing" >
   <i type="int" name="NWRITE">     2</i>
   <i type="logical" name="LWAVE"> T  </i>
   <i type="logical" name="LCHARG"> T  </i>
   <i type="logical" name="LPARD"> F  </i>
   <i type="logical" name="LVTOT"> F  </i>
   <i type="logical" name="LVHAR"> F  </i>
   <i type="logical" name="LELF"> F  </i>
   <i type="logical" name="LOPTICS"> F  </i>
   <v name="STM">      0.00000000      0.00000000      0.00000000      0.00000000      0.00000000      0.00000000      0.00000000</v>
  </separator>
  <separator name="performance" >
   <i type="int" name="NPAR">     4</i>
   <i type="int" name="NSIM">     4</i>
   <i type="int" name="NBLK">    -1</i>
   <i type="logical" name="LPLANE"> T  </i>
   <i type="logical" name="LSCALAPACK"> F  </i>
   <i type="logical" name="LSCAAWARE"> F  </i>
   <i type="logical" name="LSCALU"> F  </i>
   <i type="logical" name="LASYNC"> F  </i>
   <i type="logical" name="LORBITALREAL"> F  </i>
  </separator>
  <separator name="miscellaneous" >
   <i type="int" name="IDIOT">     3</i>
   <i type="logical" name="LMUSIC"> F  </i>
   <v name="POMASS">     28.08500000</v>
   <v name="DARWINR">      0.00000000</v>
   <v name="DARWINV">      1.00000000</v>
   <i type="logical" name="LCORR"> T  </i>
  </separator>
  <i type="logical" name="GGA_COMPAT"> T  </i>
  <i type="logical" name="LBERRY"> F  </i>
  <i type="int" name="ICORELEVEL">     0</i>
  <i type="logical" name="LDAU"> F  </i>
  <i type="int" name="I_CONSTRAINED_M">     0</i>
  <separator name="electronic exchange-correlation" >
   <i type="string" name="GGA">--</i>
   <i type="int" name="VOSKOWN">     0</i>
   <i type="logical" name="LHFCALC"> F  </i>
   <i type="string" name="PRECFOCK"></i>
   <i type="logical" name="LSYMGRAD"> F  </i>
   <i type="logical" name="LHFONE"> F  </i>
   <i type="logical" name="LRHFCALC"> F  </i>
   <i type="logical" name="LTHOMAS"> F  </i>
   <i type="logical" name="LMODELHF"> F  </i>
   <i name="ENCUT4O">     -1.00000000</i>
   <i type="int" name="EXXOEP">     0</i>
   <i type="int" name="FOURORBIT">     0</i>
   <i name="AEXX">      0.00000000</i>
   <i name="HFALPHA">      0.00000000</i>
   <i name="MCALPHA">      0.00000000</i>
   <i name="ALDAX">      1.00000000</i>
   <i name="AGGAX">      1.00000000</i>
   <i name="ALDAC">      1.00000000</i>
   <i name="AGGAC">      1.00000000</i>
   <i type="int" name="NKREDX">     1</i>
   <i type="int" name="NKREDY">     1</i>
   <i type="int" name="NKREDZ">     1</i>
   <i type="logical" name="SHIFTRED"> F  </i>
   <i type="logical" name="ODDONLY"> F  </i>
   <i type="logical" name="EVENONLY"> F  </i>
   <i type="int" name="LMAXFOCK">     0</i>
   <i type="int" name="NMAXFOCKAE">     0</i>
   <i type="logical" name="LFOCKAEDFT"> F  </i>
   <i name="HFSCREEN">      0.00000000</i>
   <i name="HFSCREENC">      0.00000000</i>
   <i type="int" name="NBANDSGWLOW">     0</i>
  </separator>
  <separator name="vdW DFT" >
   <i type="logical" name="LUSE_VDW"> F  </i>
   <i name="Zab_VDW">     -0.84910000</i>
   <i name="PARAM1">      0.12340000</i>
   <i name="PARAM2">      1.00000000</i>
   <i name="PARAM3">      0.00000000</i>
  </separator>
  <separator name="model GW" >
   <i type="int" name="MODEL_GW">     0</i>
   <i name="MODEL_EPS0">      5.86501513</i>
   <i name="MODEL_ALPHA">      1.00000000</i>
  </separator>
  <separator name="linear response parameters" >
   <i type="logical" name="LEPSILON"> F  </i>
   <i type="logical" name="LRPA"> F  </i>
   <i type="logical" name="LNABLA"> F  </i>
   <i type="logical" name="LVEL"> F  </i>
   <i type="int" name="KINTER">     0</i>
   <i name="CSHIFT">      0.10000000</i>
   <i name="OMEGAMAX">     -1.00000000</i>
   <i name="DEG_THRESHOLD">      0.00200000</i>
  </separator>
  <separator name="orbital magnetization" >
   <i type="logical" name="NUCIND"> F  </i>
   <v name="MAGPOS">      0.00000000      0.00000000      0.00000000</v>
   <i type="logical" name="LNICSALL"> T  </i>
   <i type="logical" name="ORBITALMAG"> F  </i>
   <i type="logical" name="LMAGBLOCH"> F  </i>
   <i type="logical" name="LCHIMAG"> F  </i>
   <i type="logical" name="LGAUGE"> T  </i>
   <i type="int" name="MAGATOM">     0</i>
   <v name="MAGDIPOL">      0.00000000      0.00000000      0.00000000</v>
   <v name="AVECCONST">      0.00000000      0.00000000      0.00000000</v>
  </separator>
  <separator name="response functions" >
   <i type="logical" name="LADDER"> F  </i>
   <i type="logical" name="LFXC"> F  </i>
   <i type="logical" name="LHARTREE"> T  </i>
   <i type="int" name="IBSE">     0</i>
   <v type="int" name="KPOINT">    -1     0     0     0</v>
   <i type="logical" name="LTCTE"> F  </i>
   <i type="logical" name="LTETE"> F  </i>
   <i type="logical" name="LTRIPLET"> F  </i>
   <i type="logical" name="LFXCEPS"> F  </i>
   <i type="logical" name="LFXHEG"> F  </i>
   <i type="int" name="NATURALO">     0</i>
   <i type="logical" name="L2ORDER"> F  </i>
   <i type="logical" name="LUSEW"> F  </i>
   <i name="ENCUTGW">     -2.00000000</i>
   <i name="ENCUTGWSOFT">     -2.00000000</i>
   <i name="ENCUTLF">     -1.00000000</i>
   <i type="int" name="LMAXMP2">    -1</i>
   <i name="SCISSOR">      0.00000000</i>
   <i type="int" name="NOMEGA">     0</i>
   <i type="int" name="NOMEGAR">     0</i>
   <i type="int" name="NBANDSGW">    -1</i>
   <i type="int" name="NBANDSO">    -1</i>
   <i type="int" name="NBANDSV">    -1</i>
   <i type="int" name="NELM">     1</i>
   <i type="int" name="NELMHF">     1</i>
   <i type="int" name="DIM">     3</i>
   <i type="int" name="ANTIRES">     0</i>
   <i name="OMEGAMAX">    -30.00000000</i>
   <i name="OMEGAMIN">    -30.00000000</i>
   <i name="OMEGATL">   -200.00000000</i>
   <i type="int" name="OMEGAGRID">     0</i>
   <i name="CSHIFT">     -0.10000000</i>
   <i type="logical" name="SELFENERGY"> F  </i>
   <i type="logical" name="LSPECTRAL"> F  </i>
   <i type="logical" name="LSPECTRALGW"> F  </i>
   <i type="logical" name="LSINGLES"> F  </i>
   <i type="logical" name="LFERMIGW"> F  </i>
   <i type="logical" name="ODDONLYGW"> F  </i>
   <i type="logical" name="EVENONLYGW"> F  </i>
   <i type="int" name="NKREDLFX">     1</i>
   <i type="int" name="NKREDLFY">     1</i>
   <i type="int" name="NKREDLFZ">     1</i>
   <i type="int" name="MAXMEM">  1800</i>
   <i type="int" name="TELESCOPE">     0</i>
   <i type="int" name="TAUPAR">     1</i>
   <i type="int" name="OMEGAPAR">    -1</i>
   <i name="LAMBDA">      1.00000000</i>
  </separator>
  <separator name="External order field" >
   <i name="OFIELD_KAPPA">      0.00000000</i>
   <v name="OFIELD_K">      0.00000000      0.00000000      0.00000000</v>
   <i name="OFIELD_Q6_NEAR">      0.00000000</i>
   <i name="OFIELD_Q6_FAR">      0.00000000</i>
   <i name="OFIELD_A">      0.00000000</i>
  </separator>
 </parameters>
 <atominfo>
  <atoms>       2 </atoms>
  <types>       1 </types>
  <array name="atoms" >
   <dimension dim="1">ion</dimension>
   <field type="string">element</field>
   <field type="int">atomtype</field>
   <set>
    <rc><c> S</c><c>   1</c></rc>
    <rc><c> S</c><c>   1</c></rc>
   </set>
  </array>
  <array name="atomtypes" >
   <dimension dim="1">type</dimension>
   <field type="int">atomspertype</field>
   <field type="string">element</field>
   <field>mass</field>
   <field>valence</field>
   <field type="string">pseudopotential</field>
   <set>
    <rc><c>   2</c><c> S</c><c>     28.08500000</c><c>      4.00000000</c><c>  PAW_PBE Si 05Jan2001                  </c></rc>
   </set>
  </array>
 </atominfo>
 <structure name="initialpos" >
  <crystal>
   <varray name="basis" >
    <v>       2.40000000       0.00000000       0.00000000 </v>
    <v>      -1.20000000       2.07846097       0.00000000 </v>
    <v>       0.00000000       0.00000000       3.91917600 </v>
   </varray>
   <i name="volume">     19.55005043 </i>
   <varray name="rec_basis" >
    <v>       0.41666667       0.24056261       0.00000000 </v>
    <v>       0.00000000       0.48112522       0.00000000 </v>
    <v>       0.00000000       0.00000000       0.25515568 </v>
   </varray>
  </crystal>
  <varray name="positions" >
   <v>       0.00000000       0.00000000       0.00000000 </v>
   <v>       0.33333333       0.66666667       0.50000000 </v>
  </varray>
 </structure>
 <calculation>
  <scstep>
   <time name="dav">    1.31    0.82</time>
   <time name="total">    1.35    0.84</time>
   <energy>
    <i name="alphaZ">      6.88757933 </i>
    <i name="ewald">   -311.21403507 </i>
    <i name="hartreedc">     -0.34332876 </i>
    <i name="XCdc">    -15.31711000 </i>
    <i name="pawpsdc">    176.24759923 </i>
    <i name="pawaedc">   -141.06103558 </i>
    <i name="eentropy">     -0.00071317 </i>
    <i name="bandstr">     85.60951427 </i>
    <i name="atom">    206.13192747 </i>
    <i name="e_fr_energy">      6.94039772 </i>
    <i name="e_wo_entrp">      6.94111088 </i>
    <i name="e_0_energy">      6.94075430 </i>
   </energy>
  </scstep>
  <scstep>
   <time name="dav">    1.71    1.05</time>
   <time name="total">    1.71    1.06</time>
   <energy>
    <i name="e_fr_energy">     -8.15146809 </i>
    <i name="e_wo_entrp">     -8.14636515 </i>
    <i name="e_0_energy">     -8.14891662 </i>
   </energy>
  </scstep>
  <scstep>
   <time name="dav">    1.69    1.06</time>
   <time name="total">    1.69    1.06</time>
   <energy>
    <i name="e_fr_energy">     -8.31353747 </i>
    <i name="e_wo_entrp">     -8.30857824 </i>
    <i name="e_0_energy">     -8.31105785 </i>
   </energy>
  </scstep>
  <scstep>
   <time name="dav">    2.26    1.40</time>
   <time name="total">    2.27    1.40</time>
   <energy>
    <i name="e_fr_energy">     -8.31388492 </i>
    <i name="e_wo_entrp">     -8.30892394 </i>
    <i name="e_0_energy">     -8.31140443 </i>
   </energy>
  </scstep>
  <scstep>
   <time name="dav">    1.68    1.07</time>
   <time name="total">    1.71    1.09</time>
   <energy>
    <i name="e_fr_energy">     -8.31388497 </i>
    <i name="e_wo_entrp">     -8.30892399 </i>
    <i name="e_0_energy">     -8.31140448 </i>
   </energy>
  </scstep>
  <scstep>
   <time name="dav">    1.83    1.15</time>
   <time name="total">    1.93    1.22</time>
   <energy>
    <i name="e_fr_energy">     -8.25751944 </i>
    <i name="e_wo_entrp">     -8.25245414 </i>
    <i name="e_0_energy">     -8.25498679 </i>
   </energy>
  </scstep>
  <scstep>
   <time name="dav">    1.35    0.85</time>
   <time name="total">    1.41    0.89</time>
   <energy>
    <i name="e_fr_energy">     -8.22333142 </i>
    <i name="e_wo_entrp">     -8.21813631 </i>
    <i name="e_0_energy">     -8.22073386 </i>
   </energy>
  </scstep>
  <scstep>
   <time name="dav">    2.31    1.50</time>
   <time name="total">    2.39    1.55</time>
   <energy>
    <i name="e_fr_energy">     -8.22300698 </i>
    <i name="e_wo_entrp">     -8.21780211 </i>
    <i name="e_0_energy">     -8.22040454 </i>
   </energy>
  </scstep>
  <scstep>
   <time name="dav">    1.10    0.71</time>
   <time name="total">    1.15    0.74</time>
   <energy>
    <i name="alphaZ">      6.88757933 </i>
    <i name="ewald">   -311.21403507 </i>
    <i name="hartreedc">     -0.57646474 </i>
    <i name="XCdc">    -14.93054632 </i>
    <i name="pawpsdc">   1645.94127811 </i>
    <i name="pawaedc">  -1611.03089781 </i>
    <i name="eentropy">     -0.00520710 </i>
    <i name="bandstr">     70.57336419 </i>
    <i name="atom">    206.13192747 </i>
    <i name="e_fr_energy">     -8.22300194 </i>
    <i name="e_wo_entrp">     -8.21779484 </i>
    <i name="e_0_energy">     -8.22039839 </i>
   </energy>
  </scstep>
  <structure>
   <crystal>
    <varray name="basis" >
     <v>       2.40000000       0.00000000       0.00000000 </v>
     <v>      -1.20000000       2.07846097       0.00000000 </v>
     <v>       0.00000000       0.00000000       3.91917600 </v>
    </varray>
    <i name="volume">     19.55005043 </i>
    <varray name="rec_basis" >
     <v>       0.41666667       0.24056261       0.00000000 </v>
     <v>       0.00000000       0.48112522       0.00000000 </v>
     <v>       0.00000000       0.00000000       0.25515568 </v>
    </varray>
   </crystal>
   <varray name="positions" >
    <v>       0.00000000       0.00000000       0.00000000 </v>
    <v>       0.33333333       0.66666667       0.50000000 </v>
   </varray>
  </structure>
  <varray name="forces" >
   <v>       0.00000000      -0.00000000       0.00000000 </v>
   <v>      -0.00000000       0.00000000       0.00000000 </v>
  </varray>
  <varray name="stress" >
   <v>     825.65324769      -0.00000000      -0.00000000 </v>
   <v>      -0.00000000     825.65324769       0.00000000 </v>
   <v>      -0.00000000       0.00000000     800.84738288 </v>
  </varray>
  <energy>
   <i name="e_fr_energy">     -8.22300194 </i>
   <i name="e_wo_entrp">     -8.22039839 </i>
   <i name="e_0_energy">     -0.00520710 </i>
  </energy>
  <time name="totalsc">   16.22   10.29</time>
 </calculation>
 <calculation>
  <scstep>
   <time name="dav">    2.35    1.50</time>
   <time name="total">    2.43    1.55</time>
   <energy>
    <i name="alphaZ">      6.88757933 </i>
    <i name="ewald">   -311.21068454 </i>
    <i name="hartreedc">     -0.57657015 </i>
    <i name="XCdc">    -14.93068964 </i>
    <i name="pawpsdc">   1646.79723290 </i>
    <i name="pawaedc">  -1611.88645232 </i>
    <i name="eentropy">     -0.00477256 </i>
    <i name="bandstr">     70.56819231 </i>
    <i name="atom">    206.13192747 </i>
    <i name="e_fr_energy">     -8.22423721 </i>
    <i name="e_wo_entrp">     -8.21946464 </i>
    <i name="e_0_energy">     -8.22185093 </i>
   </energy>
  </scstep>
  <scstep>
   <time name="dav">    1.35    0.84</time>
   <time name="total">    1.42    0.88</time>
   <energy>
    <i name="e_fr_energy">     -8.22397055 </i>
    <i name="e_wo_entrp">     -8.21920272 </i>
    <i name="e_0_energy">     -8.22158664 </i>
   </energy>
  </scstep>
  <scstep>
   <time name="dav">    2.10    1.30</time>
   <time name="total">    2.18    1.35</time>
   <energy>
    <i name="e_fr_energy">     -8.22385320 </i>
    <i name="e_wo_entrp">     -8.21909243 </i>
    <i name="e_0_energy">     -8.22147282 </i>
   </energy>
  </scstep>
  <scstep>
   <time name="dav">    0.93    0.58</time>
   <time name="total">    0.98    0.61</time>
   <energy>
    <i name="alphaZ">      6.88757933 </i>
    <i name="ewald">   -311.21068454 </i>
    <i name="hartreedc">     -0.57692345 </i>
    <i name="XCdc">    -14.93095532 </i>
    <i name="pawpsdc">   1645.45266678 </i>
    <i name="pawaedc">  -1610.54148665 </i>
    <i name="eentropy">     -0.00476089 </i>
    <i name="bandstr">     70.56878333 </i>
    <i name="atom">    206.13192747 </i>
    <i name="e_fr_energy">     -8.22385394 </i>
    <i name="e_wo_entrp">     -8.21909305 </i>
    <i name="e_0_energy">     -8.22147350 </i>
   </energy>
  </scstep>
  <structure>
   <crystal>
    <varray name="basis" >
     <v>       2.40585521      -0.00000000      -0.00000000 </v>
     <v>      -1.20292761       2.08353173       0.00000000 </v>
     <v>      -0.00000000       0.00000000       3.90012274 </v>
    </varray>
    <i name="volume">     19.55005043 </i>
    <varray name="rec_basis" >
     <v>       0.41565261       0.23997715       0.00000000 </v>
     <v>       0.00000000       0.47995429       0.00000000 </v>
     <v>       0.00000000       0.00000000       0.25640219 </v>
    </varray>
   </crystal>
   <varray name="positions" >
    <v>       0.00000000      -0.00000000       0.00000000 </v>
    <v>       0.33333333       0.66666667       0.50000000 </v>
   </varray>
  </structure>
  <varray name="forces" >
   <v>       0.00000000       0.00000000       0.00000000 </v>
   <v>      -0.00000000       0.00000000       0.00000000 </v>
  </varray>
  <varray name="stress" >
   <v>     815.67148138       0.00000000       0.00000000 </v>
   <v>       0.00000000     815.67148138       0.00000000 </v>
   <v>      -0.00000000       0.00000000     820.98554611 </v>
  </varray>
  <energy>
   <i name="e_fr_energy">     -8.22385394 </i>
   <i name="e_wo_entrp">     -8.22147350 </i>
   <i name="e_0_energy">     -0.00476089 </i>
  </energy>
  <time name="totalsc">    7.51    4.72</time>
 </calculation>
 <calculation>
  <scstep>
   <time name="dav">    2.20    1.38</time>
   <time name="total">    2.25    1.42</time>
   <energy>
    <i name="alphaZ">      6.88757933 </i>
    <i name="ewald">   -311.21120861 </i>
    <i name="hartreedc">     -0.57679805 </i>
    <i name="XCdc">    -14.93097515 </i>
    <i name="pawpsdc">   1645.28189965 </i>
    <i name="pawaedc">  -1610.37074276 </i>
    <i name="eentropy">     -0.00474221 </i>
    <i name="bandstr">     70.56918613 </i>
    <i name="atom">    206.13192747 </i>
    <i name="e_fr_energy">     -8.22387421 </i>
    <i name="e_wo_entrp">     -8.21913200 </i>
    <i name="e_0_energy">     -8.22150310 </i>
   </energy>
  </scstep>
  <scstep>
   <time name="dav">    1.01    0.64</time>
   <time name="total">    1.06    0.67</time>
   <energy>
    <i name="alphaZ">      6.88757933 </i>
    <i name="ewald">   -311.21120861 </i>
    <i name="hartreedc">     -0.57670236 </i>
    <i name="XCdc">    -14.93097723 </i>
    <i name="pawpsdc">   1645.28949909 </i>
    <i name="pawaedc">  -1610.37837269 </i>
    <i name="eentropy">     -0.00474298 </i>
    <i name="bandstr">     70.56912646 </i>
    <i name="atom">    206.13192747 </i>
    <i name="e_fr_energy">     -8.22387152 </i>
    <i name="e_wo_entrp">     -8.21912854 </i>
    <i name="e_0_energy">     -8.22150003 </i>
   </energy>
  </scstep>
  <structure>
   <crystal>
    <varray name="basis" >
     <v>       2.40528876      -0.00000000      -0.00000000 </v>
     <v>      -1.20264438       2.08304117       0.00000000 </v>
     <v>      -0.00000000       0.00000000       3.90195993 </v>
    </varray>
    <i name="volume">     19.55005043 </i>
    <varray name="rec_basis" >
     <v>       0.41575050       0.24003366       0.00000000 </v>
     <v>       0.00000000       0.48006732       0.00000000 </v>
     <v>       0.00000000       0.00000000       0.25628146 </v>
    </varray>
   </crystal>
   <varray name="positions" >
    <v>       0.00000000      -0.00000000      -0.00000000 </v>
    <v>       0.33333333       0.66666667       0.50000000 </v>
   </varray>
  </structure>
  <varray name="forces" >
   <v>       0.00000000      -0.00000000       0.00000000 </v>
   <v>      -0.00000000       0.00000000       0.00000000 </v>
  </varray>
  <varray name="stress" >
   <v>     817.05019145       0.00000000       0.00000000 </v>
   <v>      -0.00000000     817.05019145       0.00000000 </v>
   <v>      -0.00000000       0.00000000     818.25604170 </v>
  </varray>
  <energy>
   <i name="e_fr_energy">     -8.22387152 </i>
   <i name="e_wo_entrp">     -8.22150003 </i>
   <i name="e_0_energy">     -0.00474298 </i>
  </energy>
  <time name="totalsc">    3.70    2.37</time>
  <eigenvalues>
   <array>
    <dimension dim="1">band</dimension>
    <dimension dim="2">kpoint</dimension>
    <dimension dim="3">spin</dimension>
    <field>eigene</field>
    <field>occ</field>
    <set>
     <set comment="spin 1">
      <set comment="kpoint 1">
       <r>   -1.6113    1.0000 </r>
       <r>    6.0577    1.0000 </r>
       <r>    9.1733    1.0000 </r>
       <r>   21.8648    0.0000 </r>
       <r>   22.1585    0.0000 </r>
       <r>   28.4318    0.0000 </r>
       <r>   28.5746    0.0000 </r>
       <r>   28.7117    0.0000 </r>
      </set>
      <set comment="kpoint 2">
       <r>    0.6798    1.0000 </r>
       <r>    8.1977    1.0000 </r>
       <r>   11.1185    1.0000 </r>
       <r>   14.3536    1.0000 </r>
       <r>   18.9830    0.0000 </r>
       <r>   21.4122    0.0000 </r>
       <r>   24.0073    0.0000 </r>
       <r>   26.5203    0.0000 </r>
      </set>
      <set comment="kpoint 3">
       <r>    4.7090    1.0000 </r>
       <r>    7.2979    1.0000 </r>
       <r>   12.1901    1.0000 </r>
       <r>   14.5045    1.0000 </r>
       <r>   15.3832    1.0000 </r>
       <r>   17.2167    0.0000 </r>
       <r>   19.3981    0.0000 </r>
       <r>   25.1989    0.0000 </r>
      </set>
      <set comment="kpoint 4">
       <r>    2.4867    1.0000 </r>
       <r>    9.5108    1.0000 </r>
       <r>   10.7363    1.0000 </r>
       <r>   13.3484    1.0000 </r>
       <r>   17.3485    0.0000 </r>
       <r>   18.7598    0.0000 </r>
       <r>   21.2267    0.0000 </r>
       <r>   25.6313    0.0000 </r>
      </set>
      <set comment="kpoint 5">
       <r>   -0.6906    1.0000 </r>
       <r>    6.9238    1.0000 </r>
       <r>   10.0041    1.0000 </r>
       <r>   17.9576    0.0000 </r>
       <r>   20.3669    0.0000 </r>
       <r>   24.8984    0.0000 </r>
       <r>   26.7395    0.0000 </r>
       <r>   28.0085    0.0000 </r>
      </set>
      <set comment="kpoint 6">
       <r>   -2.0738    1.0000 </r>
       <r>    5.6216    1.0000 </r>
       <r>    8.7477    1.0000 </r>
       <r>   23.9757    0.0000 </r>
       <r>   25.5573    0.0000 </r>
       <r>   27.2110    0.0000 </r>
       <r>   29.5103    0.0000 </r>
       <r>   30.0814    0.0000 </r>
      </set>
      <set comment="kpoint 7">
       <r>    3.8269    1.0000 </r>
       <r>   10.5323    1.0000 </r>
       <r>   11.7080    1.0000 </r>
       <r>   12.1337    1.0000 </r>
       <r>   14.9462    1.0000 </r>
       <r>   18.8498    0.0000 </r>
       <r>   19.7522    0.0000 </r>
       <r>   22.4566    0.0000 </r>
      </set>
      <set comment="kpoint 8">
       <r>    6.0263    1.0000 </r>
       <r>    8.5839    1.0000 </r>
       <r>   11.0371    1.0000 </r>
       <r>   13.6526    1.0000 </r>
       <r>   15.6787    1.0000 </r>
       <r>   17.0294    0.0000 </r>
       <r>   19.0825    0.0000 </r>
       <r>   20.2109    0.0000 </r>
      </set>
      <set comment="kpoint 9">
       <r>    2.0374    1.0000 </r>
       <r>    9.4122    1.0000 </r>
       <r>   11.8247    1.0000 </r>
       <r>   13.4358    1.0000 </r>
       <r>   15.5997    1.0000 </r>
       <r>   20.0986    0.0000 </r>
       <r>   22.2620    0.0000 </r>
       <r>   23.8296    0.0000 </r>
      </set>
      <set comment="kpoint 10">
       <r>   -0.2323    1.0000 </r>
       <r>    7.3521    1.0000 </r>
       <r>   10.3967    1.0000 </r>
       <r>   15.9333    0.9999 </r>
       <r>   22.4327    0.0000 </r>
       <r>   22.4919    0.0000 </r>
       <r>   24.3013    0.0000 </r>
       <r>   26.7296    0.0000 </r>
      </set>
      <set comment="kpoint 11">
       <r>    6.4179    1.0000 </r>
       <r>    6.4929    1.0000 </r>
       <r>   13.1781    1.0000 </r>
       <r>   14.0617    1.0000 </r>
       <r>   14.4474    1.0000 </r>
       <r>   16.8524    0.0000 </r>
       <r>   18.5725    0.0000 </r>
       <r>   22.1103    0.0000 </r>
      </set>
      <set comment="kpoint 12">
       <r>    3.3806    1.0000 </r>
       <r>    8.4920    1.0000 </r>
       <r>   11.0161    1.0000 </r>
       <r>   14.0232    1.0000 </r>
       <r>   16.1718    0.6623 </r>
       <r>   18.8833    0.0000 </r>
       <r>   20.9669    0.0000 </r>
       <r>   24.0099    0.0000 </r>
      </set>
      <set comment="kpoint 13">
       <r>   -1.0854    1.0000 </r>
       <r>    3.5634    1.0000 </r>
       <r>   12.5584    1.0000 </r>
       <r>   22.1800    0.0000 </r>
       <r>   22.5686    0.0000 </r>
       <r>   25.1574    0.0000 </r>
       <r>   26.7820    0.0000 </r>
       <r>   26.8359    0.0000 </r>
      </set>
      <set comment="kpoint 14">
       <r>    1.1975    1.0000 </r>
       <r>    5.7632    1.0000 </r>
       <r>   13.7873    1.0000 </r>
       <r>   15.3949    1.0000 </r>
       <r>   18.4463    0.0000 </r>
       <r>   20.2472    0.0000 </r>
       <r>   23.8424    0.0000 </r>
       <r>   26.6782    0.0000 </r>
      </set>
      <set comment="kpoint 15">
       <r>    5.2041    1.0000 </r>
       <r>    7.6810    1.0000 </r>
       <r>    9.9872    1.0000 </r>
       <r>   12.3888    1.0000 </r>
       <r>   17.6330    0.0000 </r>
       <r>   19.2798    0.0000 </r>
       <r>   21.3670    0.0000 </r>
       <r>   23.2156    0.0000 </r>
      </set>
      <set comment="kpoint 16">
       <r>    2.9969    1.0000 </r>
       <r>    7.4432    1.0000 </r>
       <r>   11.0514    1.0000 </r>
       <r>   15.1632    1.0000 </r>
       <r>   16.5030    0.0000 </r>
       <r>   19.2597    0.0000 </r>
       <r>   22.8580    0.0000 </r>
       <r>   24.5217    0.0000 </r>
      </set>
      <set comment="kpoint 17">
       <r>   -0.1680    1.0000 </r>
       <r>    4.4500    1.0000 </r>
       <r>   13.3254    1.0000 </r>
       <r>   18.4168    0.0000 </r>
       <r>   20.6766    0.0000 </r>
       <r>   22.7875    0.0000 </r>
       <r>   24.9686    0.0000 </r>
       <r>   26.4605    0.0000 </r>
      </set>
      <set comment="kpoint 18">
       <r>   -1.5463    1.0000 </r>
       <r>    3.1175    1.0000 </r>
       <r>   12.1541    1.0000 </r>
       <r>   24.0031    0.0000 </r>
       <r>   25.1377    0.0000 </r>
       <r>   25.9801    0.0000 </r>
       <r>   27.5634    0.0000 </r>
       <r>   29.5225    0.0000 </r>
      </set>
      <set comment="kpoint 19">
       <r>    4.3306    1.0000 </r>
       <r>    8.6644    1.0000 </r>
       <r>   12.1612    1.0000 </r>
       <r>   12.4063    1.0000 </r>
       <r>   16.1799    0.6199 </r>
       <r>   16.8997    0.0000 </r>
       <r>   19.1238    0.0000 </r>
       <r>   25.7507    0.0000 </r>
      </set>
      <set comment="kpoint 20">
       <r>    6.5115    1.0000 </r>
       <r>    8.9396    1.0000 </r>
       <r>   10.8212    1.0000 </r>
       <r>   12.1413    1.0000 </r>
       <r>   13.9956    1.0000 </r>
       <r>   16.2795    0.1348 </r>
       <r>   20.6704    0.0000 </r>
       <r>   23.0074    0.0000 </r>
      </set>
      <set comment="kpoint 21">
       <r>    2.5497    1.0000 </r>
       <r>    7.0490    1.0000 </r>
       <r>   13.0309    1.0000 </r>
       <r>   15.1501    1.0000 </r>
       <r>   16.2559    0.2209 </r>
       <r>   18.3980    0.0000 </r>
       <r>   20.4977    0.0000 </r>
       <r>   26.4315    0.0000 </r>
      </set>
      <set comment="kpoint 22">
       <r>    0.2886    1.0000 </r>
       <r>    4.8901    1.0000 </r>
       <r>   13.6238    1.0000 </r>
       <r>   16.4926    0.0000 </r>
       <r>   20.4022    0.0000 </r>
       <r>   22.9279    0.0000 </r>
       <r>   24.6071    0.0000 </r>
       <r>   26.8786    0.0000 </r>
      </set>
      <set comment="kpoint 23">
       <r>    6.8888    1.0000 </r>
       <r>    6.9602    1.0000 </r>
       <r>   11.3729    1.0000 </r>
       <r>   11.6605    1.0000 </r>
       <r>   15.0172    1.0000 </r>
       <r>   18.6967    0.0000 </r>
       <r>   21.1448    0.0000 </r>
       <r>   21.3597    0.0000 </r>
      </set>
      <set comment="kpoint 24">
       <r>    3.8859    1.0000 </r>
       <r>    8.0499    1.0000 </r>
       <r>    9.6246    1.0000 </r>
       <r>   13.6370    1.0000 </r>
       <r>   17.3827    0.0000 </r>
       <r>   21.4026    0.0000 </r>
       <r>   21.6388    0.0000 </r>
       <r>   24.6941    0.0000 </r>
      </set>
      <set comment="kpoint 25">
       <r>   -0.0393    1.0000 </r>
       <r>    1.5161    1.0000 </r>
       <r>   16.3664    0.0098 </r>
       <r>   20.4231    0.0000 </r>
       <r>   23.2647    0.0000 </r>
       <r>   23.3153    0.0000 </r>
       <r>   25.2467    0.0000 </r>
       <r>   25.2862    0.0000 </r>
      </set>
      <set comment="kpoint 26">
       <r>    2.2268    1.0000 </r>
       <r>    3.7557    1.0000 </r>
       <r>   15.2688    1.0000 </r>
       <r>   16.6498    0.0000 </r>
       <r>   18.5543    0.0000 </r>
       <r>   20.6614    0.0000 </r>
       <r>   22.1693    0.0000 </r>
       <r>   23.6754    0.0000 </r>
      </set>
      <set comment="kpoint 27">
       <r>    6.1719    1.0000 </r>
       <r>    7.4577    1.0000 </r>
       <r>    9.2484    1.0000 </r>
       <r>   10.5108    1.0000 </r>
       <r>   19.1080    0.0000 </r>
       <r>   20.3977    0.0000 </r>
       <r>   22.9923    0.0000 </r>
       <r>   24.9545    0.0000 </r>
      </set>
      <set comment="kpoint 28">
       <r>    4.0097    1.0000 </r>
       <r>    5.5075    1.0000 </r>
       <r>   12.0039    1.0000 </r>
       <r>   13.4279    1.0000 </r>
       <r>   19.1345    0.0000 </r>
       <r>   20.3758    0.0000 </r>
       <r>   21.9050    0.0000 </r>
       <r>   24.7526    0.0000 </r>
      </set>
      <set comment="kpoint 29">
       <r>    0.8716    1.0000 </r>
       <r>    2.4170    1.0000 </r>
       <r>   16.9538    0.0000 </r>
       <r>   19.2147    0.0000 </r>
       <r>   20.3779    0.0000 </r>
       <r>   21.0807    0.0000 </r>
       <r>   22.9910    0.0000 </r>
       <r>   23.8654    0.0000 </r>
      </set>
      <set comment="kpoint 30">
       <r>   -0.4970    1.0000 </r>
       <r>    1.0633    1.0000 </r>
       <r>   16.0009    0.9977 </r>
       <r>   20.1934    0.0000 </r>
       <r>   25.3814    0.0000 </r>
       <r>   26.5074    0.0000 </r>
       <r>   26.8205    0.0000 </r>
       <r>   28.0561    0.0000 </r>
      </set>
      <set comment="kpoint 31">
       <r>    5.3286    1.0000 </r>
       <r>    6.7969    1.0000 </r>
       <r>   12.9716    1.0000 </r>
       <r>   13.1435    1.0000 </r>
       <r>   14.9797    1.0000 </r>
       <r>   15.2011    1.0000 </r>
       <r>   22.2611    0.0000 </r>
       <r>   26.1192    0.0000 </r>
      </set>
      <set comment="kpoint 32">
       <r>    7.4538    1.0000 </r>
       <r>    8.6822    1.0000 </r>
       <r>   10.4672    1.0000 </r>
       <r>   11.5269    1.0000 </r>
       <r>   13.3845    1.0000 </r>
       <r>   14.5570    1.0000 </r>
       <r>   24.2007    0.0000 </r>
       <r>   26.4266    0.0000 </r>
      </set>
      <set comment="kpoint 33">
       <r>    3.5676    1.0000 </r>
       <r>    5.0767    1.0000 </r>
       <r>   14.0425    1.0000 </r>
       <r>   15.2852    1.0000 </r>
       <r>   16.8150    0.0000 </r>
       <r>   18.0521    0.0000 </r>
       <r>   20.9754    0.0000 </r>
       <r>   24.6377    0.0000 </r>
      </set>
      <set comment="kpoint 34">
       <r>    1.3249    1.0000 </r>
       <r>    2.8650    1.0000 </r>
       <r>   16.5668    0.0000 </r>
       <r>   17.8017    0.0000 </r>
       <r>   18.9468    0.0000 </r>
       <r>   21.9246    0.0000 </r>
       <r>   23.8019    0.0000 </r>
       <r>   25.1176    0.0000 </r>
      </set>
      <set comment="kpoint 35">
       <r>    7.7248    1.0000 </r>
       <r>    7.7825    1.0000 </r>
       <r>    9.7358    1.0000 </r>
       <r>    9.8403    1.0000 </r>
       <r>   15.9850    0.9989 </r>
       <r>   17.3607    0.0000 </r>
       <r>   24.5365    0.0000 </r>
       <r>   24.5402    0.0000 </r>
      </set>
      <set comment="kpoint 36">
       <r>    4.8860    1.0000 </r>
       <r>    6.3477    1.0000 </r>
       <r>   10.3451    1.0000 </r>
       <r>   11.7636    1.0000 </r>
       <r>   20.7926    0.0000 </r>
       <r>   22.2761    0.0000 </r>
       <r>   23.2403    0.0000 </r>
       <r>   23.5913    0.0000 </r>
      </set>
     </set>
    </set>
   </array>
  </eigenvalues>
  <separator name="orbital magnetization" >
   <v name="MAGDIPOLOUT">      0.00000000      0.00000000      0.00000000</v>
  </separator>
  <dos>
   <i name="efermi">     16.20145317 </i>
   <total>
    <array>
     <dimension dim="1">gridpoints</dimension>
     <dimension dim="2">spin</dimension>
     <field>energy</field>
     <field>total</field>
     <field>integrated</field>
     <set>
      <set comment="spin 1">
       <r>    -3.6815     0.0000     0.0000 </r>
       <r>    -3.5636     0.0000     0.0000 </r>
       <r>    -3.4457     0.0000     0.0000 </r>
       <r>    -3.3278     0.0000     0.0000 </r>
       <r>    -3.2099     0.0000     0.0000 </r>
       <r>    -3.0920     0.0000     0.0000 </r>
       <r>    -2.9741     0.0000     0.0000 </r>
       <r>    -2.8562     0.0000     0.0000 </r>
       <r>    -2.7383     0.0000     0.0000 </r>
       <r>    -2.6204     0.0000     0.0000 </r>
       <r>    -2.5025     0.0000     0.0000 </r>
       <r>    -2.3846     0.0000     0.0000 </r>
       <r>    -2.2667     0.0010     0.0001 </r>
       <r>    -2.1488     0.0443     0.0053 </r>
       <r>    -2.0309     0.1833     0.0270 </r>
       <r>    -1.9130     0.0819     0.0366 </r>
       <r>    -1.7951     0.0051     0.0372 </r>
       <r>    -1.6772     0.0637     0.0447 </r>
       <r>    -1.5593     0.3105     0.0813 </r>
       <r>    -1.4414     0.2283     0.1083 </r>
       <r>    -1.3235     0.0240     0.1111 </r>
       <r>    -1.2056     0.0142     0.1128 </r>
       <r>    -1.0877     0.1391     0.1292 </r>
       <r>    -0.9698     0.1451     0.1463 </r>
       <r>    -0.8519     0.0229     0.1490 </r>
       <r>    -0.7340     0.1626     0.1681 </r>
       <r>    -0.6161     0.3815     0.2131 </r>
       <r>    -0.4982     0.2303     0.2403 </r>
       <r>    -0.3803     0.1522     0.2582 </r>
       <r>    -0.2624     0.1716     0.2784 </r>
       <r>    -0.1445     0.5353     0.3416 </r>
       <r>    -0.0266     0.4092     0.3898 </r>
       <r>     0.0913     0.1400     0.4063 </r>
       <r>     0.2092     0.0504     0.4122 </r>
       <r>     0.3272     0.1811     0.4336 </r>
       <r>     0.4451     0.0881     0.4440 </r>
       <r>     0.5630     0.0348     0.4481 </r>
       <r>     0.6809     0.2890     0.4822 </r>
       <r>     0.7988     0.3744     0.5263 </r>
       <r>     0.9167     0.4033     0.5739 </r>
       <r>     1.0346     0.2664     0.6053 </r>
       <r>     1.1525     0.3411     0.6455 </r>
       <r>     1.2704     0.4675     0.7006 </r>
       <r>     1.3883     0.2912     0.7349 </r>
       <r>     1.5062     0.1872     0.7570 </r>
       <r>     1.6241     0.1563     0.7754 </r>
       <r>     1.7420     0.0197     0.7778 </r>
       <r>     1.8599     0.0040     0.7782 </r>
       <r>     1.9778     0.1217     0.7926 </r>
       <r>     2.0957     0.3940     0.8390 </r>
       <r>     2.2136     0.3737     0.8831 </r>
       <r>     2.3315     0.4004     0.9303 </r>
       <r>     2.4494     0.6241     1.0039 </r>
       <r>     2.5673     0.8807     1.1077 </r>
       <r>     2.6852     0.3257     1.1461 </r>
       <r>     2.8031     0.0790     1.1554 </r>
       <r>     2.9210     0.2750     1.1878 </r>
       <r>     3.0389     0.4719     1.2435 </r>
       <r>     3.1568     0.3499     1.2847 </r>
       <r>     3.2747     0.1149     1.2983 </r>
       <r>     3.3926     0.1679     1.3181 </r>
       <r>     3.5105     0.3222     1.3561 </r>
       <r>     3.6284     0.5942     1.4261 </r>
       <r>     3.7463     0.4788     1.4826 </r>
       <r>     3.8642     0.6175     1.5554 </r>
       <r>     3.9821     0.5021     1.6146 </r>
       <r>     4.1000     0.3781     1.6592 </r>
       <r>     4.2179     0.0804     1.6686 </r>
       <r>     4.3358     0.1830     1.6902 </r>
       <r>     4.4537     0.4289     1.7408 </r>
       <r>     4.5716     0.3031     1.7765 </r>
       <r>     4.6895     0.2578     1.8069 </r>
       <r>     4.8074     0.4095     1.8552 </r>
       <r>     4.9253     0.4214     1.9049 </r>
       <r>     5.0432     0.3765     1.9493 </r>
       <r>     5.1611     0.5308     2.0119 </r>
       <r>     5.2790     0.5119     2.0722 </r>
       <r>     5.3969     0.3128     2.1091 </r>
       <r>     5.5148     0.3768     2.1535 </r>
       <r>     5.6327     0.4418     2.2056 </r>
       <r>     5.7507     0.4001     2.2528 </r>
       <r>     5.8686     0.3356     2.2923 </r>
       <r>     5.9865     0.2651     2.3236 </r>
       <r>     6.1044     0.6529     2.4006 </r>
       <r>     6.2223     0.5446     2.4648 </r>
       <r>     6.3402     0.3323     2.5040 </r>
       <r>     6.4581     0.5685     2.5710 </r>
       <r>     6.5760     0.6562     2.6484 </r>
       <r>     6.6939     0.1755     2.6691 </r>
       <r>     6.8118     0.2477     2.6983 </r>
       <r>     6.9297     0.7308     2.7844 </r>
       <r>     7.0476     0.8180     2.8809 </r>
       <r>     7.1655     0.3706     2.9246 </r>
       <r>     7.2834     0.3430     2.9650 </r>
       <r>     7.4013     0.9406     3.0759 </r>
       <r>     7.5192     1.2383     3.2219 </r>
       <r>     7.6371     0.5162     3.2828 </r>
       <r>     7.7550     0.6545     3.3599 </r>
       <r>     7.8729     0.3652     3.4030 </r>
       <r>     7.9908     0.1013     3.4149 </r>
       <r>     8.1087     0.2519     3.4446 </r>
       <r>     8.2266     0.4101     3.4930 </r>
       <r>     8.3445     0.2106     3.5178 </r>
       <r>     8.4624     0.1402     3.5344 </r>
       <r>     8.5803     0.5346     3.5974 </r>
       <r>     8.6982     0.9009     3.7036 </r>
       <r>     8.8161     0.5784     3.7718 </r>
       <r>     8.9340     0.3435     3.8123 </r>
       <r>     9.0519     0.3154     3.8495 </r>
       <r>     9.1698     0.2546     3.8795 </r>
       <r>     9.2877     0.5349     3.9426 </r>
       <r>     9.4056     0.4989     4.0014 </r>
       <r>     9.5235     0.6496     4.0780 </r>
       <r>     9.6414     0.4762     4.1341 </r>
       <r>     9.7593     0.3479     4.1752 </r>
       <r>     9.8772     0.3580     4.2174 </r>
       <r>     9.9951     0.6613     4.2953 </r>
       <r>    10.1130     0.5742     4.3630 </r>
       <r>    10.2309     0.0816     4.3727 </r>
       <r>    10.3488     0.2605     4.4034 </r>
       <r>    10.4667     0.8199     4.5000 </r>
       <r>    10.5846     0.9124     4.6076 </r>
       <r>    10.7025     0.4100     4.6559 </r>
       <r>    10.8204     0.6450     4.7320 </r>
       <r>    10.9383     0.4880     4.7895 </r>
       <r>    11.0562     0.9561     4.9023 </r>
       <r>    11.1742     0.9620     5.0157 </r>
       <r>    11.2921     0.2164     5.0412 </r>
       <r>    11.4100     0.2154     5.0666 </r>
       <r>    11.5279     0.3878     5.1123 </r>
       <r>    11.6458     0.4839     5.1694 </r>
       <r>    11.7637     0.6369     5.2445 </r>
       <r>    11.8816     0.6305     5.3188 </r>
       <r>    11.9995     0.4508     5.3719 </r>
       <r>    12.1174     0.9004     5.4781 </r>
       <r>    12.2353     1.2795     5.6290 </r>
       <r>    12.3532     0.5750     5.6967 </r>
       <r>    12.4711     0.5880     5.7661 </r>
       <r>    12.5890     0.3058     5.8021 </r>
       <r>    12.7069     0.1019     5.8142 </r>
       <r>    12.8248     0.0126     5.8156 </r>
       <r>    12.9427     0.1677     5.8354 </r>
       <r>    13.0606     0.5762     5.9034 </r>
       <r>    13.1785     0.5722     5.9708 </r>
       <r>    13.2964     0.6888     6.0520 </r>
       <r>    13.4143     1.5619     6.2362 </r>
       <r>    13.5322     1.1045     6.3664 </r>
       <r>    13.6501     0.7367     6.4533 </r>
       <r>    13.7680     0.7518     6.5419 </r>
       <r>    13.8859     0.4349     6.5932 </r>
       <r>    14.0038     0.7090     6.6768 </r>
       <r>    14.1217     0.9773     6.7920 </r>
       <r>    14.2396     0.2236     6.8184 </r>
       <r>    14.3575     0.3432     6.8588 </r>
       <r>    14.4754     0.7255     6.9444 </r>
       <r>    14.5933     0.8370     7.0431 </r>
       <r>    14.7112     0.2530     7.0729 </r>
       <r>    14.8291     0.0319     7.0766 </r>
       <r>    14.9470     0.2904     7.1109 </r>
       <r>    15.0649     0.6350     7.1858 </r>
       <r>    15.1828     1.0444     7.3089 </r>
       <r>    15.3007     1.3962     7.4735 </r>
       <r>    15.4186     1.1868     7.6134 </r>
       <r>    15.5365     0.5585     7.6793 </r>
       <r>    15.6544     0.6132     7.7516 </r>
       <r>    15.7723     0.4778     7.8079 </r>
       <r>    15.8902     0.1898     7.8303 </r>
       <r>    16.0081     0.5106     7.8905 </r>
       <r>    16.1260     0.4622     7.9450 </r>
       <r>    16.2439     0.8395     8.0439 </r>
       <r>    16.3618     0.9364     8.1543 </r>
       <r>    16.4798     0.6493     8.2309 </r>
       <r>    16.5977     0.8316     8.3289 </r>
       <r>    16.7156     0.6083     8.4007 </r>
       <r>    16.8335     0.6414     8.4763 </r>
       <r>    16.9514     0.9474     8.5880 </r>
       <r>    17.0693     0.7780     8.6797 </r>
       <r>    17.1872     0.4177     8.7290 </r>
       <r>    17.3051     0.6274     8.8029 </r>
       <r>    17.4230     0.8023     8.8975 </r>
       <r>    17.5409     0.2937     8.9322 </r>
       <r>    17.6588     0.3575     8.9743 </r>
       <r>    17.7767     0.3216     9.0122 </r>
       <r>    17.8946     0.3060     9.0483 </r>
       <r>    18.0125     0.5757     9.1162 </r>
       <r>    18.1304     0.4966     9.1747 </r>
       <r>    18.2483     0.1047     9.1871 </r>
       <r>    18.3662     0.4218     9.2368 </r>
       <r>    18.4841     1.2177     9.3804 </r>
       <r>    18.6020     0.9322     9.4903 </r>
       <r>    18.7199     0.6187     9.5632 </r>
       <r>    18.8378     0.7208     9.6482 </r>
       <r>    18.9557     0.8315     9.7462 </r>
       <r>    19.0736     1.2009     9.8878 </r>
       <r>    19.1915     1.6863    10.0866 </r>
       <r>    19.3094     1.4166    10.2537 </r>
       <r>    19.4273     0.7585    10.3431 </r>
       <r>    19.5452     0.2201    10.3690 </r>
       <r>    19.6631     0.0439    10.3742 </r>
       <r>    19.7810     0.1742    10.3947 </r>
       <r>    19.8989     0.1029    10.4069 </r>
       <r>    20.0168     0.0864    10.4171 </r>
       <r>    20.1347     0.5430    10.4811 </r>
       <r>    20.2526     1.1359    10.6150 </r>
       <r>    20.3705     1.7311    10.8191 </r>
       <r>    20.4884     1.8874    11.0416 </r>
       <r>    20.6063     0.8996    11.1477 </r>
       <r>    20.7242     1.2115    11.2905 </r>
       <r>    20.8421     0.6181    11.3634 </r>
       <r>    20.9600     0.4902    11.4212 </r>
       <r>    21.0779     0.8164    11.5175 </r>
       <r>    21.1958     0.7475    11.6056 </r>
       <r>    21.3137     0.7536    11.6944 </r>
       <r>    21.4316     1.1337    11.8281 </r>
       <r>    21.5495     0.5215    11.8896 </r>
       <r>    21.6674     0.2015    11.9134 </r>
       <r>    21.7853     0.1779    11.9343 </r>
       <r>    21.9033     0.5794    12.0026 </r>
       <r>    22.0212     0.5995    12.0733 </r>
       <r>    22.1391     0.6813    12.1536 </r>
       <r>    22.2570     1.3254    12.3099 </r>
       <r>    22.3749     0.8675    12.4122 </r>
       <r>    22.4928     0.6323    12.4867 </r>
       <r>    22.6107     0.4800    12.5433 </r>
       <r>    22.7286     0.2490    12.5727 </r>
       <r>    22.8465     0.7012    12.6554 </r>
       <r>    22.9644     1.1940    12.7961 </r>
       <r>    23.0823     1.2177    12.9397 </r>
       <r>    23.2002     0.6158    13.0123 </r>
       <r>    23.3181     0.8405    13.1114 </r>
       <r>    23.4360     0.2986    13.1466 </r>
       <r>    23.5539     0.1337    13.1624 </r>
       <r>    23.6718     0.4800    13.2190 </r>
       <r>    23.7897     0.8584    13.3202 </r>
       <r>    23.9076     1.4446    13.4905 </r>
       <r>    24.0255     1.2265    13.6351 </r>
       <r>    24.1434     0.6806    13.7154 </r>
       <r>    24.2613     0.4963    13.7739 </r>
       <r>    24.3792     0.3229    13.8119 </r>
       <r>    24.4971     0.4623    13.8664 </r>
       <r>    24.6150     1.1361    14.0004 </r>
       <r>    24.7329     1.0291    14.1217 </r>
       <r>    24.8508     0.7136    14.2059 </r>
       <r>    24.9687     1.0402    14.3285 </r>
       <r>    25.0866     0.8848    14.4328 </r>
       <r>    25.2045     1.0200    14.5531 </r>
       <r>    25.3224     0.8565    14.6540 </r>
       <r>    25.4403     0.3694    14.6976 </r>
       <r>    25.5582     0.3041    14.7334 </r>
       <r>    25.6761     0.5559    14.7990 </r>
       <r>    25.7940     0.3580    14.8412 </r>
       <r>    25.9119     0.1399    14.8577 </r>
       <r>    26.0298     0.2213    14.8838 </r>
       <r>    26.1477     0.2469    14.9129 </r>
       <r>    26.2656     0.1197    14.9270 </r>
       <r>    26.3835     0.4334    14.9781 </r>
       <r>    26.5014     1.4718    15.1516 </r>
       <r>    26.6193     1.0105    15.2708 </r>
       <r>    26.7372     1.0325    15.3925 </r>
       <r>    26.8551     1.1826    15.5319 </r>
       <r>    26.9730     0.4714    15.5875 </r>
       <r>    27.0909     0.0566    15.5942 </r>
       <r>    27.2088     0.1397    15.6107 </r>
       <r>    27.3268     0.1450    15.6278 </r>
       <r>    27.4447     0.0303    15.6313 </r>
       <r>    27.5626     0.1410    15.6480 </r>
       <r>    27.6805     0.1432    15.6649 </r>
       <r>    27.7984     0.0162    15.6668 </r>
       <r>    27.9163     0.0671    15.6747 </r>
       <r>    28.0342     0.4541    15.7282 </r>
       <r>    28.1521     0.3797    15.7730 </r>
       <r>    28.2700     0.0437    15.7781 </r>
       <r>    28.3879     0.0822    15.7878 </r>
       <r>    28.5058     0.2349    15.8155 </r>
       <r>    28.6237     0.2640    15.8466 </r>
       <r>    28.7416     0.2498    15.8761 </r>
       <r>    28.8595     0.1027    15.8882 </r>
       <r>    28.9774     0.0057    15.8889 </r>
       <r>    29.0953     0.0000    15.8889 </r>
       <r>    29.2132     0.0000    15.8889 </r>
       <r>    29.3311     0.0028    15.8892 </r>
       <r>    29.4490     0.1047    15.9016 </r>
       <r>    29.5669     0.3710    15.9453 </r>
       <r>    29.6848     0.1442    15.9623 </r>
       <r>    29.8027     0.0055    15.9630 </r>
       <r>    29.9206     0.0036    15.9634 </r>
       <r>    30.0385     0.0819    15.9730 </r>
       <r>    30.1564     0.1833    15.9947 </r>
       <r>    30.2743     0.0443    15.9999 </r>
       <r>    30.3922     0.0010    16.0000 </r>
       <r>    30.5101     0.0000    16.0000 </r>
       <r>    30.6280     0.0000    16.0000 </r>
       <r>    30.7459     0.0000    16.0000 </r>
       <r>    30.8638     0.0000    16.0000 </r>
       <r>    30.9817     0.0000    16.0000 </r>
       <r>    31.0996     0.0000    16.0000 </r>
       <r>    31.2175     0.0000    16.0000 </r>
       <r>    31.3354     0.0000    16.0000 </r>
       <r>    31.4533     0.0000    16.0000 </r>
       <r>    31.5712     0.0000    16.0000 </r>
       <r>    31.6891     0.0000    16.0000 </r>
      </set>
     </set>
    </array>
   </total>
  </dos>
 </calculation>
 <structure name="finalpos" >
  <crystal>
   <varray name="basis" >
    <v>       2.40528876      -0.00000000      -0.00000000 </v>
    <v>      -1.20264438       2.08304117       0.00000000 </v>
    <v>      -0.00000000       0.00000000       3.90195993 </v>
   </varray>
   <i name="volume">     19.55005043 </i>
   <varray name="rec_basis" >
    <v>       0.41575050       0.24003366       0.00000000 </v>
    <v>       0.00000000       0.48006732       0.00000000 </v>
    <v>       0.00000000       0.00000000       0.25628146 </v>
   </varray>
  </crystal>
  <varray name="positions" >
   <v>       0.00000000      -0.00000000      -0.00000000 </v>
   <v>       0.33333333       0.66666667       0.50000000 </v>
  </varray>
 </structure>
</modeling>
