Si beta-tin                             
           1
     2.400000    0.000000    0.000000
    -1.200000    2.078461    0.000000
     0.000000    0.000000    3.919176
    S
   2
Direct configuration=     1
   0.00000000  0.00000000  0.00000000
   0.33333333  0.66666667  0.50000000
Direct configuration=     2
   0.00000000 -0.00000000  0.00000000
   0.33333333  0.66666667  0.50000000
Direct configuration=     3
   0.00000000 -0.00000000 -0.00000000
   0.33333333  0.66666667  0.50000000
