Fe BCC                                  
   3.50000000000000     
    -0.500000    0.500000    0.500000
     0.500000   -0.500000    0.500000
     0.500000    0.500000   -0.500000
   Fe
     1
Direct
  0.000000  0.000000  0.000000
 
   40   40   40
  184.90      180.70      168.69      150.50      128.37      104.66      81.450      60.346      42.430      28.312    
  18.148      11.636      8.0316      6.2545      5.1581      4.3204      3.7273      3.3354      3.0952      2.9673    
  2.9274      2.9673      3.0952      3.3354      3.7273      4.3204      5.1581      6.2545      8.0316      11.636    
  18.148      28.312      42.430      60.346      81.450      104.66      128.37      150.50      168.69      180.70    
  180.70      179.31      169.95      153.90      133.22      110.24      87.120      65.603      46.926      31.838    
  20.638      13.173      8.8401      6.6564      5.4533      4.5405      3.8782      3.4306      3.1484      2.9885    
  2.9217      2.9348      3.0304      3.2271      3.5591      4.0729      4.8165      5.8136      7.2176      9.9923    
  15.278      23.945      36.450      52.795      72.531      94.749      118.04      140.51      159.90      173.91    
  168.69      169.95      163.50      150.25      131.95      110.74      88.780      67.858      49.313      34.008    
  22.361      14.351      9.5143      6.9926      5.6798      4.7165      4.0007      3.5064      3.1867      2.9969    
  2.9045      2.8919      2.9567      3.1113      3.3835      3.8146      4.4527      5.3343      6.4825      8.4758    
  12.437      19.332      29.768      43.913      61.493      81.787      103.61      125.30      144.79      159.90    
  150.50      153.90      150.25      140.07      124.73      106.11      86.218      66.809      49.260      34.501    
  23.038      14.958      9.9256      7.2137      5.8201      4.8336      4.0845      3.5565      3.2068      2.9913    
  2.8759      2.8398      2.8764      2.9925      3.2088      3.5597      4.0895      4.8414      5.8322      7.2329    
  9.9613      15.029      23.171      34.728      49.603      67.275      86.781      106.72      125.30      140.51    
  128.37      133.22      131.95      124.73      112.57      97.011      79.819      62.637      46.801      33.260    
  22.566      14.886      9.9889      7.2756      5.8645      4.8816      4.1215      3.5755      3.2059      2.9708    
  2.8361      2.7795      2.7914      2.8737      3.0406      3.3186      3.7457      4.3649      5.2082      6.2857    
  8.0445      11.449      17.321      26.157      38.049      52.676      69.300      86.781      103.61      118.04    
  104.66      110.24      110.74      106.11      97.011      84.637      70.465      55.949      42.323      30.499    
  21.040      14.152      9.6887      7.1605      5.8102      4.8560      4.1073      3.5602      3.1822      2.9350    
  2.7857      2.7123      2.7033      2.7572      2.8824      3.0979      3.4335      3.9278      4.6183      5.5230    
  6.7000      8.7942      12.653      18.892      27.785      39.216      52.676      67.275      81.787      94.749    
  81.450      87.120      88.780      86.218      79.819      70.465      59.328      47.633      36.463      26.647    
  18.718      12.895      9.0827      6.8854      5.6622      4.7586      4.0417      3.5101      3.1358      2.8844    
  2.7260      2.6398      2.6138      2.6444      2.7357      2.9001      3.1592      3.5440      4.0903      4.8283    
  5.7620      7.0325      9.3265      13.325      19.450      27.785      38.049      49.603      61.493      72.531    
  60.346      65.603      67.858      66.809      62.637      55.949      47.633      38.671      29.969      22.242    
  15.960      11.328      8.2820      6.4957      5.4335      4.5974      3.9294      3.4277      3.0681      2.8206    
  2.6587      2.5636      2.5244      2.5365      2.6011      2.7253      2.9235      3.2182      3.6393      4.2186    
  4.9777      5.9121      7.2203      9.5190      13.325      18.892      26.157      34.728      43.913      52.795    
  42.430      46.926      49.313      49.260      46.801      42.323      36.463      29.969      23.560      17.820    
  13.140      9.6907      7.4167      6.0474      5.1403      4.3846      3.7784      3.3181      2.9825      2.7459    
  2.5857      2.4860      2.4370      2.4346      2.4783      2.5718      2.7234      2.9479      3.2675      3.7094    
  4.3005      5.0551      5.9640      7.2203      9.3265      12.653      17.321      23.171      29.768      36.450    
  28.312      31.838      34.008      34.501      33.260      30.499      26.647      22.242      17.820      13.832    
  10.579      8.1868      6.5987      5.5838      4.8023      4.1356      3.5994      3.1882      2.8834      2.6634    
  2.5095      2.4087      2.3533      2.3398      2.3673      2.4373      2.5542      2.7263      2.9682      3.3002    
  3.7466      4.3287      5.0551      5.9121      7.0325      8.7942      11.449      15.029      19.332      23.945    
  18.148      20.638      22.361      23.038      22.566      21.040      18.718      15.960      13.140      10.579    
  8.4888      6.9475      5.8897      5.1157      4.4403      3.8667      3.4042      3.0458      2.7757      2.5761    
  2.4322      2.3336      2.2747      2.2531      2.2681      2.3202      2.4112      2.5451      2.7302      2.9797    
  3.3118      3.7466      4.3005      4.9777      5.7620      6.7000      8.0445      9.9613      12.437      15.278    
  11.636      13.173      14.351      14.958      14.886      14.152      12.895      11.328      9.6907      8.1868    
  6.9475      6.0044      5.2816      4.6432      4.0744      3.5933      3.2038      2.8985      2.6643      2.4872    
  2.3557      2.2621      2.2025      2.1755      2.1810      2.2194      2.2909      2.3971      2.5416      2.7319    
  2.9797      3.3002      3.7094      4.2186      4.8283      5.5230      6.2857      7.2329      8.4758      9.9923    
  8.0316      8.8401      9.5143      9.9256      9.9889      9.6887      9.0827      8.2820      7.4167      6.5987    
  5.8897      5.2816      4.7141      4.1875      3.7222      3.3287      3.0078      2.7528      2.5536      2.3994    
  2.2819      2.1955      2.1377      2.1079      2.1068      2.1346      2.1913      2.2770      2.3927      2.5416    
  2.7302      2.9682      3.2675      3.6393      4.0903      4.6183      5.2082      5.8322      6.4825      7.2176    
  6.2545      6.6564      6.9926      7.2137      7.2756      7.1605      6.8854      6.4957      6.0474      5.5838    
  5.1157      4.6432      4.1875      3.7679      3.3977      3.0830      2.8235      2.6139      2.4470      2.3151    
  2.2122      2.1346      2.0809      2.0512      2.0461      2.0664      2.1118      2.1822      2.2770      2.3971    
  2.5451      2.7263      2.9479      3.2182      3.5440      3.9278      4.3649      4.8414      5.3343      5.8136    
  5.1581      5.4533      5.6798      5.8201      5.8645      5.8102      5.6622      5.4335      5.1403      4.8023    
  4.4403      4.0744      3.7222      3.3977      3.1098      2.8626      2.6556      2.4855      2.3473      2.2361    
  2.1479      2.0805      2.0331      2.0059      1.9999      2.0155      2.0530      2.1118      2.1913      2.2909    
  2.4112      2.5542      2.7234      2.9235      3.1592      3.4335      3.7457      4.0895      4.4527      4.8165    
  4.3204      4.5405      4.7165      4.8336      4.8816      4.8560      4.7586      4.5974      4.3846      4.1356    
  3.8667      3.5933      3.3287      3.0830      2.8626      2.6705      2.5068      2.3697      2.2564      2.1641    
  2.0904      2.0341      1.9948      1.9727      1.9686      1.9828      2.0155      2.0664      2.1346      2.2194    
  2.3202      2.4373      2.5718      2.7253      2.9001      3.0979      3.3186      3.5597      3.8146      4.0729    
  3.7273      3.8782      4.0007      4.0845      4.1215      4.1073      4.0417      3.9294      3.7784      3.5994    
  3.4042      3.2038      3.0078      2.8235      2.6556      2.5068      2.3777      2.2677      2.1758      2.1005    
  2.0409      1.9964      1.9667      1.9521      1.9526      1.9686      1.9999      2.0461      2.1068      2.1810    
  2.2681      2.3673      2.4783      2.6011      2.7357      2.8824      3.0406      3.2088      3.3835      3.5591    
  3.3354      3.4306      3.5064      3.5565      3.5755      3.5602      3.5101      3.4277      3.3181      3.1882    
  3.0458      2.8985      2.7528      2.6139      2.4855      2.3697      2.2677      2.1799      2.1063      2.0466    
  2.0008      1.9685      1.9497      1.9443      1.9521      1.9727      2.0059      2.0512      2.1079      2.1755    
  2.2531      2.3398      2.4346      2.5365      2.6444      2.7572      2.8737      2.9925      3.1113      3.2271    
  3.0952      3.1484      3.1867      3.2068      3.2059      3.1822      3.1358      3.0681      2.9825      2.8834    
  2.7757      2.6643      2.5536      2.4470      2.3473      2.2564      2.1758      2.1063      2.0487      2.0035    
  1.9711      1.9514      1.9444      1.9497      1.9667      1.9948      2.0331      2.0809      2.1377      2.2025    
  2.2747      2.3533      2.4370      2.5244      2.6138      2.7033      2.7914      2.8764      2.9567      3.0304    
  2.9673      2.9885      2.9969      2.9913      2.9708      2.9350      2.8844      2.8206      2.7459      2.6634    
  2.5761      2.4872      2.3994      2.3151      2.2361      2.1641      2.1005      2.0466      2.0035      1.9721    
  1.9528      1.9460      1.9514      1.9685      1.9964      2.0341      2.0805      2.1346      2.1955      2.2621    
  2.3336      2.4087      2.4860      2.5636      2.6398      2.7123      2.7795      2.8398      2.8919      2.9348    
  2.9274      2.9217      2.9045      2.8759      2.8361      2.7857      2.7260      2.6587      2.5857      2.5095    
  2.4322      2.3557      2.2819      2.2122      2.1479      2.0904      2.0409      2.0008      1.9711      1.9528    
  1.9466      1.9528      1.9711      2.0008      2.0409      2.0904      2.1479      2.2122      2.2819      2.3557    
  2.4322      2.5095      2.5857      2.6587      2.7260      2.7857      2.8361      2.8759      2.9045      2.9217    
  2.9673      2.9348      2.8919      2.8398      2.7795      2.7123      2.6398      2.5636      2.4860      2.4087    
  2.3336      2.2621      2.1955      2.1346      2.0805      2.0341      1.9964      1.9685      1.9514      1.9460    
  1.9528      1.9721      2.0035      2.0466      2.1005      2.1641      2.2361      2.3151      2.3994      2.4872    
  2.5761      2.6634      2.7459      2.8206      2.8844      2.9350      2.9708      2.9913      2.9969      2.9885    
  3.0952      3.0304      2.9567      2.8764      2.7914      2.7033      2.6138      2.5244      2.4370      2.3533    
  2.2747      2.2025      2.1377      2.0809      2.0331      1.9948      1.9667      1.9497      1.9444      1.9514    
  1.9711      2.0035      2.0487      2.1063      2.1758      2.2564      2.3473      2.4470      2.5536      2.6643    
  2.7757      2.8834      2.9825      3.0681      3.1358      3.1822      3.2059      3.2068      3.1867      3.1484    
  3.3354      3.2271      3.1113      2.9925      2.8737      2.7572      2.6444      2.5365      2.4346      2.3398    
  2.2531      2.1755      2.1079      2.0512      2.0059      1.9727      1.9521      1.9443      1.9497      1.9685    
  2.0008      2.0466      2.1063      2.1799      2.2677      2.3697      2.4855      2.6139      2.7528      2.8985    
  3.0458      3.1882      3.3181      3.4277      3.5101      3.5602      3.5755      3.5565      3.5064      3.4306    
  3.7273      3.5591      3.3835      3.2088      3.0406      2.8824      2.7357      2.6011      2.4783      2.3673    
  2.2681      2.1810      2.1068      2.0461      1.9999      1.9686      1.9526      1.9521      1.9667      1.9964    
  2.0409      2.1005      2.1758      2.2677      2.3777      2.5068      2.6556      2.8235      3.0078      3.2038    
  3.4042      3.5994      3.7784      3.9294      4.0417      4.1073      4.1215      4.0845      4.0007      3.8782    
  4.3204      4.0729      3.8146      3.5597      3.3186      3.0979      2.9001      2.7253      2.5718      2.4373    
  2.3202      2.2194      2.1346      2.0664      2.0155      1.9828      1.9686      1.9727      1.9948      2.0341    
  2.0904      2.1641      2.2564      2.3697      2.5068      2.6705      2.8626      3.0830      3.3287      3.5933    
  3.8667      4.1356      4.3846      4.5974      4.7586      4.8560      4.8816      4.8336      4.7165      4.5405    
  5.1581      4.8165      4.4527      4.0895      3.7457      3.4335      3.1592      2.9235      2.7234      2.5542    
  2.4112      2.2909      2.1913      2.1118      2.0530      2.0155      1.9999      2.0059      2.0331      2.0805    
  2.1479      2.2361      2.3473      2.4855      2.6556      2.8626      3.1098      3.3977      3.7222      4.0744    
  4.4403      4.8023      5.1403      5.4335      5.6622      5.8102      5.8645      5.8201      5.6798      5.4533    
  6.2545      5.8136      5.3343      4.8414      4.3649      3.9278      3.5440      3.2182      2.9479      2.7263    
  2.5451      2.3971      2.2770      2.1822      2.1118      2.0664      2.0461      2.0512      2.0809      2.1346    
  2.2122      2.3151      2.4470      2.6139      2.8235      3.0830      3.3977      3.7679      4.1875      4.6432    
  5.1157      5.5838      6.0474      6.4957      6.8854      7.1605      7.2756      7.2137      6.9926      6.6564    
  8.0316      7.2176      6.4825      5.8322      5.2082      4.6183      4.0903      3.6393      3.2675      2.9682    
  2.7302      2.5416      2.3927      2.2770      2.1913      2.1346      2.1068      2.1079      2.1377      2.1955    
  2.2819      2.3994      2.5536      2.7528      3.0078      3.3287      3.7222      4.1875      4.7141      5.2816    
  5.8897      6.5987      7.4167      8.2820      9.0827      9.6887      9.9889      9.9256      9.5143      8.8401    
  11.636      9.9923      8.4758      7.2329      6.2857      5.5230      4.8283      4.2186      3.7094      3.3002    
  2.9797      2.7319      2.5416      2.3971      2.2909      2.2194      2.1810      2.1755      2.2025      2.2621    
  2.3557      2.4872      2.6643      2.8985      3.2038      3.5933      4.0744      4.6432      5.2816      6.0044    
  6.9475      8.1868      9.6907      11.328      12.895      14.152      14.886      14.958      14.351      13.173    
  18.148      15.278      12.437      9.9613      8.0445      6.7000      5.7620      4.9777      4.3005      3.7466    
  3.3118      2.9797      2.7302      2.5451      2.4112      2.3202      2.2681      2.2531      2.2747      2.3336    
  2.4322      2.5761      2.7757      3.0458      3.4042      3.8667      4.4403      5.1157      5.8897      6.9475    
  8.4888      10.579      13.140      15.960      18.718      21.040      22.566      23.038      22.361      20.638    
  28.312      23.945      19.332      15.029      11.449      8.7942      7.0325      5.9121      5.0551      4.3287    
  3.7466      3.3002      2.9682      2.7263      2.5542      2.4373      2.3673      2.3398      2.3533      2.4087    
  2.5095      2.6634      2.8834      3.1882      3.5994      4.1356      4.8023      5.5838      6.5987      8.1868    
  10.579      13.832      17.820      22.242      26.647      30.499      33.260      34.501      34.008      31.838    
  42.430      36.450      29.768      23.171      17.321      12.653      9.3265      7.2203      5.9640      5.0551    
  4.3005      3.7094      3.2675      2.9479      2.7234      2.5718      2.4783      2.4346      2.4370      2.4860    
  2.5857      2.7459      2.9825      3.3181      3.7784      4.3846      5.1403      6.0474      7.4167      9.6907    
  13.140      17.820      23.560      29.969      36.463      42.323      46.801      49.260      49.313      46.926    
  60.346      52.795      43.913      34.728      26.157      18.892      13.325      9.5190      7.2203      5.9121    
  4.9777      4.2186      3.6393      3.2182      2.9235      2.7253      2.6011      2.5365      2.5244      2.5636    
  2.6587      2.8206      3.0681      3.4277      3.9294      4.5974      5.4335      6.4957      8.2820      11.328    
  15.960      22.242      29.969      38.671      47.633      55.949      62.637      66.809      67.858      65.603    
  81.450      72.531      61.493      49.603      38.049      27.785      19.450      13.325      9.3265      7.0325    
  5.7620      4.8283      4.0903      3.5440      3.1592      2.9001      2.7357      2.6444      2.6138      2.6398    
  2.7260      2.8844      3.1358      3.5101      4.0417      4.7586      5.6622      6.8854      9.0827      12.895    
  18.718      26.647      36.463      47.633      59.328      70.465      79.819      86.218      88.780      87.120    
  104.66      94.749      81.787      67.275      52.676      39.216      27.785      18.892      12.653      8.7942    
  6.7000      5.5230      4.6183      3.9278      3.4335      3.0979      2.8824      2.7572      2.7033      2.7123    
  2.7857      2.9350      3.1822      3.5602      4.1073      4.8560      5.8102      7.1605      9.6887      14.152    
  21.040      30.499      42.323      55.949      70.465      84.637      97.011      106.11      110.74      110.24    
  128.37      118.04      103.61      86.781      69.300      52.676      38.049      26.157      17.321      11.449    
  8.0445      6.2857      5.2082      4.3649      3.7457      3.3186      3.0406      2.8737      2.7914      2.7795    
  2.8361      2.9708      3.2059      3.5755      4.1215      4.8816      5.8645      7.2756      9.9889      14.886    
  22.566      33.260      46.801      62.637      79.819      97.011      112.57      124.73      131.95      133.22    
  150.50      140.51      125.30      106.72      86.781      67.275      49.603      34.728      23.171      15.029    
  9.9613      7.2329      5.8322      4.8414      4.0895      3.5597      3.2088      2.9925      2.8764      2.8398    
  2.8759      2.9913      3.2068      3.5565      4.0845      4.8336      5.8201      7.2137      9.9256      14.958    
  23.038      34.501      49.260      66.809      86.218      106.11      124.73      140.07      150.25      153.90    
  168.69      159.90      144.79      125.30      103.61      81.787      61.493      43.913      29.768      19.332    
  12.437      8.4758      6.4825      5.3343      4.4527      3.8146      3.3835      3.1113      2.9567      2.8919    
  2.9045      2.9969      3.1867      3.5064      4.0007      4.7165      5.6798      6.9926      9.5143      14.351    
  22.361      34.008      49.313      67.858      88.780      110.74      131.95      150.25      163.50      169.95    
  180.70      173.91      159.90      140.51      118.04      94.749      72.531      52.795      36.450      23.945    
  15.278      9.9923      7.2176      5.8136      4.8165      4.0729      3.5591      3.2271      3.0304      2.9348    
  2.9217      2.9885      3.1484      3.4306      3.8782      4.5405      5.4533      6.6564      8.8401      13.173    
  20.638      31.838      46.926      65.603      87.120      110.24      133.22      153.90      169.95      179.31    
  180.70      179.31      169.95      153.90      133.22      110.24      87.120      65.603      46.926      31.838    
  20.638      13.173      8.8401      6.6564      5.4533      4.5405      3.8782      3.4306      3.1484      2.9885    
  2.9217      2.9348      3.0304      3.2271      3.5591      4.0729      4.8165      5.8136      7.2176      9.9923    
  15.278      23.945      36.450      52.795      72.531      94.749      118.04      140.51      159.90      173.91    
  179.31      180.70      173.91      159.90      140.51      118.04      94.749      72.531      52.795      36.450    
  23.945      15.278      9.9923      7.2176      5.8136      4.8165      4.0729      3.5591      3.2271      3.0304    
  2.9348      2.9217      2.9885      3.1484      3.4306      3.8782      4.5405      5.4533      6.6564      8.8401    
  13.173      20.638      31.838      46.926      65.603      87.120      110.24      133.22      153.90      169.95    
  169.95      173.91      169.95      158.62      141.46      120.59      98.219      76.337      56.465      39.642    
  26.445      17.008      11.019      7.7369      6.1046      5.0473      4.2397      3.6689      3.2915      3.0598    
  2.9362      2.8975      2.9362      3.0598      3.2915      3.6689      4.2397      5.0473      6.1046      7.7369    
  11.019      17.008      26.445      39.642      56.465      76.337      98.219      120.59      141.46      158.62    
  153.90      159.90      158.62      150.25      135.94      117.52      97.061      76.506      57.429      40.953    
  27.753      18.076      11.738      8.1318      6.3134      5.2148      4.3651      3.7515      3.3369      3.0746    
  2.9253      2.8628      2.8751      2.9648      3.1484      3.4569      3.9333      4.6236      5.5558      6.7945    
  9.0944      13.531      20.956      31.841      46.225      63.713      83.472      104.22      124.22      141.46    
  133.22      140.51      141.46      135.94      124.73      109.29      91.458      73.037      55.570      40.203    
  27.671      18.299      12.010      8.3238      6.4201      5.3052      4.4381      3.7995      3.3590      3.0728    
  2.9018      2.8180      2.8068      2.8661      3.0065      3.2516      3.6375      4.2081      5.0015      6.0258    
  7.5666      10.578      15.976      24.374      35.987      50.610      67.620      85.973      104.22      120.59    
  110.24      118.04      120.59      117.52      109.29      97.011      82.194      66.442      51.185      37.532    
  26.228      17.646      11.783      8.2687      6.4071      5.3112      4.4515      3.8073      3.3544      3.0530    
  2.8655      2.7642      2.7327      2.7659      2.8691      3.0590      3.3637      3.8213      4.4724      5.3424    
  6.4537      8.3459      11.926      17.912      26.684      38.233      52.147      67.620      83.472      98.219    
  87.120      94.749      98.219      97.061      91.458      82.194      70.465      57.615      44.905      33.354    
  23.672      16.239      11.101      7.9731      6.2725      5.2328      4.4034      3.7729      3.3218      3.0147    
  2.8170      2.7023      2.6543      2.6657      2.7382      2.8823      3.1183      3.4763      3.9936      4.7041    
  5.6190      6.8259      8.9887      12.868      18.979      27.500      38.233      50.610      63.713      76.337    
  65.603      72.531      76.337      76.506      73.037      66.442      57.615      47.633      37.552      28.261    
  20.398      14.320      10.092      7.4914      6.0335      5.0765      4.2969      3.6976      3.2618      2.9588    
  2.7575      2.6342      2.5733      2.5671      2.6149      2.7224      2.9030      3.1785      3.5793      4.1391    
  4.8837      5.8126      7.0867      9.3528      13.205      18.979      26.684      35.987      46.225      56.465    
  46.926      52.795      56.465      57.429      55.570      51.185      44.905      37.552      29.969      22.891    
  16.860      12.185      8.9277      6.9064      5.7191      4.8547      4.1404      3.5863      3.1776      2.8874    
  2.6890      2.5616      2.4915      2.4717      2.4999      2.5790      2.7165      2.9271      3.2328      3.6621    
  4.2442      4.9970      5.9133      7.1810      9.3528      12.868      17.912      24.374      31.841      39.642    
  31.838      36.450      39.642      40.953      40.203      37.532      33.354      28.261      22.891      17.820    
  13.480      10.118      7.7769      6.3011      5.3549      4.5837      3.9454      3.4468      3.0738      2.8037    
  2.6138      2.4867      2.4110      2.3808      2.3938      2.4509      2.5559      2.7174      2.9498      3.2741    
  3.7159      4.2992      5.0356      5.9133      7.0867      8.9887      11.926      15.976      20.956      26.445    
  20.638      23.945      26.445      27.753      27.671      26.228      23.672      20.398      16.860      13.480    
  10.579      8.3346      6.7655      5.7301      4.9549      4.2816      3.7254      3.2880      2.9565      2.7114    
  2.5345      2.4114      2.3334      2.2958      2.2971      2.3372      2.4178      2.5430      2.7212      2.9659    
  3.2963      3.7345      4.2992      4.9970      5.8126      6.8259      8.3459      10.578      13.531      17.008    
  13.173      15.278      17.008      18.076      18.299      17.646      16.239      14.320      12.185      10.118    
  8.3346      6.9475      5.9460      5.1977      4.5395      3.9668      3.4940      3.1196      2.8316      2.6145    
  2.4535      2.3376      2.2601      2.2181      2.2106      2.2375      2.2995      2.3981      2.5371      2.7242    
  2.9717      3.2963      3.7159      4.2442      4.8837      5.6190      6.4537      7.5666      9.0944      11.019    
  8.8401      9.9923      11.019      11.738      12.010      11.783      11.101      10.092      8.9277      7.7769    
  6.7655      5.9460      5.2816      4.6784      4.1300      3.6559      3.2637      2.9500      2.7051      2.5166    
  2.3732      2.2667      2.1924      2.1486      2.1349      2.1519      2.1996      2.2783      2.3891      2.5355    
  2.7242      2.9659      3.2741      3.6621      4.1391      4.7041      5.3424      6.0258      6.7945      7.7369    
  6.6564      7.2176      7.7369      8.1318      8.3238      8.2687      7.9731      7.4914      6.9064      6.3011    
  5.7301      5.1977      4.6784      4.1875      3.7449      3.3625      3.0442      2.7865      2.5818      2.4208    
  2.2956      2.2000      2.1312      2.0880      2.0711      2.0809      2.1177      2.1813      2.2715      2.3891    
  2.5371      2.7212      2.9498      3.2328      3.5793      3.9936      4.4724      5.0015      5.5558      6.1046    
  5.4533      5.8136      6.1046      6.3134      6.4201      6.4071      6.2725      6.0335      5.7191      5.3549    
  4.9549      4.5395      4.1300      3.7449      3.3977      3.0963      2.8426      2.6340      2.4652      2.3298    
  2.2223      2.1387      2.0771      2.0372      2.0197      2.0252      2.0542      2.1065      2.1813      2.2783    
  2.3981      2.5430      2.7174      2.9271      3.1785      3.4763      3.8213      4.2081      4.6236      5.0473    
  4.5405      4.8165      5.0473      5.2148      5.3052      5.3112      5.2328      5.0765      4.8547      4.5837    
  4.2816      3.9668      3.6559      3.3625      3.0963      2.8626      2.6630      2.4959      2.3580      2.2455    
  2.1549      2.0838      2.0311      1.9968      1.9814      1.9857      2.0100      2.0542      2.1177      2.1996    
  2.2995      2.4178      2.5559      2.7165      2.9030      3.1183      3.3637      3.6375      3.9333      4.2397    
  3.8782      4.0729      4.2397      4.3651      4.4381      4.4515      4.4034      4.2969      4.1404      3.9454    
  3.7254      3.4940      3.2637      3.0442      2.8426      2.6630      2.5068      2.3737      2.2619      2.1696    
  2.0949      2.0366      1.9940      1.9673      1.9568      1.9628      1.9857      2.0252      2.0809      2.1519    
  2.2375      2.3372      2.4509      2.5790      2.7224      2.8823      3.0590      3.2516      3.4569      3.6689    
  3.4306      3.5591      3.6689      3.7515      3.7995      3.8073      3.7729      3.6976      3.5863      3.4468    
  3.2880      3.1196      2.9500      2.7865      2.6340      2.4959      2.3737      2.2677      2.1778      2.1033    
  2.0435      1.9981      1.9667      1.9493      1.9460      1.9568      1.9814      2.0197      2.0711      2.1349    
  2.2106      2.2971      2.3938      2.4999      2.6149      2.7382      2.8691      3.0065      3.1484      3.2915    
  3.1484      3.2271      3.2915      3.3369      3.3590      3.3544      3.3218      3.2618      3.1776      3.0738    
  2.9565      2.8316      2.7051      2.5818      2.4652      2.3580      2.2619      2.1778      2.1063      2.0477    
  2.0020      1.9695      1.9501      1.9434      1.9493      1.9673      1.9968      2.0372      2.0880      2.1486    
  2.2181      2.2958      2.3808      2.4717      2.5671      2.6657      2.7659      2.8661      2.9648      3.0598    
  2.9885      3.0304      3.0598      3.0746      3.0728      3.0530      3.0147      2.9588      2.8874      2.8037    
  2.7114      2.6145      2.5166      2.4208      2.3298      2.2455      2.1696      2.1033      2.0477      2.0035    
  1.9715      1.9520      1.9450      1.9501      1.9667      1.9940      2.0311      2.0771      2.1312      2.1924    
  2.2601      2.3334      2.4110      2.4915      2.5733      2.6543      2.7327      2.8068      2.8751      2.9362    
  2.9217      2.9348      2.9362      2.9253      2.9018      2.8655      2.8170      2.7575      2.6890      2.6138    
  2.5345      2.4535      2.3732      2.2956      2.2223      2.1549      2.0949      2.0435      2.0020      1.9715    
  1.9528      1.9463      1.9520      1.9695      1.9981      2.0366      2.0838      2.1387      2.2000      2.2667    
  2.3376      2.4114      2.4867      2.5616      2.6342      2.7023      2.7642      2.8180      2.8628      2.8975    
  2.9348      2.9217      2.8975      2.8628      2.8180      2.7642      2.7023      2.6342      2.5616      2.4867    