Fe BCC                                  
   3.50000000000000     
    -0.500000    0.500000    0.500000
     0.500000   -0.500000    0.500000
     0.500000    0.500000   -0.500000
   Fe
     1
Direct
  0.000000  0.000000  0.000000
 
   40   40   40
 0.18490115895E+03 0.18069836474E+03 0.16868708319E+03 0.15049547118E+03 0.12836551491E+03
 0.10465665418E+03 0.81450053566E+02 0.60346058897E+02 0.42430299676E+02 0.28311888955E+02
 0.18147556293E+02 0.11635523197E+02 0.80315766089E+01 0.62544821610E+01 0.51581069116E+01
 0.43204181439E+01 0.37273124131E+01 0.33353779060E+01 0.30952353936E+01 0.29673436386E+01
 0.29274102856E+01 0.29673436386E+01 0.30952353936E+01 0.33353779060E+01 0.37273124131E+01
 0.43204181439E+01 0.51581069116E+01 0.62544821610E+01 0.80315766089E+01 0.11635523197E+02
 0.18147556293E+02 0.28311888955E+02 0.42430299676E+02 0.60346058897E+02 0.81450053566E+02
 0.10465665418E+03 0.12836551491E+03 0.15049547118E+03 0.16868708319E+03 0.18069836474E+03
 0.18069836474E+03 0.17931158266E+03 0.16994716894E+03 0.15390024350E+03 0.13322222097E+03
 0.11023988477E+03 0.87119789725E+02 0.65603470343E+02 0.46925821053E+02 0.31837809962E+02
 0.20638169950E+02 0.13173466005E+02 0.88401251107E+01 0.66564226913E+01 0.54533139607E+01
 0.45405243465E+01 0.38781726055E+01 0.34306085817E+01 0.31484360553E+01 0.29884932337E+01
 0.29216853954E+01 0.29347641969E+01 0.30303773567E+01 0.32270932195E+01 0.35590821588E+01
 0.40729377817E+01 0.48164640845E+01 0.58136220250E+01 0.72175619113E+01 0.99923026298E+01
 0.15277774706E+02 0.23944681443E+02 0.36449971871E+02 0.52794951674E+02 0.72530935499E+02
 0.94749098228E+02 0.11804379828E+03 0.14051349445E+03 0.15989835292E+03 0.17390949084E+03
 0.16868708319E+03 0.16994716894E+03 0.16350087819E+03 0.15025238884E+03 0.13194671614E+03
 0.11074397223E+03 0.88780140509E+02 0.67857618207E+02 0.49312548492E+02 0.34007810108E+02
 0.22361069195E+02 0.14351013439E+02 0.95142705300E+01 0.69925505246E+01 0.56797663267E+01
 0.47164678665E+01 0.40006994065E+01 0.35064212341E+01 0.31867340721E+01 0.29969190308E+01
 0.29044972421E+01 0.28919114860E+01 0.29566767849E+01 0.31113399790E+01 0.33835446218E+01
 0.38146189345E+01 0.44526529533E+01 0.53342663153E+01 0.64824817680E+01 0.84757767795E+01
 0.12436921795E+02 0.19331874159E+02 0.29767592511E+02 0.43913324769E+02 0.61493094112E+02
 0.81787176627E+02 0.10360969684E+03 0.12529695075E+03 0.14479217705E+03 0.15989835292E+03
 0.15049547118E+03 0.15390024350E+03 0.15025238884E+03 0.14007058177E+03 0.12472920174E+03
 0.10611469695E+03 0.86218386631E+02 0.66809330512E+02 0.49259510534E+02 0.34500670211E+02
 0.23038019542E+02 0.14958167002E+02 0.99256420797E+01 0.72136899237E+01 0.58201410510E+01
 0.48336003999E+01 0.40845297598E+01 0.35564708008E+01 0.32068211420E+01 0.29913439163E+01
 0.28758748386E+01 0.28398209482E+01 0.28764092022E+01 0.29925057428E+01 0.32088170872E+01
 0.35596671355E+01 0.40895324967E+01 0.48413742688E+01 0.58321539885E+01 0.72329288709E+01
 0.99612986214E+01 0.15028938651E+02 0.23171466537E+02 0.34727537422E+02 0.49603461288E+02
 0.67274862826E+02 0.86781334166E+02 0.10671974252E+03 0.12529695075E+03 0.14051349445E+03
 0.12836551491E+03 0.13322222097E+03 0.13194671614E+03 0.12472920174E+03 0.11256671202E+03
 0.97010882653E+02 0.79818962977E+02 0.62637225637E+02 0.46801336278E+02 0.33259681328E+02
 0.22566460655E+02 0.14885776383E+02 0.99889466342E+01 0.72756116063E+01 0.58645202639E+01
 0.48816010675E+01 0.41215486991E+01 0.35754610797E+01 0.32058903087E+01 0.29707989686E+01
 0.28360632096E+01 0.27795490871E+01 0.27914192241E+01 0.28737425727E+01 0.30406207436E+01
 0.33186089780E+01 0.37456580616E+01 0.43648514148E+01 0.52082018264E+01 0.62857274932E+01
 0.80445184808E+01 0.11448738090E+02 0.17321169769E+02 0.26156843322E+02 0.38049183971E+02
 0.52675542135E+02 0.69300409278E+02 0.86781334166E+02 0.10360969684E+03 0.11804379828E+03
 0.10465665418E+03 0.11023988477E+03 0.11074397223E+03 0.10611469695E+03 0.97010882653E+02
 0.84636953210E+02 0.70464519328E+02 0.55948601817E+02 0.42322986056E+02 0.30499474886E+02
 0.21039887464E+02 0.14152355494E+02 0.96887434545E+01 0.71604780817E+01 0.58101582956E+01
 0.48559840066E+01 0.41072900805E+01 0.35601509873E+01 0.31822456801E+01 0.29349537125E+01
 0.27857157228E+01 0.27123462565E+01 0.27033358589E+01 0.27572025762E+01 0.28823816035E+01
 0.30978562808E+01 0.34335210094E+01 0.39277532907E+01 0.46182720656E+01 0.55229665017E+01
 0.66999645357E+01 0.87942243330E+01 0.12652546171E+02 0.18892017115E+02 0.27785372680E+02
 0.39216300905E+02 0.52675542135E+02 0.67274862826E+02 0.81787176627E+02 0.94749098228E+02
 0.81450053566E+02 0.87119789725E+02 0.88780140509E+02 0.86218386631E+02 0.79818962977E+02
 0.70464519328E+02 0.59327636110E+02 0.47632584140E+02 0.36462603953E+02 0.26647387363E+02
 0.18718127870E+02 0.12894818233E+02 0.90827030416E+01 0.68853517634E+01 0.56622280154E+01
 0.47586376583E+01 0.40417414998E+01 0.35100587147E+01 0.31357719716E+01 0.28843662115E+01
 0.27260140823E+01 0.26397633727E+01 0.26137718455E+01 0.26443903131E+01 0.27357119825E+01
 0.29001045836E+01 0.31592327533E+01 0.35439646293E+01 0.40903434212E+01 0.48283062760E+01
 0.57619575237E+01 0.70325208324E+01 0.93264508625E+01 0.13324817898E+02 0.19449988074E+02
 0.27785372680E+02 0.38049183971E+02 0.49603461288E+02 0.61493094112E+02 0.72530935499E+02
 0.60346058897E+02 0.65603470343E+02 0.67857618207E+02 0.66809330512E+02 0.62637225637E+02
 0.55948601817E+02 0.47632584140E+02 0.38670991432E+02 0.29968837590E+02 0.22241584666E+02
 0.15959756600E+02 0.11328411697E+02 0.82819604625E+01 0.64957189969E+01 0.54334516035E+01
 0.45973598140E+01 0.39293671348E+01 0.34276659671E+01 0.30681167205E+01 0.28205630064E+01
 0.26586605203E+01 0.25636378040E+01 0.25244215154E+01 0.25364912649E+01 0.26010559639E+01
 0.27252894781E+01 0.29234953695E+01 0.32181974855E+01 0.36392760061E+01 0.42185647686E+01
 0.49777124081E+01 0.59120869318E+01 0.72202914789E+01 0.95190457222E+01 0.13324817898E+02
 0.18892017115E+02 0.26156843322E+02 0.34727537422E+02 0.43913324769E+02 0.52794951674E+02
 0.42430299676E+02 0.46925821053E+02 0.49312548492E+02 0.49259510534E+02 0.46801336278E+02
 0.42322986056E+02 0.36462603953E+02 0.29968837590E+02 0.23560110246E+02 0.17820420420E+02
 0.13140244174E+02 0.96907178436E+01 0.74167407331E+01 0.60474353273E+01 0.51402849308E+01
 0.43845811886E+01 0.37783754986E+01 0.33180734234E+01 0.29825303254E+01 0.27459206670E+01
 0.25857416887E+01 0.24859635258E+01 0.24370339704E+01 0.24345906457E+01 0.24783108371E+01
 0.25717561046E+01 0.27233561635E+01 0.29479246543E+01 0.32674546931E+01 0.37094099575E+01
 0.43005263166E+01 0.50551349890E+01 0.59639517082E+01 0.72202914789E+01 0.93264508625E+01
 0.12652546171E+02 0.17321169769E+02 0.23171466537E+02 0.29767592511E+02 0.36449971871E+02
 0.28311888955E+02 0.31837809962E+02 0.34007810108E+02 0.34500670211E+02 0.33259681328E+02
 0.30499474886E+02 0.26647387363E+02 0.22241584666E+02 0.17820420420E+02 0.13832398162E+02
 0.10579055036E+02 0.81868095026E+01 0.65987110301E+01 0.55838283973E+01 0.48023243757E+01
 0.41356032538E+01 0.35994424583E+01 0.31882139109E+01 0.28834154918E+01 0.26633881336E+01
 0.25095130890E+01 0.24087013167E+01 0.23532983467E+01 0.23397630392E+01 0.23673055151E+01
 0.24373489452E+01 0.25541558548E+01 0.27263087106E+01 0.29681896570E+01 0.33002449138E+01
 0.37465920128E+01 0.43286995379E+01 0.50551349890E+01 0.59120869318E+01 0.70325208324E+01
 0.87942243330E+01 0.11448738090E+02 0.15028938651E+02 0.19331874159E+02 0.23944681443E+02
 0.18147556293E+02 0.20638169950E+02 0.22361069195E+02 0.23038019542E+02 0.22566460655E+02
 0.21039887464E+02 0.18718127870E+02 0.15959756600E+02 0.13140244174E+02 0.10579055036E+02
 0.84887773626E+01 0.69474513138E+01 0.58896710587E+01 0.51157218751E+01 0.44403315744E+01
 0.38666942573E+01 0.34041990659E+01 0.30458364749E+01 0.27757176944E+01 0.25761366972E+01
 0.24321785465E+01 0.23336070438E+01 0.22747132053E+01 0.22530662230E+01 0.22680886509E+01
 0.23202339134E+01 0.24112049269E+01 0.25451384485E+01 0.27301935124E+01 0.29796845388E+01
 0.33117570045E+01 0.37465920128E+01 0.43005263166E+01 0.49777124081E+01 0.57619575237E+01
 0.66999645357E+01 0.80445184808E+01 0.99612986214E+01 0.12436921795E+02 0.15277774706E+02
 0.11635523197E+02 0.13173466005E+02 0.14351013439E+02 0.14958167002E+02 0.14885776383E+02
 0.14152355494E+02 0.12894818233E+02 0.11328411697E+02 0.96907178436E+01 0.81868095026E+01
 0.69474513138E+01 0.60043571645E+01 0.52816423652E+01 0.46432275598E+01 0.40743990414E+01
 0.35933253932E+01 0.32037966608E+01 0.28985053847E+01 0.26643170981E+01 0.24872366254E+01
 0.23557330846E+01 0.22621420913E+01 0.22025092989E+01 0.21754956505E+01 0.21810317947E+01
 0.22193623492E+01 0.22909171624E+01 0.23970890781E+01 0.25416041926E+01 0.27318856189E+01
 0.29796845388E+01 0.33002449138E+01 0.37094099575E+01 0.42185647686E+01 0.48283062760E+01
 0.55229665017E+01 0.62857274932E+01 0.72329288709E+01 0.84757767795E+01 0.99923026298E+01
 0.80315766089E+01 0.88401251107E+01 0.95142705300E+01 0.99256420797E+01 0.99889466342E+01
 0.96887434545E+01 0.90827030416E+01 0.82819604625E+01 0.74167407331E+01 0.65987110301E+01
 0.58896710587E+01 0.52816423652E+01 0.47141158931E+01 0.41875393048E+01 0.37222426583E+01
 0.33287443636E+01 0.30077893649E+01 0.27528159428E+01 0.25535573570E+01 0.23994354335E+01
 0.22819045276E+01 0.21954877650E+01 0.21376576564E+01 0.21079465164E+01 0.21067852230E+01
 0.21345663765E+01 0.21912996640E+01 0.22770004428E+01 0.23926850183E+01 0.25416041926E+01
 0.27301935124E+01 0.29681896570E+01 0.32674546931E+01 0.36392760061E+01 0.40903434212E+01
 0.46182720656E+01 0.52082018264E+01 0.58321539885E+01 0.64824817680E+01 0.72175619113E+01
 0.62544821610E+01 0.66564226913E+01 0.69925505246E+01 0.72136899237E+01 0.72756116063E+01
 0.71604780817E+01 0.68853517634E+01 0.64957189969E+01 0.60474353273E+01 0.55838283973E+01
 0.51157218751E+01 0.46432275598E+01 0.41875393048E+01 0.37679496600E+01 0.33977164231E+01
 0.30830151619E+01 0.28234632072E+01 0.26139383809E+01 0.24469842415E+01 0.23150668424E+01
 0.22121868384E+01 0.21346385421E+01 0.20809465930E+01 0.20512015467E+01 0.20461424402E+01
 0.20663527236E+01 0.21118450574E+01 0.21821662642E+01 0.22770004428E+01 0.23970890781E+01
 0.25451384485E+01 0.27263087106E+01 0.29479246543E+01 0.32181974855E+01 0.35439646293E+01
 0.39277532907E+01 0.43648514148E+01 0.48413742688E+01 0.53342663153E+01 0.58136220250E+01
 0.51581069116E+01 0.54533139607E+01 0.56797663267E+01 0.58201410510E+01 0.58645202639E+01
 0.58101582956E+01 0.56622280154E+01 0.54334516035E+01 0.51402849308E+01 0.48023243757E+01
 0.44403315744E+01 0.40743990414E+01 0.37222426583E+01 0.33977164231E+01 0.31098380472E+01
 0.28625993737E+01 0.26556288788E+01 0.24854983405E+01 0.23472940622E+01 0.22360723778E+01
 0.21479267046E+01 0.20805222892E+01 0.20330815779E+01 0.20059366437E+01 0.19998745934E+01
 0.20155290967E+01 0.20530073957E+01 0.21118450574E+01 0.21912996640E+01 0.22909171624E+01
 0.24112049269E+01 0.25541558548E+01 0.27233561635E+01 0.29234953695E+01 0.31592327533E+01
 0.34335210094E+01 0.37456580616E+01 0.40895324967E+01 0.44526529533E+01 0.48164640845E+01
 0.43204181439E+01 0.45405243465E+01 0.47164678665E+01 0.48336003999E+01 0.48816010675E+01
 0.48559840066E+01 0.47586376583E+01 0.45973598140E+01 0.43845811886E+01 0.41356032538E+01
 0.38666942573E+01 0.35933253932E+01 0.33287443636E+01 0.30830151619E+01 0.28625993737E+01
 0.26704886653E+01 0.25068081557E+01 0.23697226225E+01 0.22564351867E+01 0.21640862573E+01
 0.20904139966E+01 0.20340970009E+01 0.19947635533E+01 0.19727281631E+01 0.19685860491E+01
 0.19828190691E+01 0.20155290967E+01 0.20663527236E+01 0.21345663765E+01 0.22193623492E+01
 0.23202339134E+01 0.24373489452E+01 0.25717561046E+01 0.27252894781E+01 0.29001045836E+01
 0.30978562808E+01 0.33186089780E+01 0.35596671355E+01 0.38146189345E+01 0.40729377817E+01
 0.37273124131E+01 0.38781726055E+01 0.40006994065E+01 0.40845297598E+01 0.41215486991E+01
 0.41072900805E+01 0.40417414998E+01 0.39293671348E+01 0.37783754986E+01 0.35994424583E+01
 0.34041990659E+01 0.32037966608E+01 0.30077893649E+01 0.28234632072E+01 0.26556288788E+01
 0.25068081557E+01 0.23776932489E+01 0.22677419729E+01 0.21757821046E+01 0.21005262263E+01
 0.20409336798E+01 0.19963917095E+01 0.19667221244E+01 0.19520532737E+01 0.19526232207E+01
 0.19685860491E+01 0.19998745934E+01 0.20461424402E+01 0.21067852230E+01 0.21810317947E+01
 0.22680886509E+01 0.23673055151E+01 0.24783108371E+01 0.26010559639E+01 0.27357119825E+01
 0.28823816035E+01 0.30406207436E+01 0.32088170872E+01 0.33835446218E+01 0.35590821588E+01
 0.33353779060E+01 0.34306085817E+01 0.35064212341E+01 0.35564708008E+01 0.35754610797E+01
 0.35601509873E+01 0.35100587147E+01 0.34276659671E+01 0.33180734234E+01 0.31882139109E+01
 0.30458364749E+01 0.28985053847E+01 0.27528159428E+01 0.26139383809E+01 0.24854983405E+01
 0.23697226225E+01 0.22677419729E+01 0.21799459401E+01 0.21063101697E+01 0.20466465441E+01
 0.20007546803E+01 0.19684793914E+01 0.19496999209E+01 0.19442863126E+01 0.19520532737E+01
 0.19727281631E+01 0.20059366437E+01 0.20512015467E+01 0.21079465164E+01 0.21754956505E+01
 0.22530662230E+01 0.23397630392E+01 0.24345906457E+01 0.25364912649E+01 0.26443903131E+01
 0.27572025762E+01 0.28737425727E+01 0.29925057428E+01 0.31113399790E+01 0.32270932195E+01
 0.30952353936E+01 0.31484360553E+01 0.31867340721E+01 0.32068211420E+01 0.32058903087E+01
 0.31822456801E+01 0.31357719716E+01 0.30681167205E+01 0.29825303254E+01 0.28834154918E+01
 0.27757176944E+01 0.26643170981E+01 0.25535573570E+01 0.24469842415E+01 0.23472940622E+01
 0.22564351867E+01 0.21757821046E+01 0.21063101697E+01 0.20487258321E+01 0.20035351189E+01
 0.19710548780E+01 0.19513881343E+01 0.19443962967E+01 0.19496999209E+01 0.19667221244E+01
 0.19947635533E+01 0.20330815779E+01 0.20809465930E+01 0.21376576564E+01 0.22025092989E+01
 0.22747132053E+01 0.23532983467E+01 0.24370339704E+01 0.25244215154E+01 0.26137718455E+01
 0.27033358589E+01 0.27914192241E+01 0.28764092022E+01 0.29566767849E+01 0.30303773567E+01
 0.29673436386E+01 0.29884932337E+01 0.29969190308E+01 0.29913439163E+01 0.29707989686E+01
 0.29349537125E+01 0.28843662115E+01 0.28205630064E+01 0.27459206670E+01 0.26633881336E+01
 0.25761366972E+01 0.24872366254E+01 0.23994354335E+01 0.23150668424E+01 0.22360723778E+01
 0.21640862573E+01 0.21005262263E+01 0.20466465441E+01 0.20035351189E+01 0.19720622533E+01
 0.19528047409E+01 0.19459754516E+01 0.19513881343E+01 0.19684793914E+01 0.19963917095E+01
 0.20340970009E+01 0.20805222892E+01 0.21346385421E+01 0.21954877650E+01 0.22621420913E+01
 0.23336070438E+01 0.24087013167E+01 0.24859635258E+01 0.25636378040E+01 0.26397633727E+01
 0.27123462565E+01 0.27795490871E+01 0.28398209482E+01 0.28919114860E+01 0.29347641969E+01
 0.29274102856E+01 0.29216853954E+01 0.29044972421E+01 0.28758748386E+01 0.28360632096E+01
 0.27857157228E+01 0.27260140823E+01 0.26586605203E+01 0.25857416887E+01 0.25095130890E+01
 0.24321785465E+01 0.23557330846E+01 0.22819045276E+01 0.22121868384E+01 0.21479267046E+01
 0.20904139966E+01 0.20409336798E+01 0.20007546803E+01 0.19710548780E+01 0.19528047409E+01
 0.19466464100E+01 0.19528047409E+01 0.19710548780E+01 0.20007546803E+01 0.20409336798E+01
 0.20904139966E+01 0.21479267046E+01 0.22121868384E+01 0.22819045276E+01 0.23557330846E+01
 0.24321785465E+01 0.25095130890E+01 0.25857416887E+01 0.26586605203E+01 0.27260140823E+01
 0.27857157228E+01 0.28360632096E+01 0.28758748386E+01 0.29044972421E+01 0.29216853954E+01
 0.29673436386E+01 0.29347641969E+01 0.28919114860E+01 0.28398209482E+01 0.27795490871E+01
 0.27123462565E+01 0.26397633727E+01 0.25636378040E+01 0.24859635258E+01 0.24087013167E+01
 0.23336070438E+01 0.22621420913E+01 0.21954877650E+01 0.21346385421E+01 0.20805222892E+01
 0.20340970009E+01 0.19963917095E+01 0.19684793914E+01 0.19513881343E+01 0.19459754516E+01
 0.19528047409E+01 0.19720622533E+01 0.20035351189E+01 0.20466465441E+01 0.21005262263E+01
 0.21640862573E+01 0.22360723778E+01 0.23150668424E+01 0.23994354335E+01 0.24872366254E+01
 0.25761366972E+01 0.26633881336E+01 0.27459206670E+01 0.28205630064E+01 0.28843662115E+01
 0.29349537125E+01 0.29707989686E+01 0.29913439163E+01 0.29969190308E+01 0.29884932337E+01
 0.30952353936E+01 0.30303773567E+01 0.29566767849E+01 0.28764092022E+01 0.27914192241E+01
 0.27033358589E+01 0.26137718455E+01 0.25244215154E+01 0.24370339704E+01 0.23532983467E+01
 0.22747132053E+01 0.22025092989E+01 0.21376576564E+01 0.20809465930E+01 0.20330815779E+01
 0.19947635533E+01 0.19667221244E+01 0.19496999209E+01 0.19443962967E+01 0.19513881343E+01
 0.19710548780E+01 0.20035351189E+01 0.20487258321E+01 0.21063101697E+01 0.21757821046E+01
 0.22564351867E+01 0.23472940622E+01 0.24469842415E+01 0.25535573570E+01 0.26643170981E+01
 0.27757176944E+01 0.28834154918E+01 0.29825303254E+01 0.30681167205E+01 0.31357719716E+01
 0.31822456801E+01 0.32058903087E+01 0.32068211420E+01 0.31867340721E+01 0.31484360553E+01
 0.33353779060E+01 0.32270932195E+01 0.31113399790E+01 0.29925057428E+01 0.28737425727E+01
 0.27572025762E+01 0.26443903131E+01 0.25364912649E+01 0.24345906457E+01 0.23397630392E+01
 0.22530662230E+01 0.21754956505E+01 0.21079465164E+01 0.20512015467E+01 0.20059366437E+01
 0.19727281631E+01 0.19520532737E+01 0.19442863126E+01 0.19496999209E+01 0.19684793914E+01
 0.20007546803E+01 0.20466465441E+01 0.21063101697E+01 0.21799459401E+01 0.22677419729E+01
 0.23697226225E+01 0.24854983405E+01 0.26139383809E+01 0.27528159428E+01 0.28985053847E+01
 0.30458364749E+01 0.31882139109E+01 0.33180734234E+01 0.34276659671E+01 0.35100587147E+01
 0.35601509873E+01 0.35754610797E+01 0.35564708008E+01 0.35064212341E+01 0.34306085817E+01
 0.37273124131E+01 0.35590821588E+01 0.33835446218E+01 0.32088170872E+01 0.30406207436E+01
 0.28823816035E+01 0.27357119825E+01 0.26010559639E+01 0.24783108371E+01 0.23673055151E+01
 0.22680886509E+01 0.21810317947E+01 0.21067852230E+01 0.20461424402E+01 0.19998745934E+01
 0.19685860491E+01 0.19526232207E+01 0.19520532737E+01 0.19667221244E+01 0.19963917095E+01
 0.20409336798E+01 0.21005262263E+01 0.21757821046E+01 0.22677419729E+01 0.23776932489E+01
 0.25068081557E+01 0.26556288788E+01 0.28234632072E+01 0.30077893649E+01 0.32037966608E+01
 0.34041990659E+01 0.35994424583E+01 0.37783754986E+01 0.39293671348E+01 0.40417414998E+01
 0.41072900805E+01 0.41215486991E+01 0.40845297598E+01 0.40006994065E+01 0.38781726055E+01
 0.43204181439E+01 0.40729377817E+01 0.38146189345E+01 0.35596671355E+01 0.33186089780E+01
 0.30978562808E+01 0.29001045836E+01 0.27252894781E+01 0.25717561046E+01 0.24373489452E+01
 0.23202339134E+01 0.22193623492E+01 0.21345663765E+01 0.20663527236E+01 0.20155290967E+01
 0.19828190691E+01 0.19685860491E+01 0.19727281631E+01 0.19947635533E+01 0.20340970009E+01
 0.20904139966E+01 0.21640862573E+01 0.22564351867E+01 0.23697226225E+01 0.25068081557E+01
 0.26704886653E+01 0.28625993737E+01 0.30830151619E+01 0.33287443636E+01 0.35933253932E+01
 0.38666942573E+01 0.41356032538E+01 0.43845811886E+01 0.45973598140E+01 0.47586376583E+01
 0.48559840066E+01 0.48816010675E+01 0.48336003999E+01 0.47164678665E+01 0.45405243465E+01
 0.51581069116E+01 0.48164640845E+01 0.44526529533E+01 0.40895324967E+01 0.37456580616E+01
 0.34335210094E+01 0.31592327533E+01 0.29234953695E+01 0.27233561635E+01 0.25541558548E+01
 0.24112049269E+01 0.22909171624E+01 0.21912996640E+01 0.21118450574E+01 0.20530073957E+01
 0.20155290967E+01 0.19998745934E+01 0.20059366437E+01 0.20330815779E+01 0.20805222892E+01
 0.21479267046E+01 0.22360723778E+01 0.23472940622E+01 0.24854983405E+01 0.26556288788E+01
 0.28625993737E+01 0.31098380472E+01 0.33977164231E+01 0.37222426583E+01 0.40743990414E+01
 0.44403315744E+01 0.48023243757E+01 0.51402849308E+01 0.54334516035E+01 0.56622280154E+01
 0.58101582956E+01 0.58645202639E+01 0.58201410510E+01 0.56797663267E+01 0.54533139607E+01
 0.62544821610E+01 0.58136220250E+01 0.53342663153E+01 0.48413742688E+01 0.43648514148E+01
 0.39277532907E+01 0.35439646293E+01 0.32181974855E+01 0.29479246543E+01 0.27263087106E+01
 0.25451384485E+01 0.23970890781E+01 0.22770004428E+01 0.21821662642E+01 0.21118450574E+01
 0.20663527236E+01 0.20461424402E+01 0.20512015467E+01 0.20809465930E+01 0.21346385421E+01
 0.22121868384E+01 0.23150668424E+01 0.24469842415E+01 0.26139383809E+01 0.28234632072E+01
 0.30830151619E+01 0.33977164231E+01 0.37679496600E+01 0.41875393048E+01 0.46432275598E+01
 0.51157218751E+01 0.55838283973E+01 0.60474353273E+01 0.64957189969E+01 0.68853517634E+01
 0.71604780817E+01 0.72756116063E+01 0.72136899237E+01 0.69925505246E+01 0.66564226913E+01
 0.80315766089E+01 0.72175619113E+01 0.64824817680E+01 0.58321539885E+01 0.52082018264E+01
 0.46182720656E+01 0.40903434212E+01 0.36392760061E+01 0.32674546931E+01 0.29681896570E+01
 0.27301935124E+01 0.25416041926E+01 0.23926850183E+01 0.22770004428E+01 0.21912996640E+01
 0.21345663765E+01 0.21067852230E+01 0.21079465164E+01 0.21376576564E+01 0.21954877650E+01
 0.22819045276E+01 0.23994354335E+01 0.25535573570E+01 0.27528159428E+01 0.30077893649E+01
 0.33287443636E+01 0.37222426583E+01 0.41875393048E+01 0.47141158931E+01 0.52816423652E+01
 0.58896710587E+01 0.65987110301E+01 0.74167407331E+01 0.82819604625E+01 0.90827030416E+01
 0.96887434545E+01 0.99889466342E+01 0.99256420797E+01 0.95142705300E+01 0.88401251107E+01
 0.11635523197E+02 0.99923026298E+01 0.84757767795E+01 0.72329288709E+01 0.62857274932E+01
 0.55229665017E+01 0.48283062760E+01 0.42185647686E+01 0.37094099575E+01 0.33002449138E+01
 0.29796845388E+01 0.27318856189E+01 0.25416041926E+01 0.23970890781E+01 0.22909171624E+01
 0.22193623492E+01 0.21810317947E+01 0.21754956505E+01 0.22025092989E+01 0.22621420913E+01
 0.23557330846E+01 0.24872366254E+01 0.26643170981E+01 0.28985053847E+01 0.32037966608E+01
 0.35933253932E+01 0.40743990414E+01 0.46432275598E+01 0.52816423652E+01 0.60043571645E+01
 0.69474513138E+01 0.81868095026E+01 0.96907178436E+01 0.11328411697E+02 0.12894818233E+02
 0.14152355494E+02 0.14885776383E+02 0.14958167002E+02 0.14351013439E+02 0.13173466005E+02
 0.18147556293E+02 0.15277774706E+02 0.12436921795E+02 0.99612986214E+01 0.80445184808E+01
 0.66999645357E+01 0.57619575237E+01 0.49777124081E+01 0.43005263166E+01 0.37465920128E+01
 0.33117570045E+01 0.29796845388E+01 0.27301935124E+01 0.25451384485E+01 0.24112049269E+01
 0.23202339134E+01 0.22680886509E+01 0.22530662230E+01 0.22747132053E+01 0.23336070438E+01
 0.24321785465E+01 0.25761366972E+01 0.27757176944E+01 0.30458364749E+01 0.34041990659E+01
 0.38666942573E+01 0.44403315744E+01 0.51157218751E+01 0.58896710587E+01 0.69474513138E+01
 0.84887773626E+01 0.10579055036E+02 0.13140244174E+02 0.15959756600E+02 0.18718127870E+02
 0.21039887464E+02 0.22566460655E+02 0.23038019542E+02 0.22361069195E+02 0.20638169950E+02
 0.28311888955E+02 0.23944681443E+02 0.19331874159E+02 0.15028938651E+02 0.11448738090E+02
 0.87942243330E+01 0.70325208324E+01 0.59120869318E+01 0.50551349890E+01 0.43286995379E+01
 0.37465920128E+01 0.33002449138E+01 0.29681896570E+01 0.27263087106E+01 0.25541558548E+01
 0.24373489452E+01 0.23673055151E+01 0.23397630392E+01 0.23532983467E+01 0.24087013167E+01
 0.25095130890E+01 0.26633881336E+01 0.28834154918E+01 0.31882139109E+01 0.35994424583E+01
 0.41356032538E+01 0.48023243757E+01 0.55838283973E+01 0.65987110301E+01 0.81868095026E+01
 0.10579055036E+02 0.13832398162E+02 0.17820420420E+02 0.22241584666E+02 0.26647387363E+02
 0.30499474886E+02 0.33259681328E+02 0.34500670211E+02 0.34007810108E+02 0.31837809962E+02
 0.42430299676E+02 0.36449971871E+02 0.29767592511E+02 0.23171466537E+02 0.17321169769E+02
 0.12652546171E+02 0.93264508625E+01 0.72202914789E+01 0.59639517082E+01 0.50551349890E+01
 0.43005263166E+01 0.37094099575E+01 0.32674546931E+01 0.29479246543E+01 0.27233561635E+01
 0.25717561046E+01 0.24783108371E+01 0.24345906457E+01 0.24370339704E+01 0.24859635258E+01
 0.25857416887E+01 0.27459206670E+01 0.29825303254E+01 0.33180734234E+01 0.37783754986E+01
 0.43845811886E+01 0.51402849308E+01 0.60474353273E+01 0.74167407331E+01 0.96907178436E+01
 0.13140244174E+02 0.17820420420E+02 0.23560110246E+02 0.29968837590E+02 0.36462603953E+02
 0.42322986056E+02 0.46801336278E+02 0.49259510534E+02 0.49312548492E+02 0.46925821053E+02
 0.60346058897E+02 0.52794951674E+02 0.43913324769E+02 0.34727537422E+02 0.26156843322E+02
 0.18892017115E+02 0.13324817898E+02 0.95190457222E+01 0.72202914789E+01 0.59120869318E+01
 0.49777124081E+01 0.42185647686E+01 0.36392760061E+01 0.32181974855E+01 0.29234953695E+01
 0.27252894781E+01 0.26010559639E+01 0.25364912649E+01 0.25244215154E+01 0.25636378040E+01
 0.26586605203E+01 0.28205630064E+01 0.30681167205E+01 0.34276659671E+01 0.39293671348E+01
 0.45973598140E+01 0.54334516035E+01 0.64957189969E+01 0.82819604625E+01 0.11328411697E+02
 0.15959756600E+02 0.22241584666E+02 0.29968837590E+02 0.38670991432E+02 0.47632584140E+02
 0.55948601817E+02 0.62637225637E+02 0.66809330512E+02 0.67857618207E+02 0.65603470343E+02
 0.81450053566E+02 0.72530935499E+02 0.61493094112E+02 0.49603461288E+02 0.38049183971E+02
 0.27785372680E+02 0.19449988074E+02 0.13324817898E+02 0.93264508625E+01 0.70325208324E+01
 0.57619575237E+01 0.48283062760E+01 0.40903434212E+01 0.35439646293E+01 0.31592327533E+01
 0.29001045836E+01 0.27357119825E+01 0.26443903131E+01 0.26137718455E+01 0.26397633727E+01
 0.27260140823E+01 0.28843662115E+01 0.31357719716E+01 0.35100587147E+01 0.40417414998E+01
 0.47586376583E+01 0.56622280154E+01 0.68853517634E+01 0.90827030416E+01 0.12894818233E+02
 0.18718127870E+02 0.26647387363E+02 0.36462603953E+02 0.47632584140E+02 0.59327636110E+02
 0.70464519328E+02 0.79818962977E+02 0.86218386631E+02 0.88780140509E+02 0.87119789725E+02
 0.10465665418E+03 0.94749098228E+02 0.81787176627E+02 0.67274862826E+02 0.52675542135E+02
 0.39216300905E+02 0.27785372680E+02 0.18892017115E+02 0.12652546171E+02 0.87942243330E+01
 0.66999645357E+01 0.55229665017E+01 0.46182720656E+01 0.39277532907E+01 0.34335210094E+01
 0.30978562808E+01 0.28823816035E+01 0.27572025762E+01 0.27033358589E+01 0.27123462565E+01
 0.27857157228E+01 0.29349537125E+01 0.31822456801E+01 0.35601509873E+01 0.41072900805E+01
 0.48559840066E+01 0.58101582956E+01 0.71604780817E+01 0.96887434545E+01 0.14152355494E+02
 0.21039887464E+02 0.30499474886E+02 0.42322986056E+02 0.55948601817E+02 0.70464519328E+02
 0.84636953210E+02 0.97010882653E+02 0.10611469695E+03 0.11074397223E+03 0.11023988477E+03
 0.12836551491E+03 0.11804379828E+03 0.10360969684E+03 0.86781334166E+02 0.69300409278E+02
 0.52675542135E+02 0.38049183971E+02 0.26156843322E+02 0.17321169769E+02 0.11448738090E+02
 0.80445184808E+01 0.62857274932E+01 0.52082018264E+01 0.43648514148E+01 0.37456580616E+01
 0.33186089780E+01 0.30406207436E+01 0.28737425727E+01 0.27914192241E+01 0.27795490871E+01
 0.28360632096E+01 0.29707989686E+01 0.32058903087E+01 0.35754610797E+01 0.41215486991E+01
 0.48816010675E+01 0.58645202639E+01 0.72756116063E+01 0.99889466342E+01 0.14885776383E+02
 0.22566460655E+02 0.33259681328E+02 0.46801336278E+02 0.62637225637E+02 0.79818962977E+02
 0.97010882653E+02 0.11256671202E+03 0.12472920174E+03 0.13194671614E+03 0.13322222097E+03
 0.15049547118E+03 0.14051349445E+03 0.12529695075E+03 0.10671974252E+03 0.86781334166E+02
 0.67274862826E+02 0.49603461288E+02 0.34727537422E+02 0.23171466537E+02 0.15028938651E+02
 0.99612986214E+01 0.72329288709E+01 0.58321539885E+01 0.48413742688E+01 0.40895324967E+01
 0.35596671355E+01 0.32088170872E+01 0.29925057428E+01 0.28764092022E+01 0.28398209482E+01
 0.28758748386E+01 0.29913439163E+01 0.32068211420E+01 0.35564708008E+01 0.40845297598E+01
 0.48336003999E+01 0.58201410510E+01 0.72136899237E+01 0.99256420797E+01 0.14958167002E+02
 0.23038019542E+02 0.34500670211E+02 0.49259510534E+02 0.66809330512E+02 0.86218386631E+02
 0.10611469695E+03 0.12472920174E+03 0.14007058177E+03 0.15025238884E+03 0.15390024350E+03
 0.16868708319E+03 0.15989835292E+03 0.14479217705E+03 0.12529695075E+03 0.10360969684E+03
 0.81787176627E+02 0.61493094112E+02 0.43913324769E+02 0.29767592511E+02 0.19331874159E+02
 0.12436921795E+02 0.84757767795E+01 0.64824817680E+01 0.53342663153E+01 0.44526529533E+01
 0.38146189345E+01 0.33835446218E+01 0.31113399790E+01 0.29566767849E+01 0.28919114860E+01
 0.29044972421E+01 0.29969190308E+01 0.31867340721E+01 0.35064212341E+01 0.40006994065E+01
 0.47164678665E+01 0.56797663267E+01 0.69925505246E+01 0.95142705300E+01 0.14351013439E+02
 0.22361069195E+02 0.34007810108E+02 0.49312548492E+02 0.67857618207E+02 0.88780140509E+02
 0.11074397223E+03 0.13194671614E+03 0.15025238884E+03 0.16350087819E+03 0.16994716894E+03
 0.18069836474E+03 0.17390949084E+03 0.15989835292E+03 0.14051349445E+03 0.11804379828E+03
 0.94749098228E+02 0.72530935499E+02 0.52794951674E+02 0.36449971871E+02 0.23944681443E+02
 0.15277774706E+02 0.99923026298E+01 0.72175619113E+01 0.58136220250E+01 0.48164640845E+01
 0.40729377817E+01 0.35590821588E+01 0.32270932195E+01 0.30303773567E+01 0.29347641969E+01
 0.29216853954E+01 0.29884932337E+01 0.31484360553E+01 0.34306085817E+01 0.38781726055E+01
 0.45405243465E+01 0.54533139607E+01 0.66564226913E+01 0.88401251107E+01 0.13173466005E+02
 0.20638169950E+02 0.31837809962E+02 0.46925821053E+02 0.65603470343E+02 0.87119789725E+02
 0.11023988477E+03 0.13322222097E+03 0.15390024350E+03 0.16994716894E+03 0.17931158266E+03
 0.18069836474E+03 0.17931158266E+03 0.16994716894E+03 0.15390024350E+03 0.13322222097E+03
 0.11023988477E+03 0.87119789725E+02 0.65603470343E+02 0.46925821053E+02 0.31837809962E+02
 0.20638169950E+02 0.13173466005E+02 0.88401251107E+01 0.66564226913E+01 0.54533139607E+01
 0.45405243465E+01 0.38781726055E+01 0.34306085817E+01 0.31484360553E+01 0.29884932337E+01
 0.29216853954E+01 0.29347641969E+01 0.30303773567E+01 0.32270932195E+01 0.35590821588E+01
 0.40729377817E+01 0.48164640845E+01 0.58136220250E+01 0.72175619113E+01 0.99923026298E+01