   1   1   1   0
  0.2143750E+02  0.3031089E-09  0.3031089E-09  0.3031089E-09  0.5000000E-15
  1.000000000000000E-004
  CAR 
 Fe BCC                                  
     30.47205761     -6.31740974  301      1.36577533      1.00000000
     -6.317  0.0000E+00  0.0000E+00  0.0000E+00  0.0000E+00
     -6.195  0.0000E+00  0.0000E+00  0.0000E+00  0.0000E+00
     -6.072  0.0000E+00  0.0000E+00  0.0000E+00  0.0000E+00
     -5.950  0.0000E+00  0.0000E+00  0.0000E+00  0.0000E+00
     -5.827  0.0000E+00  0.0000E+00  0.0000E+00  0.0000E+00
     -5.704  0.0000E+00  0.0000E+00  0.0000E+00  0.0000E+00
     -5.582  0.0000E+00  0.0000E+00  0.0000E+00  0.0000E+00
     -5.459  0.0000E+00  0.0000E+00  0.0000E+00  0.0000E+00
     -5.336  0.0000E+00  0.0000E+00  0.0000E+00  0.0000E+00
     -5.214  0.0000E+00  0.0000E+00  0.0000E+00  0.0000E+00
     -5.091  0.0000E+00  0.0000E+00  0.0000E+00  0.0000E+00
     -4.968  0.0000E+00  0.0000E+00  0.0000E+00  0.0000E+00
     -4.846  0.0000E+00  0.0000E+00  0.0000E+00  0.0000E+00
     -4.723  0.0000E+00  0.0000E+00  0.0000E+00  0.0000E+00
     -4.601  0.0000E+00  0.0000E+00  0.0000E+00  0.0000E+00
     -4.478  0.0000E+00  0.0000E+00  0.0000E+00  0.0000E+00
     -4.355  0.0000E+00  0.0000E+00  0.0000E+00  0.0000E+00
     -4.233  0.2313E-01  0.0000E+00  0.2273E-02  0.0000E+00
     -4.110  0.3314E-01  0.0000E+00  0.5745E-02  0.0000E+00
     -3.987  0.4102E-01  0.1653E-01  0.1031E-01  0.9366E-03
     -3.865  0.5088E-01  0.2730E-01  0.1584E-01  0.3646E-02
     -3.742  0.6214E-01  0.3595E-01  0.2280E-01  0.7545E-02
     -3.620  0.7010E-01  0.4248E-01  0.3095E-01  0.1238E-01
     -3.497  0.7079E-01  0.5383E-01  0.3964E-01  0.1827E-01
     -3.374  0.7863E-01  0.6266E-01  0.4879E-01  0.2545E-01
     -3.252  0.8718E-01  0.6811E-01  0.5895E-01  0.3350E-01
     -3.129  0.9644E-01  0.6693E-01  0.7020E-01  0.4160E-01
     -3.006  0.1064E+00  0.7264E-01  0.8264E-01  0.5015E-01
     -2.884  0.1171E+00  0.7866E-01  0.9633E-01  0.5943E-01
     -2.761  0.1325E+00  0.8499E-01  0.1115E+00  0.6946E-01
     -2.638  0.1536E+00  0.9163E-01  0.1290E+00  0.8028E-01
     -2.516  0.1761E+00  0.9859E-01  0.1492E+00  0.9194E-01
     -2.393  0.2036E+00  0.1035E+00  0.1724E+00  0.1043E+00
     -2.271  0.2454E+00  0.1103E+00  0.1997E+00  0.1174E+00
     -2.148  0.3029E+00  0.1164E+00  0.2332E+00  0.1313E+00
     -2.025  0.3744E+00  0.1211E+00  0.2746E+00  0.1459E+00
     -1.903  0.8224E+00  0.1263E+00  0.3363E+00  0.1611E+00
     -1.780  0.1096E+01  0.1327E+00  0.4534E+00  0.1769E+00
     -1.657  0.1582E+01  0.1412E+00  0.6161E+00  0.1937E+00
     -1.535  0.2203E+01  0.1504E+00  0.8688E+00  0.2116E+00
     -1.412  0.6666E+00  0.1605E+00  0.1048E+01  0.2306E+00
     -1.290  0.4638E+01  0.1714E+00  0.1223E+01  0.2510E+00
     -1.167  0.2869E+01  0.1832E+00  0.1745E+01  0.2727E+00
     -1.044  0.2205E+01  0.1976E+00  0.1998E+01  0.2960E+00
     -0.922  0.4026E+01  0.2150E+00  0.2427E+01  0.3213E+00
     -0.799  0.1515E+01  0.2426E+00  0.2747E+01  0.3493E+00
     -0.676  0.1728E+01  0.2755E+00  0.2931E+01  0.3810E+00
     -0.554  0.4126E+01  0.3150E+00  0.3246E+01  0.4171E+00
     -0.431  0.7078E+01  0.3736E+00  0.4006E+01  0.4591E+00
     -0.308  0.3044E+01  0.4341E+00  0.4538E+01  0.5104E+00
     -0.186  0.2082E+01  0.4482E+00  0.4833E+01  0.5646E+00
     -0.063  0.1505E+01  0.4592E+00  0.5134E+01  0.6202E+00
      0.059  0.2237E+00  0.4951E+00  0.5197E+01  0.6777E+00
      0.182  0.2238E+00  0.5852E+00  0.5225E+01  0.7499E+00
      0.305  0.2152E+00  0.5724E+00  0.5251E+01  0.8212E+00
      0.427  0.2166E+00  0.8069E+00  0.5278E+01  0.8918E+00
      0.550  0.2043E+00  0.5705E+00  0.5304E+01  0.9903E+00
      0.673  0.1986E+00  0.2807E+00  0.5329E+01  0.1036E+01
      0.795  0.1939E+00  0.4624E+00  0.5353E+01  0.1081E+01
      0.918  0.1919E+00  0.2384E+01  0.5377E+01  0.1261E+01
      1.040  0.1960E+00  0.3913E+01  0.5400E+01  0.1618E+01
      1.163  0.2087E+00  0.2404E+01  0.5425E+01  0.1978E+01
      1.286  0.2119E+00  0.3083E+01  0.5451E+01  0.2298E+01
      1.408  0.2147E+00  0.2535E+01  0.5477E+01  0.2648E+01
      1.531  0.2166E+00  0.5421E+00  0.5503E+01  0.2867E+01
      1.654  0.2175E+00  0.3297E+00  0.5530E+01  0.2911E+01
      1.776  0.2174E+00  0.3668E+00  0.5557E+01  0.2953E+01
      1.899  0.2165E+00  0.8475E+00  0.5583E+01  0.3029E+01
      2.022  0.2172E+00  0.1704E+01  0.5610E+01  0.3179E+01
      2.144  0.2200E+00  0.3167E+01  0.5637E+01  0.3465E+01
      2.267  0.2320E+00  0.3819E+01  0.5664E+01  0.3948E+01
      2.389  0.2206E+00  0.5330E+01  0.5693E+01  0.4365E+01
      2.512  0.2049E+00  0.2567E+01  0.5720E+01  0.4901E+01
      2.635  0.1906E+00  0.2068E+01  0.5744E+01  0.5212E+01
      2.757  0.1774E+00  0.5642E+00  0.5766E+01  0.5296E+01
      2.880  0.1672E+00  0.4691E+00  0.5787E+01  0.5361E+01
      3.003  0.1566E+00  0.3982E+00  0.5807E+01  0.5412E+01
      3.125  0.1438E+00  0.3862E+00  0.5826E+01  0.5460E+01
      3.248  0.1349E+00  0.3715E+00  0.5843E+01  0.5507E+01
      3.370  0.1262E+00  0.3548E+00  0.5859E+01  0.5551E+01
      3.493  0.1177E+00  0.3433E+00  0.5874E+01  0.5594E+01
      3.616  0.1094E+00  0.3238E+00  0.5888E+01  0.5635E+01
      3.738  0.1087E+00  0.3021E+00  0.5901E+01  0.5673E+01
      3.861  0.1003E+00  0.2904E+00  0.5914E+01  0.5709E+01
      3.984  0.9398E-01  0.2450E+00  0.5926E+01  0.5743E+01
      4.106  0.9742E-01  0.2258E+00  0.5938E+01  0.5772E+01
      4.229  0.1031E+00  0.2086E+00  0.5950E+01  0.5798E+01
      4.352  0.1044E+00  0.1933E+00  0.5963E+01  0.5823E+01
      4.474  0.1202E+00  0.1755E+00  0.5976E+01  0.5845E+01
      4.597  0.1387E+00  0.1677E+00  0.5994E+01  0.5866E+01
      4.719  0.1536E+00  0.1524E+00  0.6011E+01  0.5886E+01
      4.842  0.2197E+00  0.1368E+00  0.6033E+01  0.5903E+01
      4.965  0.2295E+00  0.1207E+00  0.6060E+01  0.5919E+01
      5.087  0.2538E+00  0.1043E+00  0.6090E+01  0.5933E+01
      5.210  0.2745E+00  0.7786E-01  0.6123E+01  0.5945E+01
      5.333  0.2913E+00  0.7053E-01  0.6157E+01  0.5954E+01
      5.455  0.3046E+00  0.7641E-01  0.6194E+01  0.5962E+01
      5.578  0.2769E+00  0.1028E+00  0.6229E+01  0.5974E+01
      5.700  0.2755E+00  0.1232E+00  0.6264E+01  0.5988E+01
      5.823  0.2653E+00  0.1565E+00  0.6297E+01  0.6005E+01
      5.946  0.2525E+00  0.2529E+00  0.6329E+01  0.6032E+01
      6.068  0.2372E+00  0.2932E+00  0.6359E+01  0.6067E+01
      6.191  0.2164E+00  0.3232E+00  0.6386E+01  0.6104E+01
      6.314  0.2293E+00  0.3499E+00  0.6413E+01  0.6146E+01
      6.436  0.2368E+00  0.3638E+00  0.6442E+01  0.6190E+01
      6.559  0.2429E+00  0.3261E+00  0.6471E+01  0.6232E+01
      6.682  0.2509E+00  0.3095E+00  0.6502E+01  0.6271E+01
      6.804  0.2463E+00  0.2899E+00  0.6532E+01  0.6308E+01
      6.927  0.2424E+00  0.2743E+00  0.6562E+01  0.6342E+01
      7.049  0.2400E+00  0.2637E+00  0.6592E+01  0.6375E+01
      7.172  0.2406E+00  0.2682E+00  0.6621E+01  0.6407E+01
      7.295  0.2423E+00  0.2779E+00  0.6651E+01  0.6441E+01
      7.417  0.2450E+00  0.2811E+00  0.6680E+01  0.6476E+01
      7.540  0.2527E+00  0.2789E+00  0.6714E+01  0.6510E+01
      7.663  0.2580E+00  0.2696E+00  0.6745E+01  0.6544E+01
      7.785  0.2626E+00  0.2622E+00  0.6777E+01  0.6577E+01
      7.908  0.2672E+00  0.2571E+00  0.6810E+01  0.6608E+01
      8.030  0.2851E+00  0.2472E+00  0.6845E+01  0.6641E+01
      8.153  0.2892E+00  0.2514E+00  0.6880E+01  0.6671E+01
      8.276  0.2953E+00  0.2664E+00  0.6916E+01  0.6704E+01
      8.398  0.3052E+00  0.2717E+00  0.6952E+01  0.6737E+01
      8.521  0.2854E+00  0.2759E+00  0.6989E+01  0.6771E+01
      8.644  0.2644E+00  0.2800E+00  0.7024E+01  0.6805E+01
      8.766  0.2608E+00  0.2843E+00  0.7056E+01  0.6840E+01
      8.889  0.2573E+00  0.3008E+00  0.7088E+01  0.6878E+01
      9.012  0.2540E+00  0.3102E+00  0.7119E+01  0.6915E+01
      9.134  0.2520E+00  0.3145E+00  0.7150E+01  0.6953E+01
      9.257  0.2489E+00  0.2746E+00  0.7181E+01  0.6991E+01
      9.379  0.2488E+00  0.2707E+00  0.7212E+01  0.7024E+01
      9.502  0.2415E+00  0.2670E+00  0.7242E+01  0.7057E+01
      9.625  0.2367E+00  0.2634E+00  0.7271E+01  0.7090E+01
      9.747  0.2357E+00  0.2600E+00  0.7300E+01  0.7122E+01
      9.870  0.2336E+00  0.2580E+00  0.7329E+01  0.7154E+01
      9.993  0.2307E+00  0.2549E+00  0.7357E+01  0.7185E+01
     10.115  0.2287E+00  0.2559E+00  0.7385E+01  0.7217E+01
     10.238  0.2266E+00  0.2480E+00  0.7413E+01  0.7248E+01
     10.360  0.2244E+00  0.2433E+00  0.7441E+01  0.7278E+01
     10.483  0.2222E+00  0.2419E+00  0.7468E+01  0.7307E+01
     10.606  0.2206E+00  0.2389E+00  0.7496E+01  0.7337E+01
     10.728  0.2191E+00  0.2358E+00  0.7523E+01  0.7366E+01
     10.851  0.2173E+00  0.2334E+00  0.7549E+01  0.7395E+01
     10.974  0.2236E+00  0.2310E+00  0.7577E+01  0.7423E+01
     11.096  0.2252E+00  0.2286E+00  0.7605E+01  0.7451E+01
     11.219  0.2293E+00  0.2269E+00  0.7633E+01  0.7479E+01
     11.342  0.2377E+00  0.2254E+00  0.7661E+01  0.7507E+01
     11.464  0.2688E+00  0.2238E+00  0.7692E+01  0.7535E+01
     11.587  0.2603E+00  0.2215E+00  0.7726E+01  0.7562E+01
     11.709  0.2717E+00  0.2192E+00  0.7759E+01  0.7589E+01
     11.832  0.2774E+00  0.2279E+00  0.7792E+01  0.7617E+01
     11.955  0.2864E+00  0.2341E+00  0.7827E+01  0.7645E+01
     12.077  0.2955E+00  0.2579E+00  0.7863E+01  0.7675E+01
     12.200  0.3045E+00  0.2751E+00  0.7899E+01  0.7707E+01
     12.323  0.3089E+00  0.2643E+00  0.7937E+01  0.7740E+01
     12.445  0.3185E+00  0.2934E+00  0.7975E+01  0.7775E+01
     12.568  0.3299E+00  0.2923E+00  0.8015E+01  0.7810E+01
     12.690  0.3260E+00  0.3030E+00  0.8056E+01  0.7847E+01
     12.813  0.3384E+00  0.3148E+00  0.8097E+01  0.7884E+01
     12.936  0.3511E+00  0.3235E+00  0.8139E+01  0.7923E+01
     13.058  0.3781E+00  0.3363E+00  0.8184E+01  0.7964E+01
     13.181  0.4072E+00  0.3515E+00  0.8233E+01  0.8006E+01
     13.304  0.4063E+00  0.3512E+00  0.8282E+01  0.8050E+01
     13.426  0.4287E+00  0.3669E+00  0.8333E+01  0.8094E+01
     13.549  0.4512E+00  0.3827E+00  0.8387E+01  0.8140E+01
     13.672  0.4458E+00  0.3985E+00  0.8442E+01  0.8188E+01
     13.794  0.4443E+00  0.4504E+00  0.8496E+01  0.8240E+01
     13.917  0.4442E+00  0.4515E+00  0.8551E+01  0.8295E+01
     14.039  0.4437E+00  0.4570E+00  0.8605E+01  0.8351E+01
     14.162  0.4592E+00  0.4727E+00  0.8661E+01  0.8408E+01
     14.285  0.4503E+00  0.4582E+00  0.8717E+01  0.8465E+01
     14.407  0.4305E+00  0.4540E+00  0.8771E+01  0.8522E+01
     14.530  0.3905E+00  0.4519E+00  0.8822E+01  0.8577E+01
     14.653  0.3257E+00  0.4552E+00  0.8866E+01  0.8632E+01
     14.775  0.2309E+00  0.4689E+00  0.8900E+01  0.8689E+01
     14.898  0.2201E+00  0.4514E+00  0.8928E+01  0.8746E+01
     15.020  0.2146E+00  0.4120E+00  0.8954E+01  0.8799E+01
     15.143  0.2101E+00  0.3485E+00  0.8981E+01  0.8846E+01
     15.266  0.2066E+00  0.2674E+00  0.9006E+01  0.8884E+01
     15.388  0.2041E+00  0.2239E+00  0.9031E+01  0.8912E+01
     15.511  0.1930E+00  0.2185E+00  0.9056E+01  0.8939E+01
     15.634  0.2180E+00  0.2139E+00  0.9082E+01  0.8966E+01
     15.756  0.1891E+00  0.2101E+00  0.9105E+01  0.8992E+01
     15.879  0.1920E+00  0.2071E+00  0.9129E+01  0.9018E+01
     16.002  0.1953E+00  0.2048E+00  0.9152E+01  0.9043E+01
     16.124  0.1840E+00  0.1939E+00  0.9176E+01  0.9067E+01
     16.247  0.1571E+00  0.2151E+00  0.9196E+01  0.9092E+01
     16.369  0.1591E+00  0.1853E+00  0.9215E+01  0.9117E+01
     16.492  0.1680E+00  0.2384E+00  0.9235E+01  0.9142E+01
     16.615  0.1718E+00  0.1592E+00  0.9256E+01  0.9168E+01
     16.737  0.1753E+00  0.1606E+00  0.9277E+01  0.9187E+01
     16.860  0.1785E+00  0.1622E+00  0.9299E+01  0.9207E+01
     16.983  0.1806E+00  0.1641E+00  0.9321E+01  0.9227E+01
     17.105  0.1957E+00  0.1725E+00  0.9344E+01  0.9247E+01
     17.228  0.2170E+00  0.1761E+00  0.9369E+01  0.9269E+01
     17.350  0.3578E+00  0.1796E+00  0.9400E+01  0.9291E+01
     17.473  0.4203E+00  0.1872E+00  0.9454E+01  0.9313E+01
     17.596  0.3238E+00  0.1983E+00  0.9499E+01  0.9337E+01
     17.718  0.2966E+00  0.2106E+00  0.9537E+01  0.9361E+01
     17.841  0.2803E+00  0.2349E+00  0.9572E+01  0.9389E+01
     17.964  0.2638E+00  0.3830E+00  0.9607E+01  0.9420E+01
     18.086  0.2540E+00  0.4132E+00  0.9639E+01  0.9480E+01
     18.209  0.2446E+00  0.3274E+00  0.9669E+01  0.9523E+01
     18.332  0.2801E+00  0.3046E+00  0.9703E+01  0.9562E+01
     18.454  0.2914E+00  0.2858E+00  0.9740E+01  0.9598E+01
     18.577  0.3025E+00  0.2658E+00  0.9776E+01  0.9634E+01
     18.699  0.3188E+00  0.2548E+00  0.9814E+01  0.9666E+01
     18.822  0.3415E+00  0.2479E+00  0.9855E+01  0.9696E+01
     18.945  0.4041E+00  0.3349E+00  0.9899E+01  0.9729E+01
     19.067  0.4091E+00  0.3103E+00  0.9949E+01  0.9770E+01
     19.190  0.4266E+00  0.3216E+00  0.1000E+02  0.9808E+01
     19.313  0.4429E+00  0.3417E+00  0.1005E+02  0.9849E+01
     19.435  0.4583E+00  0.3711E+00  0.1011E+02  0.9892E+01
     19.558  0.4815E+00  0.4120E+00  0.1017E+02  0.9944E+01
     19.680  0.4732E+00  0.4279E+00  0.1023E+02  0.9995E+01
     19.803  0.4664E+00  0.4428E+00  0.1028E+02  0.1005E+02
     19.926  0.4554E+00  0.4561E+00  0.1034E+02  0.1010E+02
     20.048  0.4373E+00  0.4730E+00  0.1039E+02  0.1016E+02
     20.171  0.4910E+00  0.4869E+00  0.1046E+02  0.1022E+02
     20.294  0.4437E+00  0.4688E+00  0.1052E+02  0.1028E+02
     20.416  0.3881E+00  0.5798E+00  0.1057E+02  0.1034E+02
     20.539  0.3378E+00  0.5019E+00  0.1061E+02  0.1040E+02
     20.662  0.3312E+00  0.4771E+00  0.1066E+02  0.1047E+02
     20.784  0.3444E+00  0.4435E+00  0.1070E+02  0.1052E+02
     20.907  0.3696E+00  0.4025E+00  0.1074E+02  0.1057E+02
     21.029  0.3518E+00  0.3565E+00  0.1079E+02  0.1062E+02
     21.152  0.3602E+00  0.3247E+00  0.1083E+02  0.1066E+02
     21.275  0.3619E+00  0.3625E+00  0.1087E+02  0.1070E+02
     21.397  0.3697E+00  0.3279E+00  0.1092E+02  0.1074E+02
     21.520  0.3805E+00  0.3413E+00  0.1096E+02  0.1079E+02
     21.643  0.3921E+00  0.3520E+00  0.1101E+02  0.1083E+02
     21.765  0.4023E+00  0.3592E+00  0.1106E+02  0.1087E+02
     21.888  0.4062E+00  0.3691E+00  0.1111E+02  0.1092E+02
     22.010  0.4205E+00  0.3816E+00  0.1116E+02  0.1096E+02
     22.133  0.4425E+00  0.3961E+00  0.1122E+02  0.1101E+02
     22.256  0.4286E+00  0.4125E+00  0.1127E+02  0.1106E+02
     22.378  0.3977E+00  0.4313E+00  0.1132E+02  0.1111E+02
     22.501  0.3168E+00  0.4568E+00  0.1136E+02  0.1117E+02
     22.624  0.3031E+00  0.4561E+00  0.1140E+02  0.1122E+02
     22.746  0.2913E+00  0.4301E+00  0.1144E+02  0.1128E+02
     22.869  0.2815E+00  0.3839E+00  0.1147E+02  0.1133E+02
     22.992  0.2755E+00  0.3244E+00  0.1151E+02  0.1137E+02
     23.114  0.2669E+00  0.3088E+00  0.1154E+02  0.1141E+02
     23.237  0.2590E+00  0.2973E+00  0.1157E+02  0.1145E+02
     23.359  0.2518E+00  0.2897E+00  0.1160E+02  0.1148E+02
     23.482  0.2380E+00  0.2803E+00  0.1163E+02  0.1152E+02
     23.605  0.2288E+00  0.2715E+00  0.1166E+02  0.1155E+02
     23.727  0.2197E+00  0.2630E+00  0.1169E+02  0.1158E+02
     23.850  0.2331E+00  0.2551E+00  0.1172E+02  0.1161E+02
     23.973  0.2312E+00  0.2413E+00  0.1175E+02  0.1165E+02
     24.095  0.1933E+00  0.2319E+00  0.1178E+02  0.1167E+02
     24.218  0.1707E+00  0.2362E+00  0.1180E+02  0.1170E+02
     24.340  0.1566E+00  0.2407E+00  0.1182E+02  0.1173E+02
     24.463  0.1436E+00  0.2359E+00  0.1184E+02  0.1176E+02
     24.586  0.1561E+00  0.1862E+00  0.1185E+02  0.1179E+02
     24.708  0.1321E+00  0.1704E+00  0.1187E+02  0.1181E+02
     24.831  0.1087E+00  0.1555E+00  0.1189E+02  0.1183E+02
     24.954  0.9773E-01  0.1418E+00  0.1190E+02  0.1185E+02
     25.076  0.8972E-01  0.1555E+00  0.1191E+02  0.1187E+02
     25.199  0.9168E-01  0.1285E+00  0.1192E+02  0.1188E+02
     25.322  0.6394E-01  0.1071E+00  0.1193E+02  0.1190E+02
     25.444  0.5819E-01  0.8277E-01  0.1194E+02  0.1191E+02
     25.567  0.5320E-01  0.7360E-01  0.1195E+02  0.1192E+02
     25.689  0.4898E-01  0.6635E-01  0.1195E+02  0.1193E+02
     25.812  0.4576E-01  0.6031E-01  0.1196E+02  0.1194E+02
     25.935  0.4301E-01  0.5570E-01  0.1196E+02  0.1194E+02
     26.057  0.4072E-01  0.5188E-01  0.1197E+02  0.1195E+02
     26.180  0.3888E-01  0.4854E-01  0.1197E+02  0.1196E+02
     26.303  0.2434E-01  0.4532E-01  0.1198E+02  0.1196E+02
     26.425  0.2252E-01  0.4221E-01  0.1198E+02  0.1197E+02
     26.548  0.2075E-01  0.3920E-01  0.1198E+02  0.1197E+02
     26.670  0.1903E-01  0.3630E-01  0.1199E+02  0.1198E+02
     26.793  0.1737E-01  0.2394E-01  0.1199E+02  0.1198E+02
     26.916  0.1576E-01  0.2188E-01  0.1199E+02  0.1198E+02
     27.038  0.1420E-01  0.1985E-01  0.1199E+02  0.1199E+02
     27.161  0.1269E-01  0.1786E-01  0.1199E+02  0.1199E+02
     27.284  0.1124E-01  0.1591E-01  0.1199E+02  0.1199E+02
     27.406  0.4130E-02  0.1399E-01  0.1200E+02  0.1199E+02
     27.529  0.3779E-02  0.5131E-02  0.1200E+02  0.1200E+02
     27.652  0.3440E-02  0.4718E-02  0.1200E+02  0.1200E+02
     27.774  0.3115E-02  0.4320E-02  0.1200E+02  0.1200E+02
     27.897  0.2803E-02  0.3938E-02  0.1200E+02  0.1200E+02
     28.019  0.2505E-02  0.3570E-02  0.1200E+02  0.1200E+02
     28.142  0.0000E+00  0.3218E-02  0.1200E+02  0.1200E+02
     28.265  0.0000E+00  0.2880E-02  0.1200E+02  0.1200E+02
     28.387  0.0000E+00  0.2558E-02  0.1200E+02  0.1200E+02
     28.510  0.0000E+00  0.0000E+00  0.1200E+02  0.1200E+02
     28.633  0.0000E+00  0.0000E+00  0.1200E+02  0.1200E+02
     28.755  0.0000E+00  0.0000E+00  0.1200E+02  0.1200E+02
     28.878  0.0000E+00  0.0000E+00  0.1200E+02  0.1200E+02
     29.000  0.0000E+00  0.0000E+00  0.1200E+02  0.1200E+02
     29.123  0.0000E+00  0.0000E+00  0.1200E+02  0.1200E+02
     29.246  0.0000E+00  0.0000E+00  0.1200E+02  0.1200E+02
     29.368  0.0000E+00  0.0000E+00  0.1200E+02  0.1200E+02
     29.491  0.0000E+00  0.0000E+00  0.1200E+02  0.1200E+02
     29.614  0.0000E+00  0.0000E+00  0.1200E+02  0.1200E+02
     29.736  0.0000E+00  0.0000E+00  0.1200E+02  0.1200E+02
     29.859  0.0000E+00  0.0000E+00  0.1200E+02  0.1200E+02
     29.982  0.0000E+00  0.0000E+00  0.1200E+02  0.1200E+02
     30.104  0.0000E+00  0.0000E+00  0.1200E+02  0.1200E+02
     30.227  0.0000E+00  0.0000E+00  0.1200E+02  0.1200E+02
     30.349  0.0000E+00  0.0000E+00  0.1200E+02  0.1200E+02
     30.472  0.0000E+00  0.0000E+00  0.1200E+02  0.1200E+02
     30.47205761     -6.31740974  301      1.36577533      1.00000000
     -6.317  0.0000E+00  0.0000E+00  0.0000E+00  0.0000E+00  0.0000E+00  0.0000E+00  0.0000E+00  0.0000E+00  0.0000E+00  0.0000E+00  0.0000E+00  0.0000E+00  0.0000E+00  0.0000E+00  0.0000E+00  0.0000E+00  0.0000E+00  0.0000E+00
     -6.195  0.0000E+00  0.0000E+00  0.0000E+00  0.0000E+00  0.0000E+00  0.0000E+00  0.0000E+00  0.0000E+00  0.0000E+00  0.0000E+00  0.0000E+00  0.0000E+00  0.0000E+00  0.0000E+00  0.0000E+00  0.0000E+00  0.0000E+00  0.0000E+00
     -6.072  0.0000E+00  0.0000E+00  0.0000E+00  0.0000E+00  0.0000E+00  0.0000E+00  0.0000E+00  0.0000E+00  0.0000E+00  0.0000E+00  0.0000E+00  0.0000E+00  0.0000E+00  0.0000E+00  0.0000E+00  0.0000E+00  0.0000E+00  0.0000E+00
     -5.950  0.0000E+00  0.0000E+00  0.0000E+00  0.0000E+00  0.0000E+00  0.0000E+00  0.0000E+00  0.0000E+00  0.0000E+00  0.0000E+00  0.0000E+00  0.0000E+00  0.0000E+00  0.0000E+00  0.0000E+00  0.0000E+00  0.0000E+00  0.0000E+00
     -5.827  0.0000E+00  0.0000E+00  0.0000E+00  0.0000E+00  0.0000E+00  0.0000E+00  0.0000E+00  0.0000E+00  0.0000E+00  0.0000E+00  0.0000E+00  0.0000E+00  0.0000E+00  0.0000E+00  0.0000E+00  0.0000E+00  0.0000E+00  0.0000E+00
     -5.704  0.0000E+00  0.0000E+00  0.0000E+00  0.0000E+00  0.0000E+00  0.0000E+00  0.0000E+00  0.0000E+00  0.0000E+00  0.0000E+00  0.0000E+00  0.0000E+00  0.0000E+00  0.0000E+00  0.0000E+00  0.0000E+00  0.0000E+00  0.0000E+00
     -5.582  0.0000E+00  0.0000E+00  0.0000E+00  0.0000E+00  0.0000E+00  0.0000E+00  0.0000E+00  0.0000E+00  0.0000E+00  0.0000E+00  0.0000E+00  0.0000E+00  0.0000E+00  0.0000E+00  0.0000E+00  0.0000E+00  0.0000E+00  0.0000E+00
     -5.459  0.0000E+00  0.0000E+00  0.0000E+00  0.0000E+00  0.0000E+00  0.0000E+00  0.0000E+00  0.0000E+00  0.0000E+00  0.0000E+00  0.0000E+00  0.0000E+00  0.0000E+00  0.0000E+00  0.0000E+00  0.0000E+00  0.0000E+00  0.0000E+00
     -5.336  0.0000E+00  0.0000E+00  0.0000E+00  0.0000E+00  0.0000E+00  0.0000E+00  0.0000E+00  0.0000E+00  0.0000E+00  0.0000E+00  0.0000E+00  0.0000E+00  0.0000E+00  0.0000E+00  0.0000E+00  0.0000E+00  0.0000E+00  0.0000E+00
     -5.214  0.0000E+00  0.0000E+00  0.0000E+00  0.0000E+00  0.0000E+00  0.0000E+00  0.0000E+00  0.0000E+00  0.0000E+00  0.0000E+00  0.0000E+00  0.0000E+00  0.0000E+00  0.0000E+00  0.0000E+00  0.0000E+00  0.0000E+00  0.0000E+00
     -5.091  0.0000E+00  0.0000E+00  0.0000E+00  0.0000E+00  0.0000E+00  0.0000E+00  0.0000E+00  0.0000E+00  0.0000E+00  0.0000E+00  0.0000E+00  0.0000E+00  0.0000E+00  0.0000E+00  0.0000E+00  0.0000E+00  0.0000E+00  0.0000E+00
     -4.968  0.0000E+00  0.0000E+00  0.0000E+00  0.0000E+00  0.0000E+00  0.0000E+00  0.0000E+00  0.0000E+00  0.0000E+00  0.0000E+00  0.0000E+00  0.0000E+00  0.0000E+00  0.0000E+00  0.0000E+00  0.0000E+00  0.0000E+00  0.0000E+00
     -4.846  0.0000E+00  0.0000E+00  0.0000E+00  0.0000E+00  0.0000E+00  0.0000E+00  0.0000E+00  0.0000E+00  0.0000E+00  0.0000E+00  0.0000E+00  0.0000E+00  0.0000E+00  0.0000E+00  0.0000E+00  0.0000E+00  0.0000E+00  0.0000E+00
     -4.723  0.0000E+00  0.0000E+00  0.0000E+00  0.0000E+00  0.0000E+00  0.0000E+00  0.0000E+00  0.0000E+00  0.0000E+00  0.0000E+00  0.0000E+00  0.0000E+00  0.0000E+00  0.0000E+00  0.0000E+00  0.0000E+00  0.0000E+00  0.0000E+00
     -4.601  0.0000E+00  0.0000E+00  0.0000E+00  0.0000E+00  0.0000E+00  0.0000E+00  0.0000E+00  0.0000E+00  0.0000E+00  0.0000E+00  0.0000E+00  0.0000E+00  0.0000E+00  0.0000E+00  0.0000E+00  0.0000E+00  0.0000E+00  0.0000E+00
     -4.478  0.0000E+00  0.0000E+00  0.0000E+00  0.0000E+00  0.0000E+00  0.0000E+00  0.0000E+00  0.0000E+00  0.0000E+00  0.0000E+00  0.0000E+00  0.0000E+00  0.0000E+00  0.0000E+00  0.0000E+00  0.0000E+00  0.0000E+00  0.0000E+00
     -4.355  0.0000E+00  0.0000E+00  0.0000E+00  0.0000E+00  0.0000E+00  0.0000E+00  0.0000E+00  0.0000E+00  0.0000E+00  0.0000E+00  0.0000E+00  0.0000E+00  0.0000E+00  0.0000E+00  0.0000E+00  0.0000E+00  0.0000E+00  0.0000E+00
     -4.233  0.8732E-02  0.0000E+00  0.6696E-04  0.0000E+00  0.4372E-04  0.0000E+00  0.2484E-03  0.0000E+00  0.3682E-04  0.0000E+00  0.1050E-04  0.0000E+00  0.1274E-04  0.0000E+00  0.9119E-05  0.0000E+00  0.1533E-04  0.0000E+00
     -4.110  0.1236E-01  0.0000E+00  0.1268E-03  0.0000E+00  0.7491E-04  0.0000E+00  0.4228E-03  0.0000E+00  0.8005E-04  0.0000E+00  0.2642E-04  0.0000E+00  0.2978E-04  0.0000E+00  0.1816E-04  0.0000E+00  0.3816E-04  0.0000E+00
     -3.987  0.1513E-01  0.6125E-02  0.1882E-03  0.3508E-04  0.9900E-04  0.2362E-04  0.6169E-03  0.1594E-03  0.1346E-03  0.6749E-05  0.4922E-04  0.1984E-05  0.5349E-04  0.2436E-05  0.2831E-04  0.1967E-05  0.7257E-04  0.3311E-05
     -3.865  0.1850E-01  0.9991E-02  0.2809E-03  0.9348E-04  0.1405E-03  0.5804E-04  0.8787E-03  0.3184E-03  0.2181E-03  0.1998E-04  0.1007E-03  0.6213E-05  0.8951E-04  0.7214E-05  0.4711E-04  0.5198E-05  0.1252E-03  0.9283E-05
     -3.742  0.2224E-01  0.1302E-01  0.4085E-03  0.1535E-03  0.2170E-03  0.8578E-04  0.1169E-02  0.4958E-03  0.3552E-03  0.3672E-04  0.2188E-03  0.1200E-04  0.1470E-03  0.1416E-04  0.9250E-04  0.8452E-05  0.2053E-03  0.1884E-04
     -3.620  0.2463E-01  0.1522E-01  0.5396E-03  0.2152E-03  0.3076E-03  0.1068E-03  0.1421E-02  0.6916E-03  0.5353E-03  0.5696E-04  0.3928E-03  0.1935E-04  0.2231E-03  0.2326E-04  0.1624E-03  0.1173E-04  0.3089E-03  0.3198E-04
     -3.497  0.2391E-01  0.1905E-01  0.6571E-03  0.3328E-03  0.4234E-03  0.1694E-03  0.1650E-02  0.9795E-03  0.8273E-03  0.9137E-04  0.6584E-03  0.4204E-04  0.3788E-03  0.3743E-04  0.2953E-03  0.2087E-04  0.5542E-03  0.5260E-04
     -3.374  0.2589E-01  0.2189E-01  0.7715E-03  0.4600E-03  0.5132E-03  0.2503E-03  0.1943E-02  0.1241E-02  0.1301E-02  0.1340E-03  0.8695E-03  0.7930E-04  0.6264E-03  0.5461E-04  0.4257E-03  0.3614E-04  0.7984E-03  0.7864E-04
     -3.252  0.2798E-01  0.2344E-01  0.8896E-03  0.5908E-03  0.6059E-03  0.3452E-03  0.2270E-02  0.1465E-02  0.1873E-02  0.1839E-03  0.1128E-02  0.1302E-03  0.9341E-03  0.7449E-04  0.5889E-03  0.5716E-04  0.1088E-02  0.1097E-03
     -3.129  0.3018E-01  0.2238E-01  0.1011E-02  0.6979E-03  0.7015E-03  0.4557E-03  0.2629E-02  0.1676E-02  0.2545E-02  0.2573E-03  0.1432E-02  0.1957E-03  0.1302E-02  0.1134E-03  0.7849E-03  0.9265E-04  0.1423E-02  0.1825E-03
     -3.006  0.3248E-01  0.2394E-01  0.1136E-02  0.8120E-03  0.7999E-03  0.5415E-03  0.3023E-02  0.1952E-02  0.3315E-02  0.3575E-03  0.1784E-02  0.2461E-03  0.1729E-02  0.1606E-03  0.1014E-02  0.1242E-03  0.1804E-02  0.2453E-03
     -2.884  0.3490E-01  0.2555E-01  0.1265E-02  0.9299E-03  0.9012E-03  0.6300E-03  0.3449E-02  0.2256E-02  0.4184E-02  0.4740E-03  0.2183E-02  0.3040E-03  0.2217E-02  0.2161E-03  0.1275E-02  0.1615E-03  0.2230E-02  0.3171E-03
     -2.761  0.3736E-01  0.2722E-01  0.1458E-02  0.1051E-02  0.1105E-02  0.7212E-03  0.3964E-02  0.2588E-02  0.5851E-02  0.6067E-03  0.3740E-02  0.3692E-03  0.3295E-02  0.2800E-03  0.2112E-02  0.2046E-03  0.2971E-02  0.3979E-03
     -2.638  0.4050E-01  0.2895E-01  0.1681E-02  0.1177E-02  0.1344E-02  0.8151E-03  0.4623E-02  0.2947E-02  0.8369E-02  0.7557E-03  0.5972E-02  0.4418E-03  0.5042E-02  0.3523E-03  0.3079E-02  0.2535E-03  0.4279E-02  0.4878E-03
     -2.516  0.4304E-01  0.3074E-01  0.1852E-02  0.1306E-02  0.1558E-02  0.9117E-03  0.5351E-02  0.3334E-02  0.1163E-01  0.9210E-03  0.8656E-02  0.5217E-03  0.7458E-02  0.4330E-03  0.4203E-02  0.3081E-03  0.6131E-02  0.5867E-03
     -2.393  0.4555E-01  0.3153E-01  0.1971E-02  0.1433E-02  0.1719E-02  0.1047E-02  0.6174E-02  0.3722E-02  0.1671E-01  0.1176E-02  0.1192E-01  0.7175E-03  0.1114E-01  0.5663E-03  0.5502E-02  0.4327E-03  0.8605E-02  0.7142E-03
     -2.271  0.4984E-01  0.3274E-01  0.2148E-02  0.1606E-02  0.1891E-02  0.1223E-02  0.7196E-02  0.4157E-02  0.2519E-01  0.1520E-02  0.1667E-01  0.1008E-02  0.1696E-01  0.7556E-03  0.6986E-02  0.5670E-03  0.1178E-01  0.9118E-03
     -2.148  0.5524E-01  0.3359E-01  0.2346E-02  0.1761E-02  0.2078E-02  0.1400E-02  0.8382E-02  0.4592E-02  0.3823E-01  0.1906E-02  0.2341E-01  0.1340E-02  0.2588E-01  0.9843E-03  0.8769E-02  0.7121E-03  0.1577E-01  0.1169E-02
     -2.025  0.6145E-01  0.3392E-01  0.2552E-02  0.1869E-02  0.2284E-02  0.1551E-02  0.9708E-02  0.4997E-02  0.5539E-01  0.2352E-02  0.3198E-01  0.1697E-02  0.3769E-01  0.1261E-02  0.1087E-01  0.8685E-03  0.2056E-01  0.1481E-02
     -1.903  0.9350E-01  0.3436E-01  0.3253E-02  0.1970E-02  0.3317E-02  0.1689E-02  0.1309E-01  0.5405E-02  0.1656E+00  0.2910E-02  0.1188E+00  0.2078E-02  0.1126E+00  0.1594E-02  0.1663E-01  0.1035E-02  0.4975E-01  0.1824E-02
     -1.780  0.9741E-01  0.3511E-01  0.3209E-02  0.2085E-02  0.4368E-02  0.1830E-02  0.1844E-01  0.5835E-02  0.2176E+00  0.3580E-02  0.1661E+00  0.2489E-02  0.1774E+00  0.1984E-02  0.3801E-01  0.1210E-02  0.8074E-01  0.2195E-02
     -1.657  0.8109E-01  0.3637E-01  0.2849E-02  0.2220E-02  0.3874E-02  0.1965E-02  0.2101E-01  0.6318E-02  0.2455E+00  0.4476E-02  0.1864E+00  0.2957E-02  0.3978E+00  0.2481E-02  0.6348E-01  0.1389E-02  0.2394E+00  0.2598E-02
     -1.535  0.6355E-01  0.3772E-01  0.3763E-02  0.2359E-02  0.3617E-02  0.2103E-02  0.2599E-01  0.6834E-02  0.2747E+00  0.5532E-02  0.2485E+00  0.3493E-02  0.6824E+00  0.3065E-02  0.1133E+00  0.1585E-02  0.3842E+00  0.3036E-02
     -1.412  0.7831E-02  0.3918E-01  0.2190E-02  0.2502E-02  0.9411E-03  0.2244E-02  0.5752E-02  0.7384E-02  0.3776E-01  0.6749E-02  0.1427E+00  0.4097E-02  0.8594E-01  0.3737E-02  0.2617E-01  0.1797E-02  0.2555E+00  0.3511E-02
     -1.290  0.1226E-02  0.4072E-01  0.1954E-01  0.2648E-02  0.1319E-01  0.2387E-02  0.1138E-01  0.7967E-02  0.9275E+00  0.8127E-02  0.5150E+00  0.4768E-02  0.3837E+00  0.4496E-02  0.1612E+01  0.2027E-02  0.6184E+00  0.4023E-02
     -1.167  0.3727E-02  0.4237E-01  0.9413E-02  0.2798E-02  0.6066E-02  0.2532E-02  0.6649E-02  0.8584E-02  0.3781E+00  0.9665E-02  0.4201E+00  0.5507E-02  0.3861E+00  0.5343E-02  0.8847E+00  0.2274E-02  0.4662E+00  0.4570E-02
     -1.044  0.1430E-01  0.4321E-01  0.1105E-01  0.2925E-02  0.1211E-01  0.2715E-02  0.7859E-02  0.9411E-02  0.4981E+00  0.1164E-01  0.4928E+00  0.7353E-02  0.1339E+00  0.6752E-02  0.5904E+00  0.2849E-02  0.1995E+00  0.5995E-02
     -0.922  0.3304E-01  0.4440E-01  0.2546E-01  0.3062E-02  0.2060E-01  0.2937E-02  0.2585E-01  0.1020E-01  0.7664E+00  0.1408E-01  0.9183E+00  0.9845E-02  0.2279E+00  0.8510E-02  0.8670E+00  0.3585E-02  0.6781E+00  0.7502E-02
     -0.799  0.1504E-01  0.4700E-01  0.1126E-01  0.3305E-02  0.9957E-02  0.3277E-02  0.6877E-02  0.1112E-01  0.2372E+00  0.1795E-01  0.3225E+00  0.1381E-01  0.1199E+00  0.1116E-01  0.3042E+00  0.4451E-02  0.3212E+00  0.9531E-02
     -0.676  0.9262E-02  0.5000E-01  0.7447E-02  0.3541E-02  0.6270E-02  0.3611E-02  0.4085E-02  0.1211E-01  0.2577E+00  0.2290E-01  0.3636E+00  0.1896E-01  0.2703E+00  0.1455E-01  0.3444E+00  0.5418E-02  0.3230E+00  0.1196E-01
     -0.554  0.9423E-02  0.5339E-01  0.8361E-02  0.3719E-02  0.4149E-02  0.3871E-02  0.3401E-02  0.1320E-01  0.1134E+01  0.2988E-01  0.3050E+00  0.2485E-01  0.1301E+01  0.1931E-01  0.4291E+00  0.6503E-02  0.6986E+00  0.1469E-01
     -0.431  0.1412E-01  0.5909E-01  0.6065E-02  0.3931E-02  0.4463E-02  0.4092E-02  0.3876E-02  0.1479E-01  0.9777E+00  0.4158E-01  0.6089E+00  0.3190E-01  0.2350E+01  0.2691E-01  0.5650E+00  0.7926E-02  0.2240E+01  0.1803E-01
     -0.308  0.2031E-01  0.6369E-01  0.5552E-02  0.3935E-02  0.4444E-02  0.4170E-02  0.6614E-02  0.1609E-01  0.3694E+00  0.5495E-01  0.7119E+00  0.4068E-01  0.5808E+00  0.3602E-01  0.5651E+00  0.9608E-02  0.6281E+00  0.2162E-01
     -0.186  0.1571E-01  0.6173E-01  0.4699E-02  0.3784E-02  0.3239E-02  0.4252E-02  0.6520E-02  0.1647E-01  0.2105E+00  0.5836E-01  0.7759E+00  0.4405E-01  0.1522E+00  0.4037E-01  0.5500E+00  0.1147E-01  0.2604E+00  0.2365E-01