    1    1    1    2
  0.2143750E+02  0.3031089E-09  0.3031089E-09  0.3031089E-09  0.5000000E-15
  1.000000000000000E-004
  CAR 
 Fe BCC                                  
      8     26     12
 
  0.6250000E-01  0.6250000E-01  0.6250000E-01  0.1562500E-01
    1       -3.923850     -3.606982   1.000000   1.000000
    2       -1.015759      1.417900   1.000000   0.214486
    3       -1.015759      1.417900   1.000000   0.107934
    4       -0.718733      1.793853   1.000000   0.000000
    5       -0.491708      2.287598   1.000000   0.000000
    6       -0.491708      2.287598   1.000000   0.000000
    7       15.579275     16.128713   0.000000   0.000000
    8       15.645075     16.128713   0.000000   0.000000
    9       15.645075     16.381089   0.000000   0.000000
   10       20.449008     20.420727   0.000000   0.000000
   11       20.578343     21.153064   0.000000   0.000000
   12       20.578343     21.153064   0.000000   0.000000
 
  0.1875000E+00  0.6250000E-01  0.6250000E-01  0.4687500E-01
    1       -2.852049     -2.467523   1.000000   1.000000
    2       -1.158226      1.211586   1.000000   1.053460
    3       -1.049928      1.276366   1.000000   0.964179
    4       -0.519743      2.226167   1.000000   0.000000
    5       -0.455504      2.247468   1.000000   0.000000
    6       -0.305192      2.344763   1.004658   0.000000
    7       10.862797     11.568974   0.000000   0.000000
    8       13.572521     14.262634   0.000000   0.000000
    9       13.829420     14.334624   0.000000   0.000000
   10       19.712408     20.030104   0.000000   0.000000
   11       20.268382     20.869005   0.000000   0.000000
   12       21.930475     22.358370   0.000000   0.000000
 
  0.3125000E+00  0.6250000E-01  0.6250000E-01  0.4687500E-01
    1       -1.948231     -0.911864   1.000000   1.000000
    2       -1.285097      1.027927   1.000000   1.000268
    3       -0.611339      1.230303   1.000000   0.990231
    4       -0.471674      2.261200   1.000000   0.000000
    5       -0.428705      2.392700   1.000000   0.000000
    6        0.528895      2.806126   0.928290   0.000000
    7        6.690223      7.601820   0.000000   0.000000
    8       12.192015     12.839776   0.000000   0.000000
    9       12.688280     13.181422   0.000000   0.000000
   10       18.837861     19.273469   0.000000   0.000000
   11       19.702681     20.340187   0.000000   0.000000
   12       24.118706     24.586209   0.000000   0.000000
 
  0.4375000E+00  0.6250000E-01  0.6250000E-01  0.2343750E-01
    1       -1.856415     -0.158852   1.000000   1.000000
    2       -1.334827      0.956218   1.000000   1.000000
    3       -0.459238      1.574655   1.000000   0.196028
    4       -0.418716      2.280423   1.000000   0.000000
    5       -0.226276      2.412126   1.000000   0.000000
    6        2.159684      3.315758   0.002472   0.000000
    7        3.946585      5.397012   0.000000   0.000000
    8       11.690113     12.304583   0.000000   0.000000
    9       12.296495     12.779471   0.000000   0.000000
   10       18.543788     19.013527   0.000000   0.000000
   11       19.519751     20.180420   0.000000   0.000000
   12       25.697583     25.843618   0.000000   0.000000
 
 -0.6250000E-01  0.6250000E-01  0.6250000E-01  0.1171875E-01
    1       -4.317410     -4.005667   1.000000   1.000000
    2       -0.947902      1.515099   1.000000  -0.031450
    3       -0.947902      1.515099   1.000000  -0.010610
    4       -0.917093      1.561973   1.000000   0.000000
    5       -0.513298      2.256523   1.000000   0.000000
    6       -0.450433      2.349975   1.000000   0.000000
    7       17.903890     18.365615   0.000000   0.000000
    8       17.903890     18.541600   0.000000   0.000000
    9       18.215856     18.541600   0.000000   0.000000
   10       18.230374     18.911600   0.000000   0.000000
   11       20.051644     20.360967   0.000000   0.000000
   12       20.051644     20.360967   0.000000   0.000000
 
  0.1875000E+00  0.1875000E+00  0.6250000E-01  0.4687500E-01
    1       -1.841205     -1.123071   1.000000   1.000000
    2       -1.224505      1.026832   1.000000   1.001006
    3       -1.156140      1.069030   1.000000   1.020673
    4       -0.494467      2.260082   1.000000   0.000000
    5       -0.417265      2.389641   1.000000   0.000000
    6        0.531098      2.877171   0.916821   0.000000
    7        9.057762      9.761697   0.000000   0.000000
    8        9.503480     10.243253   0.000000   0.000000
    9       12.216540     12.818144   0.000000   0.000000
   10       21.019537     21.289040   0.000000   0.000000
   11       21.947164     22.558215   0.000000   0.000000
   12       23.769818     24.212985   0.000000   0.000000
 
  0.3125000E+00  0.1875000E+00  0.6250000E-01  0.9375000E-01
    1       -1.582527      0.108179   1.000000   1.000000
    2       -1.295855      0.914224   1.000000   1.000000
    3       -0.817945      1.074962   1.000000   1.020573
    4       -0.448298      2.311223   1.000000   0.000000
    5       -0.375849      2.417989   1.000000   0.000000
    6        2.359393      3.890291   0.008945   0.000000
    7        5.497494      6.473546   0.000000   0.000000
    8        8.454275      9.173968   0.000000   0.000000
    9       11.439783     12.045142   0.000000   0.000000
   10       20.818787     21.203191   0.000000   0.000000
   11       23.463994     23.932577   0.000000   0.000000
   12       24.039575     24.476999   0.000000   0.000000
 
 -0.1875000E+00  0.1875000E+00  0.6250000E-01  0.4687500E-01
    1       -3.544019     -3.216093   1.000000   1.000000
    2       -1.039000      1.384216   1.000000   0.469738
    3       -0.947186      1.466775   1.000000   0.008250
    4       -0.678589      1.852582   1.000000   0.000000
    5       -0.596816      2.121628   1.000000   0.000000
    6       -0.419810      2.387059   1.000000   0.000000
    7       13.124631     13.774423   0.000000   0.000000
    8       15.584342     16.305572   0.000000   0.000000
    9       16.157292     16.571717   0.000000   0.000000
   10       18.449527     18.984175   0.000000   0.000000
   11       18.989157     19.465087   0.000000   0.000000
   12       20.079183     20.432130   0.000000   0.000000
 
  0.3125000E+00  0.3125000E+00  0.6250000E-01  0.1562500E-01
    1       -1.459207      0.622299   1.000000   1.000000
    2       -1.098836      0.897901   1.000000   1.000000
    3       -1.098836      0.897901   1.000000   1.002910
    4       -0.396501      2.382209   1.000000   0.000000
    5       -0.396501      2.382209   1.000000   0.000000
    6        4.996139      5.993349  -0.009391   0.000000
    7        4.996139      5.993349   0.000000   0.000000
    8        5.184319      6.143247   0.000000   0.000000
    9       11.090447     11.718557   0.000000   0.000000
   10       22.773313     23.038722   0.000000   0.000000
   11       22.773313     23.038722   0.000000   0.000000
   12       24.635636     25.514787   0.000000   0.000000
 
 -0.3125000E+00  0.3125000E+00  0.6250000E-01  0.4687500E-01
    1       -2.350353     -1.782446   1.000000   1.000000
    2       -1.179145      1.186135   1.000000   1.022101
    3       -0.824997      1.315489   1.000000   0.839007
    4       -0.523421      2.145019   1.000000   0.000000
    5       -0.315647      2.334008   1.000000   0.000000
    6       -0.296267      2.422674   1.027844   0.000000
    7        8.611308      9.414466   0.000000   0.000000
    8       13.733115     14.420825   0.000000   0.000000
    9       14.589030     14.963867   0.000000   0.000000
   10       17.870525     18.458396   0.000000   0.000000
   11       18.430850     18.999996   0.000000   0.000000
   12       21.010136     21.447701   0.000000   0.000000
 
 -0.1875000E+00  0.3125000E+00  0.6250000E-01  0.4687500E-01
    1       -2.539164     -2.105905   1.000000   1.000000
    2       -1.072014      1.295946   1.000000   0.971293
    3       -1.021857      1.334211   1.000000   0.681897
    4       -0.645472      2.014626   1.000000   0.000000
    5       -0.407191      2.219381   1.000000   0.000000
    6       -0.236714      2.459606   1.014974   0.000000
    7       11.060559     11.759304   0.000000   0.000000
    8       11.337317     12.022667   0.000000   0.000000
    9       15.897016     16.463077   0.000000   0.000000
   10       17.226004     17.639803   0.000000   0.000000
   11       18.907882     19.494198   0.000000   0.000000
   12       22.426463     22.812106   0.000000   0.000000
 
 -0.4375000E+00  0.4375000E+00  0.6250000E-01  0.4687500E-01
    1       -1.923245     -0.417709   1.000000   1.000000
    2       -1.276701      1.049672   1.000000   1.000000
    3       -0.575101      1.493189   1.000000   0.131774
    4       -0.479607      2.217774   1.000000   0.000000
    5        0.001580      2.611098   1.000000   0.000000
    6        1.150516      2.723832   0.625980   0.000000
    7        4.872359      6.056058   0.000000   0.000000
    8       12.676716     13.294981   0.000000   0.000000
    9       13.757074     14.096964   0.000000   0.000000
   10       17.329296     17.980577   0.000000   0.000000
   11       18.292211     18.929723   0.000000   0.000000
   12       22.898522     23.271802   0.000000   0.000000
 
 -0.3125000E+00  0.4375000E+00  0.6250000E-01  0.9375000E-01
    1       -1.759079     -0.615856   1.000000   1.000000
    2       -1.190517      1.077921   1.000000   1.002221
    3       -0.916357      1.237068   1.000000   0.971358
    4       -0.540326      2.114913   1.000000   0.000000
    5       -0.251100      2.448091   1.000000   0.000000
    6        0.859129      2.936471   0.739388   0.000000
    7        7.024359      7.891475   0.000000   0.000000
    8        9.956085     10.647603   0.000000   0.000000
    9       14.780981     15.269096   0.000000   0.000000
   10       17.419667     17.949247   0.000000   0.000000
   11       19.589377     20.145364   0.000000   0.000000
   12       22.486882     22.973566   0.000000   0.000000
 
 -0.4375000E+00 -0.4375000E+00  0.6250000E-01  0.4687500E-01
    1       -1.696150      0.104115   1.000000   1.000000
    2       -1.212727      1.092226   1.000000   1.000000
    3       -0.828613      1.203411   1.000000   1.011247
    4       -0.511693      2.160002   1.000000   0.000000
    5       -0.101522      2.573483   1.000000   0.000000
    6        2.790288      3.845895  -0.077690   0.000000
    7        4.126923      5.480397   0.000000   0.000000
    8        9.503118     10.175748   0.000000   0.000000
    9       14.334185     14.795667   0.000000   0.000000
   10       17.385810     17.990105   0.000000   0.000000
   11       21.393737     21.696335   0.000000   0.000000
   12       21.647433     22.307797   0.000000   0.000000
 
 -0.3125000E+00 -0.4375000E+00  0.6250000E-01  0.4687500E-01
    1       -1.426810      0.441382   1.000000   1.000000
    2       -1.255777      0.879514   1.000000   1.000000
    3       -1.051260      1.100006   1.000000   1.064949
    4       -0.429414      2.238258   1.000000   0.000000
    5       -0.258527      2.426375   1.000000   0.000000
    6        3.079427      4.386401  -0.041326   0.000000
    7        6.116986      6.962461   0.000000   0.000000
    8        6.256705      7.172337   0.000000   0.000000
    9       14.732304     15.285519   0.000000   0.000000
   10       18.314966     18.702161   0.000000   0.000000
   11       19.381630     19.891610   0.000000   0.000000
   12       21.900716     22.593275   0.000000   0.000000
 
  0.1875000E+00  0.1875000E+00  0.1875000E+00  0.1562500E-01
    1       -1.294971      0.129670   1.000000   1.000000
    2       -1.294971      0.871999   1.000000   1.000000
    3       -1.196347      0.871999   1.000000   1.003297
    4       -0.425649      2.388888   1.000000   0.000000
    5       -0.425649      2.388888   1.000000   0.000000
    6        2.136670      3.857554   0.067611   0.000000
    7        7.627591      8.279260   0.000000   0.000000
    8        8.364578      9.142898   0.000000   0.000000
    9        8.364578      9.142898   0.000000   0.000000
   10       25.023168     25.001812   0.000000   0.000000
   11       25.773528     26.087052   0.000000   0.000000
   12       25.773528     26.087052   0.000000   0.000000
 
  0.3125000E+00  0.1875000E+00  0.1875000E+00  0.2343750E-01
    1       -1.329195      0.628752   1.000000   1.000000
    2       -1.310426      0.825226   1.000000   1.000000
    3       -0.997344      0.930431   1.000000   1.005134
    4       -0.414396      2.401006   1.000000   0.000000
    5       -0.410790      2.424224   1.000000   0.000000
    6        4.546950      5.573452  -0.011268   0.000000
    7        4.839114      5.872419   0.000000   0.000000
    8        7.494275      8.213210   0.000000   0.000000
    9        7.978567      8.770735   0.000000   0.000000
   10       25.217329     25.382800   0.000000   0.000000
   11       26.217072     26.730279   0.000000   0.000000
   12       27.331683     27.499128   0.000000   0.000000
 
 -0.1875000E+00  0.1875000E+00  0.1875000E+00  0.1171875E-01
    1       -2.828841     -2.458018   1.000000   1.000000
    2       -0.868806      1.563617   1.000000  -0.037109
    3       -0.868806      1.563617   1.000000  -0.126277
    4       -0.848436      1.755775   1.000000   0.000000
    5       -0.671708      1.870941   1.000000   0.000000
    6       -0.285859      2.484387   1.005661   0.000000
    7       13.307046     14.027445   0.000000   0.000000
    8       13.307046     14.027445   0.000000   0.000000
    9       14.251511     14.856062   0.000000   0.000000
   10       14.605333     15.009412   0.000000   0.000000
   11       21.968336     22.331240   0.000000   0.000000
   12       21.968336     22.331240   0.000000   0.000000
 
 -0.3125000E+00  0.3125000E+00  0.1875000E+00  0.4687500E-01
    1       -1.866895     -1.120190   1.000000   1.000000
    2       -1.107537      1.265256   1.000000   0.989180
    3       -0.914944      1.495916   1.000000  -0.001246
    4       -0.659908      1.859596   1.000000   0.000000
    5       -0.336707      2.282461   1.000000   0.000000
    6        0.233922      2.614840   1.004440   0.000000
    7        9.265046     10.022164   0.000000   0.000000
    8       11.525213     12.217226   0.000000   0.000000
    9       13.159438     13.731937   0.000000   0.000000
   10       15.454681     16.011171   0.000000   0.000000
   11       21.178518     21.719074   0.000000   0.000000
   12       22.092530     22.551373   0.000000   0.000000
 
 -0.4375000E+00  0.4375000E+00  0.1875000E+00  0.4687500E-01
    1       -1.629650      0.086373   1.000000   1.000000
    2       -1.101238      1.008506   1.000000   1.000000
    3       -0.985965      1.397994   1.000000   0.304799
    4       -0.593343      1.975688   1.000000   0.000000
    5       -0.027223      2.686447   1.000000   0.000000
    6        2.153240      3.491368   0.044788   0.000000
    7        5.464846      6.472259   0.000000   0.000000
    8       10.520987     11.155169   0.000000   0.000000
    9       12.530966     13.128925   0.000000   0.000000
   10       17.599581     18.139091   0.000000   0.000000
   11       20.335835     20.881236   0.000000   0.000000
   12       20.529438     21.102564   0.000000   0.000000
 
 -0.3125000E+00  0.4375000E+00  0.1875000E+00  0.4687500E-01
    1       -1.477864      0.044085   1.000000   1.000000
    2       -1.336984      0.947668   1.000000   1.002404
    3       -0.872998      1.518477   1.000000   0.036031
    4       -0.514407      2.029819   1.000000   0.000000
    5       -0.179615      2.473152   1.000000   0.000000
    6        1.843099      3.391241   0.147421   0.000000
    7        7.880611      8.614951   0.000000   0.000000
    8        8.125618      8.913064   0.000000   0.000000
    9       14.220020     14.864109   0.000000   0.000000
   10       14.601889     15.140657   0.000000   0.000000
   11       19.981889     20.526343   0.000000   0.000000
   12       21.254677     21.824608   0.000000   0.000000
 
 -0.4375000E+00 -0.4375000E+00  0.1875000E+00  0.4687500E-01
    1       -1.480762      0.602206   1.000000   1.000000
    2       -1.315514      0.779222   1.000000   1.000000
    3       -0.952674      1.372168   1.000000   0.354830
    4       -0.402920      2.170384   1.000000   0.000000
    5       -0.089117      2.591353   1.000000   0.000000
    6        4.282920      5.187009  -0.025111   0.000000
    7        4.795633      5.859890   0.000000   0.000000
    8        7.544942      8.284765   0.000000   0.000000
    9       14.039681     14.649241   0.000000   0.000000
   10       16.922139     17.414366   0.000000   0.000000
   11       16.974334     17.609051   0.000000   0.000000
   12       20.762822     21.345986   0.000000   0.000000
 
 -0.3125000E+00  0.3125000E+00  0.3125000E+00  0.1171875E-01
    1       -1.557568     -0.148201   1.000000   1.000000
    2       -1.352811      1.011082   1.000000   1.013422
    3       -0.561461      1.914149   1.000000  -0.023762
    4       -0.561461      1.914149   1.000000   0.000000
    5       -0.325179      2.310128   1.000000   0.000000
    6        1.408676      3.031901   0.333309   0.000000
    7        9.695203     10.341742   0.000000   0.000000
    8        9.695203     10.341742   0.000000   0.000000
    9       11.817469     12.550002   0.000000   0.000000
   10       12.431040     13.118778   0.000000   0.000000
   11       20.097105     20.678479   0.000000   0.000000
   12       25.082031     25.604121   0.000000   0.000000
 
 -0.4375000E+00  0.4375000E+00  0.3125000E+00  0.4687500E-01
    1       -1.575214      0.444515   1.000000   1.000000
    2       -1.518002      0.695454   1.000000   1.000000
    3       -0.513787      1.994995   1.000000  -0.033540
    4       -0.407577      2.098351   1.000000   0.000000
    5       -0.067148      2.635041   1.000000   0.000000
    6        3.625591      4.589095  -0.021106   0.000000
    7        6.680385      7.420143   0.000000   0.000000
    8        8.643253      9.208538   0.000000   0.000000
    9       11.605353     12.408224   0.000000   0.000000
   10       13.578355     14.249687   0.000000   0.000000
   11       16.456268     17.083612   0.000000   0.000000
   12       24.541142     25.034419   0.000000   0.000000
 
 -0.4375000E+00 -0.4375000E+00  0.3125000E+00  0.1562500E-01
    1       -1.623930      0.544094   1.000000   1.000000
    2       -1.623930      0.544094   1.000000   1.000000
    3       -0.472419      2.011425   1.000000  -0.020223
    4       -0.116125      2.549186   1.000000   0.000000
    5       -0.116125      2.549186   1.000000   0.000000
    6        6.174403      6.871240   0.000000   0.000000
    7        6.195401      6.871240   0.000000   0.000000
    8        6.195401      6.881803   0.000000   0.000000
    9       13.045585     13.891973   0.000000   0.000000
   10       13.368198     14.014757   0.000000   0.000000
   11       13.368198     14.014757   0.000000   0.000000
   12       24.763610     25.237578   0.000000   0.000000
 
 -0.4375000E+00  0.4375000E+00  0.4375000E+00  0.1171875E-01
    1       -1.726092      0.418428   1.000000   1.000000
    2       -1.725902      0.473076   1.000000   1.000000
    3       -0.130484      2.527344   1.000000   0.000000
    4       -0.130484      2.527344   1.000000   0.000000
    5       -0.081066      2.621257   1.000000   0.000000
    6        5.671402      6.273167   0.000000   0.000000
    7        7.534979      7.974536   0.000000   0.000000
    8        7.534979      7.974536   0.000000   0.000000
    9       10.876161     11.809096   0.000000   0.000000
   10       11.472648     12.345541   0.000000   0.000000
   11       13.009066     13.745562   0.000000   0.000000
   12       28.128567     28.472058   0.000000   0.000000
