       N       E                     dE             d eps       ncg     rms          rms(c)
DAV:   1     0.184705789829E+02    0.18471E+02   -0.33045E+03  1304   0.616E+02
DAV:   2    -0.725841432583E+01   -0.25729E+02   -0.23127E+02  1284   0.105E+02
DAV:   3    -0.794731672586E+01   -0.68890E+00   -0.68402E+00  1484   0.215E+01
DAV:   4    -0.795157910865E+01   -0.42624E-02   -0.42619E-02  1424   0.150E+00
DAV:   5    -0.795163055381E+01   -0.51445E-04   -0.51450E-04  1444   0.174E-01    0.815E+00
DAV:   6    -0.770522451855E+01    0.24641E+00   -0.17798E+01  1420   0.510E+01    0.120E+01
DAV:   7    -0.708011310214E+01    0.62511E+00   -0.36912E+00  1436   0.217E+01    0.355E+00
DAV:   8    -0.707903968616E+01    0.10734E-02   -0.87011E-03  1456   0.976E-01    0.105E+00
DAV:   9    -0.707417157470E+01    0.48681E-02   -0.55982E-03  1788   0.366E-01    0.269E-01
DAV:  10    -0.707362825380E+01    0.54332E-03   -0.12869E-03  1660   0.187E-01    0.812E-02
DAV:  11    -0.707361410125E+01    0.14153E-04   -0.34871E-04  1432   0.236E-01    0.910E-02
DAV:  12    -0.707359502542E+01    0.19076E-04   -0.43470E-05  1464   0.746E-02    0.420E-02
DAV:  13    -0.707362147291E+01   -0.26447E-04   -0.49940E-06  1040   0.150E-02    0.548E-03
DAV:  14    -0.707361915986E+01    0.23130E-05   -0.28942E-07   632   0.515E-03    0.163E-03
DAV:  15    -0.707362016530E+01   -0.10054E-05   -0.76857E-08   624   0.266E-03    0.428E-04
DAV:  16    -0.707362005530E+01    0.11000E-06   -0.54054E-09   624   0.822E-04
   1 F= -.70736201E+01 E0= -.70736201E+01  d E =0.000000E+00  mag=     2.9356
