PROCAR lm decomposed
# of k-points:   26         # of bands:  12         # of ions:   1

 k-point    1 :    0.06250000 0.06250000 0.06250000     weight = 0.01562500

band   1 # energy   -3.92384999 # occ.  1.00000000
 
ion      s     py     pz     px    dxy    dyz    dz2    dxz    dx2    tot
  1  0.371  0.007  0.007  0.007  0.001  0.001  0.000  0.001  0.000  0.397
 
band   2 # energy   -1.01575935 # occ.  1.00000000
 
ion      s     py     pz     px    dxy    dyz    dz2    dxz    dx2    tot
  1  0.000  0.000  0.000  0.000  0.032  0.320  0.001  0.556  0.017  0.928
 
band   3 # energy   -1.01575935 # occ.  1.00000000
 
ion      s     py     pz     px    dxy    dyz    dz2    dxz    dx2    tot
  1  0.000  0.000  0.000  0.000  0.573  0.286  0.017  0.050  0.001  0.928
 
band   4 # energy   -0.71873340 # occ.  1.00000000
 
ion      s     py     pz     px    dxy    dyz    dz2    dxz    dx2    tot
  1  0.001  0.001  0.001  0.001  0.313  0.313  0.000  0.313  0.000  0.942
 
band   5 # energy   -0.49170763 # occ.  1.00000000
 
ion      s     py     pz     px    dxy    dyz    dz2    dxz    dx2    tot
  1  0.000  0.000  0.000  0.000  0.003  0.007  0.211  0.010  0.726  0.957
 
band   6 # energy   -0.49170763 # occ.  1.00000000
 
ion      s     py     pz     px    dxy    dyz    dz2    dxz    dx2    tot
  1  0.000  0.000  0.000  0.000  0.010  0.006  0.726  0.003  0.211  0.957
 
band   7 # energy   15.57927473 # occ.  0.00000000
 
ion      s     py     pz     px    dxy    dyz    dz2    dxz    dx2    tot
  1  0.092  0.154  0.154  0.154  0.030  0.030  0.000  0.030  0.000  0.646
 
band   8 # energy   15.64507515 # occ.  0.00000000
 
ion      s     py     pz     px    dxy    dyz    dz2    dxz    dx2    tot
  1  0.000  0.133  0.010  0.078  0.006  0.045  0.003  0.078  0.047  0.399
 
band   9 # energy   15.64507515 # occ.  0.00000000
 
ion      s     py     pz     px    dxy    dyz    dz2    dxz    dx2    tot
  1  0.000  0.014  0.137  0.069  0.080  0.040  0.047  0.008  0.003  0.399
 
band  10 # energy   20.44900799 # occ.  0.00000000
 
ion      s     py     pz     px    dxy    dyz    dz2    dxz    dx2    tot
  1  0.000  0.000  0.000  0.000  0.000  0.000  0.000  0.000  0.000  0.000
 
band  11 # energy   20.57834284 # occ.  0.00000000
 
ion      s     py     pz     px    dxy    dyz    dz2    dxz    dx2    tot
  1  0.000  0.027  0.255  0.136  0.012  0.006  0.034  0.001  0.003  0.475
 
band  12 # energy   20.57834284 # occ.  0.00000000
 
ion      s     py     pz     px    dxy    dyz    dz2    dxz    dx2    tot
  1  0.000  0.252  0.023  0.143  0.001  0.007  0.003  0.012  0.034  0.475
 

 k-point    2 :    0.18750000 0.06250000 0.06250000     weight = 0.04687500

band   1 # energy   -2.85204871 # occ.  1.00000000
 
ion      s     py     pz     px    dxy    dyz    dz2    dxz    dx2    tot
  1  0.309  0.023  0.023  0.006  0.006  0.046  0.002  0.006  0.006  0.431
 
band   2 # energy   -1.15822596 # occ.  1.00000000
 
ion      s     py     pz     px    dxy    dyz    dz2    dxz    dx2    tot
  1  0.000  0.001  0.001  0.000  0.447  0.000  0.015  0.447  0.005  0.916
 
band   3 # energy   -1.04992822 # occ.  1.00000000
 
ion      s     py     pz     px    dxy    dyz    dz2    dxz    dx2    tot
  1  0.006  0.005  0.005  0.001  0.100  0.547  0.033  0.100  0.100  0.896
 
band   4 # energy   -0.51974345 # occ.  1.00000000
 
ion      s     py     pz     px    dxy    dyz    dz2    dxz    dx2    tot
  1  0.001  0.000  0.000  0.000  0.011  0.130  0.201  0.011  0.602  0.956
 
band   5 # energy   -0.45550400 # occ.  1.00000000
 
ion      s     py     pz     px    dxy    dyz    dz2    dxz    dx2    tot
  1  0.000  0.000  0.000  0.000  0.011  0.000  0.704  0.011  0.235  0.961
 
band   6 # energy   -0.30519226 # occ.  1.00465823
 
ion      s     py     pz     px    dxy    dyz    dz2    dxz    dx2    tot
  1  0.012  0.004  0.004  0.003  0.357  0.196  0.000  0.357  0.001  0.934
 
band   7 # energy   10.86279670 # occ.  0.00000000
 
ion      s     py     pz     px    dxy    dyz    dz2    dxz    dx2    tot
  1  0.106  0.130  0.130  0.001  0.001  0.106  0.006  0.001  0.019  0.500
 
band   8 # energy   13.57252142 # occ.  0.00000000
 
ion      s     py     pz     px    dxy    dyz    dz2    dxz    dx2    tot
  1  0.072  0.012  0.012  0.356  0.034  0.010  0.006  0.034  0.017  0.551
 
band   9 # energy   13.82942005 # occ.  0.00000000
 
ion      s     py     pz     px    dxy    dyz    dz2    dxz    dx2    tot
  1  0.000  0.116  0.116  0.000  0.068  0.000  0.021  0.068  0.007  0.395
 
band  10 # energy   19.71240793 # occ.  0.00000000
 
ion      s     py     pz     px    dxy    dyz    dz2    dxz    dx2    tot
  1  0.000  0.032  0.032  0.000  0.122  0.000  0.005  0.122  0.002  0.316
 
band  11 # energy   20.26838167 # occ.  0.00000000
 
ion      s     py     pz     px    dxy    dyz    dz2    dxz    dx2    tot
  1  0.048  0.044  0.044  0.159  0.008  0.003  0.046  0.008  0.137  0.497
 
band  12 # energy   21.93047545 # occ.  0.00000000
 
ion      s     py     pz     px    dxy    dyz    dz2    dxz    dx2    tot
  1  0.000  0.134  0.134  0.000  0.014  0.000  0.043  0.014  0.014  0.354
 

 k-point    3 :    0.31250000 0.06250000 0.06250000     weight = 0.04687500

band   1 # energy   -1.94823070 # occ.  1.00000000
 
ion      s     py     pz     px    dxy    dyz    dz2    dxz    dx2    tot
  1  0.122  0.009  0.009  0.005  0.002  0.398  0.036  0.002  0.109  0.692
 
band   2 # energy   -1.28509668 # occ.  1.00000000
 
ion      s     py     pz     px    dxy    dyz    dz2    dxz    dx2    tot
  1  0.000  0.001  0.001  0.000  0.448  0.000  0.005  0.448  0.002  0.905
 
band   3 # energy   -0.61133889 # occ.  1.00000000
 
ion      s     py     pz     px    dxy    dyz    dz2    dxz    dx2    tot
  1  0.043  0.024  0.024  0.000  0.238  0.023  0.054  0.238  0.162  0.806
 
band   4 # energy   -0.47167411 # occ.  1.00000000
 
ion      s     py     pz     px    dxy    dyz    dz2    dxz    dx2    tot
  1  0.000  0.002  0.002  0.000  0.051  0.286  0.140  0.051  0.420  0.953
 
band   5 # energy   -0.42870476 # occ.  1.00000000
 
ion      s     py     pz     px    dxy    dyz    dz2    dxz    dx2    tot
  1  0.000  0.000  0.000  0.000  0.004  0.000  0.718  0.004  0.239  0.964
 
band   6 # energy    0.52889453 # occ.  0.92828956
 
ion      s     py     pz     px    dxy    dyz    dz2    dxz    dx2    tot
  1  0.086  0.038  0.038  0.003  0.192  0.178  0.003  0.192  0.009  0.742
 
band   7 # energy    6.69022293 # occ.  0.00000000
 
ion      s     py     pz     px    dxy    dyz    dz2    dxz    dx2    tot
  1  0.197  0.091  0.091  0.002  0.003  0.119  0.006  0.003  0.019  0.530
 
band   8 # energy   12.19201535 # occ.  0.00000000
 
ion      s     py     pz     px    dxy    dyz    dz2    dxz    dx2    tot
  1  0.079  0.002  0.002  0.397  0.011  0.016  0.005  0.011  0.016  0.539
 
band   9 # energy   12.68827969 # occ.  0.00000000
 
ion      s     py     pz     px    dxy    dyz    dz2    dxz    dx2    tot
  1  0.000  0.121  0.121  0.000  0.068  0.000  0.006  0.068  0.002  0.385
 
band  10 # energy   18.83786051 # occ.  0.00000000
 
ion      s     py     pz     px    dxy    dyz    dz2    dxz    dx2    tot
  1  0.000  0.027  0.027  0.000  0.162  0.000  0.002  0.162  0.001  0.380
 
band  11 # energy   19.70268093 # occ.  0.00000000
 
ion      s     py     pz     px    dxy    dyz    dz2    dxz    dx2    tot
  1  0.105  0.013  0.013  0.124  0.003  0.020  0.059  0.003  0.177  0.516
 
band  12 # energy   24.11870559 # occ.  0.00000000
 
ion      s     py     pz     px    dxy    dyz    dz2    dxz    dx2    tot
  1  0.000  0.132  0.132  0.000  0.012  0.000  0.085  0.012  0.028  0.401
 

 k-point    4 :    0.43750000 0.06250000 0.06250000     weight = 0.02343750

band   1 # energy   -1.85641537 # occ.  1.00000000
 
ion      s     py     pz     px    dxy    dyz    dz2    dxz    dx2    tot
  1  0.061  0.000  0.000  0.004  0.000  0.498  0.057  0.000  0.170  0.789
 
band   2 # energy   -1.33482654 # occ.  1.00000000
 
ion      s     py     pz     px    dxy    dyz    dz2    dxz    dx2    tot
  1  0.000  0.001  0.001  0.000  0.450  0.000  0.000  0.450  0.000  0.901
 
band   3 # energy   -0.45923796 # occ.  1.00000000
 
ion      s     py     pz     px    dxy    dyz    dz2    dxz    dx2    tot
  1  0.005  0.000  0.000  0.000  0.000  0.268  0.171  0.000  0.514  0.959
 
band   4 # energy   -0.41871649 # occ.  1.00000000
 
ion      s     py     pz     px    dxy    dyz    dz2    dxz    dx2    tot
  1  0.000  0.000  0.000  0.000  0.000  0.000  0.725  0.000  0.242  0.966
 
band   5 # energy   -0.22627604 # occ.  1.00000000
 
ion      s     py     pz     px    dxy    dyz    dz2    dxz    dx2    tot
  1  0.000  0.016  0.016  0.000  0.435  0.000  0.000  0.435  0.000  0.902
 
band   6 # energy    2.15968365 # occ.  0.00247157
 
ion      s     py     pz     px    dxy    dyz    dz2    dxz    dx2    tot
  1  0.000  0.150  0.150  0.000  0.057  0.000  0.000  0.057  0.000  0.413
 
band   7 # energy    3.94658548 # occ.  0.00000000
 
ion      s     py     pz     px    dxy    dyz    dz2    dxz    dx2    tot
  1  0.386  0.000  0.000  0.006  0.000  0.231  0.010  0.000  0.031  0.665
 
band   8 # energy   11.69011285 # occ.  0.00000000
 
ion      s     py     pz     px    dxy    dyz    dz2    dxz    dx2    tot
  1  0.080  0.000  0.000  0.413  0.000  0.018  0.005  0.000  0.015  0.531
 
band   9 # energy   12.29649547 # occ.  0.00000000
 
ion      s     py     pz     px    dxy    dyz    dz2    dxz    dx2    tot
  1  0.000  0.122  0.122  0.000  0.068  0.000  0.000  0.068  0.000  0.380
 
band  10 # energy   18.54378781 # occ.  0.00000000
 
ion      s     py     pz     px    dxy    dyz    dz2    dxz    dx2    tot
  1  0.000  0.025  0.025  0.000  0.174  0.000  0.000  0.174  0.000  0.397
 
band  11 # energy   19.51975106 # occ.  0.00000000
 
ion      s     py     pz     px    dxy    dyz    dz2    dxz    dx2    tot
  1  0.129  0.000  0.000  0.115  0.000  0.031  0.063  0.000  0.189  0.528
 
band  12 # energy   25.69758345 # occ.  0.00000000
 
ion      s     py     pz     px    dxy    dyz    dz2    dxz    dx2    tot
  1  0.000  0.036  0.036  0.000  0.002  0.000  0.000  0.002  0.000  0.076
 

 k-point    5 :   -0.06250000 0.06250000 0.06250000     weight = 0.01171875

band   1 # energy   -4.31740974 # occ.  1.00000000
 
ion      s     py     pz     px    dxy    dyz    dz2    dxz    dx2    tot
  1  0.387  0.000  0.000  0.008  0.000  0.000  0.000  0.000  0.000  0.395
 
band   2 # energy   -0.94790224 # occ.  1.00000000
 
ion      s     py     pz     px    dxy    dyz    dz2    dxz    dx2    tot
  1  0.000  0.000  0.000  0.000  0.467  0.000  0.000  0.467  0.000  0.934
 
band   3 # energy   -0.94790210 # occ.  1.00000000
 
ion      s     py     pz     px    dxy    dyz    dz2    dxz    dx2    tot
  1  0.000  0.000  0.000  0.000  0.467  0.000  0.000  0.467  0.000  0.934
 
band   4 # energy   -0.91709273 # occ.  1.00000000
 
ion      s     py     pz     px    dxy    dyz    dz2    dxz    dx2    tot
  1  0.000  0.000  0.000  0.000  0.000  0.937  0.000  0.000  0.000  0.937
 
band   5 # energy   -0.51329835 # occ.  1.00000000
 
ion      s     py     pz     px    dxy    dyz    dz2    dxz    dx2    tot
  1  0.000  0.000  0.000  0.000  0.000  0.000  0.716  0.000  0.239  0.954
 
band   6 # energy   -0.45043317 # occ.  1.00000000
 
ion      s     py     pz     px    dxy    dyz    dz2    dxz    dx2    tot
  1  0.000  0.000  0.000  0.000  0.000  0.000  0.240  0.000  0.720  0.960
 
band   7 # energy   17.90389001 # occ.  0.00000000
 
ion      s     py     pz     px    dxy    dyz    dz2    dxz    dx2    tot
  1  0.000  0.192  0.191  0.000  0.090  0.000  0.000  0.090  0.000  0.563
 
band   8 # energy   17.90389002 # occ.  0.00000000
 
ion      s     py     pz     px    dxy    dyz    dz2    dxz    dx2    tot
  1  0.000  0.191  0.192  0.000  0.090  0.000  0.000  0.090  0.000  0.563
 
band   9 # energy   18.21585639 # occ.  0.00000000
 
ion      s     py     pz     px    dxy    dyz    dz2    dxz    dx2    tot
  1  0.046  0.000  0.000  0.528  0.000  0.000  0.006  0.000  0.017  0.596
 
band  10 # energy   18.23037386 # occ.  0.00000000
 
ion      s     py     pz     px    dxy    dyz    dz2    dxz    dx2    tot
  1  0.000  0.000  0.000  0.000  0.000  0.000  0.105  0.000  0.035  0.140
 
band  11 # energy   20.05164430 # occ.  0.00000000
 
ion      s     py     pz     px    dxy    dyz    dz2    dxz    dx2    tot
  1  0.000  0.099  0.123  0.000  0.008  0.000  0.000  0.010  0.000  0.240
 
band  12 # energy   20.05164431 # occ.  0.00000000
 
ion      s     py     pz     px    dxy    dyz    dz2    dxz    dx2    tot
  1  0.000  0.123  0.099  0.000  0.010  0.000  0.000  0.008  0.000  0.240
 

 k-point    6 :    0.18750000 0.18750000 0.06250000     weight = 0.04687500

band   1 # energy   -1.84120548 # occ.  1.00000000
 
ion      s     py     pz     px    dxy    dyz    dz2    dxz    dx2    tot
  1  0.174  0.015  0.025  0.015  0.001  0.163  0.041  0.163  0.000  0.596
 
band   2 # energy   -1.22450519 # occ.  1.00000000
 
ion      s     py     pz     px    dxy    dyz    dz2    dxz    dx2    tot
  1  0.000  0.005  0.000  0.005  0.000  0.349  0.000  0.349  0.181  0.888
 
band   3 # energy   -1.15614022 # occ.  1.00000000
 
ion      s     py     pz     px    dxy    dyz    dz2    dxz    dx2    tot
  1  0.018  0.001  0.016  0.001  0.693  0.064  0.004  0.064  0.000  0.862
 
band   4 # energy   -0.49446736 # occ.  1.00000000
 
ion      s     py     pz     px    dxy    dyz    dz2    dxz    dx2    tot
  1  0.000  0.000  0.000  0.000  0.000  0.099  0.000  0.099  0.761  0.959
 
band   5 # energy   -0.41726501 # occ.  1.00000000
 
ion      s     py     pz     px    dxy    dyz    dz2    dxz    dx2    tot
  1  0.002  0.000  0.000  0.000  0.000  0.032  0.896  0.032  0.000  0.963
 
band   6 # energy    0.53109781 # occ.  0.91682086
 
ion      s     py     pz     px    dxy    dyz    dz2    dxz    dx2    tot
  1  0.080  0.012  0.026  0.012  0.239  0.211  0.020  0.211  0.000  0.811
 
band   7 # energy    9.05776201 # occ.  0.00000000
 
ion      s     py     pz     px    dxy    dyz    dz2    dxz    dx2    tot
  1  0.247  0.041  0.161  0.041  0.012  0.022  0.001  0.022  0.000  0.548
 
band   8 # energy    9.50348007 # occ.  0.00000000
 
ion      s     py     pz     px    dxy    dyz    dz2    dxz    dx2    tot
  1  0.000  0.128  0.000  0.128  0.000  0.075  0.000  0.075  0.041  0.446
 
band   9 # energy   12.21654032 # occ.  0.00000000
 
ion      s     py     pz     px    dxy    dyz    dz2    dxz    dx2    tot
  1  0.037  0.118  0.056  0.118  0.087  0.015  0.013  0.015  0.000  0.459
 
band  10 # energy   21.01953696 # occ.  0.00000000
 
ion      s     py     pz     px    dxy    dyz    dz2    dxz    dx2    tot
  1  0.000  0.035  0.000  0.035  0.000  0.025  0.000  0.025  0.152  0.272
 
band  11 # energy   21.94716436 # occ.  0.00000000
 
ion      s     py     pz     px    dxy    dyz    dz2    dxz    dx2    tot
  1  0.041  0.051  0.094  0.051  0.121  0.080  0.028  0.080  0.000  0.547
 
band  12 # energy   23.76981753 # occ.  0.00000000
 
ion      s     py     pz     px    dxy    dyz    dz2    dxz    dx2    tot
  1  0.000  0.113  0.000  0.113  0.000  0.026  0.000  0.026  0.113  0.392
 

 k-point    7 :    0.31250000 0.18750000 0.06250000     weight = 0.09375000

band   1 # energy   -1.58252694 # occ.  1.00000000
 
ion      s     py     pz     px    dxy    dyz    dz2    dxz    dx2    tot
  1  0.042  0.001  0.002  0.011  0.038  0.529  0.052  0.055  0.084  0.814
 
band   2 # energy   -1.29585457 # occ.  1.00000000
 
ion      s     py     pz     px    dxy    dyz    dz2    dxz    dx2    tot
  1  0.000  0.005  0.003  0.003  0.313  0.042  0.002  0.440  0.076  0.883
 
band   3 # energy   -0.81794547 # occ.  1.00000000
 
ion      s     py     pz     px    dxy    dyz    dz2    dxz    dx2    tot
  1  0.009  0.017  0.024  0.000  0.403  0.004  0.127  0.180  0.077  0.843
 
band   4 # energy   -0.44829783 # occ.  1.00000000
 
ion      s     py     pz     px    dxy    dyz    dz2    dxz    dx2    tot
  1  0.001  0.000  0.000  0.000  0.000  0.203  0.075  0.044  0.637  0.961
 
band   5 # energy   -0.37584901 # occ.  1.00000000
 
ion      s     py     pz     px    dxy    dyz    dz2    dxz    dx2    tot
  1  0.002  0.001  0.002  0.000  0.086  0.009  0.687  0.109  0.062  0.959
 
band   6 # energy    2.35939310 # occ.  0.00894472
 
ion      s     py     pz     px    dxy    dyz    dz2    dxz    dx2    tot
  1  0.131  0.055  0.089  0.012  0.084  0.091  0.021  0.094  0.001  0.577
 
band   7 # energy    5.49749436 # occ.  0.00000000
 
ion      s     py     pz     px    dxy    dyz    dz2    dxz    dx2    tot
  1  0.242  0.090  0.050  0.012  0.018  0.106  0.000  0.009  0.019  0.545
 
band   8 # energy    8.45427470 # occ.  0.00000000
 
ion      s     py     pz     px    dxy    dyz    dz2    dxz    dx2    tot
  1  0.111  0.033  0.044  0.182  0.021  0.020  0.001  0.058  0.018  0.489
 
band   9 # energy   11.43978257 # occ.  0.00000000
 
ion      s     py     pz     px    dxy    dyz    dz2    dxz    dx2    tot
  1  0.042  0.098  0.076  0.119  0.063  0.020  0.003  0.037  0.001  0.458
 
band  10 # energy   20.81878661 # occ.  0.00000000
 
ion      s     py     pz     px    dxy    dyz    dz2    dxz    dx2    tot
  1  0.023  0.001  0.011  0.063  0.060  0.002  0.018  0.084  0.100  0.362
 
band  11 # energy   23.46399363 # occ.  0.00000000
 
ion      s     py     pz     px    dxy    dyz    dz2    dxz    dx2    tot
  1  0.001  0.125  0.017  0.014  0.104  0.018  0.006  0.040  0.145  0.469
 
band  12 # energy   24.03957500 # occ.  0.00000000
 
ion      s     py     pz     px    dxy    dyz    dz2    dxz    dx2    tot
  1  0.052  0.003  0.001  0.100  0.009  0.051  0.118  0.019  0.022  0.374
 

 k-point    8 :   -0.18750000 0.18750000 0.06250000     weight = 0.04687500

band   1 # energy   -3.54401864 # occ.  1.00000000
 
ion      s     py     pz     px    dxy    dyz    dz2    dxz    dx2    tot
  1  0.353  0.007  0.000  0.028  0.008  0.000  0.003  0.000  0.003  0.402
 
band   2 # energy   -1.03899954 # occ.  1.00000000
 
ion      s     py     pz     px    dxy    dyz    dz2    dxz    dx2    tot
  1  0.000  0.000  0.001  0.000  0.000  0.364  0.000  0.562  0.000  0.927
 
band   3 # energy   -0.94718554 # occ.  1.00000000
 
ion      s     py     pz     px    dxy    dyz    dz2    dxz    dx2    tot
  1  0.002  0.003  0.000  0.002  0.821  0.000  0.081  0.000  0.009  0.919
 
band   4 # energy   -0.67858897 # occ.  1.00000000
 
ion      s     py     pz     px    dxy    dyz    dz2    dxz    dx2    tot
  1  0.000  0.000  0.002  0.000  0.000  0.575  0.000  0.369  0.000  0.946
 
band   5 # energy   -0.59681605 # occ.  1.00000000
 
ion      s     py     pz     px    dxy    dyz    dz2    dxz    dx2    tot
  1  0.000  0.000  0.000  0.000  0.094  0.000  0.680  0.000  0.174  0.948
 
band   6 # energy   -0.41981023 # occ.  1.00000000
 
ion      s     py     pz     px    dxy    dyz    dz2    dxz    dx2    tot
  1  0.002  0.000  0.000  0.000  0.003  0.000  0.182  0.000  0.773  0.960
 
band   7 # energy   13.12463133 # occ.  0.00000000
 
ion      s     py     pz     px    dxy    dyz    dz2    dxz    dx2    tot
  1  0.064  0.166  0.000  0.109  0.118  0.000  0.032  0.000  0.002  0.490
 
band   8 # energy   15.58434182 # occ.  0.00000000
 
ion      s     py     pz     px    dxy    dyz    dz2    dxz    dx2    tot
  1  0.000  0.000  0.409  0.000  0.000  0.001  0.000  0.170  0.000  0.579
 
band   9 # energy   16.15729233 # occ.  0.00000000
 
ion      s     py     pz     px    dxy    dyz    dz2    dxz    dx2    tot
  1  0.041  0.043  0.000  0.212  0.001  0.000  0.038  0.000  0.040  0.374
 
band  10 # energy   18.44952693 # occ.  0.00000000
 
ion      s     py     pz     px    dxy    dyz    dz2    dxz    dx2    tot
  1  0.002  0.272  0.000  0.037  0.022  0.000  0.111  0.000  0.006  0.450
 
band  11 # energy   18.98915727 # occ.  0.00000000
 
ion      s     py     pz     px    dxy    dyz    dz2    dxz    dx2    tot
  1  0.000  0.000  0.116  0.000  0.000  0.219  0.000  0.072  0.000  0.407
 
band  12 # energy   20.07918301 # occ.  0.00000000
 
ion      s     py     pz     px    dxy    dyz    dz2    dxz    dx2    tot
  1  0.077  0.024  0.000  0.071  0.077  0.000  0.013  0.000  0.031  0.293
 

 k-point    9 :    0.31250000 0.31250000 0.06250000     weight = 0.01562500

band   1 # energy   -1.45920720 # occ.  1.00000000
 
ion      s     py     pz     px    dxy    dyz    dz2    dxz    dx2    tot
  1  0.018  0.002  0.002  0.002  0.281  0.281  0.000  0.281  0.000  0.866
 
band   2 # energy   -1.09883597 # occ.  1.00000000
 
ion      s     py     pz     px    dxy    dyz    dz2    dxz    dx2    tot
  1  0.000  0.005  0.021  0.005  0.387  0.097  0.240  0.097  0.000  0.852
 
band   3 # energy   -1.09883586 # occ.  1.00000000
 
ion      s     py     pz     px    dxy    dyz    dz2    dxz    dx2    tot
  1  0.000  0.016  0.000  0.016  0.000  0.290  0.000  0.290  0.240  0.852
 
band   4 # energy   -0.39650112 # occ.  1.00000000
 
ion      s     py     pz     px    dxy    dyz    dz2    dxz    dx2    tot
  1  0.000  0.000  0.001  0.000  0.173  0.043  0.702  0.043  0.000  0.962
 
band   5 # energy   -0.39650106 # occ.  1.00000000
 
ion      s     py     pz     px    dxy    dyz    dz2    dxz    dx2    tot
  1  0.000  0.001  0.000  0.001  0.000  0.129  0.000  0.129  0.702  0.962
 
band   6 # energy    4.99613907 # occ. -0.00939120
 
ion      s     py     pz     px    dxy    dyz    dz2    dxz    dx2    tot
  1  0.000  0.046  0.184  0.046  0.112  0.028  0.028  0.028  0.000  0.472
 
band   7 # energy    4.99613910 # occ.  0.00000000
 
ion      s     py     pz     px    dxy    dyz    dz2    dxz    dx2    tot
  1  0.000  0.138  0.000  0.138  0.000  0.084  0.000  0.084  0.028  0.472
 
band   8 # energy    5.18431858 # occ.  0.00000000
 
ion      s     py     pz     px    dxy    dyz    dz2    dxz    dx2    tot
  1  0.531  0.000  0.000  0.000  0.032  0.032  0.000  0.032  0.000  0.626
 
band   9 # energy   11.09044666 # occ.  0.00000000
 
ion      s     py     pz     px    dxy    dyz    dz2    dxz    dx2    tot
  1  0.049  0.097  0.097  0.097  0.042  0.042  0.000  0.042  0.000  0.466
 
band  10 # energy   22.77331343 # occ.  0.00000000
 
ion      s     py     pz     px    dxy    dyz    dz2    dxz    dx2    tot
  1  0.000  0.030  0.000  0.028  0.000  0.011  0.001  0.011  0.185  0.266
 
band  11 # energy   22.77331343 # occ.  0.00000000
 
ion      s     py     pz     px    dxy    dyz    dz2    dxz    dx2    tot
  1  0.000  0.009  0.039  0.010  0.015  0.004  0.185  0.003  0.001  0.266
 
band  12 # energy   24.63563614 # occ.  0.00000000
 
ion      s     py     pz     px    dxy    dyz    dz2    dxz    dx2    tot
  1  0.075  0.099  0.099  0.099  0.129  0.129  0.000  0.129  0.000  0.760
 

 k-point   10 :   -0.31250000 0.31250000 0.06250000     weight = 0.04687500

band   1 # energy   -2.35035304 # occ.  1.00000000
 
ion      s     py     pz     px    dxy    dyz    dz2    dxz    dx2    tot
  1  0.231  0.012  0.000  0.036  0.169  0.000  0.067  0.000  0.010  0.526
 
band   2 # energy   -1.17914454 # occ.  1.00000000
 
ion      s     py     pz     px    dxy    dyz    dz2    dxz    dx2    tot
  1  0.000  0.000  0.001  0.000  0.000  0.416  0.000  0.499  0.000  0.915
 
band   3 # energy   -0.82499664 # occ.  1.00000000
 
ion      s     py     pz     px    dxy    dyz    dz2    dxz    dx2    tot
  1  0.033  0.015  0.000  0.018  0.213  0.000  0.319  0.000  0.233  0.831
 
band   4 # energy   -0.52342060 # occ.  1.00000000
 
ion      s     py     pz     px    dxy    dyz    dz2    dxz    dx2    tot
  1  0.001  0.003  0.000  0.003  0.455  0.000  0.477  0.000  0.002  0.943
 
band   5 # energy   -0.31564699 # occ.  1.00000000
 
ion      s     py     pz     px    dxy    dyz    dz2    dxz    dx2    tot
  1  0.033  0.006  0.000  0.011  0.067  0.000  0.070  0.000  0.716  0.903
 
band   6 # energy   -0.29626677 # occ.  1.02784438
 
ion      s     py     pz     px    dxy    dyz    dz2    dxz    dx2    tot
  1  0.000  0.000  0.002  0.000  0.000  0.527  0.000  0.433  0.000  0.962
 
band   7 # energy    8.61130803 # occ.  0.00000000
 
ion      s     py     pz     px    dxy    dyz    dz2    dxz    dx2    tot
  1  0.143  0.137  0.000  0.089  0.112  0.000  0.028  0.000  0.002  0.511
 
band   8 # energy   13.73311515 # occ.  0.00000000
 
ion      s     py     pz     px    dxy    dyz    dz2    dxz    dx2    tot
  1  0.000  0.000  0.458  0.000  0.000  0.000  0.000  0.104  0.000  0.562
 
band   9 # energy   14.58902986 # occ.  0.00000000
 
ion      s     py     pz     px    dxy    dyz    dz2    dxz    dx2    tot
  1  0.039  0.085  0.000  0.166  0.001  0.000  0.039  0.000  0.018  0.347
 
band  10 # energy   17.87052539 # occ.  0.00000000
 
ion      s     py     pz     px    dxy    dyz    dz2    dxz    dx2    tot
  1  0.000  0.000  0.071  0.000  0.000  0.251  0.000  0.144  0.000  0.466
 
band  11 # energy   18.43085017 # occ.  0.00000000
 
ion      s     py     pz     px    dxy    dyz    dz2    dxz    dx2    tot
  1  0.083  0.170  0.000  0.005  0.008  0.000  0.195  0.000  0.001  0.461
 
band  12 # energy   21.01013609 # occ.  0.00000000
 
ion      s     py     pz     px    dxy    dyz    dz2    dxz    dx2    tot
  1  0.078  0.045  0.000  0.057  0.112  0.000  0.000  0.000  0.076  0.367
 

 k-point   11 :   -0.18750000 0.31250000 0.06250000     weight = 0.04687500

band   1 # energy   -2.53916386 # occ.  1.00000000
 
ion      s     py     pz     px    dxy    dyz    dz2    dxz    dx2    tot
  1  0.278  0.005  0.005  0.052  0.032  0.000  0.013  0.032  0.038  0.454
 
band   2 # energy   -1.07201400 # occ.  1.00000000
 
ion      s     py     pz     px    dxy    dyz    dz2    dxz    dx2    tot
  1  0.000  0.003  0.003  0.000  0.296  0.000  0.231  0.296  0.077  0.906
 
band   3 # energy   -1.02185664 # occ.  1.00000000
 
ion      s     py     pz     px    dxy    dyz    dz2    dxz    dx2    tot
  1  0.006  0.001  0.001  0.005  0.205  0.481  0.000  0.205  0.001  0.906
 
band   4 # energy   -0.64547240 # occ.  1.00000000
 
ion      s     py     pz     px    dxy    dyz    dz2    dxz    dx2    tot
  1  0.000  0.000  0.000  0.000  0.162  0.000  0.466  0.162  0.155  0.945
 
band   5 # energy   -0.40719085 # occ.  1.00000000
 
ion      s     py     pz     px    dxy    dyz    dz2    dxz    dx2    tot
  1  0.001  0.001  0.001  0.000  0.132  0.263  0.108  0.132  0.324  0.961
 
band   6 # energy   -0.23671430 # occ.  1.01497361
 
ion      s     py     pz     px    dxy    dyz    dz2    dxz    dx2    tot
  1  0.032  0.002  0.002  0.008  0.095  0.200  0.120  0.095  0.360  0.914
 
band   7 # energy   11.06055885 # occ.  0.00000000
 
ion      s     py     pz     px    dxy    dyz    dz2    dxz    dx2    tot
  1  0.162  0.072  0.072  0.145  0.042  0.003  0.000  0.042  0.000  0.539
 
band   8 # energy   11.33731693 # occ.  0.00000000
 
ion      s     py     pz     px    dxy    dyz    dz2    dxz    dx2    tot
  1  0.000  0.129  0.129  0.000  0.063  0.000  0.049  0.063  0.016  0.451
 
band   9 # energy   15.89701594 # occ.  0.00000000
 
ion      s     py     pz     px    dxy    dyz    dz2    dxz    dx2    tot
  1  0.006  0.173  0.173  0.124  0.002  0.029  0.000  0.002  0.001  0.509
 
band  10 # energy   17.22600354 # occ.  0.00000000
 
ion      s     py     pz     px    dxy    dyz    dz2    dxz    dx2    tot
  1  0.000  0.053  0.053  0.000  0.025  0.000  0.133  0.025  0.044  0.333
 
band  11 # energy   18.90788194 # occ.  0.00000000
 
ion      s     py     pz     px    dxy    dyz    dz2    dxz    dx2    tot
  1  0.098  0.000  0.000  0.044  0.078  0.141  0.008  0.078  0.023  0.471
 
band  12 # energy   22.42646281 # occ.  0.00000000
 
ion      s     py     pz     px    dxy    dyz    dz2    dxz    dx2    tot
  1  0.000  0.113  0.113  0.000  0.044  0.000  0.020  0.044  0.007  0.340
 

 k-point   12 :   -0.43750000 0.43750000 0.06250000     weight = 0.04687500

band   1 # energy   -1.92324453 # occ.  1.00000000
 
ion      s     py     pz     px    dxy    dyz    dz2    dxz    dx2    tot
  1  0.077  0.000  0.000  0.005  0.439  0.000  0.243  0.000  0.001  0.766
 
band   2 # energy   -1.27670125 # occ.  1.00000000
 
ion      s     py     pz     px    dxy    dyz    dz2    dxz    dx2    tot
  1  0.000  0.000  0.001  0.000  0.000  0.441  0.000  0.466  0.000  0.908
 
band   3 # energy   -0.57510101 # occ.  1.00000000
 
ion      s     py     pz     px    dxy    dyz    dz2    dxz    dx2    tot
  1  0.006  0.005  0.000  0.006  0.039  0.000  0.197  0.000  0.673  0.925
 
band   4 # energy   -0.47960706 # occ.  1.00000000
 
ion      s     py     pz     px    dxy    dyz    dz2    dxz    dx2    tot
  1  0.002  0.001  0.000  0.001  0.261  0.000  0.459  0.000  0.230  0.954
 
band   5 # energy    0.00157969 # occ.  1.00000000
 
ion      s     py     pz     px    dxy    dyz    dz2    dxz    dx2    tot
  1  0.000  0.000  0.000  0.000  0.000  0.503  0.000  0.474  0.000  0.978
 
band   6 # energy    1.15051557 # occ.  0.62598029
 
ion      s     py     pz     px    dxy    dyz    dz2    dxz    dx2    tot
  1  0.095  0.092  0.000  0.119  0.101  0.000  0.017  0.000  0.059  0.483
 
band   7 # energy    4.87235856 # occ.  0.00000000
 
ion      s     py     pz     px    dxy    dyz    dz2    dxz    dx2    tot
  1  0.272  0.074  0.000  0.036  0.162  0.000  0.036  0.000  0.003  0.582
 
band   8 # energy   12.67671628 # occ.  0.00000000
 
ion      s     py     pz     px    dxy    dyz    dz2    dxz    dx2    tot
  1  0.000  0.000  0.486  0.000  0.000  0.009  0.000  0.044  0.000  0.538
 
band   9 # energy   13.75707391 # occ.  0.00000000
 
ion      s     py     pz     px    dxy    dyz    dz2    dxz    dx2    tot
  1  0.036  0.114  0.000  0.138  0.001  0.000  0.038  0.000  0.002  0.329
 
band  10 # energy   17.32929623 # occ.  0.00000000
 
ion      s     py     pz     px    dxy    dyz    dz2    dxz    dx2    tot
  1  0.000  0.000  0.055  0.000  0.000  0.238  0.000  0.202  0.000  0.494
 
band  11 # energy   18.29221086 # occ.  0.00000000
 
ion      s     py     pz     px    dxy    dyz    dz2    dxz    dx2    tot