<?xml version="1.0" encoding="ISO-8859-1"?>
<modeling>
 <generator>
  <i name="program" type="string">vasp </i>
  <i name="version" type="string">5.4.1  </i>
  <i name="subversion" type="string">24Jun15 (build Jul 19 2016 16:50:41) complex                          parallel </i>
  <i name="platform" type="string">IFC91_ompi </i>
  <i name="date" type="string">2019 10 17 </i>
  <i name="time" type="string">12:06:24 </i>
 </generator>
 <incar>
  <i type="string" name="SYSTEM"> Fe BCC</i>
  <i type="string" name="PREC">accurate</i>
  <i type="int" name="ISPIN">     2</i>
  <i name="EDIFF">      0.00000100</i>
  <i name="ENMAX">    400.00000000</i>
  <v name="MAGMOM">      4.00000000</v>
  <i type="int" name="ISMEAR">    -5</i>
  <i type="logical" name="LORBIT"> F  </i>
  <v type="int" name="KPOINT_BSE">    -1     0     0     0</v>
 </incar>
 <kpoints>
  <generation param="Monkhorst-Pack">
   <v type="int" name="divisions">       8        8        8 </v>
   <v name="usershift">      0.00000000       0.00000000       0.00000000 </v>
   <v name="genvec1">      0.12500000       0.00000000       0.00000000 </v>
   <v name="genvec2">      0.00000000       0.12500000       0.00000000 </v>
   <v name="genvec3">      0.00000000       0.00000000       0.12500000 </v>
   <v name="shift">      0.50000000       0.50000000       0.50000000 </v>
  </generation>
  <varray name="kpointlist" >
   <v>       0.06250000       0.06250000       0.06250000 </v>
   <v>       0.18750000       0.06250000       0.06250000 </v>
   <v>       0.31250000       0.06250000       0.06250000 </v>
   <v>       0.43750000       0.06250000       0.06250000 </v>
   <v>      -0.06250000       0.06250000       0.06250000 </v>
   <v>       0.18750000       0.18750000       0.06250000 </v>
   <v>       0.31250000       0.18750000       0.06250000 </v>
   <v>      -0.18750000       0.18750000       0.06250000 </v>
   <v>       0.31250000       0.31250000       0.06250000 </v>
   <v>      -0.31250000       0.31250000       0.06250000 </v>
   <v>      -0.18750000       0.31250000       0.06250000 </v>
   <v>      -0.43750000       0.43750000       0.06250000 </v>
   <v>      -0.31250000       0.43750000       0.06250000 </v>
   <v>      -0.43750000      -0.43750000       0.06250000 </v>
   <v>      -0.31250000      -0.43750000       0.06250000 </v>
   <v>       0.18750000       0.18750000       0.18750000 </v>
   <v>       0.31250000       0.18750000       0.18750000 </v>
   <v>      -0.18750000       0.18750000       0.18750000 </v>
   <v>      -0.31250000       0.31250000       0.18750000 </v>
   <v>      -0.43750000       0.43750000       0.18750000 </v>
   <v>      -0.31250000       0.43750000       0.18750000 </v>
   <v>      -0.43750000      -0.43750000       0.18750000 </v>
   <v>      -0.31250000       0.31250000       0.31250000 </v>
   <v>      -0.43750000       0.43750000       0.31250000 </v>
   <v>      -0.43750000      -0.43750000       0.31250000 </v>
   <v>      -0.43750000       0.43750000       0.43750000 </v>
  </varray>
  <varray name="weights" >
   <v>       0.01562500 </v>
   <v>       0.04687500 </v>
   <v>       0.04687500 </v>
   <v>       0.02343750 </v>
   <v>       0.01171875 </v>
   <v>       0.04687500 </v>
   <v>       0.09375000 </v>
   <v>       0.04687500 </v>
   <v>       0.01562500 </v>
   <v>       0.04687500 </v>
   <v>       0.04687500 </v>
   <v>       0.04687500 </v>
   <v>       0.09375000 </v>
   <v>       0.04687500 </v>
   <v>       0.04687500 </v>
   <v>       0.01562500 </v>
   <v>       0.02343750 </v>
   <v>       0.01171875 </v>
   <v>       0.04687500 </v>
   <v>       0.04687500 </v>
   <v>       0.04687500 </v>
   <v>       0.04687500 </v>
   <v>       0.01171875 </v>
   <v>       0.04687500 </v>
   <v>       0.01562500 </v>
   <v>       0.01171875 </v>
  </varray>
  <varray name="tetrahedronlist"  type="int" >
   <v type="int" >        4        1        2        2        6 </v>
   <v type="int" >        8        2        2        6        6 </v>
   <v type="int" >        4        2        6        6       16 </v>
   <v type="int" >        4        2        3        6        7 </v>
   <v type="int" >        4        2        6        6        7 </v>
   <v type="int" >       12        6        6        7       16 </v>
   <v type="int" >        8        3        6        7        7 </v>
   <v type="int" >        8        6        7        7       17 </v>
   <v type="int" >        8        6        7       16       17 </v>
   <v type="int" >        4        3        4        7        7 </v>
   <v type="int" >        4        3        7        7        7 </v>
   <v type="int" >       16        7        7        7       17 </v>
   <v type="int" >        8        4        7        7        7 </v>
   <v type="int" >        4        7        7        7       16 </v>
   <v type="int" >       20        7        7       16       17 </v>
   <v type="int" >        4        3        4        6        7 </v>
   <v type="int" >        4        4        6        7        7 </v>
   <v type="int" >       16        6        7        7       16 </v>
   <v type="int" >        8        3        6        6        7 </v>
   <v type="int" >        4        6        6        6        7 </v>
   <v type="int" >        4        2        2        3        6 </v>
   <v type="int" >        8        2        3        6        6 </v>
   <v type="int" >        4        2        6        6        6 </v>
   <v type="int" >        4        2        2        2        6 </v>
   <v type="int" >        8        2        2        6       11 </v>
   <v type="int" >        4        2        6        6       11 </v>
   <v type="int" >       16        1        2        2        8 </v>
   <v type="int" >        4        2        2        2        8 </v>
   <v type="int" >       12        2        2        8       11 </v>
   <v type="int" >       16        1        2        8        8 </v>
   <v type="int" >        4        2        8        8       18 </v>
   <v type="int" >        4        2        8       11       18 </v>
   <v type="int" >       20        1        5        8        8 </v>
   <v type="int" >        4        1        8        8        8 </v>
   <v type="int" >        4        8        8        8       18 </v>
   <v type="int" >        8        5        8        8        8 </v>
   <v type="int" >        4        8        8        8       11 </v>
   <v type="int" >        4        8        8       11       18 </v>
   <v type="int" >        8        1        2        5        8 </v>
   <v type="int" >        8        2        5        8        8 </v>
   <v type="int" >        8        2        8        8       11 </v>
   <v type="int" >        4        2        2        6        8 </v>
   <v type="int" >        4        2        6        8       11 </v>
   <v type="int" >        4        6        7        9       16 </v>
   <v type="int" >       16        7        9       16       17 </v>
   <v type="int" >       12        9       16       17       17 </v>
   <v type="int" >       20        7        7        9       17 </v>
   <v type="int" >       12        7        9       17       17 </v>
   <v type="int" >        8        7        7       17       17 </v>
   <v type="int" >       12        3        6        7       16 </v>
   <v type="int" >        8        3        7        7       16 </v>
   <v type="int" >        8        3        6        6       16 </v>
   <v type="int" >        4        3        6       13       16 </v>
   <v type="int" >        4        3        7       13       16 </v>
   <v type="int" >        4        2        6        6       10 </v>
   <v type="int" >        4        3        6        6       10 </v>
   <v type="int" >        8        3        6       10       13 </v>
   <v type="int" >       12        2        6       10       11 </v>
   <v type="int" >        4        6       10       11       19 </v>
   <v type="int" >        4        6       10       13       19 </v>
   <v type="int" >        4        2        8       11       11 </v>
   <v type="int" >        4        2       10       11       11 </v>
   <v type="int" >        4       10       11       11       19 </v>
   <v type="int" >        8        8       11       11       18 </v>
   <v type="int" >        8       11       11       18       19 </v>
   <v type="int" >        4       11       11       19       19 </v>
   <v type="int" >        4        8        8       10       18 </v>
   <v type="int" >       12        8       10       11       18 </v>
   <v type="int" >       12       10       11       18       19 </v>
   <v type="int" >        4       10       11       13       18 </v>
   <v type="int" >        4       10       13       18       19 </v>
   <v type="int" >        4        2        3        8       11 </v>
   <v type="int" >        4        3        8       10       11 </v>
   <v type="int" >        8        3       10       11       13 </v>
   <v type="int" >       16        2        3        6       11 </v>
   <v type="int" >        4        3        6        7       11 </v>
   <v type="int" >        4        3        7       11       13 </v>
   <v type="int" >        4        4        7        9       17 </v>
   <v type="int" >        8        4        7        7       17 </v>
   <v type="int" >        4        4        7       14       17 </v>
   <v type="int" >        4        3        7        7       12 </v>
   <v type="int" >        8        4        7        7       12 </v>
   <v type="int" >        8        4        7       12       14 </v>
   <v type="int" >        8        3        7       12       13 </v>
   <v type="int" >        4        7       12       13       20 </v>
   <v type="int" >        4        7       12       14       20 </v>
   <v type="int" >        4        3       10       13       13 </v>
   <v type="int" >        4        3       12       13       13 </v>
   <v type="int" >        4       12       13       13       20 </v>
   <v type="int" >        8       10       13       13       19 </v>
   <v type="int" >       12       13       13       19       21 </v>
   <v type="int" >        4       13       13       20       21 </v>
   <v type="int" >        8       10       11       13       19 </v>
   <v type="int" >        8       11       13       19       19 </v>
   <v type="int" >        4       13       19       19       20 </v>
   <v type="int" >        8       13       19       20       21 </v>
   <v type="int" >        4       10       11       12       19 </v>
   <v type="int" >        4       11       12       13       19 </v>
   <v type="int" >        8       12       13       19       20 </v>
   <v type="int" >        8       10       12       13       19 </v>
   <v type="int" >        4       12       13       14       19 </v>
   <v type="int" >        4       12       14       19       20 </v>
   <v type="int" >        4        3        4       10       13 </v>
   <v type="int" >        4        4       10       12       13 </v>
   <v type="int" >       12        4       12       13       14 </v>
   <v type="int" >       12        3        4        7       13 </v>
   <v type="int" >        8        4        7        7       13 </v>
   <v type="int" >       12        4        7       13       14 </v>
   <v type="int" >        4        4       12       14       14 </v>
   <v type="int" >        4       12       14       14       20 </v>
   <v type="int" >        4       14       14       20       22 </v>
   <v type="int" >        4       12       13       15       20 </v>
   <v type="int" >        4       12       14       15       20 </v>
   <v type="int" >        8       14       15       20       22 </v>
   <v type="int" >       12       13       15       20       21 </v>
   <v type="int" >       12       15       20       21       22 </v>
   <v type="int" >        4       15       20       22       22 </v>
   <v type="int" >        4       13       13       14       21 </v>
   <v type="int" >       12       13       14       15       21 </v>
   <v type="int" >       16       14       15       21       22 </v>
   <v type="int" >        8       13       14       20       21 </v>
   <v type="int" >        4       14       20       20       21 </v>
   <v type="int" >       12       14       20       21       22 </v>
   <v type="int" >        4       12       12       13       20 </v>
   <v type="int" >        8       12       13       14       20 </v>
   <v type="int" >        8       12       14       20       20 </v>
   <v type="int" >        8       12       12       14       20 </v>
   <v type="int" >        4       12       13       20       20 </v>
   <v type="int" >       16        3        4       12       14 </v>
   <v type="int" >        8        3       12       12       14 </v>
   <v type="int" >        8        3       12       13       14 </v>
   <v type="int" >       16        3        4        7       14 </v>
   <v type="int" >        4        3        6        7       14 </v>
   <v type="int" >        4        3        6       13       14 </v>
   <v type="int" >        8       14       15       15       22 </v>
   <v type="int" >        8       15       15       22       22 </v>
   <v type="int" >        8       15       21       22       22 </v>
   <v type="int" >       12       13       14       15       22 </v>
   <v type="int" >        4       13       15       15       22 </v>
   <v type="int" >        8       13       15       21       22 </v>
   <v type="int" >       12       13       14       20       22 </v>
   <v type="int" >        4       13       19       20       22 </v>
   <v type="int" >        4       13       19       21       22 </v>
   <v type="int" >        4       10       12       14       20 </v>
   <v type="int" >        4       10       13       14       20 </v>
   <v type="int" >        8       10       13       19       20 </v>
   <v type="int" >        8       10       12       13       20 </v>
   <v type="int" >        4       10       11       13       20 </v>
   <v type="int" >        4       10       11       19       20 </v>
   <v type="int" >        4        2        3       12       13 </v>
   <v type="int" >        4        2       10       12       13 </v>
   <v type="int" >        8        2       10       11       13 </v>
   <v type="int" >       12        2        3        6       13 </v>
   <v type="int" >        4        2        2        6       13 </v>
   <v type="int" >        4        2        2       11       13 </v>
   <v type="int" >        4       11       13       15       21 </v>
   <v type="int" >        8       11       13       19       21 </v>
   <v type="int" >        4       11       18       19       21 </v>
   <v type="int" >        4        8       10       13       19 </v>
   <v type="int" >        4        8       11       13       19 </v>
   <v type="int" >        8        8       11       18       19 </v>
   <v type="int" >        8        8       10       11       19 </v>
   <v type="int" >        4        8        8       11       19 </v>
   <v type="int" >        4        8        8       18       19 </v>
   <v type="int" >        4        1        2       10       11 </v>
   <v type="int" >        4        1        8       10       11 </v>
   <v type="int" >        8        1        8        8       11 </v>
   <v type="int" >        8        1        2        2       11 </v>
   <v type="int" >       12        1        2        8       11 </v>
   <v type="int" >        4        5        8       11       18 </v>
   <v type="int" >        4        5        8        8       18 </v>
   <v type="int" >        4        1        5        8       18 </v>
   <v type="int" >        4        5        5        8        8 </v>
   <v type="int" >       12        1        5        5        8 </v>
   <v type="int" >        6        1        1        5        5 </v>
   <v type="int" >        8        1        1        5        8 </v>
   <v type="int" >        4        1        1        2        8 </v>
   <v type="int" >        4        2        3        6       16 </v>
   <v type="int" >        4        3        7       16       17 </v>
   <v type="int" >       12        7       16       17       17 </v>
   <v type="int" >        8        7       17       17       17 </v>
   <v type="int" >       12        7        7        9       16 </v>
   <v type="int" >        4        6        6        7        7 </v>
   <v type="int" >       16        3        6        7       13 </v>
   <v type="int" >       12        6        7        7       13 </v>
   <v type="int" >        4        3        6        6       11 </v>
   <v type="int" >       12        3        6       11       13 </v>
   <v type="int" >       12        2        3       10       11 </v>
   <v type="int" >        4        3       10       11       19 </v>
   <v type="int" >        4        3       11       13       19 </v>
   <v type="int" >        4        2        8       10       18 </v>
   <v type="int" >        4        2       10       11       18 </v>
   <v type="int" >        4       10       18       19       19 </v>
   <v type="int" >        4        8        8       11       11 </v>
   <v type="int" >        4        8       10       11       11 </v>
   <v type="int" >        4       10       11       11       13 </v>
   <v type="int" >        4       11       11       13       19 </v>
   <v type="int" >        4        2        6        8       10 </v>
   <v type="int" >        4        6        8       10       11 </v>
   <v type="int" >       12        6       10       11       13 </v>
   <v type="int" >        8        2        3        6       10 </v>
   <v type="int" >        4        3        6        7       10 </v>
   <v type="int" >        4        6        7       10       13 </v>
   <v type="int" >        4       16       17       17       17 </v>
   <v type="int" >        4       17       17       17       17 </v>
   <v type="int" >        4        9       17       17       17 </v>
   <v type="int" >        8        7        7       15       17 </v>
   <v type="int" >        8        7        9       15       17 </v>
   <v type="int" >        4        6        7       13       16 </v>
   <v type="int" >        4        7        7       13       16 </v>
   <v type="int" >       12        7        7       13       15 </v>
   <v type="int" >        8        6        7       13       13 </v>
   <v type="int" >        4        7       13       13       21 </v>
   <v type="int" >        4        7       13       15       21 </v>
   <v type="int" >        4        6       11       13       19 </v>
   <v type="int" >        4        6       13       13       19 </v>
   <v type="int" >        4       13       19       19       23 </v>
   <v type="int" >        4       13       19       21       23 </v>
   <v type="int" >        4       11       18       19       19 </v>
   <v type="int" >        4       11       19       19       19 </v>
   <v type="int" >        4       19       19       19       23 </v>
   <v type="int" >        4       18       19       19       19 </v>
   <v type="int" >        4       19       19       19       21 </v>
   <v type="int" >        4       19       19       21       23 </v>
   <v type="int" >        4       11       13       18       19 </v>
   <v type="int" >        4       13       18       19       19 </v>
   <v type="int" >        8       13       19       19       21 </v>
   <v type="int" >       12       11       13       13       19 </v>
   <v type="int" >        4       13       13       15       19 </v>
   <v type="int" >        4       13       15       19       21 </v>
   <v type="int" >        4        6        7       11       13 </v>
   <v type="int" >        4        7       11       13       13 </v>
   <v type="int" >        8        7       13       13       15 </v>
   <v type="int" >        4        7        7        9       13 </v>
   <v type="int" >        4        7        9       13       15 </v>
   <v type="int" >        4        7        9       14       17 </v>
   <v type="int" >       12        7        9       14       15 </v>
   <v type="int" >        4        9       14       15       22 </v>
   <v type="int" >        4        7       13       15       20 </v>
   <v type="int" >        4        7       14       15       20 </v>
   <v type="int" >        4       15       20       21       24 </v>
   <v type="int" >        4       15       20       22       24 </v>
   <v type="int" >        4       13       19       21       21 </v>
   <v type="int" >        4       13       20       21       21 </v>
   <v type="int" >        4       20       21       21       24 </v>
   <v type="int" >        8       19       21       21       23 </v>
   <v type="int" >        8       21       21       23       24 </v>
   <v type="int" >        4       21       21       24       24 </v>
   <v type="int" >        4       19       19       20       23 </v>
   <v type="int" >       12       19       20       21       23 </v>
   <v type="int" >       12       20       21       23       24 </v>
   <v type="int" >        4       20       21       22       23 </v>
   <v type="int" >        4       20       22       23       24 </v>
   <v type="int" >        4       13       14       19       21 </v>
   <v type="int" >        4       14       19       20       21 </v>
   <v type="int" >        4       14       15       15       21 </v>
   <v type="int" >       16        7       13       14       15 </v>
   <v type="int" >        8        7       14       15       15 </v>
   <v type="int" >       16        7        7        9       15 </v>
   <v type="int" >        4        7        7       15       15 </v>
   <v type="int" >        4       14       20       22       22 </v>
   <v type="int" >        8       20       22       22       24 </v>
   <v type="int" >       16       22       22       24       25 </v>
   <v type="int" >       16       20       21       22       24 </v>
   <v type="int" >        8       21       22       24       24 </v>
   <v type="int" >        4       22       24       24       24 </v>
   <v type="int" >       16       22       24       24       25 </v>
   <v type="int" >        4       20       20       21       24 </v>
   <v type="int" >       12       20       22       24       24 </v>
   <v type="int" >        8       20       20       22       24 </v>
   <v type="int" >        4       20       21       24       24 </v>
   <v type="int" >        4       13       20       20       22 </v>
   <v type="int" >        8       13       20       21       22 </v>
   <v type="int" >        4       13       13       15       22 </v>
   <v type="int" >        4       13       13       21       22 </v>
   <v type="int" >        4        6        7       14       15 </v>
   <v type="int" >        4        6       13       14       15 </v>
   <v type="int" >        4        6       13       13       15 </v>
   <v type="int" >        4        6        7        7       15 </v>
   <v type="int" >        4        3        6        7       15 </v>
   <v type="int" >        4        3        6       13       15 </v>
   <v type="int" >        8       21       22       22       25 </v>
   <v type="int" >       12       21       22       24       25 </v>
   <v type="int" >        4       21       23       24       25 </v>
   <v type="int" >        4       19       20       22       24 </v>
   <v type="int" >        4       19       21       22       24 </v>
   <v type="int" >        8       19       21       23       24 </v>
   <v type="int" >        8       19       20       21       24 </v>
   <v type="int" >        4       19       19       21       24 </v>
   <v type="int" >        4       19       19       23       24 </v>
   <v type="int" >        4       11       13       20       21 </v>
   <v type="int" >        4       11       19       20       21 </v>
   <v type="int" >        4       11       19       19       21 </v>
   <v type="int" >        4       11       13       13       21 </v>
   <v type="int" >        4       10       11       13       21 </v>
   <v type="int" >        4       10       11       19       21 </v>
   <v type="int" >        4        2        6       13       13 </v>
   <v type="int" >        4        2       11       13       13 </v>
   <v type="int" >       12        2        3       10       13 </v>
   <v type="int" >        4        2       10       10       13 </v>
   <v type="int" >        4       18       19       21       23 </v>
   <v type="int" >        4       18       19       19       23 </v>
   <v type="int" >        4       11       18       19       23 </v>
   <v type="int" >        4        8       11       19       19 </v>
   <v type="int" >        4        8       18       19       19 </v>
   <v type="int" >        4        2        8       10       19 </v>
   <v type="int" >        4        2        8       11       19 </v>
   <v type="int" >       16        2        8       10       11 </v>
   <v type="int" >        4        8        8       10       11 </v>
   <v type="int" >       12        2        8        8       10 </v>
   <v type="int" >        8        2        8       10       10 </v>
   <v type="int" >        4        8       10       10       11 </v>
   <v type="int" >        4        1        8       11       18 </v>
   <v type="int" >        4        2        8        8        8 </v>
   <v type="int" >        8        2        2        8       10 </v>
   <v type="int" >        4        2        2        3       10 </v>
   <v type="int" >        4        3        4        7       17 </v>
   <v type="int" >        4        4        7       16       17 </v>
   <v type="int" >        4        7        7        7        9 </v>
   <v type="int" >        4        4        7        7       14 </v>
   <v type="int" >        4        7        7        7       14 </v>
   <v type="int" >       12        3        4       12       13 </v>
   <v type="int" >        4        4       12       13       20 </v>
   <v type="int" >        4        4       13       14       20 </v>
   <v type="int" >        4        3       10       12       19 </v>
   <v type="int" >        4        3       12       13       19 </v>
   <v type="int" >        4       12       13       19       21 </v>
   <v type="int" >        4       12       19       20       21 </v>
   <v type="int" >        4       10       13       19       19 </v>
   <v type="int" >        8       13       13       19       20 </v>
   <v type="int" >        4       10       11       13       13 </v>
   <v type="int" >        4       10       12       13       13 </v>
   <v type="int" >        4       12       13       13       14 </v>
   <v type="int" >        4       13       13       14       20 </v>
   <v type="int" >        4        3        7       10       12 </v>
   <v type="int" >        4        7       10       12       13 </v>
   <v type="int" >        8        7       12       13       14 </v>
   <v type="int" >        8        3        4        7       12 </v>
   <v type="int" >        4        7        7       12       14 </v>
   <v type="int" >        4        7        9       15       16 </v>
   <v type="int" >       12        7        9       15       15 </v>
   <v type="int" >        8        7        7       14       15 </v>
   <v type="int" >        4        7       14       15       22 </v>
   <v type="int" >        4        7       15       15       22 </v>
   <v type="int" >        4        7       13       14       21 </v>
   <v type="int" >        4        7       14       15       21 </v>
   <v type="int" >        4       14       20       21       24 </v>
   <v type="int" >        4       14       21       22       24 </v>
   <v type="int" >        4       13       19       20       23 </v>
   <v type="int" >        4       13       20       21       23 </v>
   <v type="int" >        4       20       23       24       24 </v>
   <v type="int" >        4       19       19       21       21 </v>
   <v type="int" >        4       19       20       21       21 </v>
   <v type="int" >        4       20       21       21       22 </v>
   <v type="int" >        4       21       21       22       24 </v>
   <v type="int" >        4       13       15       19       20 </v>
   <v type="int" >        4       15       19       20       21 </v>
   <v type="int" >        8       13       14       15       20 </v>
   <v type="int" >        4       14       15       15       20 </v>
   <v type="int" >        4       15       15       20       22 </v>
   <v type="int" >        4        7        9       13       14 </v>
   <v type="int" >        4        9       13       14       15 </v>
   <v type="int" >        8        9       14       15       15 </v>
   <v type="int" >        8        7        7        9       14 </v>
   <v type="int" >        4        9       15       15       22 </v>
   <v type="int" >        4       15       22       22       25 </v>
   <v type="int" >        4       15       21       22       24 </v>
   <v type="int" >        4       15       22       22       24 </v>
   <v type="int" >        8       22       24       24       26 </v>
   <v type="int" >        8       22       24       25       26 </v>
   <v type="int" >        4       21       23       24       24 </v>
   <v type="int" >        4       21       24       24       24 </v>
   <v type="int" >        8       24       24       24       26 </v>
   <v type="int" >        4       23       24       24       24 </v>
   <v type="int" >        4       24       24       24       25 </v>
   <v type="int" >       20       24       24       25       26 </v>
   <v type="int" >        4       21       22       23       24 </v>
   <v type="int" >        4       22       23       24       24 </v>
   <v type="int" >       12       21       22       22       24 </v>
   <v type="int" >        4       22       22       22       24 </v>
   <v type="int" >        4       15       15       21       22 </v>
   <v type="int" >        4       15       22       22       22 </v>
   <v type="int" >        4       15       15       15       22 </v>
   <v type="int" >        4       14       15       22       22 </v>
   <v type="int" >        4        7       15       15       15 </v>
   <v type="int" >        4        4        7        7       15 </v>
   <v type="int" >        4        4        7       14       15 </v>
   <v type="int" >        4       22       24       25       25 </v>
   <v type="int" >        8       24       25       25       26 </v>
   <v type="int" >        6       25       25       26       26 </v>
   <v type="int" >       12       24       25       26       26 </v>
   <v type="int" >        4       24       24       26       26 </v>
   <v type="int" >        8       21       24       24       25 </v>
   <v type="int" >        4       20       21       22       25 </v>
   <v type="int" >        4       20       21       24       25 </v>
   <v type="int" >        4       13       15       22       22 </v>
   <v type="int" >        4       13       21       22       22 </v>
   <v type="int" >        4       12       13       14       22 </v>
   <v type="int" >        4       12       13       20       22 </v>
   <v type="int" >        4        3        7       14       15 </v>
   <v type="int" >        4        3       13       14       15 </v>
   <v type="int" >        4       23       24       25       26 </v>
   <v type="int" >        4       23       24       24       26 </v>
   <v type="int" >        4       21       23       24       26 </v>
   <v type="int" >        4       19       21       24       24 </v>
   <v type="int" >        4       19       23       24       24 </v>
   <v type="int" >        4       13       19       20       24 </v>
   <v type="int" >        4       13       19       21       24 </v>
   <v type="int" >        4       10       13       20       21 </v>
   <v type="int" >        4       10       19       20       21 </v>
   <v type="int" >        4        3       10       12       20 </v>
   <v type="int" >        4        3       10       13       20 </v>
   <v type="int" >        8        3       10       12       13 </v>
   <v type="int" >        4       10       10       12       13 </v>
   <v type="int" >        8        3       10       10       12 </v>
   <v type="int" >        8        3       10       12       12 </v>
   <v type="int" >        4       10       12       12       13 </v>
   <v type="int" >        4       11       19       21       23 </v>
   <v type="int" >        4        6       11       13       21 </v>
   <v type="int" >        4        2       10       13       19 </v>
   <v type="int" >        4        2       11       13       19 </v>
   <v type="int" >        8        2        6       11       13 </v>
   <v type="int" >        4        2        6        6       13 </v>
   <v type="int" >        4        3       10       10       11 </v>
   <v type="int" >        4        3       11       13       13 </v>
   <v type="int" >        4        2        2        6       10 </v>
   <v type="int" >        4        6       10       12       13 </v>
   <v type="int" >        4        3        6       10       12 </v>
   <v type="int" >        4        2        3        3       10 </v>
   <v type="int" >        4        3        3       10       12 </v>
   <v type="int" >        4        3        3        4       12 </v>
   <v type="int" >        4        3        4        7       16 </v>
   <v type="int" >        4        6        7        7        7 </v>
   <v type="int" >        4        6        6        7       13 </v>
   <v type="int" >        8        3        7        7       14 </v>
   <v type="int" >        8        3        7       13       14 </v>
   <v type="int" >        4        3       12       14       20 </v>
   <v type="int" >        4        3       13       14       20 </v>
   <v type="int" >        4        4       12       12       20 </v>
   <v type="int" >        4        4       12       14       20 </v>
   <v type="int" >        4       12       14       20       22 </v>
   <v type="int" >        4       12       20       20       22 </v>
   <v type="int" >        4       12       13       14       21 </v>
   <v type="int" >        4       12       14       20       21 </v>
   <v type="int" >        4       14       21       22       22 </v>
   <v type="int" >        4       13       13       15       20 </v>
   <v type="int" >        4       14       15       20       20 </v>
   <v type="int" >        4       15       20       20       22 </v>
   <v type="int" >        4       12       13       14       14 </v>
   <v type="int" >        4       13       14       14       20 </v>
   <v type="int" >        2       14       14       20       20 </v>
   <v type="int" >        2       12       12       14       14 </v>
   <v type="int" >        8        4        7       12       12 </v>
   <v type="int" >        4        7       12       12       14 </v>
   <v type="int" >        4        3        6        7       12 </v>
   <v type="int" >        4        6        7       12       13 </v>
   <v type="int" >        4        6        7       15       16 </v>
   <v type="int" >        8        6        7       13       15 </v>
   <v type="int" >        4        6       13       15       21 </v>
   <v type="int" >        4        7       13       14       22 </v>
   <v type="int" >        4        7       13       15       22 </v>
   <v type="int" >        4       13       20       22       24 </v>
   <v type="int" >        4       13       21       22       24 </v>
   <v type="int" >        4       14       20       20       24 </v>
   <v type="int" >        4       14       20       22       24 </v>
   <v type="int" >        4       20       22       24       25 </v>
   <v type="int" >        4       20       24       24       25 </v>
   <v type="int" >        6       22       22       24       24 </v>
   <v type="int" >        4       20       21       22       22 </v>
   <v type="int" >        2       20       20       22       22 </v>
   <v type="int" >        4        7        7       13       14 </v>
   <v type="int" >        4        3        7       13       13 </v>
   <v type="int" >        4       15       21       22       25 </v>
   <v type="int" >        4       21       24       25       26 </v>
   <v type="int" >        4       24       26       26       26 </v>
   <v type="int" >        6       24       24       25       25 </v>
   <v type="int" >        4        4        7       13       15 </v>
   <v type="int" >        4        4       13       14       15 </v>
   <v type="int" >        8        4       12       12       13 </v>
   <v type="int" >        4       25       26       26       26 </v>
   <v type="int" >        2       26       26       26       26 </v>
   <v type="int" >        4        4       12       12       14 </v>
   <v type="int" >        4       12       12       12       14 </v>
   <v type="int" >        8        4       12       12       12 </v>
   <v type="int" >        4        3        4        4       12 </v>
   <v type="int" >        4        4        4       12       12 </v>
   <v type="int" >        4        1        5        8       11 </v>
   <v type="int" >        4        1        2        6       11 </v>
   <v type="int" >        4        2        8       10       13 </v>
   <v type="int" >        4        2        8       11       13 </v>
   <v type="int" >        4        2        3        7       13 </v>
   <v type="int" >        4        2        6        7       13 </v>
   <v type="int" >        4        3       10       12       14 </v>
   <v type="int" >        4        3       10       13       14 </v>
   <v type="int" >        4        3        4        6       13 </v>
   <v type="int" >        4        4        6        7       13 </v>
   <v type="int" >        4        3       10       11       12 </v>
   <v type="int" >        4        3       11       12       13 </v>
   <v type="int" >        4        2        2        3       11 </v>
   <v type="int" >        6        2        2        8        8 </v>
   <v type="int" >        6        1        1        8        8 </v>
   <v type="int" >        4        5        5        5        8 </v>
   <v type="int" >        4        6       11       13       15 </v>
   <v type="int" >        4        6        7        9       15 </v>
   <v type="int" >        4        7       13       15       15 </v>
   <v type="int" >        4        7        7        7       15 </v>
   <v type="int" >        4        7       13       13       14 </v>
   <v type="int" >        4        3        7        7       13 </v>
   <v type="int" >        4        6       10       13       13 </v>
   <v type="int" >        4        2        6       10       10 </v>
   <v type="int" >        4        3        6       10       10 </v>
   <v type="int" >        4        2        2       10       11 </v>
   <v type="int" >        2        2        2       10       10 </v>
   <v type="int" >        4        1        8        8       10 </v>
   <v type="int" >        4        1        2        8       10 </v>
   <v type="int" >        4        2        3        8       10 </v>
   <v type="int" >        4        3        8       10       10 </v>
   <v type="int" >        4        4        7        9       14 </v>
   <v type="int" >        4        7       12       13       15 </v>
   <v type="int" >        4        7       12       14       15 </v>
   <v type="int" >        4        3        7       12       12 </v>
   <v type="int" >        4        3        3       10       13 </v>
   <v type="int" >        4        3        3       12       13 </v>
   <v type="int" >        2        3        3       12       12 </v>
   <v type="int" >        2        3        3       10       10 </v>
   <v type="int" >        4        2       10       10       12 </v>
   <v type="int" >        4        2        3       10       12 </v>
   <v type="int" >        4        3        4       10       12 </v>
   <v type="int" >        4        4       10       12       12 </v>
   <v type="int" >        4        4        4       12       14 </v>
   <v type="int" >        4        3       12       12       12 </v>
   <v type="int" >        4        3        4       12       12 </v>
   <v type="int" >        4        1        5        5        5 </v>
   <v type="int" >        2        5        5        5        5 </v>
  </varray>
  <i name="volumeweight">      0.00032552 </i>
 </kpoints>
 <parameters>
  <separator name="general" >
   <i type="string" name="SYSTEM">Fe BCC</i>
   <i type="logical" name="LCOMPAT"> F  </i>
  </separator>
  <separator name="electronic" >
   <i type="string" name="PREC">accura</i>
   <i name="ENMAX">    400.00000000</i>
   <i name="ENAUG">    511.36800000</i>
   <i name="EDIFF">      0.00000100</i>
   <i type="int" name="IALGO">    38</i>
   <i type="int" name="IWAVPR">    10</i>
   <i type="int" name="NBANDS">    12</i>
   <i name="NELECT">      8.00000000</i>
   <i type="int" name="TURBO">     0</i>
   <i type="int" name="IRESTART">     0</i>
   <i type="int" name="NREBOOT">     0</i>
   <i type="int" name="NMIN">     0</i>
   <i name="EREF">      0.00000000</i>
   <separator name="electronic smearing" >
    <i type="int" name="ISMEAR">    -5</i>
    <i name="SIGMA">      0.20000000</i>
    <i name="KSPACING">      0.50000000</i>
    <i type="logical" name="KGAMMA"> T  </i>
   </separator>
   <separator name="electronic projectors" >
    <i type="logical" name="LREAL"> F  </i>
    <v name="ROPT">      0.00000000</v>
    <i type="int" name="LMAXPAW">  -100</i>
    <i type="int" name="LMAXMIX">     2</i>
    <i type="logical" name="NLSPLINE"> F  </i>
   </separator>
   <separator name="electronic startup" >
    <i type="int" name="ISTART">     0</i>
    <i type="int" name="ICHARG">     2</i>
    <i type="int" name="INIWAV">     1</i>
   </separator>
   <separator name="electronic spin" >
    <i type="int" name="ISPIN">     2</i>
    <i type="logical" name="LNONCOLLINEAR"> F  </i>
    <v name="MAGMOM">      4.00000000</v>
    <i name="NUPDOWN">     -1.00000000</i>
    <i type="logical" name="LSORBIT"> F  </i>
    <v name="SAXIS">      0.00000000      0.00000000      1.00000000</v>
    <i type="logical" name="LSPIRAL"> F  </i>
    <v name="QSPIRAL">      0.00000000      0.00000000      0.00000000</v>
    <i type="logical" name="LZEROZ"> F  </i>
   </separator>
   <separator name="electronic exchange-correlation" >
    <i type="logical" name="LASPH"> F  </i>
    <i type="logical" name="LMETAGGA"> F  </i>
   </separator>
   <separator name="electronic convergence" >
    <i type="int" name="NELM">    60</i>
    <i type="int" name="NELMDL">    -5</i>
    <i type="int" name="NELMIN">     2</i>
    <i name="ENINI">    400.00000000</i>
    <separator name="electronic convergence detail" >
     <i type="logical" name="LDIAG"> T  </i>
     <i type="logical" name="LSUBROT"> F  </i>
     <i name="WEIMIN">      0.00000000</i>
     <i name="EBREAK">      0.00000002</i>
     <i name="DEPER">      0.30000000</i>
     <i type="int" name="NRMM">     4</i>
     <i name="TIME">      0.40000000</i>
    </separator>
   </separator>
   <separator name="electronic mixer" >
    <i name="AMIX">      0.40000000</i>
    <i name="BMIX">      1.00000000</i>
    <i name="AMIN">      0.10000000</i>
    <i name="AMIX_MAG">      1.60000000</i>
    <i name="BMIX_MAG">      1.00000000</i>
    <separator name="electronic mixer details" >
     <i type="int" name="IMIX">     4</i>
     <i type="logical" name="MIXFIRST"> F  </i>
     <i type="int" name="MAXMIX">   -45</i>
     <i name="WC">    100.00000000</i>
     <i type="int" name="INIMIX">     1</i>
     <i type="int" name="MIXPRE">     1</i>
     <i type="int" name="MREMOVE">     5</i>
    </separator>
   </separator>
   <separator name="electronic dipolcorrection" >
    <i type="logical" name="LDIPOL"> F  </i>
    <i type="logical" name="LMONO"> F  </i>
    <i type="int" name="IDIPOL">     0</i>
    <i name="EPSILON">      1.00000000</i>
    <v name="DIPOL">   -100.00000000   -100.00000000   -100.00000000</v>
    <i name="EFIELD">      0.00000000</i>
   </separator>
  </separator>
  <separator name="grids" >
   <i type="int" name="NGX">    20</i>
   <i type="int" name="NGY">    20</i>
   <i type="int" name="NGZ">    20</i>
   <i type="int" name="NGXF">    40</i>
   <i type="int" name="NGYF">    40</i>
   <i type="int" name="NGZF">    40</i>
   <i type="logical" name="ADDGRID"> F  </i>
  </separator>
  <separator name="ionic" >
   <i type="int" name="NSW">     0</i>
   <i type="int" name="IBRION">    -1</i>
   <i type="int" name="ISIF">     2</i>
   <i name="PSTRESS">      0.00000000</i>
   <i name="EDIFFG">      0.00001000</i>
   <i type="int" name="NFREE">     0</i>
   <i name="POTIM">      0.50000000</i>
   <i name="SMASS">     -3.00000000</i>
   <i name="SCALEE">      1.00000000</i>
  </separator>
  <separator name="ionic md" >
   <i name="TEBEG">      0.00010000</i>
   <i name="TEEND">      0.00010000</i>
   <i type="int" name="NBLOCK">     1</i>
   <i type="int" name="KBLOCK">     1</i>
   <i type="int" name="NPACO">   256</i>
   <i name="APACO">     16.00000000</i>
  </separator>
  <separator name="symmetry" >
   <i type="int" name="ISYM">     2</i>
   <i name="SYMPREC">      0.00001000</i>
  </separator>
  <separator name="dos" >
   <i type="logical" name="LORBIT"> F  </i>
   <v name="RWIGS">     -1.00000000</v>
   <i type="int" name="NEDOS">   301</i>
   <i name="EMIN">     10.00000000</i>
   <i name="EMAX">    -10.00000000</i>
   <i name="EFERMI">      0.00000000</i>
  </separator>
  <separator name="writing" >
   <i type="int" name="NWRITE">     2</i>
   <i type="logical" name="LWAVE"> T  </i>
   <i type="logical" name="LCHARG"> T  </i>
   <i type="logical" name="LPARD"> F  </i>
   <i type="logical" name="LVTOT"> F  </i>
   <i type="logical" name="LVHAR"> F  </i>
   <i type="logical" name="LELF"> F  </i>
   <i type="logical" name="LOPTICS"> F  </i>
   <v name="STM">      0.00000000      0.00000000      0.00000000      0.00000000      0.00000000      0.00000000      0.00000000</v>
  </separator>
  <separator name="performance" >
   <i type="int" name="NPAR">     4</i>
   <i type="int" name="NSIM">     4</i>
   <i type="int" name="NBLK">    -1</i>
   <i type="logical" name="LPLANE"> T  </i>
   <i type="logical" name="LSCALAPACK"> F  </i>
   <i type="logical" name="LSCAAWARE"> F  </i>
   <i type="logical" name="LSCALU"> F  </i>
   <i type="logical" name="LASYNC"> F  </i>
   <i type="logical" name="LORBITALREAL"> F  </i>
  </separator>
  <separator name="miscellaneous" >
   <i type="int" name="IDIOT">     3</i>
   <i type="logical" name="LMUSIC"> F  </i>
   <v name="POMASS">     55.84700000</v>
   <v name="DARWINR">      0.00000000</v>
   <v name="DARWINV">      1.00000000</v>
   <i type="logical" name="LCORR"> T  </i>
  </separator>
  <i type="logical" name="GGA_COMPAT"> T  </i>
  <i type="logical" name="LBERRY"> F  </i>
  <i type="int" name="ICORELEVEL">     0</i>
  <i type="logical" name="LDAU"> F  </i>
  <i type="int" name="I_CONSTRAINED_M">     0</i>
  <separator name="electronic exchange-correlation" >
   <i type="string" name="GGA">--</i>
   <i type="int" name="VOSKOWN">     0</i>
   <i type="logical" name="LHFCALC"> F  </i>
   <i type="string" name="PRECFOCK"></i>
   <i type="logical" name="LSYMGRAD"> F  </i>
   <i type="logical" name="LHFONE"> F  </i>
   <i type="logical" name="LRHFCALC"> F  </i>
   <i type="logical" name="LTHOMAS"> F  </i>
   <i type="logical" name="LMODELHF"> F  </i>
   <i name="ENCUT4O">     -1.00000000</i>
   <i type="int" name="EXXOEP">     0</i>
   <i type="int" name="FOURORBIT">     0</i>
   <i name="AEXX">      0.00000000</i>
   <i name="HFALPHA">      0.00000000</i>
   <i name="MCALPHA">      0.00000000</i>
   <i name="ALDAX">      1.00000000</i>
   <i name="AGGAX">      1.00000000</i>
   <i name="ALDAC">      1.00000000</i>
   <i name="AGGAC">      1.00000000</i>
   <i type="int" name="NKREDX">     1</i>
   <i type="int" name="NKREDY">     1</i>
   <i type="int" name="NKREDZ">     1</i>
   <i type="logical" name="SHIFTRED"> F  </i>
   <i type="logical" name="ODDONLY"> F  </i>
   <i type="logical" name="EVENONLY"> F  </i>
   <i type="int" name="LMAXFOCK">     0</i>
   <i type="int" name="NMAXFOCKAE">     0</i>
   <i type="logical" name="LFOCKAEDFT"> F  </i>
   <i name="HFSCREEN">      0.00000000</i>
   <i name="HFSCREENC">      0.00000000</i>
   <i type="int" name="NBANDSGWLOW">     0</i>
  </separator>
  <separator name="vdW DFT" >
   <i type="logical" name="LUSE_VDW"> F  </i>
   <i name="Zab_VDW">     -0.84910000</i>
   <i name="PARAM1">      0.12340000</i>
   <i name="PARAM2">      1.00000000</i>
   <i name="PARAM3">      0.00000000</i>
  </separator>
  <separator name="model GW" >
   <i type="int" name="MODEL_GW">     0</i>
   <i name="MODEL_EPS0">     12.86250000</i>
   <i name="MODEL_ALPHA">      1.00000000</i>
  </separator>
  <separator name="linear response parameters" >
   <i type="logical" name="LEPSILON"> F  </i>
   <i type="logical" name="LRPA"> F  </i>
   <i type="logical" name="LNABLA"> F  </i>
   <i type="logical" name="LVEL"> F  </i>
   <i type="int" name="KINTER">     0</i>
   <i name="CSHIFT">      0.10000000</i>
   <i name="OMEGAMAX">     -1.00000000</i>
   <i name="DEG_THRESHOLD">      0.00200000</i>
  </separator>
  <separator name="orbital magnetization" >
   <i type="logical" name="NUCIND"> F  </i>
   <v name="MAGPOS">      0.00000000      0.00000000      0.00000000</v>
   <i type="logical" name="LNICSALL"> T  </i>
   <i type="logical" name="ORBITALMAG"> F  </i>
   <i type="logical" name="LMAGBLOCH"> F  </i>
   <i type="logical" name="LCHIMAG"> F  </i>
   <i type="logical" name="LGAUGE"> T  </i>
   <i type="int" name="MAGATOM">     0</i>
   <v name="MAGDIPOL">      0.00000000      0.00000000      0.00000000</v>
   <v name="AVECCONST">      0.00000000      0.00000000      0.00000000</v>
  </separator>
  <separator name="response functions" >
   <i type="logical" name="LADDER"> F  </i>
   <i type="logical" name="LFXC"> F  </i>
   <i type="logical" name="LHARTREE"> T  </i>
   <i type="int" name="IBSE">     0</i>
   <v type="int" name="KPOINT">    -1     0     0     0</v>
   <i type="logical" name="LTCTE"> F  </i>
   <i type="logical" name="LTETE"> F  </i>
   <i type="logical" name="LTRIPLET"> F  </i>
   <i type="logical" name="LFXCEPS"> F  </i>
   <i type="logical" name="LFXHEG"> F  </i>
   <i type="int" name="NATURALO">     0</i>
   <i type="logical" name="L2ORDER"> F  </i>
   <i type="logical" name="LUSEW"> F  </i>
   <i name="ENCUTGW">     -2.00000000</i>
   <i name="ENCUTGWSOFT">     -2.00000000</i>
   <i name="ENCUTLF">     -1.00000000</i>
   <i type="int" name="LMAXMP2">    -1</i>
   <i name="SCISSOR">      0.00000000</i>
   <i type="int" name="NOMEGA">     0</i>
   <i type="int" name="NOMEGAR">     0</i>
   <i type="int" name="NBANDSGW">    -1</i>
   <i type="int" name="NBANDSO">    -1</i>
   <i type="int" name="NBANDSV">    -1</i>
   <i type="int" name="NELM">     1</i>
   <i type="int" name="NELMHF">     1</i>
   <i type="int" name="DIM">     3</i>
   <i type="int" name="ANTIRES">     0</i>
   <i name="OMEGAMAX">    -30.00000000</i>
   <i name="OMEGAMIN">    -30.00000000</i>
   <i name="OMEGATL">   -200.00000000</i>
   <i type="int" name="OMEGAGRID">     0</i>
   <i name="CSHIFT">     -0.10000000</i>
   <i type="logical" name="SELFENERGY"> F  </i>
   <i type="logical" name="LSPECTRAL"> F  </i>
   <i type="logical" name="LSPECTRALGW"> F  </i>
   <i type="logical" name="LSINGLES"> F  </i>
   <i type="logical" name="LFERMIGW"> F  </i>
   <i type="logical" name="ODDONLYGW"> F  </i>
   <i type="logical" name="EVENONLYGW"> F  </i>
   <i type="int" name="NKREDLFX">     1</i>
   <i type="int" name="NKREDLFY">     1</i>
   <i type="int" name="NKREDLFZ">     1</i>
   <i type="int" name="MAXMEM">  1800</i>
   <i type="int" name="TELESCOPE">     0</i>
   <i type="int" name="TAUPAR">     1</i>
   <i type="int" name="OMEGAPAR">    -1</i>
   <i name="LAMBDA">      1.00000000</i>
  </separator>
  <separator name="External order field" >
   <i name="OFIELD_KAPPA">      0.00000000</i>
   <v name="OFIELD_K">      0.00000000      0.00000000      0.00000000</v>
   <i name="OFIELD_Q6_NEAR">      0.00000000</i>
   <i name="OFIELD_Q6_FAR">      0.00000000</i>
   <i name="OFIELD_A">      0.00000000</i>
  </separator>
 </parameters>
 <atominfo>
  <atoms>       1 </atoms>
  <types>       1 </types>
  <array name="atoms" >
   <dimension dim="1">ion</dimension>
   <field type="string">element</field>
   <field type="int">atomtype</field>
   <set>
    <rc><c>Fe</c><c>   1</c></rc>
   </set>
  </array>
  <array name="atomtypes" >
   <dimension dim="1">type</dimension>
   <field type="int">atomspertype</field>
   <field type="string">element</field>
   <field>mass</field>
   <field>valence</field>
   <field type="string">pseudopotential</field>
   <set>
    <rc><c>   1</c><c>Fe</c><c>     55.84700000</c><c>      8.00000000</c><c>  PAW Fe 03Mar1998                      </c></rc>
   </set>
  </array>
 </atominfo>
 <structure name="initialpos" >
  <crystal>
   <varray name="basis" >
    <v>      -1.75000000       1.75000000       1.75000000 </v>
    <v>       1.75000000      -1.75000000       1.75000000 </v>
    <v>       1.75000000       1.75000000      -1.75000000 </v>
   </varray>
   <i name="volume">     21.43750000 </i>
   <varray name="rec_basis" >
    <v>       0.00000000       0.28571429       0.28571429 </v>
    <v>       0.28571429       0.00000000       0.28571429 </v>
    <v>       0.28571429       0.28571429       0.00000000 </v>
   </varray>
  </crystal>
  <varray name="positions" >
   <v>       0.00000000       0.00000000       0.00000000 </v>
  </varray>
 </structure>
 <calculation>
  <scstep>
   <time name="dav">    1.05    0.53</time>
   <time name="total">    1.23    0.62</time>
   <energy>
    <i name="alphaZ">     31.24265236 </i>
    <i name="ewald">   -479.12399650 </i>
    <i name="hartreedc">   -162.30892857 </i>
    <i name="XCdc">      5.21233779 </i>
    <i name="pawpsdc">    552.76102510 </i>
    <i name="pawaedc">   -562.19386350 </i>
    <i name="eentropy">      0.00000000 </i>
    <i name="bandstr">     35.52942507 </i>
    <i name="atom">    597.35192723 </i>
    <i name="e_fr_energy">     18.47057898 </i>
    <i name="e_wo_entrp">     18.47057898 </i>
    <i name="e_0_energy">     18.47057898 </i>
   </energy>
  </scstep>
  <scstep>
   <time name="dav">    0.76    0.38</time>
   <time name="total">    0.87    0.44</time>
   <energy>
    <i name="e_fr_energy">     -7.25841433 </i>
    <i name="e_wo_entrp">     -7.25841433 </i>
    <i name="e_0_energy">     -7.25841433 </i>
   </energy>
  </scstep>
  <scstep>
   <time name="dav">    0.87    0.43</time>
   <time name="total">    0.98    0.49</time>
   <energy>
    <i name="e_fr_energy">     -7.94731673 </i>
    <i name="e_wo_entrp">     -7.94731673 </i>
    <i name="e_0_energy">     -7.94731673 </i>
   </energy>
  </scstep>
  <scstep>
   <time name="dav">    0.83    0.41</time>
   <time name="total">    0.95    0.47</time>
   <energy>
    <i name="e_fr_energy">     -7.95157911 </i>
    <i name="e_wo_entrp">     -7.95157911 </i>
    <i name="e_0_energy">     -7.95157911 </i>
   </energy>
  </scstep>
  <scstep>
   <time name="dav">    1.13    0.56</time>
   <time name="total">    1.29    0.64</time>
   <energy>
    <i name="e_fr_energy">     -7.95163055 </i>
    <i name="e_wo_entrp">     -7.95163055 </i>
    <i name="e_0_energy">     -7.95163055 </i>
   </energy>
  </scstep>
  <scstep>
   <time name="dav">    0.82    0.41</time>
   <time name="total">    1.03    0.52</time>
   <energy>
    <i name="e_fr_energy">     -7.70522452 </i>
    <i name="e_wo_entrp">     -7.70522452 </i>
    <i name="e_0_energy">     -7.70522452 </i>
   </energy>
  </scstep>
  <scstep>
   <time name="dav">    0.83    0.41</time>
   <time name="total">    1.06    0.53</time>
   <energy>
    <i name="e_fr_energy">     -7.08011310 </i>
    <i name="e_wo_entrp">     -7.08011310 </i>
    <i name="e_0_energy">     -7.08011310 </i>
   </energy>
  </scstep>
  <scstep>
   <time name="dav">    0.84    0.42</time>
   <time name="total">    1.06    0.53</time>
   <energy>
    <i name="e_fr_energy">     -7.07903969 </i>
    <i name="e_wo_entrp">     -7.07903969 </i>
    <i name="e_0_energy">     -7.07903969 </i>
   </energy>
  </scstep>
  <scstep>
   <time name="dav">    1.18    0.59</time>
   <time name="total">    1.40    0.70</time>
   <energy>
    <i name="e_fr_energy">     -7.07417157 </i>
    <i name="e_wo_entrp">     -7.07417157 </i>
    <i name="e_0_energy">     -7.07417157 </i>
   </energy>
  </scstep>
  <scstep>
   <time name="dav">    0.94    0.47</time>
   <time name="total">    1.13    0.57</time>
   <energy>
    <i name="e_fr_energy">     -7.07362825 </i>
    <i name="e_wo_entrp">     -7.07362825 </i>
    <i name="e_0_energy">     -7.07362825 </i>
   </energy>
  </scstep>
  <scstep>
   <time name="dav">    0.83    0.42</time>
   <time name="total">    1.03    0.51</time>
   <energy>
    <i name="e_fr_energy">     -7.07361410 </i>
    <i name="e_wo_entrp">     -7.07361410 </i>
    <i name="e_0_energy">     -7.07361410 </i>
   </energy>
  </scstep>
  <scstep>
   <time name="dav">    1.24    0.62</time>
   <time name="total">    1.43    0.72</time>
   <energy>
    <i name="e_fr_energy">     -7.07359503 </i>
    <i name="e_wo_entrp">     -7.07359503 </i>
    <i name="e_0_energy">     -7.07359503 </i>
   </energy>
  </scstep>
  <scstep>
   <time name="dav">    0.66    0.33</time>
   <time name="total">    0.86    0.43</time>
   <energy>
    <i name="e_fr_energy">     -7.07362147 </i>
    <i name="e_wo_entrp">     -7.07362147 </i>
    <i name="e_0_energy">     -7.07362147 </i>
   </energy>
  </scstep>
  <scstep>
   <time name="dav">    0.48    0.24</time>
   <time name="total">    0.67    0.34</time>
   <energy>
    <i name="e_fr_energy">     -7.07361916 </i>
    <i name="e_wo_entrp">     -7.07361916 </i>
    <i name="e_0_energy">     -7.07361916 </i>
   </energy>
  </scstep>
  <scstep>
   <time name="dav">    0.47    0.24</time>
   <time name="total">    0.67    0.34</time>
   <energy>
    <i name="e_fr_energy">     -7.07362017 </i>
    <i name="e_wo_entrp">     -7.07362017 </i>
    <i name="e_0_energy">     -7.07362017 </i>
   </energy>
  </scstep>
  <scstep>
   <time name="dav">    0.47    0.24</time>
   <time name="total">    0.61    0.31</time>
   <energy>
    <i name="alphaZ">     31.24265236 </i>
    <i name="ewald">   -479.12399650 </i>
    <i name="hartreedc">   -147.28161699 </i>
    <i name="XCdc">      4.39399567 </i>
    <i name="pawpsdc">    573.90472955 </i>
    <i name="pawaedc">   -583.74910457 </i>
    <i name="eentropy">      0.00000000 </i>
    <i name="bandstr">     -3.81220681 </i>
    <i name="atom">    597.35192723 </i>
    <i name="e_fr_energy">     -7.07362006 </i>
    <i name="e_wo_entrp">     -7.07362006 </i>
    <i name="e_0_energy">     -7.07362006 </i>
   </energy>
  </scstep>
  <structure>
   <crystal>
    <varray name="basis" >
     <v>      -1.75000000       1.75000000       1.75000000 </v>
     <v>       1.75000000      -1.75000000       1.75000000 </v>
     <v>       1.75000000       1.75000000      -1.75000000 </v>
    </varray>
    <i name="volume">     21.43750000 </i>
    <varray name="rec_basis" >
     <v>       0.00000000       0.28571429       0.28571429 </v>
     <v>       0.28571429       0.00000000       0.28571429 </v>
     <v>       0.28571429       0.28571429       0.00000000 </v>
    </varray>
   </crystal>
   <varray name="positions" >
    <v>       0.00000000       0.00000000       0.00000000 </v>
   </varray>
  </structure>
  <varray name="forces" >
   <v>      -0.00000000      -0.00000000       0.00000000 </v>
  </varray>
  <varray name="stress" >
   <v>    -317.26598044      -0.00000000      -0.00000000 </v>
   <v>      -0.00000000    -317.26598044       0.00000000 </v>
   <v>       0.00000000       0.00000000    -317.26598044 </v>
  </varray>
  <energy>
   <i name="e_fr_energy">     -7.07362006 </i>
   <i name="e_wo_entrp">     -7.07362006 </i>
   <i name="e_0_energy">      0.00000000 </i>
  </energy>
  <time name="totalsc">   16.83    8.54</time>
  <eigenvalues>
   <array>
    <dimension dim="1">band</dimension>
    <dimension dim="2">kpoint</dimension>
    <dimension dim="3">spin</dimension>
    <field>eigene</field>
    <field>occ</field>
    <set>
     <set comment="spin 1">
      <set comment="kpoint 1">
       <r>   -3.9238    1.0000 </r>
       <r>   -1.0158    1.0000 </r>
       <r>   -1.0158    1.0000 </r>
       <r>   -0.7187    1.0000 </r>
       <r>   -0.4917    1.0000 </r>
       <r>   -0.4917    1.0000 </r>
       <r>   15.5793    0.0000 </r>
       <r>   15.6451    0.0000 </r>
       <r>   15.6451    0.0000 </r>
       <r>   20.4490    0.0000 </r>
       <r>   20.5783    0.0000 </r>
       <r>   20.5783    0.0000 </r>
      </set>
      <set comment="kpoint 2">
       <r>   -2.8520    1.0000 </r>
       <r>   -1.1582    1.0000 </r>
       <r>   -1.0499    1.0000 </r>
       <r>   -0.5197    1.0000 </r>
       <r>   -0.4555    1.0000 </r>
       <r>   -0.3052    1.0047 </r>
       <r>   10.8628    0.0000 </r>
       <r>   13.5725    0.0000 </r>
       <r>   13.8294    0.0000 </r>
       <r>   19.7124    0.0000 </r>
       <r>   20.2684    0.0000 </r>
       <r>   21.9305    0.0000 </r>
      </set>
      <set comment="kpoint 3">
       <r>   -1.9482    1.0000 </r>
       <r>   -1.2851    1.0000 </r>
       <r>   -0.6113    1.0000 </r>
       <r>   -0.4717    1.0000 </r>
       <r>   -0.4287    1.0000 </r>
       <r>    0.5289    0.9283 </r>
       <r>    6.6902    0.0000 </r>
       <r>   12.1920    0.0000 </r>
       <r>   12.6883    0.0000 </r>
       <r>   18.8379    0.0000 </r>
       <r>   19.7027    0.0000 </r>
       <r>   24.1187    0.0000 </r>
      </set>
      <set comment="kpoint 4">
       <r>   -1.8564    1.0000 </r>
       <r>   -1.3348    1.0000 </r>
       <r>   -0.4592    1.0000 </r>
       <r>   -0.4187    1.0000 </r>
       <r>   -0.2263    1.0000 </r>
       <r>    2.1597    0.0025 </r>
       <r>    3.9466    0.0000 </r>
       <r>   11.6901    0.0000 </r>
       <r>   12.2965    0.0000 </r>
       <r>   18.5438    0.0000 </r>
       <r>   19.5198    0.0000 </r>
       <r>   25.6976    0.0000 </r>
      </set>
      <set comment="kpoint 5">
       <r>   -4.3174    1.0000 </r>
       <r>   -0.9479    1.0000 </r>
       <r>   -0.9479    1.0000 </r>
       <r>   -0.9171    1.0000 </r>
       <r>   -0.5133    1.0000 </r>
       <r>   -0.4504    1.0000 </r>
       <r>   17.9039    0.0000 </r>
       <r>   17.9039    0.0000 </r>
       <r>   18.2159    0.0000 </r>
       <r>   18.2304    0.0000 </r>
       <r>   20.0516    0.0000 </r>
       <r>   20.0516    0.0000 </r>
      </set>
      <set comment="kpoint 6">
       <r>   -1.8412    1.0000 </r>
       <r>   -1.2245    1.0000 </r>
       <r>   -1.1561    1.0000 </r>
       <r>   -0.4945    1.0000 </r>
       <r>   -0.4173    1.0000 </r>
       <r>    0.5311    0.9168 </r>
       <r>    9.0578    0.0000 </r>
       <r>    9.5035    0.0000 </r>
       <r>   12.2165    0.0000 </r>
       <r>   21.0195    0.0000 </r>
       <r>   21.9472    0.0000 </r>
       <r>   23.7698    0.0000 </r>
      </set>
      <set comment="kpoint 7">
       <r>   -1.5825    1.0000 </r>
       <r>   -1.2959    1.0000 </r>
       <r>   -0.8179    1.0000 </r>
       <r>   -0.4483    1.0000 </r>
       <r>   -0.3758    1.0000 </r>
       <r>    2.3594    0.0089 </r>
       <r>    5.4975    0.0000 </r>
       <r>    8.4543    0.0000 </r>
       <r>   11.4398    0.0000 </r>
       <r>   20.8188    0.0000 </r>
       <r>   23.4640    0.0000 </r>
       <r>   24.0396    0.0000 </r>
      </set>
      <set comment="kpoint 8">
       <r>   -3.5440    1.0000 </r>
       <r>   -1.0390    1.0000 </r>
       <r>   -0.9472    1.0000 </r>
       <r>   -0.6786    1.0000 </r>
       <r>   -0.5968    1.0000 </r>
       <r>   -0.4198    1.0000 </r>
       <r>   13.1246    0.0000 </r>
       <r>   15.5843    0.0000 </r>
       <r>   16.1573    0.0000 </r>
       <r>   18.4495    0.0000 </r>
       <r>   18.9892    0.0000 </r>
       <r>   20.0792    0.0000 </r>
      </set>
      <set comment="kpoint 9">
       <r>   -1.4592    1.0000 </r>
       <r>   -1.0988    1.0000 </r>
       <r>   -1.0988    1.0000 </r>
       <r>   -0.3965    1.0000 </r>
       <r>   -0.3965    1.0000 </r>
       <r>    4.9961   -0.0094 </r>
       <r>    4.9961    0.0000 </r>
       <r>    5.1843    0.0000 </r>
       <r>   11.0904    0.0000 </r>
       <r>   22.7733    0.0000 </r>
       <r>   22.7733    0.0000 </r>
       <r>   24.6356    0.0000 </r>
      </set>
      <set comment="kpoint 10">
       <r>   -2.3504    1.0000 </r>
       <r>   -1.1791    1.0000 </r>
       <r>   -0.8250    1.0000 </r>
       <r>   -0.5234    1.0000 </r>
       <r>   -0.3156    1.0000 </r>
       <r>   -0.2963    1.0278 </r>
       <r>    8.6113    0.0000 </r>
       <r>   13.7331    0.0000 </r>
       <r>   14.5890    0.0000 </r>
       <r>   17.8705    0.0000 </r>
       <r>   18.4309    0.0000 </r>
       <r>   21.0101    0.0000 </r>
      </set>
      <set comment="kpoint 11">
       <r>   -2.5392    1.0000 </r>
       <r>   -1.0720    1.0000 </r>
       <r>   -1.0219    1.0000 </r>
       <r>   -0.6455    1.0000 </r>
       <r>   -0.4072    1.0000 </r>
       <r>   -0.2367    1.0150 </r>
       <r>   11.0606    0.0000 </r>
       <r>   11.3373    0.0000 </r>
       <r>   15.8970    0.0000 </r>
       <r>   17.2260    0.0000 </r>
       <r>   18.9079    0.0000 </r>
       <r>   22.4265    0.0000 </r>
      </set>
      <set comment="kpoint 12">
       <r>   -1.9232    1.0000 </r>
       <r>   -1.2767    1.0000 </r>
       <r>   -0.5751    1.0000 </r>
       <r>   -0.4796    1.0000 </r>
       <r>    0.0016    1.0000 </r>
       <r>    1.1505    0.6260 </r>
       <r>    4.8724    0.0000 </r>
       <r>   12.6767    0.0000 </r>
       <r>   13.7571    0.0000 </r>
       <r>   17.3293    0.0000 </r>
       <r>   18.2922    0.0000 </r>
       <r>   22.8985    0.0000 </r>
      </set>
      <set comment="kpoint 13">
       <r>   -1.7591    1.0000 </r>
       <r>   -1.1905    1.0000 </r>
       <r>   -0.9164    1.0000 </r>
       <r>   -0.5403    1.0000 </r>
       <r>   -0.2511    1.0000 </r>
       <r>    0.8591    0.7394 </r>
       <r>    7.0244    0.0000 </r>
       <r>    9.9561    0.0000 </r>
       <r>   14.7810    0.0000 </r>
       <r>   17.4197    0.0000 </r>
       <r>   19.5894    0.0000 </r>
       <r>   22.4869    0.0000 </r>
      </set>
      <set comment="kpoint 14">
       <r>   -1.6961    1.0000 </r>
       <r>   -1.2127    1.0000 </r>
       <r>   -0.8286    1.0000 </r>
       <r>   -0.5117    1.0000 </r>
       <r>   -0.1015    1.0000 </r>
       <r>    2.7903   -0.0777 </r>
       <r>    4.1269    0.0000 </r>
       <r>    9.5031    0.0000 </r>
       <r>   14.3342    0.0000 </r>
       <r>   17.3858    0.0000 </r>
       <r>   21.3937    0.0000 </r>
       <r>   21.6474    0.0000 </r>
      </set>
      <set comment="kpoint 15">
       <r>   -1.4268    1.0000 </r>
       <r>   -1.2558    1.0000 </r>
       <r>   -1.0513    1.0000 </r>
       <r>   -0.4294    1.0000 </r>
       <r>   -0.2585    1.0000 </r>
       <r>    3.0794   -0.0413 </r>
       <r>    6.1170    0.0000 </r>
       <r>    6.2567    0.0000 </r>
       <r>   14.7323    0.0000 </r>
       <r>   18.3150    0.0000 </r>
       <r>   19.3816    0.0000 </r>
       <r>   21.9007    0.0000 </r>
      </set>
      <set comment="kpoint 16">
       <r>   -1.2950    1.0000 </r>
       <r>   -1.2950    1.0000 </r>
       <r>   -1.1963    1.0000 </r>
       <r>   -0.4256    1.0000 </r>
       <r>   -0.4256    1.0000 </r>
       <r>    2.1367    0.0676 </r>
       <r>    7.6276    0.0000 </r>
       <r>    8.3646    0.0000 </r>
       <r>    8.3646    0.0000 </r>
       <r>   25.0232    0.0000 </r>
       <r>   25.7735    0.0000 </r>
       <r>   25.7735    0.0000 </r>
      </set>
      <set comment="kpoint 17">
       <r>   -1.3292    1.0000 </r>
       <r>   -1.3104    1.0000 </r>
       <r>   -0.9973    1.0000 </r>
       <r>   -0.4144    1.0000 </r>
       <r>   -0.4108    1.0000 </r>
       <r>    4.5469   -0.0113 </r>
       <r>    4.8391    0.0000 </r>
       <r>    7.4943    0.0000 </r>
       <r>    7.9786    0.0000 </r>
       <r>   25.2173    0.0000 </r>
       <r>   26.2171    0.0000 </r>
       <r>   27.3317    0.0000 </r>
      </set>
      <set comment="kpoint 18">
       <r>   -2.8288    1.0000 </r>
       <r>   -0.8688    1.0000 </r>
       <r>   -0.8688    1.0000 </r>
       <r>   -0.8484    1.0000 </r>
       <r>   -0.6717    1.0000 </r>
       <r>   -0.2859    1.0057 </r>
       <r>   13.3070    0.0000 </r>
       <r>   13.3070    0.0000 </r>
       <r>   14.2515    0.0000 </r>
       <r>   14.6053    0.0000 </r>
       <r>   21.9683    0.0000 </r>
       <r>   21.9683    0.0000 </r>
      </set>
      <set comment="kpoint 19">
       <r>   -1.8669    1.0000 </r>
       <r>   -1.1075    1.0000 </r>
       <r>   -0.9149    1.0000 </r>
       <r>   -0.6599    1.0000 </r>
       <r>   -0.3367    1.0000 </r>
       <r>    0.2339    1.0044 </r>
       <r>    9.2650    0.0000 </r>
       <r>   11.5252    0.0000 </r>
       <r>   13.1594    0.0000 </r>
       <r>   15.4547    0.0000 </r>
       <r>   21.1785    0.0000 </r>
       <r>   22.0925    0.0000 </r>
      </set>
      <set comment="kpoint 20">
       <r>   -1.6296    1.0000 </r>
       <r>   -1.1012    1.0000 </r>
       <r>   -0.9860    1.0000 </r>
       <r>   -0.5933    1.0000 </r>
       <r>   -0.0272    1.0000 </r>
       <r>    2.1532    0.0448 </r>
       <r>    5.4648    0.0000 </r>
       <r>   10.5210    0.0000 </r>
       <r>   12.5310    0.0000 </r>
       <r>   17.5996    0.0000 </r>
       <r>   20.3358    0.0000 </r>
       <r>   20.5294    0.0000 </r>
      </set>
      <set comment="kpoint 21">
       <r>   -1.4779    1.0000 </r>
       <r>   -1.3370    1.0000 </r>
       <r>   -0.8730    1.0000 </r>
       <r>   -0.5144    1.0000 </r>
       <r>   -0.1796    1.0000 </r>
       <r>    1.8431    0.1474 </r>
       <r>    7.8806    0.0000 </r>
       <r>    8.1256    0.0000 </r>
       <r>   14.2200    0.0000 </r>
       <r>   14.6019    0.0000 </r>
       <r>   19.9819    0.0000 </r>
       <r>   21.2547    0.0000 </r>
      </set>
      <set comment="kpoint 22">
       <r>   -1.4808    1.0000 </r>
       <r>   -1.3155    1.0000 </r>
       <r>   -0.9527    1.0000 </r>
       <r>   -0.4029    1.0000 </r>
       <r>   -0.0891    1.0000 </r>
       <r>    4.2829   -0.0251 </r>
       <r>    4.7956    0.0000 </r>
       <r>    7.5449    0.0000 </r>
       <r>   14.0397    0.0000 </r>
       <r>   16.9221    0.0000 </r>
       <r>   16.9743    0.0000 </r>
       <r>   20.7628    0.0000 </r>
      </set>
      <set comment="kpoint 23">
       <r>   -1.5576    1.0000 </r>
       <r>   -1.3528    1.0000 </r>
       <r>   -0.5615    1.0000 </r>
       <r>   -0.5615    1.0000 </r>
       <r>   -0.3252    1.0000 </r>
       <r>    1.4087    0.3333 </r>
       <r>    9.6952    0.0000 </r>
       <r>    9.6952    0.0000 </r>
       <r>   11.8175    0.0000 </r>
       <r>   12.4310    0.0000 </r>
       <r>   20.0971    0.0000 </r>
       <r>   25.0820    0.0000 </r>
      </set>
      <set comment="kpoint 24">
       <r>   -1.5752    1.0000 </r>
       <r>   -1.5180    1.0000 </r>
       <r>   -0.5138    1.0000 </r>
       <r>   -0.4076    1.0000 </r>
       <r>   -0.0671    1.0000 </r>
       <r>    3.6256   -0.0211 </r>
       <r>    6.6804    0.0000 </r>
       <r>    8.6433    0.0000 </r>
       <r>   11.6054    0.0000 </r>
       <r>   13.5784    0.0000 </r>
       <r>   16.4563    0.0000 </r>
       <r>   24.5411    0.0000 </r>
      </set>
      <set comment="kpoint 25">
       <r>   -1.6239    1.0000 </r>
       <r>   -1.6239    1.0000 </r>
       <r>   -0.4724    1.0000 </r>
       <r>   -0.1161    1.0000 </r>
       <r>   -0.1161    1.0000 </r>
       <r>    6.1744    0.0000 </r>
       <r>    6.1954    0.0000 </r>
       <r>    6.1954    0.0000 </r>
       <r>   13.0456    0.0000 </r>
       <r>   13.3682    0.0000 </r>
       <r>   13.3682    0.0000 </r>
       <r>   24.7636    0.0000 </r>
      </set>
      <set comment="kpoint 26">
       <r>   -1.7261    1.0000 </r>
       <r>   -1.7259    1.0000 </r>
       <r>   -0.1305    1.0000 </r>
       <r>   -0.1305    1.0000 </r>
       <r>   -0.0811    1.0000 </r>
       <r>    5.6714    0.0000 </r>
       <r>    7.5350    0.0000 </r>
       <r>    7.5350    0.0000 </r>
       <r>   10.8762    0.0000 </r>
       <r>   11.4726    0.0000 </r>
       <r>   13.0091    0.0000 </r>
       <r>   28.1286    0.0000 </r>
      </set>
     </set>
     <set comment="spin 2">
      <set comment="kpoint 1">
       <r>   -3.6070    1.0000 </r>
       <r>    1.4179    0.2145 </r>
       <r>    1.4179    0.1079 </r>
       <r>    1.7939    0.0000 </r>
       <r>    2.2876    0.0000 </r>
       <r>    2.2876    0.0000 </r>
       <r>   16.1287    0.0000 </r>
       <r>   16.1287    0.0000 </r>
       <r>   16.3811    0.0000 </r>
       <r>   20.4207    0.0000 </r>
       <r>   21.1531    0.0000 </r>
       <r>   21.1531    0.0000 </r>
      </set>
      <set comment="kpoint 2">
       <r>   -2.4675    1.0000 </r>
       <r>    1.2116    1.0535 </r>
       <r>    1.2764    0.9642 </r>
       <r>    2.2262    0.0000 </r>
       <r>    2.2475    0.0000 </r>
       <r>    2.3448    0.0000 </r>
       <r>   11.5690    0.0000 </r>
       <r>   14.2626    0.0000 </r>
       <r>   14.3346    0.0000 </r>
       <r>   20.0301    0.0000 </r>
       <r>   20.8690    0.0000 </r>
       <r>   22.3584    0.0000 </r>
      </set>
      <set comment="kpoint 3">
       <r>   -0.9119    1.0000 </r>
       <r>    1.0279    1.0003 </r>
       <r>    1.2303    0.9902 </r>
       <r>    2.2612    0.0000 </r>
       <r>    2.3927    0.0000 </r>
       <r>    2.8061    0.0000 </r>
       <r>    7.6018    0.0000 </r>
       <r>   12.8398    0.0000 </r>
       <r>   13.1814    0.0000 </r>
       <r>   19.2735    0.0000 </r>
       <r>   20.3402    0.0000 </r>
       <r>   24.5862    0.0000 </r>
      </set>
      <set comment="kpoint 4">
       <r>   -0.1589    1.0000 </r>
       <r>    0.9562    1.0000 </r>
       <r>    1.5747    0.1960 </r>
       <r>    2.2804    0.0000 </r>
       <r>    2.4121    0.0000 </r>
       <r>    3.3158    0.0000 </r>
       <r>    5.3970    0.0000 </r>
       <r>   12.3046    0.0000 </r>
       <r>   12.7795    0.0000 </r>
       <r>   19.0135    0.0000 </r>
       <r>   20.1804    0.0000 </r>
       <r>   25.8436    0.0000 </r>
      </set>
      <set comment="kpoint 5">
       <r>   -4.0057    1.0000 </r>
       <r>    1.5151   -0.0315 </r>
       <r>    1.5151   -0.0106 </r>
       <r>    1.5620    0.0000 </r>
       <r>    2.2565    0.0000 </r>
       <r>    2.3500    0.0000 </r>
       <r>   18.3656    0.0000 </r>
       <r>   18.5416    0.0000 </r>
       <r>   18.5416    0.0000 </r>
       <r>   18.9116    0.0000 </r>
       <r>   20.3610    0.0000 </r>
       <r>   20.3610    0.0000 </r>
      </set>
      <set comment="kpoint 6">
       <r>   -1.1231    1.0000 </r>
       <r>    1.0268    1.0010 </r>
       <r>    1.0690    1.0207 </r>
       <r>    2.2601    0.0000 </r>
       <r>    2.3896    0.0000 </r>
       <r>    2.8772    0.0000 </r>
       <r>    9.7617    0.0000 </r>
       <r>   10.2433    0.0000 </r>
       <r>   12.8181    0.0000 </r>
       <r>   21.2890    0.0000 </r>
       <r>   22.5582    0.0000 </r>
       <r>   24.2130    0.0000 </r>
      </set>
      <set comment="kpoint 7">
       <r>    0.1082    1.0000 </r>
       <r>    0.9142    1.0000 </r>
       <r>    1.0750    1.0206 </r>
       <r>    2.3112    0.0000 </r>
       <r>    2.4180    0.0000 </r>
       <r>    3.8903    0.0000 </r>
       <r>    6.4735    0.0000 </r>
       <r>    9.1740    0.0000 </r>
       <r>   12.0451    0.0000 </r>
       <r>   21.2032    0.0000 </r>
       <r>   23.9326    0.0000 </r>
       <r>   24.4770    0.0000 </r>
      </set>
      <set comment="kpoint 8">
       <r>   -3.2161    1.0000 </r>
       <r>    1.3842    0.4697 </r>
       <r>    1.4668    0.0082 </r>
       <r>    1.8526    0.0000 </r>
       <r>    2.1216    0.0000 </r>
       <r>    2.3871    0.0000 </r>
       <r>   13.7744    0.0000 </r>
       <r>   16.3056    0.0000 </r>
       <r>   16.5717    0.0000 </r>
       <r>   18.9842    0.0000 </r>
       <r>   19.4651    0.0000 </r>
       <r>   20.4321    0.0000 </r>
      </set>
      <set comment="kpoint 9">
       <r>    0.6223    1.0000 </r>
       <r>    0.8979    1.0000 </r>
       <r>    0.8979    1.0029 </r>
       <r>    2.3822    0.0000 </r>
       <r>    2.3822    0.0000 </r>
       <r>    5.9933    0.0000 </r>
       <r>    5.9933    0.0000 </r>
       <r>    6.1432    0.0000 </r>
       <r>   11.7186    0.0000 </r>
       <r>   23.0387    0.0000 </r>
       <r>   23.0387    0.0000 </r>
       <r>   25.5148    0.0000 </r>
      </set>
      <set comment="kpoint 10">
       <r>   -1.7824    1.0000 </r>
       <r>    1.1861    1.0221 </r>
       <r>    1.3155    0.8390 </r>
       <r>    2.1450    0.0000 </r>
       <r>    2.3340    0.0000 </r>
       <r>    2.4227    0.0000 </r>
       <r>    9.4145    0.0000 </r>
       <r>   14.4208    0.0000 </r>
       <r>   14.9639    0.0000 </r>
       <r>   18.4584    0.0000 </r>
       <r>   19.0000    0.0000 </r>
       <r>   21.4477    0.0000 </r>
      </set>
      <set comment="kpoint 11">
       <r>   -2.1059    1.0000 </r>
       <r>    1.2959    0.9713 </r>
       <r>    1.3342    0.6819 </r>
       <r>    2.0146    0.0000 </r>
       <r>    2.2194    0.0000 </r>
       <r>    2.4596    0.0000 </r>
       <r>   11.7593    0.0000 </r>
       <r>   12.0227    0.0000 </r>
       <r>   16.4631    0.0000 </r>
       <r>   17.6398    0.0000 </r>
       <r>   19.4942    0.0000 </r>
       <r>   22.8121    0.0000 </r>
      </set>
      <set comment="kpoint 12">
       <r>   -0.4177    1.0000 </r>
       <r>    1.0497    1.0000 </r>
       <r>    1.4932    0.1318 </r>
       <r>    2.2178    0.0000 </r>
       <r>    2.6111    0.0000 </r>
       <r>    2.7238    0.0000 </r>
       <r>    6.0561    0.0000 </r>
       <r>   13.2950    0.0000 </r>
       <r>   14.0970    0.0000 </r>
       <r>   17.9806    0.0000 </r>
       <r>   18.9297    0.0000 </r>
       <r>   23.2718    0.0000 </r>
      </set>
      <set comment="kpoint 13">
       <r>   -0.6159    1.0000 </r>
       <r>    1.0779    1.0022 </r>
       <r>    1.2371    0.9714 </r>
       <r>    2.1149    0.0000 </r>
       <r>    2.4481    0.0000 </r>
       <r>    2.9365    0.0000 </r>
       <r>    7.8915    0.0000 </r>
       <r>   10.6476    0.0000 </r>
       <r>   15.2691    0.0000 </r>
       <r>   17.9492    0.0000 </r>
       <r>   20.1454    0.0000 </r>
       <r>   22.9736    0.0000 </r>
      </set>
      <set comment="kpoint 14">
       <r>    0.1041    1.0000 </r>
       <r>    1.0922    1.0000 </r>
       <r>    1.2034    1.0112 </r>
       <r>    2.1600    0.0000 </r>
       <r>    2.5735    0.0000 </r>
       <r>    3.8459    0.0000 </r>
       <r>    5.4804    0.0000 </r>
       <r>   10.1757    0.0000 </r>
       <r>   14.7957    0.0000 </r>
       <r>   17.9901    0.0000 </r>
       <r>   21.6963    0.0000 </r>
       <r>   22.3078    0.0000 </r>
      </set>
[...]
       </set>
       <set comment="band 5">
        <r>  0.0047  0.0005  0.0005  0.0040  0.0783  0.3190  0.1174  0.0783  0.3523 </r>
       </set>
       <set comment="band 6">
        <r>  0.0876  0.0157  0.0157  0.0923  0.1178  0.1033  0.0406  0.1178  0.1217 </r>
       </set>
       <set comment="band 7">
        <r>  0.3447  0.0342  0.0342  0.0368  0.0324  0.0722  0.0032  0.0324  0.0097 </r>
       </set>
       <set comment="band 8">
        <r>  0.0000  0.1238  0.1238  0.0000  0.0940  0.0000  0.0847  0.0940  0.0282 </r>
       </set>
       <set comment="band 9">
        <r>  0.0041  0.1429  0.1429  0.0996  0.0207  0.0357  0.0001  0.0207  0.0002 </r>
       </set>
       <set comment="band 10">
        <r>  0.0000  0.0386  0.0386  0.0000  0.0117  0.0000  0.1549  0.0117  0.0516 </r>
       </set>
       <set comment="band 11">
        <r>  0.0637  0.0252  0.0252  0.0023  0.0297  0.0706  0.0357  0.0297  0.1070 </r>
       </set>
       <set comment="band 12">
        <r>  0.1108  0.0216  0.0216  0.1654  0.0694  0.0454  0.0171  0.0694  0.0513 </r>
       </set>
      </set>
      <set comment="kpoint 16">
       <set comment="band 1">
        <r>  0.1229  0.0356  0.0356  0.0356  0.1036  0.1036  0.0000  0.1036  0.0000 </r>
       </set>
       <set comment="band 2">
        <r>  0.0000  0.0014  0.0100  0.0151  0.2835  0.4266  0.0233  0.0410  0.0178 </r>
       </set>
       <set comment="band 3">
        <r>  0.0000  0.0162  0.0077  0.0026  0.2172  0.0741  0.0178  0.4598  0.0233 </r>
       </set>
       <set comment="band 4">
        <r>  0.0000  0.0000  0.0000  0.0000  0.0090  0.0310  0.2327  0.0128  0.6780 </r>
       </set>
       <set comment="band 5">
        <r>  0.0000  0.0000  0.0000  0.0000  0.0262  0.0042  0.6780  0.0224  0.2327 </r>
       </set>
       <set comment="band 6">
        <r>  0.0778  0.0199  0.0199  0.0199  0.2278  0.2278  0.0000  0.2278  0.0000 </r>
       </set>
       <set comment="band 7">
        <r>  0.4017  0.0573  0.0573  0.0573  0.0001  0.0001  0.0000  0.0001  0.0000 </r>
       </set>
       <set comment="band 8">
        <r>  0.0000  0.0208  0.1122  0.0997  0.1132  0.1005  0.0131  0.0210  0.0050 </r>
       </set>
       <set comment="band 9">
        <r>  0.0000  0.1343  0.0429  0.0555  0.0433  0.0559  0.0050  0.1355  0.0131 </r>
       </set>
       <set comment="band 10">
        <r>  0.0000  0.0000  0.0000  0.0000  0.0000  0.0000  0.0000  0.0000  0.0000 </r>
       </set>
       <set comment="band 11">
        <r>  0.0000  0.0072  0.0012  0.0026  0.0227  0.0479  0.0137  0.1351  0.0694 </r>
       </set>
       <set comment="band 12">
        <r>  0.0000  0.0001  0.0061  0.0048  0.1145  0.0892  0.0694  0.0020  0.0137 </r>
       </set>
      </set>
      <set comment="kpoint 17">
       <set comment="band 1">
        <r>  0.0277  0.0000  0.0000  0.0466  0.0000  0.6255  0.0107  0.0000  0.0320 </r>
       </set>
       <set comment="band 2">
        <r>  0.0000  0.0151  0.0151  0.0000  0.3904  0.0000  0.0000  0.3904  0.0000 </r>
       </set>
       <set comment="band 3">
        <r>  0.0000  0.0454  0.0454  0.0000  0.3089  0.0000  0.0000  0.3089  0.0000 </r>
       </set>
       <set comment="band 4">
        <r>  0.0003  0.0000  0.0000  0.0001  0.0000  0.0597  0.2261  0.0000  0.6783 </r>
       </set>
       <set comment="band 5">
        <r>  0.0000  0.0000  0.0000  0.0000  0.0000  0.0000  0.7247  0.0000  0.2416 </r>
       </set>
       <set comment="band 6">
        <r>  0.0000  0.1037  0.1037  0.0000  0.1950  0.0000  0.0000  0.1950  0.0000 </r>
       </set>
       <set comment="band 7">
        <r>  0.4040  0.0000  0.0000  0.0301  0.0000  0.2174  0.0025  0.0000  0.0075 </r>
       </set>
       <set comment="band 8">
        <r>  0.1860  0.0000  0.0000  0.2154  0.0000  0.1210  0.0027  0.0000  0.0082 </r>
       </set>
       <set comment="band 9">
        <r>  0.0000  0.1157  0.1157  0.0000  0.1295  0.0000  0.0000  0.1295  0.0000 </r>
       </set>
       <set comment="band 10">
        <r>  0.0000  0.0015  0.0015  0.0000  0.0769  0.0000  0.0000  0.0769  0.0000 </r>
       </set>
       <set comment="band 11">
        <r>  0.0180  0.0000  0.0000  0.1499  0.0000  0.0010  0.0668  0.0000  0.2003 </r>
       </set>
       <set comment="band 12">
        <r>  0.0000  0.0319  0.0319  0.0000  0.0173  0.0000  0.0000  0.0173  0.0000 </r>
       </set>
      </set>
      <set comment="kpoint 18">
       <set comment="band 1">
        <r>  0.3100  0.0000  0.0000  0.0623  0.0000  0.0000  0.0044  0.0000  0.0131 </r>
       </set>
       <set comment="band 2">
        <r>  0.0000  0.0039  0.0039  0.0000  0.4502  0.0000  0.0000  0.4502  0.0000 </r>
       </set>
       <set comment="band 3">
        <r>  0.0000  0.0039  0.0039  0.0000  0.4502  0.0000  0.0000  0.4502  0.0000 </r>
       </set>
       <set comment="band 4">
        <r>  0.0000  0.0000  0.0000  0.0000  0.0000  0.0000  0.6731  0.0000  0.2244 </r>
       </set>
       <set comment="band 5">
        <r>  0.0000  0.0000  0.0000  0.0000  0.0000  0.9405  0.0000  0.0000  0.0000 </r>
       </set>
       <set comment="band 6">
        <r>  0.0107  0.0000  0.0000  0.0013  0.0000  0.0000  0.2366  0.0000  0.7097 </r>
       </set>
       <set comment="band 7">
        <r>  0.0000  0.1776  0.1776  0.0000  0.0937  0.0000  0.0000  0.0937  0.0000 </r>
       </set>
       <set comment="band 8">
        <r>  0.0000  0.1776  0.1776  0.0000  0.0937  0.0000  0.0000  0.0937  0.0000 </r>
       </set>
       <set comment="band 9">
        <r>  0.2089  0.0000  0.0000  0.2930  0.0000  0.0000  0.0002  0.0000  0.0007 </r>
       </set>
       <set comment="band 10">
        <r>  0.0000  0.0000  0.0000  0.0000  0.0000  0.0000  0.1963  0.0000  0.0654 </r>
       </set>
       <set comment="band 11">
        <r>  0.0000  0.0303  0.1968  0.0000  0.0097  0.0000  0.0000  0.0628  0.0000 </r>
       </set>
       <set comment="band 12">
        <r>  0.0000  0.1967  0.0303  0.0000  0.0628  0.0000  0.0000  0.0097  0.0000 </r>
       </set>
      </set>
      <set comment="kpoint 19">
       <set comment="band 1">
        <r>  0.2290  0.0041  0.0000  0.0911  0.0225  0.0000  0.0278  0.0000  0.0524 </r>
       </set>
       <set comment="band 2">
        <r>  0.0003  0.0103  0.0000  0.0030  0.2355  0.0000  0.3982  0.0000  0.1936 </r>
       </set>
       <set comment="band 3">
        <r>  0.0000  0.0000  0.0081  0.0000  0.0000  0.2580  0.0000  0.6350  0.0000 </r>
       </set>
       <set comment="band 4">
        <r>  0.0000  0.0072  0.0000  0.0022  0.6041  0.0000  0.2834  0.0000  0.0159 </r>
       </set>
       <set comment="band 5">
        <r>  0.0000  0.0000  0.0028  0.0000  0.0000  0.6893  0.0000  0.2631  0.0000 </r>
       </set>
       <set comment="band 6">
        <r>  0.0412  0.0019  0.0000  0.0116  0.0156  0.0000  0.1771  0.0000  0.6734 </r>
       </set>
       <set comment="band 7">
        <r>  0.1137  0.1974  0.0000  0.0453  0.1285  0.0000  0.0256  0.0000  0.0201 </r>
       </set>
       <set comment="band 8">
        <r>  0.0000  0.0000  0.3804  0.0000  0.0000  0.0032  0.0000  0.1469  0.0000 </r>
       </set>
       <set comment="band 9">
        <r>  0.1285  0.0240  0.0000  0.1066  0.0017  0.0000  0.1390  0.0000  0.0092 </r>
       </set>
       <set comment="band 10">
        <r>  0.0411  0.1549  0.0000  0.0507  0.0373  0.0000  0.0739  0.0000  0.0654 </r>
       </set>
       <set comment="band 11">
        <r>  0.0000  0.0000  0.1234  0.0000  0.0000  0.2272  0.0000  0.1025  0.0000 </r>
       </set>
       <set comment="band 12">
        <r>  0.0668  0.1171  0.0000  0.0137  0.0949  0.0000  0.0518  0.0000  0.0413 </r>
       </set>
      </set>
      <set comment="kpoint 20">
       <set comment="band 1">
        <r>  0.1011  0.0004  0.0000  0.0505  0.2100  0.0000  0.2100  0.0000  0.0549 </r>
       </set>
       <set comment="band 2">
        <r>  0.0006  0.0377  0.0000  0.0293  0.0627  0.0000  0.1401  0.0000  0.4522 </r>
       </set>
       <set comment="band 3">
        <r>  0.0000  0.0000  0.0081  0.0000  0.0000  0.3926  0.0000  0.4930  0.0000 </r>
       </set>
       <set comment="band 4">
        <r>  0.0118  0.0036  0.0000  0.0002  0.4317  0.0000  0.4615  0.0000  0.0088 </r>
       </set>
       <set comment="band 5">
        <r>  0.0000  0.0000  0.0008  0.0000  0.0000  0.5505  0.0000  0.4257  0.0000 </r>
       </set>
       <set comment="band 6">
        <r>  0.0665  0.0381  0.0000  0.0866  0.0900  0.0000  0.0389  0.0000  0.4066 </r>
       </set>
       <set comment="band 7">
        <r>  0.2193  0.1183  0.0000  0.0116  0.1987  0.0000  0.0464  0.0000  0.0321 </r>
       </set>
       <set comment="band 8">
        <r>  0.0000  0.0000  0.4024  0.0000  0.0000  0.0256  0.0000  0.0824  0.0000 </r>
       </set>
       <set comment="band 9">
        <r>  0.1284  0.0458  0.0000  0.0709  0.0010  0.0000  0.1644  0.0000  0.0012 </r>
       </set>
       <set comment="band 10">
        <r>  0.0199  0.1839  0.0000  0.0280  0.0125  0.0000  0.0662  0.0000  0.1094 </r>
       </set>
       <set comment="band 11">
        <r>  0.0001  0.0480  0.0000  0.1979  0.0020  0.0000  0.1004  0.0000  0.1153 </r>
       </set>
       <set comment="band 12">
        <r>  0.0000  0.0000  0.1065  0.0000  0.0000  0.2093  0.0000  0.1587  0.0000 </r>
       </set>
      </set>
      <set comment="kpoint 21">
       <set comment="band 1">
        <r>  0.1067  0.0023  0.0023  0.0844  0.0390  0.0000  0.0708  0.0390  0.2124 </r>
       </set>
       <set comment="band 2">
        <r>  0.0000  0.0075  0.0075  0.0000  0.0673  0.0000  0.4930  0.0673  0.1643 </r>
       </set>
       <set comment="band 3">
        <r>  0.0038  0.0057  0.0057  0.0033  0.2378  0.3039  0.0210  0.2378  0.0629 </r>
       </set>
       <set comment="band 4">
        <r>  0.0000  0.0052  0.0052  0.0000  0.3712  0.0000  0.1294  0.3712  0.0431 </r>
       </set>
       <set comment="band 5">
        <r>  0.0096  0.0000  0.0000  0.0028  0.0951  0.5920  0.0402  0.0951  0.1206 </r>
       </set>
       <set comment="band 6">
        <r>  0.0972  0.0058  0.0058  0.0661  0.0755  0.0514  0.1020  0.0755  0.3060 </r>
       </set>
       <set comment="band 7">
        <r>  0.2152  0.0876  0.0876  0.0397  0.0454  0.0150  0.0037  0.0454  0.0112 </r>
       </set>
       <set comment="band 8">
        <r>  0.0000  0.1444  0.1444  0.0000  0.0625  0.0000  0.0760  0.0625  0.0253 </r>
       </set>
       <set comment="band 9">
        <r>  0.1369  0.1153  0.1153  0.0838  0.0080  0.0007  0.0117  0.0080  0.0350 </r>
       </set>
       <set comment="band 10">
        <r>  0.0000  0.0389  0.0389  0.0000  0.0101  0.0000  0.1951  0.0101  0.0650 </r>
       </set>
       <set comment="band 11">
        <r>  0.0006  0.0271  0.0271  0.1555  0.0118  0.0429  0.0441  0.0118  0.1322 </r>
       </set>
       <set comment="band 12">
        <r>  0.1170  0.0097  0.0097  0.0487  0.0681  0.1076  0.0074  0.0681  0.0222 </r>
       </set>
      </set>
      <set comment="kpoint 22">
       <set comment="band 1">
        <r>  0.0258  0.0102  0.0072  0.0102  0.1798  0.0004  0.5106  0.0004  0.0000 </r>
       </set>
       <set comment="band 2">
        <r>  0.0000  0.0297  0.0000  0.0297  0.0000  0.0189  0.0000  0.0189  0.6205 </r>
       </set>
       <set comment="band 3">
        <r>  0.0209  0.0003  0.0085  0.0003  0.1329  0.3142  0.0754  0.3142  0.0000 </r>
       </set>
       <set comment="band 4">
        <r>  0.0062  0.0023  0.0041  0.0023  0.4665  0.1198  0.2101  0.1198  0.0000 </r>
       </set>
       <set comment="band 5">
        <r>  0.0000  0.0033  0.0000  0.0033  0.0000  0.4352  0.0000  0.4352  0.0863 </r>
       </set>
       <set comment="band 6">
        <r>  0.0000  0.1283  0.0000  0.1283  0.0000  0.0372  0.0000  0.0372  0.2378 </r>
       </set>
       <set comment="band 7">
        <r>  0.2992  0.0367  0.0054  0.0367  0.2043  0.0039  0.0672  0.0039  0.0000 </r>
       </set>
       <set comment="band 8">
        <r>  0.0903  0.0107  0.2469  0.0107  0.0028  0.0477  0.0674  0.0477  0.0000 </r>
       </set>
       <set comment="band 9">
        <r>  0.0781  0.0301  0.1420  0.0301  0.0001  0.0046  0.1554  0.0046  0.0000 </r>
       </set>
       <set comment="band 10">
        <r>  0.0000  0.0375  0.0000  0.0375  0.0000  0.0013  0.0000  0.0013  0.2499 </r>
       </set>
       <set comment="band 11">
        <r>  0.0712  0.1687  0.0191  0.1687  0.0072  0.0016  0.1130  0.0016  0.0000 </r>
       </set>
       <set comment="band 12">
        <r>  0.1217  0.0005  0.0229  0.0005  0.0865  0.1178  0.0000  0.1178  0.0000 </r>
       </set>
      </set>
      <set comment="kpoint 23">
       <set comment="band 1">
        <r>  0.1177  0.0000  0.0000  0.0978  0.0000  0.0000  0.0768  0.0000  0.2305 </r>
       </set>
       <set comment="band 2">
        <r>  0.0000  0.0000  0.0000  0.0000  0.0000  0.0000  0.6216  0.0000  0.2072 </r>
       </set>
       <set comment="band 3">
        <r>  0.0000  0.0081  0.0081  0.0000  0.4472  0.0000  0.0000  0.4472  0.0000 </r>
       </set>
       <set comment="band 4">
        <r>  0.0000  0.0081  0.0081  0.0000  0.4472  0.0000  0.0000  0.4472  0.0000 </r>
       </set>
       <set comment="band 5">
        <r>  0.0000  0.0000  0.0000  0.0000  0.0000  0.9600  0.0000  0.0000  0.0000 </r>
       </set>
       <set comment="band 6">
        <r>  0.1190  0.0000  0.0000  0.0556  0.0000  0.0000  0.1560  0.0000  0.4680 </r>
       </set>
       <set comment="band 7">
        <r>  0.0000  0.1914  0.1914  0.0000  0.0631  0.0000  0.0000  0.0631  0.0000 </r>
       </set>
       <set comment="band 8">
        <r>  0.0000  0.1914  0.1914  0.0000  0.0631  0.0000  0.0000  0.0631  0.0000 </r>
       </set>
       <set comment="band 9">
        <r>  0.3602  0.0000  0.0000  0.1263  0.0000  0.0000  0.0163  0.0000  0.0488 </r>
       </set>
       <set comment="band 10">
        <r>  0.0000  0.0000  0.0000  0.0000  0.0000  0.0000  0.2775  0.0000  0.0925 </r>
       </set>
       <set comment="band 11">
        <r>  0.0563  0.0000  0.0000  0.2037  0.0000  0.0000  0.0532  0.0000  0.1595 </r>
       </set>
       <set comment="band 12">
        <r>  0.0000  0.0000  0.0000  0.0000  0.0000  0.4525  0.0000  0.0000  0.0000 </r>
       </set>
      </set>
      <set comment="kpoint 24">
       <set comment="band 1">
        <r>  0.0203  0.0010  0.0000  0.0444  0.0203  0.0000  0.2456  0.0000  0.3684 </r>
       </set>
       <set comment="band 2">
        <r>  0.0003  0.0091  0.0000  0.0010  0.0196  0.0000  0.4560  0.0000  0.3012 </r>
       </set>
       <set comment="band 3">
        <r>  0.0000  0.0000  0.0131  0.0000  0.0000  0.3242  0.0000  0.5825  0.0000 </r>
       </set>
       <set comment="band 4">
        <r>  0.0134  0.0112  0.0000  0.0025  0.8083  0.0000  0.0723  0.0000  0.0040 </r>
       </set>
       <set comment="band 5">
        <r>  0.0000  0.0000  0.0007  0.0000  0.0000  0.6338  0.0000  0.3397  0.0000 </r>
       </set>
       <set comment="band 6">
        <r>  0.1397  0.0106  0.0000  0.1631  0.0475  0.0000  0.0494  0.0000  0.1960 </r>
       </set>
       <set comment="band 7">
        <r>  0.1189  0.2487  0.0000  0.0067  0.0909  0.0000  0.0206  0.0000  0.0475 </r>
       </set>
       <set comment="band 8">
        <r>  0.0000  0.0000  0.3957  0.0000  0.0000  0.0146  0.0000  0.0711  0.0000 </r>
       </set>
       <set comment="band 9">
        <r>  0.2146  0.0207  0.0000  0.0386  0.0007  0.0000  0.2308  0.0000  0.0001 </r>
       </set>
       <set comment="band 10">
        <r>  0.0885  0.1100  0.0000  0.0161  0.0091  0.0000  0.0763  0.0000  0.1517 </r>
       </set>
       <set comment="band 11">
        <r>  0.0917  0.0094  0.0000  0.1769  0.0030  0.0000  0.0580  0.0000  0.1390 </r>
       </set>
       <set comment="band 12">
        <r>  0.0000  0.0000  0.0787  0.0000  0.0000  0.2091  0.0000  0.1347  0.0000 </r>
       </set>
      </set>
      <set comment="kpoint 25">
       <set comment="band 1">
        <r>  0.0000  0.0077  0.0000  0.0077  0.0000  0.0043  0.0000  0.0043  0.7426 </r>
       </set>
       <set comment="band 2">
        <r>  0.0000  0.0026  0.0103  0.0026  0.0057  0.0014  0.7426  0.0014  0.0000 </r>
       </set>
       <set comment="band 3">
        <r>  0.0119  0.0047  0.0047  0.0047  0.2938  0.2938  0.0000  0.2938  0.0000 </r>
       </set>
       <set comment="band 4">
        <r>  0.0000  0.0010  0.0041  0.0010  0.6248  0.1562  0.0175  0.1562  0.0000 </r>
       </set>
       <set comment="band 5">
        <r>  0.0000  0.0031  0.0000  0.0031  0.0000  0.4686  0.0000  0.4686  0.0175 </r>
       </set>
       <set comment="band 6">
        <r>  0.0000  0.1652  0.0000  0.1652  0.0000  0.0175  0.0000  0.0175  0.1244 </r>
       </set>
       <set comment="band 7">
        <r>  0.0000  0.0551  0.2203  0.0551  0.0234  0.0058  0.1244  0.0058  0.0000 </r>
       </set>
       <set comment="band 8">
        <r>  0.2959  0.0560  0.0560  0.0560  0.0313  0.0313  0.0000  0.0313  0.0000 </r>
       </set>
       <set comment="band 9">
        <r>  0.4007  0.0893  0.0893  0.0893  0.0032  0.0032  0.0000  0.0032  0.0000 </r>
       </set>
       <set comment="band 10">
        <r>  0.0000  0.0293  0.0000  0.0293  0.0000  0.0010  0.0000  0.0010  0.3280 </r>
       </set>
       <set comment="band 11">
        <r>  0.0000  0.0098  0.0391  0.0098  0.0013  0.0003  0.3280  0.0003  0.0000 </r>
       </set>
       <set comment="band 12">
        <r>  0.0304  0.0257  0.0257  0.0257  0.0971  0.0971  0.0000  0.0971  0.0000 </r>
       </set>
      </set>
      <set comment="kpoint 26">
       <set comment="band 1">
        <r>  0.0011  0.0000  0.0000  0.0108  0.0000  0.0000  0.1877  0.0000  0.5630 </r>
       </set>
       <set comment="band 2">
        <r>  0.0000  0.0000  0.0000  0.0000  0.0000  0.0000  0.5880  0.0000  0.1960 </r>
       </set>
       <set comment="band 3">
        <r>  0.0000  0.0032  0.0032  0.0000  0.4764  0.0000  0.0000  0.4764  0.0000 </r>
       </set>
       <set comment="band 4">
        <r>  0.0000  0.0032  0.0032  0.0000  0.4764  0.0000  0.0000  0.4764  0.0000 </r>
       </set>
       <set comment="band 5">
        <r>  0.0000  0.0000  0.0000  0.0000  0.0000  0.9748  0.0000  0.0000  0.0000 </r>
       </set>
       <set comment="band 6">
        <r>  0.1077  0.0000  0.0000  0.2870  0.0000  0.0000  0.0224  0.0000  0.0672 </r>
       </set>
       <set comment="band 7">
        <r>  0.0000  0.2046  0.2046  0.0000  0.0146  0.0000  0.0000  0.0146  0.0000 </r>
       </set>
       <set comment="band 8">
        <r>  0.0000  0.2046  0.2046  0.0000  0.0146  0.0000  0.0000  0.0146  0.0000 </r>
       </set>
       <set comment="band 9">
        <r>  0.5154  0.0000  0.0000  0.0339  0.0000  0.0000  0.0269  0.0000  0.0806 </r>
       </set>
       <set comment="band 10">
        <r>  0.0000  0.0000  0.0000  0.0000  0.0000  0.0000  0.3260  0.0000  0.1087 </r>
       </set>
       <set comment="band 11">
        <r>  0.1097  0.0000  0.0000  0.0940  0.0000  0.0000  0.0676  0.0000  0.2028 </r>
       </set>
       <set comment="band 12">
        <r>  0.0000  0.0000  0.0000  0.0000  0.0000  0.1745  0.0000  0.0000  0.0000 </r>
       </set>
      </set>
     </set>
    </set>
   </array>
  </projected>
 </calculation>
 <structure name="finalpos" >
  <crystal>
   <varray name="basis" >
    <v>      -1.75000000       1.75000000       1.75000000 </v>
    <v>       1.75000000      -1.75000000       1.75000000 </v>
    <v>       1.75000000       1.75000000      -1.75000000 </v>
   </varray>
   <i name="volume">     21.43750000 </i>
   <varray name="rec_basis" >
    <v>       0.00000000       0.28571429       0.28571429 </v>
    <v>       0.28571429       0.00000000       0.28571429 </v>
    <v>       0.28571429       0.28571429       0.00000000 </v>
   </varray>
  </crystal>
  <varray name="positions" >
   <v>       0.00000000       0.00000000       0.00000000 </v>
  </varray>
 </structure>
</modeling>
