Fe FCC                                  
   2.80000000000000     
    -0.500000    0.500000    0.500000
     0.500000   -0.500000    0.500000
     0.500000    0.500000   -0.500000
   Fe
     1
Direct
  0.000000  0.000000  0.000000
 
   32   32   32
 0.92884608398E+02 0.90780369279E+02 0.84771112470E+02 0.75682499327E+02 0.64646578438E+02
 0.52847369652E+02 0.41321813106E+02 0.30862597111E+02 0.22007118566E+02 0.15059880256E+02
 0.10103095590E+02 0.69889079296E+01 0.53434003890E+01 0.46196179482E+01 0.42397427660E+01
 0.40023051079E+01 0.39218979065E+01 0.40023051079E+01 0.42397427660E+01 0.46196179482E+01
 0.53434003890E+01 0.69889079296E+01 0.10103095590E+02 0.15059880256E+02 0.22007118566E+02
 0.30862597111E+02 0.41321813106E+02 0.52847369652E+02 0.64646578438E+02 0.75682499327E+02
 0.84771112470E+02 0.90780369279E+02 0.90780369279E+02 0.90084860041E+02 0.85396127482E+02
 0.77372244735E+02 0.67051627633E+02 0.55605295694E+02 0.44115776819E+02 0.33447122667E+02
 0.24209849989E+02 0.16776943671E+02 0.11300041874E+02 0.77057137424E+01 0.56919086316E+01
 0.47625734747E+01 0.43269754726E+01 0.40440385034E+01 0.39124534281E+01 0.39389359064E+01
 0.41224273986E+01 0.44517097490E+01 0.49885436416E+01 0.62159766735E+01 0.87106925233E+01
 0.12911815170E+02 0.19046548153E+02 0.27112005544E+02 0.36882786923E+02 0.47908552360E+02
 0.59493785416E+02 0.70692816296E+02 0.80373592585E+02 0.87381757844E+02 0.84771112470E+02
 0.85396127482E+02 0.82159078539E+02 0.75521777558E+02 0.66371500515E+02 0.55800111934E+02
 0.44878974492E+02 0.34504393659E+02 0.25336187679E+02 0.17799854654E+02 0.12103070383E+02
 0.82368522442E+01 0.59697896576E+01 0.48689601880E+01 0.43752761381E+01 0.40590927672E+01
 0.38839994441E+01 0.38591508403E+01 0.39854110595E+01 0.42576123351E+01 0.46694479054E+01
 0.55053978774E+01 0.73326780398E+01 0.10639734352E+02 0.15731348328E+02 0.22690402785E+02
 0.31378083168E+02 0.41437699025E+02 0.52282752091E+02 0.63086563154E+02 0.72819475657E+02
 0.80373592585E+02 0.75682499327E+02 0.77372244735E+02 0.75521777558E+02 0.70399762809E+02
 0.62710421454E+02 0.53413366746E+02 0.43512571299E+02 0.33890498667E+02 0.25224152500E+02
 0.17969669794E+02 0.12373749291E+02 0.84780269670E+01 0.61142881209E+01 0.49165632023E+01
 0.43788634435E+01 0.40436135683E+01 0.38363674704E+01 0.37676060502E+01 0.38389564027E+01
 0.40492343859E+01 0.43884146619E+01 0.49319847159E+01 0.61415851968E+01 0.85293861687E+01
 0.12467073947E+02 0.18124839583E+02 0.25456311633E+02 0.34202185472E+02 0.43887554758E+02
 0.53815066194E+02 0.63086563154E+02 0.70692816296E+02 0.64646578438E+02 0.67051627633E+02
 0.66371500515E+02 0.62710421454E+02 0.56585974436E+02 0.48794708057E+02 0.40228717028E+02
 0.31712670024E+02 0.23905613274E+02 0.17268688236E+02 0.12067970116E+02 0.83794324895E+01
 0.60863482646E+01 0.48865915271E+01 0.43361962355E+01 0.39959307571E+01 0.37698354659E+01
 0.36680861585E+01 0.36918511318E+01 0.38416341030E+01 0.41155103325E+01 0.45064204030E+01
 0.52357441195E+01 0.67914262894E+01 0.95906054295E+01 0.13884293914E+02 0.19721562936E+02
 0.26944308482E+02 0.35189103467E+02 0.43887554758E+02 0.52282752091E+02 0.59493785416E+02
 0.52847369652E+02 0.55605295694E+02 0.55800111934E+02 0.53413366746E+02 0.48794708057E+02
 0.42570368466E+02 0.35494193972E+02 0.28299130699E+02 0.21594562990E+02 0.15821277551E+02
 0.11244800493E+02 0.79586724202E+01 0.58839344148E+01 0.47744318543E+01 0.42496854146E+01
 0.39172324688E+01 0.36857100491E+01 0.35636119802E+01 0.35506340370E+01 0.36470062944E+01
 0.38549978232E+01 0.41718139286E+01 0.46208096674E+01 0.55274856361E+01 0.73216930628E+01
 0.10317440095E+02 0.14655333411E+02 0.20281217573E+02 0.26944308482E+02 0.34202185472E+02
 0.41437699025E+02 0.47908552360E+02 0.41321813106E+02 0.44115776819E+02 0.44878974492E+02
 0.43512571299E+02 0.40228717028E+02 0.35494193972E+02 0.29916441221E+02 0.24116556503E+02
 0.18630824747E+02 0.13858630277E+02 0.10047552791E+02 0.72936627290E+01 0.55423666451E+01
 0.45933186619E+01 0.41257595426E+01 0.38117156882E+01 0.35867532604E+01 0.34568020187E+01
 0.34194748494E+01 0.34734457010E+01 0.36219465639E+01 0.38693287474E+01 0.42115928585E+01
 0.47185218458E+01 0.57385888556E+01 0.76186235907E+01 0.10575352333E+02 0.14655333411E+02
 0.19721562936E+02 0.25456311633E+02 0.31378083168E+02 0.36882786923E+02 0.30862597111E+02
 0.33447122667E+02 0.34504393659E+02 0.33890498667E+02 0.31712670024E+02 0.28299130699E+02
 0.24116556503E+02 0.19667240841E+02 0.15400928228E+02 0.11661236241E+02 0.86649911297E+01
 0.64992255532E+01 0.51224988926E+01 0.43700756049E+01 0.39742470757E+01 0.36861707429E+01
 0.34772765858E+01 0.33502688388E+01 0.33005705191E+01 0.33247864585E+01 0.34250310218E+01
 0.36080942719E+01 0.38795163752E+01 0.42350109512E+01 0.47757165785E+01 0.58155572974E+01
 0.76186235907E+01 0.10317440095E+02 0.13884293914E+02 0.18124839583E+02 0.22690402785E+02
 0.27112005544E+02 0.22007118566E+02 0.24209849989E+02 0.25336187679E+02 0.25224152500E+02
 0.23905613274E+02 0.21594562990E+02 0.18630824747E+02 0.15400928228E+02 0.12263675267E+02
 0.94995237407E+01 0.72869499148E+01 0.56965113861E+01 0.46918530481E+01 0.41351401888E+01
 0.38060016471E+01 0.35491032166E+01 0.33628415183E+01 0.32468653204E+01 0.31948011224E+01
 0.32013443825E+01 0.32665858270E+01 0.33966973123E+01 0.36007999527E+01 0.38843995523E+01
 0.42429968485E+01 0.47757165785E+01 0.57385888556E+01 0.73216930628E+01 0.95906054295E+01
 0.12467073947E+02 0.15731348328E+02 0.19046548153E+02 0.15059880256E+02 0.16776943671E+02
 0.17799854654E+02 0.17969669794E+02 0.17268688236E+02 0.15821277551E+02 0.13858630277E+02
 0.11661236241E+02 0.94995237407E+01 0.75893034223E+01 0.60677210786E+01 0.49851557638E+01
 0.43053531611E+01 0.39107519969E+01 0.36322157634E+01 0.34095892342E+01 0.32496252616E+01
 0.31496887726E+01 0.31023925112E+01 0.31011643379E+01 0.31440831293E+01 0.32352560011E+01
 0.33835151549E+01 0.35984563329E+01 0.38843995523E+01 0.42350109512E+01 0.47185218458E+01
 0.55274856361E+01 0.67914262894E+01 0.85293861687E+01 0.10639734352E+02 0.12911815170E+02
 0.10103095590E+02 0.11300041874E+02 0.12103070383E+02 0.12373749291E+02 0.12067970116E+02
 0.11244800493E+02 0.10047552791E+02 0.86649911297E+01 0.72869499148E+01 0.60677210786E+01
 0.51037340569E+01 0.44243023570E+01 0.39906851440E+01 0.37013371783E+01 0.34632017281E+01
 0.32760996251E+01 0.31436057358E+01 0.30618600592E+01 0.30234266981E+01 0.30213647538E+01
 0.30523296042E+01 0.31181123922E+01 0.32253763252E+01 0.33835151549E+01 0.36007999527E+01
 0.38795163752E+01 0.42115928585E+01 0.46208096674E+01 0.52357441195E+01 0.61415851968E+01
 0.73326780398E+01 0.87106925233E+01 0.69889079296E+01 0.77057137424E+01 0.82368522442E+01
 0.84780269670E+01 0.83794324895E+01 0.79586724202E+01 0.72936627290E+01 0.64992255532E+01
 0.56965113861E+01 0.49851557638E+01 0.44243023570E+01 0.40233474048E+01 0.37401540462E+01
 0.35047835380E+01 0.33075028476E+01 0.31555270534E+01 0.30497780554E+01 0.29861838604E+01
 0.29581533806E+01 0.29592986486E+01 0.29857024041E+01 0.30372980312E+01 0.31181123922E+01
 0.32352560011E+01 0.33966973123E+01 0.36080942719E+01 0.38693287474E+01 0.41718139286E+01
 0.45064204030E+01 0.49319847159E+01 0.55053978774E+01 0.62159766735E+01 0.53434003890E+01
 0.56919086316E+01 0.59697896576E+01 0.61142881209E+01 0.60863482646E+01 0.58839344148E+01
 0.55423666451E+01 0.51224988926E+01 0.46918530481E+01 0.43053531611E+01 0.39906851440E+01
 0.37401540462E+01 0.35204582009E+01 0.33284527576E+01 0.31713731394E+01 0.30526061008E+01
 0.29716177281E+01 0.29248400958E+01 0.29071315779E+01 0.29133851785E+01 0.29399612248E+01
 0.29857024041E+01 0.30523296042E+01 0.31440831293E+01 0.32665858270E+01 0.34250310218E+01
 0.36219465639E+01 0.38549978232E+01 0.41155103325E+01 0.43884146619E+01 0.46694479054E+01
 0.49885436416E+01 0.46196179482E+01 0.47625734747E+01 0.48689601880E+01 0.49165632023E+01
 0.48865915271E+01 0.47744318543E+01 0.45933186619E+01 0.43700756049E+01 0.41351401888E+01
 0.39107519969E+01 0.37013371783E+01 0.35047835380E+01 0.33284527576E+01 0.31785180372E+01
 0.30586233582E+01 0.29698223032E+01 0.29109383463E+01 0.28792428707E+01 0.28712601094E+01
 0.28835485481E+01 0.29133851785E+01 0.29592986486E+01 0.30213647538E+01 0.31011643379E+01
 0.32013443825E+01 0.33247864585E+01 0.34734457010E+01 0.36470062944E+01 0.38416341030E+01
 0.40492343859E+01 0.42576123351E+01 0.44517097490E+01 0.42397427660E+01 0.43269754726E+01
 0.43752761381E+01 0.43788634435E+01 0.43361962355E+01 0.42496854146E+01 0.41257595426E+01
 0.39742470757E+01 0.38060016471E+01 0.36322157634E+01 0.34632017281E+01 0.33075028476E+01
 0.31713731394E+01 0.30586233582E+01 0.29708214438E+01 0.29077758638E+01 0.28681639623E+01
 0.28501355031E+01 0.28517576412E+01 0.28712601094E+01 0.29071315779E+01 0.29581533806E+01
 0.30234266981E+01 0.31023925112E+01 0.31948011224E+01 0.33005705191E+01 0.34194748494E+01
 0.35506340370E+01 0.36918511318E+01 0.38389564027E+01 0.39854110595E+01 0.41224273986E+01
 0.40023051079E+01 0.40440385034E+01 0.40590927672E+01 0.40436135683E+01 0.39959307571E+01
 0.39172324688E+01 0.38117156882E+01 0.36861707429E+01 0.35491032166E+01 0.34095892342E+01
 0.32760996251E+01 0.31555270534E+01 0.30526061008E+01 0.29698223032E+01 0.29077758638E+01
 0.28658414709E+01 0.28428956083E+01 0.28378911064E+01 0.28501355031E+01 0.28792428707E+01
 0.29248400958E+01 0.29861838604E+01 0.30618600592E+01 0.31496887726E+01 0.32468653204E+01
 0.33502688388E+01 0.34568020187E+01 0.35636119802E+01 0.36680861585E+01 0.37676060502E+01
 0.38591508403E+01 0.39389359064E+01 0.39218979065E+01 0.39124534281E+01 0.38839994441E+01
 0.38363674704E+01 0.37698354659E+01 0.36857100491E+01 0.35867532604E+01 0.34772765858E+01
 0.33628415183E+01 0.32496252616E+01 0.31436057358E+01 0.30497780554E+01 0.29716177281E+01
 0.29109383463E+01 0.28681639623E+01 0.28428956083E+01 0.28345574740E+01 0.28428956083E+01
 0.28681639623E+01 0.29109383463E+01 0.29716177281E+01 0.30497780554E+01 0.31436057358E+01
 0.32496252616E+01 0.33628415183E+01 0.34772765858E+01 0.35867532604E+01 0.36857100491E+01
 0.37698354659E+01 0.38363674704E+01 0.38839994441E+01 0.39124534281E+01 0.40023051079E+01
 0.39389359064E+01 0.38591508403E+01 0.37676060502E+01 0.36680861585E+01 0.35636119802E+01
 0.34568020187E+01 0.33502688388E+01 0.32468653204E+01 0.31496887726E+01 0.30618600592E+01
 0.29861838604E+01 0.29248400958E+01 0.28792428707E+01 0.28501355031E+01 0.28378911064E+01
 0.28428956083E+01 0.28658414709E+01 0.29077758638E+01 0.29698223032E+01 0.30526061008E+01
 0.31555270534E+01 0.32760996251E+01 0.34095892342E+01 0.35491032166E+01 0.36861707429E+01
 0.38117156882E+01 0.39172324688E+01 0.39959307571E+01 0.40436135683E+01 0.40590927672E+01
 0.40440385034E+01 0.42397427660E+01 0.41224273986E+01 0.39854110595E+01 0.38389564027E+01
 0.36918511318E+01 0.35506340370E+01 0.34194748494E+01 0.33005705191E+01 0.31948011224E+01
 0.31023925112E+01 0.30234266981E+01 0.29581533806E+01 0.29071315779E+01 0.28712601094E+01
 0.28517576412E+01 0.28501355031E+01 0.28681639623E+01 0.29077758638E+01 0.29708214438E+01
 0.30586233582E+01 0.31713731394E+01 0.33075028476E+01 0.34632017281E+01 0.36322157634E+01
 0.38060016471E+01 0.39742470757E+01 0.41257595426E+01 0.42496854146E+01 0.43361962355E+01
 0.43788634435E+01 0.43752761381E+01 0.43269754726E+01 0.46196179482E+01 0.44517097490E+01
 0.42576123351E+01 0.40492343859E+01 0.38416341030E+01 0.36470062944E+01 0.34734457010E+01
 0.33247864585E+01 0.32013443825E+01 0.31011643379E+01 0.30213647538E+01 0.29592986486E+01
 0.29133851785E+01 0.28835485481E+01 0.28712601094E+01 0.28792428707E+01 0.29109383463E+01
 0.29698223032E+01 0.30586233582E+01 0.31785180372E+01 0.33284527576E+01 0.35047835380E+01
 0.37013371783E+01 0.39107519969E+01 0.41351401888E+01 0.43700756049E+01 0.45933186619E+01
 0.47744318543E+01 0.48865915271E+01 0.49165632023E+01 0.48689601880E+01 0.47625734747E+01
 0.53434003890E+01 0.49885436416E+01 0.46694479054E+01 0.43884146619E+01 0.41155103325E+01
 0.38549978232E+01 0.36219465639E+01 0.34250310218E+01 0.32665858270E+01 0.31440831293E+01
 0.30523296042E+01 0.29857024041E+01 0.29399612248E+01 0.29133851785E+01 0.29071315779E+01
 0.29248400958E+01 0.29716177281E+01 0.30526061008E+01 0.31713731394E+01 0.33284527576E+01
 0.35204582009E+01 0.37401540462E+01 0.39906851440E+01 0.43053531611E+01 0.46918530481E+01
 0.51224988926E+01 0.55423666451E+01 0.58839344148E+01 0.60863482646E+01 0.61142881209E+01
 0.59697896576E+01 0.56919086316E+01 0.69889079296E+01 0.62159766735E+01 0.55053978774E+01
 0.49319847159E+01 0.45064204030E+01 0.41718139286E+01 0.38693287474E+01 0.36080942719E+01
 0.33966973123E+01 0.32352560011E+01 0.31181123922E+01 0.30372980312E+01 0.29857024041E+01
 0.29592986486E+01 0.29581533806E+01 0.29861838604E+01 0.30497780554E+01 0.31555270534E+01
 0.33075028476E+01 0.35047835380E+01 0.37401540462E+01 0.40233474048E+01 0.44243023570E+01
 0.49851557638E+01 0.56965113861E+01 0.64992255532E+01 0.72936627290E+01 0.79586724202E+01
 0.83794324895E+01 0.84780269670E+01 0.82368522442E+01 0.77057137424E+01 0.10103095590E+02
 0.87106925233E+01 0.73326780398E+01 0.61415851968E+01 0.52357441195E+01 0.46208096674E+01
 0.42115928585E+01 0.38795163752E+01 0.36007999527E+01 0.33835151549E+01 0.32253763252E+01
 0.31181123922E+01 0.30523296042E+01 0.30213647538E+01 0.30234266981E+01 0.30618600592E+01
 0.31436057358E+01 0.32760996251E+01 0.34632017281E+01 0.37013371783E+01 0.39906851440E+01
 0.44243023570E+01 0.51037340569E+01 0.60677210786E+01 0.72869499148E+01 0.86649911297E+01
 0.10047552791E+02 0.11244800493E+02 0.12067970116E+02 0.12373749291E+02 0.12103070383E+02
 0.11300041874E+02 0.15059880256E+02 0.12911815170E+02 0.10639734352E+02 0.85293861687E+01
 0.67914262894E+01 0.55274856361E+01 0.47185218458E+01 0.42350109512E+01 0.38843995523E+01
 0.35984563329E+01 0.33835151549E+01 0.32352560011E+01 0.31440831293E+01 0.31011643379E+01
 0.31023925112E+01 0.31496887726E+01 0.32496252616E+01 0.34095892342E+01 0.36322157634E+01
 0.39107519969E+01 0.43053531611E+01 0.49851557638E+01 0.60677210786E+01 0.75893034223E+01
 0.94995237407E+01 0.11661236241E+02 0.13858630277E+02 0.15821277551E+02 0.17268688236E+02
 0.17969669794E+02 0.17799854654E+02 0.16776943671E+02 0.22007118566E+02 0.19046548153E+02
 0.15731348328E+02 0.12467073947E+02 0.95906054295E+01 0.73216930628E+01 0.57385888556E+01
 0.47757165785E+01 0.42429968485E+01 0.38843995523E+01 0.36007999527E+01 0.33966973123E+01
 0.32665858270E+01 0.32013443825E+01 0.31948011224E+01 0.32468653204E+01 0.33628415183E+01
 0.35491032166E+01 0.38060016471E+01 0.41351401888E+01 0.46918530481E+01 0.56965113861E+01
 0.72869499148E+01 0.94995237407E+01 0.12263675267E+02 0.15400928228E+02 0.18630824747E+02
 0.21594562990E+02 0.23905613274E+02 0.25224152500E+02 0.25336187679E+02 0.24209849989E+02
 0.30862597111E+02 0.27112005544E+02 0.22690402785E+02 0.18124839583E+02 0.13884293914E+02
 0.10317440095E+02 0.76186235907E+01 0.58155572974E+01 0.47757165785E+01 0.42350109512E+01
 0.38795163752E+01 0.36080942719E+01 0.34250310218E+01 0.33247864585E+01 0.33005705191E+01
 0.33502688388E+01 0.34772765858E+01 0.36861707429E+01 0.39742470757E+01 0.43700756049E+01
 0.51224988926E+01 0.64992255532E+01 0.86649911297E+01 0.11661236241E+02 0.15400928228E+02
 0.19667240841E+02 0.24116556503E+02 0.28299130699E+02 0.31712670024E+02 0.33890498667E+02
 0.34504393659E+02 0.33447122667E+02 0.41321813106E+02 0.36882786923E+02 0.31378083168E+02
 0.25456311633E+02 0.19721562936E+02 0.14655333411E+02 0.10575352333E+02 0.76186235907E+01
 0.57385888556E+01 0.47185218458E+01 0.42115928585E+01 0.38693287474E+01 0.36219465639E+01
 0.34734457010E+01 0.34194748494E+01 0.34568020187E+01 0.35867532604E+01 0.38117156882E+01
 0.41257595426E+01 0.45933186619E+01 0.55423666451E+01 0.72936627290E+01 0.10047552791E+02
 0.13858630277E+02 0.18630824747E+02 0.24116556503E+02 0.29916441221E+02 0.35494193972E+02
 0.40228717028E+02 0.43512571299E+02 0.44878974492E+02 0.44115776819E+02 0.52847369652E+02
 0.47908552360E+02 0.41437699025E+02 0.34202185472E+02 0.26944308482E+02 0.20281217573E+02
 0.14655333411E+02 0.10317440095E+02 0.73216930628E+01 0.55274856361E+01 0.46208096674E+01
 0.41718139286E+01 0.38549978232E+01 0.36470062944E+01 0.35506340370E+01 0.35636119802E+01
 0.36857100491E+01 0.39172324688E+01 0.42496854146E+01 0.47744318543E+01 0.58839344148E+01
 0.79586724202E+01 0.11244800493E+02 0.15821277551E+02 0.21594562990E+02 0.28299130699E+02
 0.35494193972E+02 0.42570368466E+02 0.48794708057E+02 0.53413366746E+02 0.55800111934E+02
 0.55605295694E+02 0.64646578438E+02 0.59493785416E+02 0.52282752091E+02 0.43887554758E+02
 0.35189103467E+02 0.26944308482E+02 0.19721562936E+02 0.13884293914E+02 0.95906054295E+01
 0.67914262894E+01 0.52357441195E+01 0.45064204030E+01 0.41155103325E+01 0.38416341030E+01
 0.36918511318E+01 0.36680861585E+01 0.37698354659E+01 0.39959307571E+01 0.43361962355E+01
 0.48865915271E+01 0.60863482646E+01 0.83794324895E+01 0.12067970116E+02 0.17268688236E+02
 0.23905613274E+02 0.31712670024E+02 0.40228717028E+02 0.48794708057E+02 0.56585974436E+02
 0.62710421454E+02 0.66371500515E+02 0.67051627633E+02 0.75682499327E+02 0.70692816296E+02
 0.63086563154E+02 0.53815066194E+02 0.43887554758E+02 0.34202185472E+02 0.25456311633E+02
 0.18124839583E+02 0.12467073947E+02 0.85293861687E+01 0.61415851968E+01 0.49319847159E+01
 0.43884146619E+01 0.40492343859E+01 0.38389564027E+01 0.37676060502E+01 0.38363674704E+01
 0.40436135683E+01 0.43788634435E+01 0.49165632023E+01 0.61142881209E+01 0.84780269670E+01
 0.12373749291E+02 0.17969669794E+02 0.25224152500E+02 0.33890498667E+02 0.43512571299E+02
 0.53413366746E+02 0.62710421454E+02 0.70399762809E+02 0.75521777558E+02 0.77372244735E+02
 0.84771112470E+02 0.80373592585E+02 0.72819475657E+02 0.63086563154E+02 0.52282752091E+02
 0.41437699025E+02 0.31378083168E+02 0.22690402785E+02 0.15731348328E+02 0.10639734352E+02
 0.73326780398E+01 0.55053978774E+01 0.46694479054E+01 0.42576123351E+01 0.39854110595E+01
 0.38591508403E+01 0.38839994441E+01 0.40590927672E+01 0.43752761381E+01 0.48689601880E+01
 0.59697896576E+01 0.82368522442E+01 0.12103070383E+02 0.17799854654E+02 0.25336187679E+02
 0.34504393659E+02 0.44878974492E+02 0.55800111934E+02 0.66371500515E+02 0.75521777558E+02
 0.82159078539E+02 0.85396127482E+02 0.90780369279E+02 0.87381757844E+02 0.80373592585E+02
 0.70692816296E+02 0.59493785416E+02 0.47908552360E+02 0.36882786923E+02 0.27112005544E+02
 0.19046548153E+02 0.12911815170E+02 0.87106925233E+01 0.62159766735E+01 0.49885436416E+01
 0.44517097490E+01 0.41224273986E+01 0.39389359064E+01 0.39124534281E+01 0.40440385034E+01
 0.43269754726E+01 0.47625734747E+01 0.56919086316E+01 0.77057137424E+01 0.11300041874E+02
 0.16776943671E+02 0.24209849989E+02 0.33447122667E+02 0.44115776819E+02 0.55605295694E+02
 0.67051627633E+02 0.77372244735E+02 0.85396127482E+02 0.90084860041E+02 0.90780369279E+02
 0.90084860041E+02 0.85396127482E+02 0.77372244735E+02 0.67051627633E+02 0.55605295694E+02
 0.44115776819E+02 0.33447122667E+02 0.24209849989E+02 0.16776943671E+02 0.11300041874E+02
 0.77057137424E+01 0.56919086316E+01 0.47625734747E+01 0.43269754726E+01 0.40440385034E+01
 0.39124534281E+01 0.39389359064E+01 0.41224273986E+01 0.44517097490E+01 0.49885436416E+01
 0.62159766735E+01 0.87106925233E+01 0.12911815170E+02 0.19046548153E+02 0.27112005544E+02
 0.36882786923E+02 0.47908552360E+02 0.59493785416E+02 0.70692816296E+02 0.80373592585E+02
 0.87381757844E+02 0.90084860041E+02 0.90780369233E+02 0.87381757753E+02 0.80373592454E+02
 0.70692816128E+02 0.59493785219E+02 0.47908552147E+02 0.36882786709E+02 0.27112005349E+02
 0.19046547993E+02 0.12911815058E+02 0.87106924641E+01 0.62159766620E+01 0.49885436643E+01
 0.44517097868E+01 0.41224274321E+01 0.39389359215E+01 0.39124534192E+01 0.40440384757E+01
 0.43269754405E+01 0.47625734581E+01 0.56919086505E+01 0.77057138111E+01 0.11300041998E+02
 0.16776943845E+02 0.24209850197E+02 0.33447122889E+02 0.44115777034E+02 0.55605295882E+02
 0.67051627780E+02 0.77372244835E+02 0.85396127531E+02 0.85396127482E+02 0.87381757753E+02
 0.85396127408E+02 0.79725170614E+02 0.71147397714E+02 0.60731799243E+02 0.49599225040E+02
 0.38734742627E+02 0.28894183802E+02 0.20590317942E+02 0.14110269061E+02 0.95232887978E+01
 0.66740237665E+01 0.51898903262E+01 0.45365057752E+01 0.41723930201E+01 0.39448271140E+01
 0.38680031382E+01 0.39448270736E+01 0.41723929573E+01 0.45365057205E+01 0.51898903146E+01
 0.66740238279E+01 0.95232889491E+01 0.14110269301E+02 0.20590318255E+02 0.28894184158E+02
 0.38734742990E+02 0.49599225379E+02 0.60731799531E+02 0.71147397937E+02 0.79725170763E+02
 0.77372244735E+02 0.80373592454E+02 0.79725170614E+02 0.75521777485E+02 0.68353105936E+02
 0.59147488104E+02 0.48953526028E+02 0.38744473526E+02 0.29301030712E+02 0.21175583543E+02
 0.14700399758E+02 0.99973919740E+01 0.69743730018E+01 0.53267869208E+01 0.45774687438E+01
 0.41876916210E+01 0.39276252553E+01 0.38078764550E+01 0.38324537498E+01 0.40009009521E+01
 0.43061700728E+01 0.47664732641E+01 0.57585251751E+01 0.78263694665E+01 0.11399809125E+02
 0.16715891192E+02 0.23793739977E+02 0.32437505437E+02 0.42236527791E+02 0.52554084246E+02
 0.62530844349E+02 0.71147397882E+02 0.67051627633E+02 0.70692816128E+02 0.71147397714E+02
 0.68353105936E+02 0.62710421413E+02 0.54975596012E+02 0.46076291998E+02 0.36924083668E+02
 0.28284138736E+02 0.20719678084E+02 0.14587297533E+02 0.10044809410E+02 0.70504084129E+01
 0.53624724607E+01 0.45676529587E+01 0.41646785233E+01 0.38856827721E+01 0.37339750404E+01
 0.37136225016E+01 0.38250048249E+01 0.40667167901E+01 0.44276357890E+01 0.50445646550E+01
 0.63990942990E+01 0.89548152210E+01 0.13021838360E+02 0.18709760160E+02 0.25918580100E+02
 0.34341259700E+02 0.43461011070E+02 0.52554084189E+02 0.60731799422E+02 0.55605295694E+02
 0.59493785219E+02 0.60731799243E+02 0.59147488104E+02 0.54975596012E+02 0.48794708072E+02
 0.41382945803E+02 0.33551150419E+02 0.26011356618E+02 0.19307539629E+02 0.13797876318E+02
 0.96578217412E+01 0.68809533774E+01 0.52789651335E+01 0.45018606995E+01 0.41031524247E+01
 0.38189721685E+01 0.36480964474E+01 0.35935542685E+01 0.36551020599E+01 0.38339932188E+01
 0.41282384700E+01 0.45403791330E+01 0.53407618943E+01 0.69891184312E+01 0.98490716719E+01
 0.14115414920E+02 0.19786643560E+02 0.26661508047E+02 0.34341259648E+02 0.42236527683E+02
 0.49599225222E+02 0.44115776819E+02 0.47908552147E+02 0.49599225040E+02 0.48953526028E+02
 0.46076291998E+02 0.41382945803E+02 0.35494194045E+02 0.29096910705E+02 0.22821476715E+02
 0.17166443438E+02 0.12470333573E+02 0.89088286885E+01 0.64958717982E+01 0.50847191986E+01
 0.43832503682E+01 0.40065836238E+01 0.37296169771E+01 0.35523784421E+01 0.34759695435E+01
 0.34985087793E+01 0.36214316566E+01 0.38482213210E+01 0.41758951996E+01 0.46451487328E+01
 0.55921600335E+01 0.74031148222E+01 0.10341472953E+02 0.14500572024E+02 0.19786643520E+02
 0.25918580010E+02 0.32437505292E+02 0.38734742801E+02 0.33447122667E+02 0.36882786709E+02
 0.38734742627E+02 0.38744473526E+02 0.36924083668E+02 0.33551150419E+02 0.29096910705E+02
 0.24116556613E+02 0.19142066097E+02 0.14607839841E+02 0.10816028145E+02 0.79282390038E+01
 0.59658233107E+01 0.48120099827E+01 0.42244288657E+01 0.38816938438E+01 0.36220002301E+01
 0.34496777723E+01 0.33634340583E+01 0.33593087675E+01 0.34373403708E+01 0.36026072561E+01
 0.38603437987E+01 0.42065078557E+01 0.47223269576E+01 0.57364260171E+01 0.75517362475E+01
 0.10341472931E+02 0.14115414859E+02 0.18709760050E+02 0.23793739816E+02 0.28894183955E+02
 0.24209849989E+02 0.27112005349E+02 0.28894183802E+02 0.29301030712E+02 0.28284138736E+02
 0.26011356618E+02 0.22821476715E+02 0.19142066097E+02 0.15400928341E+02 0.11958004001E+02
 0.90683237491E+01 0.68695626822E+01 0.53809003145E+01 0.45058048104E+01 0.40429897027E+01
 0.37375213182E+01 0.35023971228E+01 0.33437091510E+01 0.32578412816E+01 0.32388788815E+01
 0.32848304828E+01 0.33998710524E+01 0.35921678585E+01 0.38675480511E+01 0.42217425239E+01
 0.47509099911E+01 0.57364260093E+01 0.74031147933E+01 0.98490716079E+01 0.13021838251E+02
 0.16715891037E+02 0.20590318063E+02 0.16776943671E+02 0.19046547993E+02 0.20590317942E+02
 0.21175583543E+02 0.20719678084E+02 0.19307539629E+02 0.17166443438E+02 0.14607839841E+02
 0.11958004001E+02 0.94995238282E+01 0.74353449217E+01 0.58738509543E+01 0.48261078330E+01
 0.42086820390E+01 0.38535708370E+01 0.35841955612E+01 0.33782081537E+01 0.32388720376E+01
 0.31608251467E+01 0.31367839183E+01 0.31628623244E+01 0.32411996569E+01 0.33794799224E+01
 0.35872952066E+01 0.38698269183E+01 0.42217425251E+01 0.47223269524E+01 0.55921600106E+01
 0.69891183785E+01 0.89548151299E+01 0.11399808994E+02 0.14110269140E+02 0.11300041874E+02
 0.12911815058E+02 0.14110269061E+02 0.14700399758E+02 0.14587297533E+02 0.13797876318E+02
 0.12470333573E+02 0.10816028145E+02 0.90683237491E+01 0.74353449217E+01 0.60677211282E+01
 0.50428913989E+01 0.43609083648E+01 0.39467550816E+01 0.36635943490E+01 0.34316630749E+01
 0.32569640254E+01 0.31398046446E+01 0.30739862707E+01 0.30517304057E+01 0.30678964257E+01
 0.31224906607E+01 0.32210783902E+01 0.33729730643E+01 0.35872952104E+01 0.38675480568E+01
 0.42065078575E+01 0.46451487216E+01 0.53407618608E+01 0.63990942363E+01 0.78263693739E+01
 0.95232888336E+01 0.77057137424E+01 0.87106924641E+01 0.95232887978E+01 0.99973919740E+01
 0.10044809410E+02 0.96578217412E+01 0.89088286885E+01 0.79282390038E+01 0.68695626822E+01
 0.58738509543E+01 0.50428913989E+01 0.44243023740E+01 0.40064175735E+01 0.37198814539E+01
 0.34819955096E+01 0.32885794596E+01 0.31453282818E+01 0.30507977022E+01 0.29989229194E+01
 0.29823736924E+01 0.29956339314E+01 0.30371080280E+01 0.31098966936E+01 0.32210783926E+01
 0.33794799284E+01 0.35921678671E+01 0.38603438061E+01 0.41758951998E+01 0.45403791194E+01
 0.50445646231E+01 0.57585251245E+01 0.66740237633E+01 0.56919086316E+01 0.62159766620E+01
 0.66740237665E+01 0.69743730018E+01 0.70504084129E+01 0.68809533774E+01 0.64958717982E+01
 0.59658233107E+01 0.53809003145E+01 0.48261078330E+01 0.43609083648E+01 0.40064175735E+01
 0.37401540441E+01 0.35123771253E+01 0.33170274932E+01 0.31615375830E+01 0.30483316042E+01
 0.29752537162E+01 0.29371388093E+01 0.29278898082E+01 0.29424905782E+01 0.29785514233E+01
 0.30371080282E+01 0.31224906627E+01 0.32411996617E+01 0.33998710599E+01 0.36026072647E+01
 0.38482213276E+01 0.41282384713E+01 0.44276357828E+01 0.47664732501E+01 0.51898902955E+01
 0.47625734747E+01 0.49885436643E+01 0.51898903262E+01 0.53267869208E+01 0.53624724607E+01
 0.52789651335E+01 0.50847191986E+01 0.48120099827E+01 0.45058048104E+01 0.42086820390E+01
 0.39467550816E+01 0.37198814539E+01 0.35123771253E+01 0.33284527485E+01 0.31747027847E+01
 0.30547359001E+01 0.29690179645E+01 0.29153712392E+01 0.28899330331E+01 0.28882949400E+01
 0.29066061424E+01 0.29424905772E+01 0.29956339300E+01 0.30678964247E+01 0.31628623249E+01
 0.32848304854E+01 0.34373403757E+01 0.36214316634E+01 0.38339932270E+01 0.40667167992E+01
 0.43061700830E+01 0.45365057330E+01 0.43269754726E+01 0.44517097868E+01 0.45365057752E+01
 0.45774687438E+01 0.45676529587E+01 0.45018606995E+01 0.43832503682E+01 0.42244288657E+01
 0.40429897027E+01 0.38535708370E+01 0.36635943490E+01 0.34819955096E+01 0.33170274932E+01
 0.31747027847E+01 0.30586233483E+01 0.29701010093E+01 0.29085657213E+01 0.28721602337E+01
 0.28583647120E+01 0.28645310724E+01 0.28882949391E+01 0.29278898059E+01 0.29823736888E+01
 0.30517304011E+01 0.31367839135E+01 0.32388788776E+01 0.33593087658E+01 0.34985087811E+01
 0.36551020665E+01 0.38250048373E+01 0.40009009710E+01 0.41723929828E+01 0.40440385034E+01
 0.41224274321E+01 0.41723930201E+01 0.41876916210E+01 0.41646785233E+01 0.41031524247E+01
 0.40065836238E+01 0.38816938438E+01 0.37375213182E+01 0.35841955612E+01 0.34316630749E+01
 0.32885794596E+01 0.31615375830E+01 0.30547359001E+01 0.29701010093E+01 0.29077758546E+01
 0.28668000211E+01 0.28457744827E+01 0.28433369314E+01 0.28583647116E+01 0.28899330318E+01
 0.29371388064E+01 0.29989229146E+01 0.30739862639E+01 0.31608251382E+01 0.32578412724E+01
 0.33634340500E+01 0.34759695378E+01 0.35935542674E+01 0.37136225067E+01 0.38324537624E+01
 0.39448270941E+01 0.39124534281E+01 0.39389359215E+01 0.39448271140E+01 0.39276252553E+01
 0.38856827721E+01 0.38189721685E+01 0.37296169771E+01 0.36220002301E+01 0.35023971228E+01
 0.33782081537E+01 0.32569640254E+01 0.31453282818E+01 0.30483316042E+01 0.29690179645E+01
 0.29085657213E+01 0.28668000211E+01 0.28428955997E+01 0.28360281357E+01 0.28457744828E+01
 0.28721602335E+01 0.29153712382E+01 0.29752537137E+01 0.30507976977E+01 0.31398046377E+01
 0.32388720280E+01 0.33437091390E+01 0.34496777588E+01 0.35523784285E+01 0.36480964353E+01
 0.37339750318E+01 0.38078764513E+01 0.38680031406E+01 0.39389359064E+01 0.39124534192E+01
 0.38680031382E+01 0.38078764550E+01 0.37339750404E+01 0.36480964474E+01 0.35523784421E+01
 0.34496777723E+01 0.33437091510E+01 0.32388720376E+01 0.31398046446E+01 0.30507977022E+01
 0.29752537162E+01 0.29153712392E+01 0.28721602337E+01 0.28457744827E+01 0.28360281357E+01
 0.28428955999E+01 0.28668000215E+01 0.29085657216E+01 0.29690179642E+01 0.30483316028E+01
 0.31453282784E+01 0.32569640192E+01 0.33782081441E+01 0.35023971093E+01 0.36220002125E+01
 0.37296169561E+01 0.38189721451E+01 0.38856827478E+01 0.39276252322E+01 0.39448270941E+01
 0.41224273986E+01 0.40440384757E+01 0.39448270736E+01 0.38324537498E+01 0.37136225016E+01
 0.35935542685E+01 0.34759695435E+01 0.33634340583E+01 0.32578412816E+01 0.31608251467E+01
 0.30739862707E+01 0.29989229194E+01 0.29371388093E+01 0.28899330331E+01 0.28583647120E+01
 0.28433369314E+01 0.28457744828E+01 0.28668000215E+01 0.29077758553E+01 0.29701010099E+01
 0.30547359002E+01 0.31615375818E+01 0.32885794559E+01 0.34316630677E+01 0.35841955494E+01
 0.37375213009E+01 0.38816938205E+01 0.40065835947E+01 0.41031523906E+01 0.41646784859E+01