PROCAR lm decomposed
# of k-points:   26         # of bands:  12         # of ions:   1

 k-point    1 :    0.06250000 0.06250000 0.06250000     weight = 0.01562500

band   1 # energy   -1.46543080 # occ.  1.00000000
 
ion      s     py     pz     px    dxy    dyz    dz2    dxz    dx2    tot
  1  0.689  0.023  0.023  0.023  0.003  0.003  0.000  0.003  0.000  0.764
 
band   2 # energy    3.57709684 # occ.  1.00000000
 
ion      s     py     pz     px    dxy    dyz    dz2    dxz    dx2    tot
  1  0.000  0.002  0.000  0.001  0.095  0.276  0.004  0.575  0.021  0.974
 
band   3 # energy    3.57709684 # occ.  1.00000000
 
ion      s     py     pz     px    dxy    dyz    dz2    dxz    dx2    tot
  1  0.000  0.000  0.002  0.001  0.536  0.355  0.021  0.055  0.004  0.974
 
band   4 # energy    4.42819135 # occ.  1.00000000
 
ion      s     py     pz     px    dxy    dyz    dz2    dxz    dx2    tot
  1  0.002  0.004  0.004  0.004  0.322  0.322  0.000  0.322  0.000  0.979
 
band   5 # energy    5.05663134 # occ.  1.00000000
 
ion      s     py     pz     px    dxy    dyz    dz2    dxz    dx2    tot
  1  0.000  0.000  0.000  0.000  0.000  0.013  0.003  0.014  0.939  0.970
 
band   6 # energy    5.05663134 # occ.  1.00339980
 
ion      s     py     pz     px    dxy    dyz    dz2    dxz    dx2    tot
  1  0.000  0.000  0.000  0.000  0.018  0.005  0.939  0.004  0.003  0.970
 
band   7 # energy   27.97971255 # occ.  0.00000000
 
ion      s     py     pz     px    dxy    dyz    dz2    dxz    dx2    tot
  1  0.000  0.043  0.027  0.033  0.073  0.089  0.078  0.116  0.121  0.582
 
band   8 # energy   27.97971255 # occ.  0.00000000
 
ion      s     py     pz     px    dxy    dyz    dz2    dxz    dx2    tot
  1  0.000  0.026  0.042  0.036  0.113  0.096  0.121  0.069  0.078  0.582
 
band   9 # energy   32.29808026 # occ.  0.00000000
 
ion      s     py     pz     px    dxy    dyz    dz2    dxz    dx2    tot
  1  0.077  0.168  0.168  0.168  0.162  0.162  0.000  0.162  0.000  1.068
 
band  10 # energy   32.46989797 # occ.  0.00000000
 
ion      s     py     pz     px    dxy    dyz    dz2    dxz    dx2    tot
  1  0.000  0.000  0.000  0.000  0.000  0.000  0.000  0.000  0.000  0.000
 
band  11 # energy   37.83208718 # occ.  0.00000000
 
ion      s     py     pz     px    dxy    dyz    dz2    dxz    dx2    tot
  1  0.000  0.081  0.036  0.161  0.016  0.073  0.013  0.037  0.056  0.472
 
band  12 # energy   37.83208718 # occ.  0.00000000
 
ion      s     py     pz     px    dxy    dyz    dz2    dxz    dx2    tot
  1  0.000  0.104  0.150  0.024  0.068  0.011  0.056  0.047  0.013  0.472
 

 k-point    2 :    0.18750000 0.06250000 0.06250000     weight = 0.04687500

band   1 # energy    0.16110054 # occ.  1.00000000
 
ion      s     py     pz     px    dxy    dyz    dz2    dxz    dx2    tot
  1  0.527  0.067  0.067  0.020  0.007  0.070  0.004  0.007  0.012  0.781
 
band   2 # energy    3.14245786 # occ.  1.00000000
 
ion      s     py     pz     px    dxy    dyz    dz2    dxz    dx2    tot
  1  0.000  0.003  0.003  0.000  0.467  0.000  0.019  0.467  0.006  0.965
 
band   3 # energy    3.36587550 # occ.  1.00000000
 
ion      s     py     pz     px    dxy    dyz    dz2    dxz    dx2    tot
  1  0.014  0.021  0.021  0.002  0.092  0.545  0.038  0.092  0.115  0.942
 
band   4 # energy    4.99171028 # occ.  1.00000000
 
ion      s     py     pz     px    dxy    dyz    dz2    dxz    dx2    tot
  1  0.001  0.000  0.000  0.000  0.016  0.153  0.197  0.016  0.590  0.973
 
band   5 # energy    5.18943206 # occ.  1.00111570
 
ion      s     py     pz     px    dxy    dyz    dz2    dxz    dx2    tot
  1  0.000  0.000  0.000  0.000  0.014  0.000  0.711  0.014  0.237  0.976
 
band   6 # energy    5.50934761 # occ.  0.87824113
 
ion      s     py     pz     px    dxy    dyz    dz2    dxz    dx2    tot
  1  0.015  0.013  0.013  0.012  0.369  0.180  0.000  0.369  0.000  0.971
 
band   7 # energy   22.54692051 # occ.  0.00000000
 
ion      s     py     pz     px    dxy    dyz    dz2    dxz    dx2    tot
  1  0.058  0.114  0.114  0.025  0.009  0.322  0.039  0.009  0.117  0.809
 
band   8 # energy   25.61867615 # occ.  0.00000000
 
ion      s     py     pz     px    dxy    dyz    dz2    dxz    dx2    tot
  1  0.000  0.102  0.102  0.000  0.161  0.000  0.085  0.161  0.028  0.640
 
band   9 # energy   28.28685036 # occ.  0.00000000
 
ion      s     py     pz     px    dxy    dyz    dz2    dxz    dx2    tot
  1  0.129  0.060  0.060  0.386  0.116  0.003  0.010  0.116  0.030  0.910
 
band  10 # energy   32.88650734 # occ.  0.00000000
 
ion      s     py     pz     px    dxy    dyz    dz2    dxz    dx2    tot
  1  0.000  0.002  0.002  0.000  0.184  0.000  0.019  0.184  0.006  0.396
 
band  11 # energy   37.36298046 # occ.  0.00000000
 
ion      s     py     pz     px    dxy    dyz    dz2    dxz    dx2    tot
  1  0.035  0.053  0.053  0.151  0.071  0.101  0.114  0.071  0.341  0.989
 
band  12 # energy   38.45239867 # occ.  0.00000000
 
ion      s     py     pz     px    dxy    dyz    dz2    dxz    dx2    tot
  1  0.000  0.100  0.100  0.000  0.157  0.000  0.003  0.157  0.001  0.517
 

 k-point    3 :    0.31250000 0.06250000 0.06250000     weight = 0.04687500

band   1 # energy    1.27324860 # occ.  1.00000000
 
ion      s     py     pz     px    dxy    dyz    dz2    dxz    dx2    tot
  1  0.214  0.024  0.024  0.018  0.001  0.409  0.044  0.001  0.131  0.866
 
band   2 # energy    2.77128033 # occ.  1.00000000
 
ion      s     py     pz     px    dxy    dyz    dz2    dxz    dx2    tot
  1  0.000  0.004  0.004  0.000  0.473  0.000  0.006  0.473  0.002  0.961
 
band   3 # energy    4.19058650 # occ.  1.00000000
 
ion      s     py     pz     px    dxy    dyz    dz2    dxz    dx2    tot
  1  0.085  0.130  0.130  0.000  0.158  0.085  0.030  0.158  0.090  0.866
 
band   4 # energy    5.14416047 # occ.  1.00000000
 
ion      s     py     pz     px    dxy    dyz    dz2    dxz    dx2    tot
  1  0.003  0.002  0.002  0.001  0.016  0.292  0.162  0.016  0.486  0.981
 
band   5 # energy    5.29489643 # occ.  1.03450672
 
ion      s     py     pz     px    dxy    dyz    dz2    dxz    dx2    tot
  1  0.000  0.000  0.000  0.000  0.005  0.000  0.730  0.005  0.243  0.982
 
band   6 # energy    7.00406330 # occ.  0.00673412
 
ion      s     py     pz     px    dxy    dyz    dz2    dxz    dx2    tot
  1  0.049  0.065  0.065  0.010  0.318  0.110  0.001  0.318  0.003  0.937
 
band   7 # energy   17.02440449 # occ.  0.00000000
 
ion      s     py     pz     px    dxy    dyz    dz2    dxz    dx2    tot
  1  0.223  0.106  0.106  0.014  0.005  0.320  0.025  0.005  0.074  0.878
 
band   8 # energy   23.87028505 # occ.  0.00000000
 
ion      s     py     pz     px    dxy    dyz    dz2    dxz    dx2    tot
  1  0.000  0.131  0.131  0.000  0.148  0.000  0.024  0.148  0.008  0.590
 
band   9 # energy   25.85459147 # occ.  0.00000000
 
ion      s     py     pz     px    dxy    dyz    dz2    dxz    dx2    tot
  1  0.128  0.010  0.010  0.537  0.039  0.012  0.013  0.039  0.040  0.828
 
band  10 # energy   32.43008499 # occ.  0.00000000
 
ion      s     py     pz     px    dxy    dyz    dz2    dxz    dx2    tot
  1  0.000  0.005  0.005  0.000  0.395  0.000  0.006  0.395  0.002  0.809
 
band  11 # energy   36.66035707 # occ.  0.00000000
 
ion      s     py     pz     px    dxy    dyz    dz2    dxz    dx2    tot
  1  0.103  0.022  0.022  0.126  0.018  0.001  0.166  0.018  0.499  0.977
 
band  12 # energy   41.83896776 # occ.  0.00000000
 
ion      s     py     pz     px    dxy    dyz    dz2    dxz    dx2    tot
  1  0.047  0.001  0.030  0.009  0.001  0.276  0.008  0.018  0.008  0.397
 

 k-point    4 :    0.43750000 0.06250000 0.06250000     weight = 0.02343750

band   1 # energy    1.30756844 # occ.  1.00000000
 
ion      s     py     pz     px    dxy    dyz    dz2    dxz    dx2    tot
  1  0.123  0.000  0.000  0.017  0.000  0.499  0.064  0.000  0.193  0.895
 
band   2 # energy    2.62901261 # occ.  1.00000000
 
ion      s     py     pz     px    dxy    dyz    dz2    dxz    dx2    tot
  1  0.000  0.004  0.004  0.000  0.476  0.000  0.000  0.476  0.000  0.960
 
band   3 # energy    5.21354584 # occ.  1.00000000
 
ion      s     py     pz     px    dxy    dyz    dz2    dxz    dx2    tot
  1  0.012  0.000  0.000  0.001  0.000  0.294  0.169  0.000  0.507  0.983
 
band   4 # energy    5.23079774 # occ.  1.00000000
 
ion      s     py     pz     px    dxy    dyz    dz2    dxz    dx2    tot
  1  0.000  0.152  0.152  0.000  0.290  0.000  0.000  0.290  0.000  0.884
 
band   5 # energy    5.33832631 # occ.  1.08037424
 
ion      s     py     pz     px    dxy    dyz    dz2    dxz    dx2    tot
  1  0.000  0.000  0.000  0.000  0.000  0.000  0.739  0.000  0.246  0.985
 
band   6 # energy    8.40048936 # occ. -0.00488747
 
ion      s     py     pz     px    dxy    dyz    dz2    dxz    dx2    tot
  1  0.000  0.211  0.211  0.000  0.215  0.000  0.000  0.215  0.000  0.853
 
band   7 # energy   13.90541004 # occ.  0.00000000
 
ion      s     py     pz     px    dxy    dyz    dz2    dxz    dx2    tot
  1  0.424  0.000  0.000  0.018  0.000  0.393  0.023  0.000  0.069  0.928
 
band   8 # energy   23.22426941 # occ.  0.00000000
 
ion      s     py     pz     px    dxy    dyz    dz2    dxz    dx2    tot
  1  0.000  0.140  0.140  0.000  0.141  0.000  0.000  0.141  0.000  0.563
 
band   9 # energy   24.94709550 # occ.  0.00000000
 
ion      s     py     pz     px    dxy    dyz    dz2    dxz    dx2    tot
  1  0.126  0.000  0.000  0.594  0.000  0.023  0.012  0.000  0.037  0.792
 
band  10 # energy   32.21715016 # occ.  0.00000000
 
ion      s     py     pz     px    dxy    dyz    dz2    dxz    dx2    tot
  1  0.000  0.006  0.006  0.000  0.460  0.000  0.000  0.460  0.000  0.930
 
band  11 # energy   36.57022228 # occ.  0.00000000
 
ion      s     py     pz     px    dxy    dyz    dz2    dxz    dx2    tot
  1  0.145  0.000  0.000  0.118  0.000  0.008  0.189  0.000  0.568  1.029
 
band  12 # energy   41.65824705 # occ.  0.00000000
 
ion      s     py     pz     px    dxy    dyz    dz2    dxz    dx2    tot
  1  0.000  0.035  0.035  0.000  0.007  0.000  0.000  0.007  0.000  0.084
 

 k-point    5 :   -0.06250000 0.06250000 0.06250000     weight = 0.01171875

band   1 # energy   -2.09961480 # occ.  1.00000000
 
ion      s     py     pz     px    dxy    dyz    dz2    dxz    dx2    tot
  1  0.737  0.000  0.000  0.024  0.000  0.000  0.000  0.000  0.000  0.762
 
band   2 # energy    3.79387042 # occ.  1.00000000
 
ion      s     py     pz     px    dxy    dyz    dz2    dxz    dx2    tot
  1  0.000  0.001  0.001  0.000  0.489  0.000  0.000  0.489  0.000  0.980
 
band   3 # energy    3.79387099 # occ.  1.00000000
 
ion      s     py     pz     px    dxy    dyz    dz2    dxz    dx2    tot
  1  0.000  0.001  0.001  0.000  0.489  0.000  0.000  0.489  0.000  0.980
 
band   4 # energy    3.88704847 # occ.  1.00000000
 
ion      s     py     pz     px    dxy    dyz    dz2    dxz    dx2    tot
  1  0.000  0.000  0.000  0.000  0.000  0.981  0.000  0.000  0.000  0.981
 
band   5 # energy    4.97527326 # occ.  1.00000000
 
ion      s     py     pz     px    dxy    dyz    dz2    dxz    dx2    tot
  1  0.000  0.000  0.000  0.000  0.000  0.000  0.724  0.000  0.241  0.965
 
band   6 # energy    5.18897944 # occ.  1.00000000
 
ion      s     py     pz     px    dxy    dyz    dz2    dxz    dx2    tot
  1  0.000  0.000  0.000  0.000  0.000  0.000  0.243  0.000  0.730  0.973
 
band   7 # energy   29.85108119 # occ.  0.00000000
 
ion      s     py     pz     px    dxy    dyz    dz2    dxz    dx2    tot
  1  0.000  0.000  0.000  0.000  0.000  0.000  0.204  0.000  0.068  0.272
 
band   8 # energy   31.24025043 # occ.  0.00000000
 
ion      s     py     pz     px    dxy    dyz    dz2    dxz    dx2    tot
  1  0.000  0.011  0.011  0.000  0.126  0.000  0.000  0.126  0.000  0.274
 
band   9 # energy   31.24025158 # occ.  0.00000000
 
ion      s     py     pz     px    dxy    dyz    dz2    dxz    dx2    tot
  1  0.000  0.011  0.011  0.000  0.126  0.000  0.000  0.126  0.000  0.274
 
band  10 # energy   34.64423670 # occ.  0.00000000
 
ion      s     py     pz     px    dxy    dyz    dz2    dxz    dx2    tot
  1  0.017  0.000  0.000  0.280  0.000  0.000  0.085  0.000  0.254  0.635
 
band  11 # energy   36.99807372 # occ.  0.00000000
 
ion      s     py     pz     px    dxy    dyz    dz2    dxz    dx2    tot
  1  0.000  0.220  0.220  0.000  0.295  0.000  0.000  0.296  0.000  1.030
 
band  12 # energy   36.99807467 # occ.  0.00000000
 
ion      s     py     pz     px    dxy    dyz    dz2    dxz    dx2    tot
  1  0.000  0.220  0.220  0.000  0.296  0.000  0.000  0.295  0.000  1.030
 

 k-point    6 :    0.18750000 0.18750000 0.06250000     weight = 0.04687500

band   1 # energy    1.65220365 # occ.  1.00000000
 
ion      s     py     pz     px    dxy    dyz    dz2    dxz    dx2    tot
  1  0.293  0.047  0.073  0.047  0.000  0.163  0.047  0.163  0.000  0.834
 
band   2 # energy    2.84303589 # occ.  1.00000000
 
ion      s     py     pz     px    dxy    dyz    dz2    dxz    dx2    tot
  1  0.000  0.022  0.000  0.022  0.000  0.347  0.000  0.347  0.198  0.936
 
band   3 # energy    3.06336715 # occ.  1.00000000
 
ion      s     py     pz     px    dxy    dyz    dz2    dxz    dx2    tot
  1  0.034  0.004  0.070  0.004  0.666  0.073  0.006  0.073  0.000  0.933
 
band   4 # energy    5.07850188 # occ.  1.00000000
 
ion      s     py     pz     px    dxy    dyz    dz2    dxz    dx2    tot
  1  0.000  0.001  0.000  0.001  0.000  0.111  0.000  0.111  0.754  0.977
 
band   5 # energy    5.33008092 # occ.  1.00090403
 
ion      s     py     pz     px    dxy    dyz    dz2    dxz    dx2    tot
  1  0.005  0.000  0.001  0.000  0.000  0.034  0.909  0.034  0.000  0.983
 
band   6 # energy    7.22512855 # occ. -0.01250561
 
ion      s     py     pz     px    dxy    dyz    dz2    dxz    dx2    tot
  1  0.067  0.031  0.060  0.031  0.302  0.216  0.018  0.216  0.000  0.942
 
band   7 # energy   19.96813942 # occ.  0.00000000
 
ion      s     py     pz     px    dxy    dyz    dz2    dxz    dx2    tot
  1  0.000  0.166  0.000  0.166  0.000  0.180  0.000  0.180  0.139  0.831
 
band   8 # energy   20.86411711 # occ.  0.00000000
 
ion      s     py     pz     px    dxy    dyz    dz2    dxz    dx2    tot
  1  0.202  0.012  0.258  0.012  0.084  0.103  0.020  0.103  0.000  0.795
 
band   9 # energy   24.89495187 # occ.  0.00000000
 
ion      s     py     pz     px    dxy    dyz    dz2    dxz    dx2    tot
  1  0.154  0.207  0.005  0.207  0.176  0.005  0.031  0.005  0.000  0.789
 
band  10 # energy   34.87299842 # occ.  0.00000000
 
ion      s     py     pz     px    dxy    dyz    dz2    dxz    dx2    tot
  1  0.000  0.013  0.000  0.013  0.000  0.096  0.000  0.096  0.140  0.357
 
band  11 # energy   38.75766618 # occ.  0.00000000
 
ion      s     py     pz     px    dxy    dyz    dz2    dxz    dx2    tot
  1  0.020  0.021  0.028  0.021  0.415  0.171  0.014  0.171  0.000  0.862
 
band  12 # energy   41.23938185 # occ.  0.00000000
 
ion      s     py     pz     px    dxy    dyz    dz2    dxz    dx2    tot
  1  0.000  0.086  0.000  0.086  0.000  0.042  0.000  0.042  0.430  0.685
 

 k-point    7 :    0.31250000 0.18750000 0.06250000     weight = 0.09375000

band   1 # energy    1.96641613 # occ.  1.00000000
 
ion      s     py     pz     px    dxy    dyz    dz2    dxz    dx2    tot
  1  0.087  0.002  0.006  0.048  0.032  0.534  0.056  0.040  0.100  0.906
 
band   2 # energy    2.66926012 # occ.  1.00000000
 
ion      s     py     pz     px    dxy    dyz    dz2    dxz    dx2    tot
  1  0.000  0.023  0.010  0.012  0.326  0.023  0.000  0.478  0.070  0.943
 
band   3 # energy    3.73637606 # occ.  1.00000000
 
ion      s     py     pz     px    dxy    dyz    dz2    dxz    dx2    tot
  1  0.021  0.089  0.124  0.001  0.369  0.009  0.079  0.143  0.059  0.894
 
band   4 # energy    5.22926051 # occ.  1.00000000
 
ion      s     py     pz     px    dxy    dyz    dz2    dxz    dx2    tot
  1  0.003  0.001  0.000  0.002  0.000  0.213  0.051  0.047  0.664  0.982
 
band   5 # energy    5.43195226 # occ.  1.01019348
 
ion      s     py     pz     px    dxy    dyz    dz2    dxz    dx2    tot
  1  0.004  0.004  0.006  0.000  0.053  0.013  0.770  0.078  0.055  0.984
 
band   6 # energy    9.75497144 # occ. -0.00341054
 
ion      s     py     pz     px    dxy    dyz    dz2    dxz    dx2    tot
  1  0.071  0.123  0.182  0.020  0.196  0.080  0.031  0.176  0.000  0.880
 
band   7 # energy   15.30086706 # occ.  0.00000000
 
ion      s     py     pz     px    dxy    dyz    dz2    dxz    dx2    tot
  1  0.245  0.118  0.028  0.075  0.013  0.305  0.005  0.019  0.067  0.875
 
band   8 # energy   19.23036202 # occ.  0.00000000
 
ion      s     py     pz     px    dxy    dyz    dz2    dxz    dx2    tot
  1  0.179  0.052  0.108  0.148  0.099  0.001  0.000  0.178  0.029  0.794
 
band   9 # energy   23.55307595 # occ.  0.00000000
 
ion      s     py     pz     px    dxy    dyz    dz2    dxz    dx2    tot
  1  0.141  0.111  0.052  0.250  0.113  0.041  0.009  0.043  0.004  0.765
 
band  10 # energy   35.28886250 # occ.  0.00000000
 
ion      s     py     pz     px    dxy    dyz    dz2    dxz    dx2    tot
  1  0.007  0.001  0.001  0.025  0.147  0.008  0.013  0.229  0.147  0.579
 
band  11 # energy   39.75046637 # occ.  0.00000000
 
ion      s     py     pz     px    dxy    dyz    dz2    dxz    dx2    tot
  1  0.004  0.058  0.001  0.000  0.167  0.064  0.100  0.009  0.110  0.513
 
band  12 # energy   41.92114855 # occ.  0.00000000
 
ion      s     py     pz     px    dxy    dyz    dz2    dxz    dx2    tot
  1  0.049  0.008  0.005  0.121  0.069  0.000  0.252  0.035  0.335  0.874
 

 k-point    8 :   -0.18750000 0.18750000 0.06250000     weight = 0.04687500

band   1 # energy   -0.87630595 # occ.  1.00000000
 
ion      s     py     pz     px    dxy    dyz    dz2    dxz    dx2    tot
  1  0.635  0.020  0.000  0.086  0.015  0.000  0.006  0.000  0.005  0.767
 
band   2 # energy    3.50972731 # occ.  1.00000000
 
ion      s     py     pz     px    dxy    dyz    dz2    dxz    dx2    tot
  1  0.000  0.000  0.002  0.000  0.000  0.377  0.000  0.594  0.000  0.973
 
band   3 # energy    3.71395754 # occ.  1.00000000
 
ion      s     py     pz     px    dxy    dyz    dz2    dxz    dx2    tot
  1  0.005  0.014  0.000  0.008  0.812  0.000  0.109  0.000  0.012  0.959
 
band   4 # energy    4.53944242 # occ.  1.00000000
 
ion      s     py     pz     px    dxy    dyz    dz2    dxz    dx2    tot
  1  0.000  0.000  0.007  0.000  0.000  0.599  0.000  0.372  0.000  0.978
 
band   5 # energy    4.71879117 # occ.  1.00000000
 
ion      s     py     pz     px    dxy    dyz    dz2    dxz    dx2    tot
  1  0.000  0.000  0.000  0.000  0.129  0.000  0.652  0.000  0.179  0.961
 
band   6 # energy    5.29624198 # occ.  1.01061837
 
ion      s     py     pz     px    dxy    dyz    dz2    dxz    dx2    tot
  1  0.006  0.000  0.000  0.001  0.005  0.000  0.188  0.000  0.777  0.977
 
band   7 # energy   25.44287942 # occ.  0.00000000
 
ion      s     py     pz     px    dxy    dyz    dz2    dxz    dx2    tot
  1  0.025  0.120  0.000  0.053  0.291  0.000  0.226  0.000  0.018  0.733
 
band   8 # energy   28.83087678 # occ.  0.00000000
 
ion      s     py     pz     px    dxy    dyz    dz2    dxz    dx2    tot
  1  0.024  0.001  0.000  0.137  0.062  0.000  0.044  0.000  0.155  0.423
 
band   9 # energy   29.82494736 # occ.  0.00000000
 
ion      s     py     pz     px    dxy    dyz    dz2    dxz    dx2    tot
  1  0.000  0.000  0.185  0.000  0.000  0.030  0.000  0.624  0.000  0.839
 
band  10 # energy   34.02518040 # occ.  0.00000000
 
ion      s     py     pz     px    dxy    dyz    dz2    dxz    dx2    tot
  1  0.002  0.235  0.000  0.082  0.250  0.000  0.114  0.000  0.003  0.686
 
band  11 # energy   34.24551699 # occ.  0.00000000
 
ion      s     py     pz     px    dxy    dyz    dz2    dxz    dx2    tot
  1  0.000  0.000  0.368  0.000  0.000  0.499  0.000  0.015  0.000  0.882
 
band  12 # energy   35.81807062 # occ.  0.00000000
 
ion      s     py     pz     px    dxy    dyz    dz2    dxz    dx2    tot
  1  0.095  0.143  0.000  0.119  0.005  0.000  0.113  0.000  0.006  0.481
 

 k-point    9 :    0.31250000 0.31250000 0.06250000     weight = 0.01562500

band   1 # energy    2.29543020 # occ.  1.00000000
 
ion      s     py     pz     px    dxy    dyz    dz2    dxz    dx2    tot
  1  0.040  0.007  0.007  0.007  0.292  0.292  0.000  0.292  0.000  0.940
 
band   2 # energy    3.05276063 # occ.  1.00000000
 
ion      s     py     pz     px    dxy    dyz    dz2    dxz    dx2    tot
  1  0.000  0.025  0.100  0.025  0.362  0.091  0.215  0.091  0.000  0.908
 
band   3 # energy    3.05276138 # occ.  1.00000000
 
ion      s     py     pz     px    dxy    dyz    dz2    dxz    dx2    tot
  1  0.000  0.075  0.000  0.075  0.000  0.272  0.000  0.272  0.215  0.908
 
band   4 # energy    5.37635825 # occ.  1.00000000
 
ion      s     py     pz     px    dxy    dyz    dz2    dxz    dx2    tot
  1  0.000  0.004  0.000  0.004  0.000  0.121  0.000  0.121  0.734  0.984
 
band   5 # energy    5.37635839 # occ.  1.00004568
 
ion      s     py     pz     px    dxy    dyz    dz2    dxz    dx2    tot
  1  0.000  0.001  0.005  0.001  0.161  0.040  0.734  0.040  0.000  0.984
 
band   6 # energy   13.35954305 # occ.  0.00000000
 
ion      s     py     pz     px    dxy    dyz    dz2    dxz    dx2    tot
  1  0.000  0.074  0.297  0.074  0.230  0.057  0.063  0.057  0.000  0.854
 
band   7 # energy   13.35954415 # occ.  0.00000000
 
ion      s     py     pz     px    dxy    dyz    dz2    dxz    dx2    tot
  1  0.000  0.223  0.000  0.223  0.000  0.172  0.000  0.172  0.063  0.854
 
band   8 # energy   16.04345990 # occ.  0.00000000
 
ion      s     py     pz     px    dxy    dyz    dz2    dxz    dx2    tot
  1  0.585  0.002  0.002  0.002  0.084  0.084  0.000  0.084  0.000  0.845
 
band   9 # energy   23.06669106 # occ.  0.00000000
 
ion      s     py     pz     px    dxy    dyz    dz2    dxz    dx2    tot
  1  0.139  0.130  0.130  0.130  0.085  0.085  0.000  0.085  0.000  0.785
 
band  10 # energy   37.78322552 # occ.  0.00000000
 
ion      s     py     pz     px    dxy    dyz    dz2    dxz    dx2    tot
  1  0.000  0.008  0.032  0.008  0.069  0.017  0.293  0.017  0.000  0.445
 
band  11 # energy   37.78322604 # occ.  0.00000000
 
ion      s     py     pz     px    dxy    dyz    dz2    dxz    dx2    tot
  1  0.000  0.024  0.000  0.024  0.000  0.052  0.000  0.052  0.293  0.445
 
band  12 # energy   45.31448424 # occ.  0.00000000
 
ion      s     py     pz     px    dxy    dyz    dz2    dxz    dx2    tot
  1  0.022  0.049  0.049  0.049  0.380  0.380  0.000  0.380  0.000  1.309
 

 k-point   10 :   -0.31250000 0.31250000 0.06250000     weight = 0.04687500

band   1 # energy    0.76745631 # occ.  1.00000000
 
ion      s     py     pz     px    dxy    dyz    dz2    dxz    dx2    tot
  1  0.376  0.029  0.000  0.096  0.207  0.000  0.098  0.000  0.010  0.817
 
band   2 # energy    3.08816324 # occ.  1.00000000
 
ion      s     py     pz     px    dxy    dyz    dz2    dxz    dx2    tot
  1  0.000  0.000  0.003  0.000  0.000  0.437  0.000  0.527  0.000  0.967
 
band   3 # energy    3.77931649 # occ.  1.00000000
 
ion      s     py     pz     px    dxy    dyz    dz2    dxz    dx2    tot
  1  0.064  0.070  0.000  0.078  0.260  0.000  0.271  0.000  0.147  0.890
 
band   4 # energy    4.93815719 # occ.  1.00000000
 
ion      s     py     pz     px    dxy    dyz    dz2    dxz    dx2    tot
  1  0.001  0.011  0.000  0.012  0.451  0.000  0.476  0.000  0.021  0.971
 
band   5 # energy    5.49214633 # occ.  1.01787649
 
ion      s     py     pz     px    dxy    dyz    dz2    dxz    dx2    tot
  1  0.034  0.010  0.000  0.020  0.005  0.000  0.100  0.000  0.801  0.969
 
band   6 # energy    5.61251151 # occ.  0.70226037
 
ion      s     py     pz     px    dxy    dyz    dz2    dxz    dx2    tot
  1  0.000  0.000  0.010  0.000  0.000  0.538  0.000  0.434  0.000  0.981
 
band   7 # energy   19.62327792 # occ.  0.00000000
 
ion      s     py     pz     px    dxy    dyz    dz2    dxz    dx2    tot
  1  0.140  0.172  0.000  0.092  0.320  0.000  0.131  0.000  0.007  0.863
 
band   8 # energy   26.35948950 # occ.  0.00000000
 
ion      s     py     pz     px    dxy    dyz    dz2    dxz    dx2    tot
  1  0.027  0.056  0.000  0.144  0.004  0.000  0.072  0.000  0.075  0.378
 
band   9 # energy   27.74302493 # occ.  0.00000000
 
ion      s     py     pz     px    dxy    dyz    dz2    dxz    dx2    tot
  1  0.000  0.000  0.460  0.000  0.000  0.019  0.000  0.483  0.000  0.962
 
band  10 # energy   32.27996115 # occ.  0.00000000
 
ion      s     py     pz     px    dxy    dyz    dz2    dxz    dx2    tot
  1  0.000  0.000  0.207  0.000  0.000  0.632  0.000  0.158  0.000  0.997
 
band  11 # energy   34.27267527 # occ.  0.00000000
 
ion      s     py     pz     px    dxy    dyz    dz2    dxz    dx2    tot
  1  0.079  0.232  0.000  0.000  0.028  0.000  0.486  0.000  0.005  0.830
 
band  12 # energy   37.17174668 # occ.  0.00000000
 
ion      s     py     pz     px    dxy    dyz    dz2    dxz    dx2    tot
  1  0.116  0.014  0.000  0.067  0.187  0.000  0.043  0.000  0.113  0.540
 

 k-point   11 :   -0.18750000 0.31250000 0.06250000     weight = 0.04687500

band   1 # energy    0.59717471 # occ.  1.00000000
 
ion      s     py     pz     px    dxy    dyz    dz2    dxz    dx2    tot
  1  0.461  0.014  0.014  0.148  0.041  0.000  0.017  0.041  0.052  0.788
 
band   2 # energy    3.27652809 # occ.  1.00000000
 
ion      s     py     pz     px    dxy    dyz    dz2    dxz    dx2    tot
  1  0.000  0.012  0.012  0.000  0.281  0.000  0.264  0.281  0.088  0.938
 
band   3 # energy    3.49856041 # occ.  1.00000000
 
ion      s     py     pz     px    dxy    dyz    dz2    dxz    dx2    tot
  1  0.011  0.005  0.005  0.022  0.221  0.473  0.000  0.221  0.000  0.958
 
band   4 # energy    4.58597155 # occ.  1.00000000
 
ion      s     py     pz     px    dxy    dyz    dz2    dxz    dx2    tot
  1  0.000  0.002  0.002  0.000  0.189  0.000  0.436  0.189  0.145  0.964
 
band   5 # energy    5.32299440 # occ.  1.00229182
 
ion      s     py     pz     px    dxy    dyz    dz2    dxz    dx2    tot
  1  0.001  0.004  0.004  0.001  0.164  0.347  0.074  0.164  0.223  0.981
 
band   6 # energy    5.70197699 # occ.  0.74834546
 
ion      s     py     pz     px    dxy    dyz    dz2    dxz    dx2    tot
  1  0.049  0.007  0.007  0.025  0.050  0.155  0.155  0.050  0.466  0.966
 
band   7 # energy   22.60203869 # occ.  0.00000000
 
ion      s     py     pz     px    dxy    dyz    dz2    dxz    dx2    tot
  1  0.000  0.126  0.126  0.000  0.145  0.000  0.211  0.145  0.070  0.823
 
band   8 # energy   23.68460444 # occ.  0.00000000
 
ion      s     py     pz     px    dxy    dyz    dz2    dxz    dx2    tot
  1  0.143  0.064  0.064  0.179  0.157  0.020  0.002  0.157  0.005  0.791
 
band   9 # energy   30.21635263 # occ.  0.00000000
 
ion      s     py     pz     px    dxy    dyz    dz2    dxz    dx2    tot
  1  0.000  0.057  0.057  0.000  0.151  0.000  0.197  0.151  0.066  0.679
 
band  10 # energy   30.61946161 # occ.  0.00000000
 
ion      s     py     pz     px    dxy    dyz    dz2    dxz    dx2    tot
  1  0.001  0.228  0.228  0.056  0.022  0.092  0.004  0.022  0.011  0.665
 
band  11 # energy   34.42531917 # occ.  0.00000000
 
ion      s     py     pz     px    dxy    dyz    dz2    dxz    dx2    tot
  1  0.101  0.002  0.002  0.061  0.128  0.371  0.014  0.128  0.041  0.847
 
band  12 # energy   39.16027421 # occ.  0.00000000
 
ion      s     py     pz     px    dxy    dyz    dz2    dxz    dx2    tot
  1  0.000  0.148  0.148  0.000  0.002  0.000  0.114  0.002  0.038  0.451
 

 k-point   12 :   -0.43750000 0.43750000 0.06250000     weight = 0.04687500

band   1 # energy    1.18385338 # occ.  1.00000000
 
ion      s     py     pz     px    dxy    dyz    dz2    dxz    dx2    tot
  1  0.150  0.000  0.000  0.017  0.438  0.000  0.280  0.000  0.001  0.886
 
band   2 # energy    2.80283723 # occ.  1.00000000
 
ion      s     py     pz     px    dxy    dyz    dz2    dxz    dx2    tot
  1  0.000  0.000  0.003  0.000  0.000  0.467  0.000  0.494  0.000  0.963
 
band   3 # energy    4.59966398 # occ.  1.00000000
 
ion      s     py     pz     px    dxy    dyz    dz2    dxz    dx2    tot
  1  0.019  0.070  0.000  0.077  0.002  0.000  0.099  0.000  0.645  0.912
 
band   4 # energy    5.11919063 # occ.  1.00000000
 
ion      s     py     pz     px    dxy    dyz    dz2    dxz    dx2    tot
  1  0.008  0.006  0.000  0.005  0.340  0.000  0.543  0.000  0.076  0.977
 
band   5 # energy    6.47749837 # occ.  0.43334281
 
ion      s     py     pz     px    dxy    dyz    dz2    dxz    dx2    tot
  1  0.000  0.000  0.002  0.000  0.000  0.511  0.000  0.478  0.000  0.991
 
band   6 # energy    6.86756808 # occ.  0.00284452
 
ion      s     py     pz     px    dxy    dyz    dz2    dxz    dx2    tot
  1  0.054  0.206  0.000  0.248  0.058  0.000  0.008  0.000  0.266  0.840
 
band   7 # energy   14.81588630 # occ.  0.00000000
 
ion      s     py     pz     px    dxy    dyz    dz2    dxz    dx2    tot
  1  0.351  0.083  0.000  0.022  0.354  0.000  0.102  0.000  0.003  0.916
 
band   8 # energy   24.94074352 # occ.  0.00000000
 
ion      s     py     pz     px    dxy    dyz    dz2    dxz    dx2    tot
  1  0.024  0.105  0.000  0.131  0.001  0.000  0.072  0.000  0.009  0.342
 
band   9 # energy   26.08986301 # occ.  0.00000000
 
ion      s     py     pz     px    dxy    dyz    dz2    dxz    dx2    tot
  1  0.000  0.000  0.621  0.000  0.000  0.052  0.000  0.197  0.000  0.870
 
band  10 # energy   31.54810454 # occ.  0.00000000
 
ion      s     py     pz     px    dxy    dyz    dz2    dxz    dx2    tot
  1  0.000  0.000  0.127  0.000  0.000  0.591  0.000  0.437  0.000  1.155
 
band  11 # energy   34.58421146 # occ.  0.00000000
 
ion      s     py     pz     px    dxy    dyz    dz2    dxz    dx2    tot