   1   1   1   0
  0.4000000E+01  0.1732051E-09  0.1732051E-09  0.1732051E-09  0.5000000E-15
  1.000000000000000E-004
  CAR 
 Fe BCC                                  
     87.81394754      2.69548663  301     24.26142706      1.00000000
      2.695  0.0000E+00  0.0000E+00  0.0000E+00  0.0000E+00
      2.979  0.0000E+00  0.0000E+00  0.0000E+00  0.0000E+00
      3.263  0.0000E+00  0.0000E+00  0.0000E+00  0.0000E+00
      3.547  0.0000E+00  0.0000E+00  0.0000E+00  0.0000E+00
      3.830  0.0000E+00  0.0000E+00  0.0000E+00  0.0000E+00
      4.114  0.0000E+00  0.0000E+00  0.0000E+00  0.0000E+00
      4.398  0.0000E+00  0.0000E+00  0.0000E+00  0.0000E+00
      4.682  0.0000E+00  0.0000E+00  0.0000E+00  0.0000E+00
      4.965  0.0000E+00  0.0000E+00  0.0000E+00  0.0000E+00
      5.249  0.0000E+00  0.0000E+00  0.0000E+00  0.0000E+00
      5.533  0.0000E+00  0.0000E+00  0.0000E+00  0.0000E+00
      5.816  0.0000E+00  0.0000E+00  0.0000E+00  0.0000E+00
      6.100  0.0000E+00  0.0000E+00  0.0000E+00  0.0000E+00
      6.384  0.0000E+00  0.0000E+00  0.0000E+00  0.0000E+00
      6.668  0.4845E-02  0.4845E-02  0.1110E-02  0.1110E-02
      6.951  0.7149E-02  0.7149E-02  0.2807E-02  0.2807E-02
      7.235  0.1463E-01  0.1463E-01  0.6151E-02  0.6151E-02
      7.519  0.1926E-01  0.1926E-01  0.1097E-01  0.1097E-01
      7.803  0.2343E-01  0.2343E-01  0.1704E-01  0.1704E-01
      8.086  0.2714E-01  0.2714E-01  0.2422E-01  0.2422E-01
      8.370  0.3266E-01  0.3266E-01  0.3242E-01  0.3242E-01
      8.654  0.4760E-01  0.4760E-01  0.4469E-01  0.4469E-01
      8.938  0.4195E-01  0.4195E-01  0.5585E-01  0.5585E-01
      9.221  0.4762E-01  0.4762E-01  0.6855E-01  0.6855E-01
      9.505  0.9255E-01  0.9255E-01  0.8826E-01  0.8826E-01
      9.789  0.1184E+00  0.1184E+00  0.1180E+00  0.1180E+00
     10.072  0.1477E+00  0.1477E+00  0.1558E+00  0.1558E+00
     10.356  0.1775E+00  0.1775E+00  0.2019E+00  0.2019E+00
     10.640  0.2319E+00  0.2319E+00  0.2597E+00  0.2597E+00
     10.924  0.2450E+00  0.2450E+00  0.3278E+00  0.3278E+00
     11.207  0.2582E+00  0.2582E+00  0.3991E+00  0.3991E+00
     11.491  0.2746E+00  0.2746E+00  0.4748E+00  0.4748E+00
     11.775  0.2946E+00  0.2946E+00  0.5551E+00  0.5551E+00
     12.059  0.3204E+00  0.3204E+00  0.6447E+00  0.6447E+00
     12.342  0.2838E+00  0.2838E+00  0.7308E+00  0.7308E+00
     12.626  0.2402E+00  0.2402E+00  0.8048E+00  0.8048E+00
     12.910  0.2477E+00  0.2477E+00  0.8713E+00  0.8713E+00
     13.193  0.3220E+00  0.3220E+00  0.9533E+00  0.9533E+00
     13.477  0.4227E+00  0.4227E+00  0.1058E+01  0.1058E+01
     13.761  0.7461E+00  0.7461E+00  0.1215E+01  0.1215E+01
     14.045  0.5241E+00  0.5241E+00  0.1411E+01  0.1411E+01
     14.328  0.4288E+00  0.4288E+00  0.1540E+01  0.1540E+01
     14.612  0.3610E+00  0.3610E+00  0.1655E+01  0.1655E+01
     14.896  0.2660E+00  0.2660E+00  0.1745E+01  0.1745E+01
     15.180  0.1932E+00  0.1932E+00  0.1810E+01  0.1810E+01
     15.463  0.1588E+00  0.1588E+00  0.1860E+01  0.1860E+01
     15.747  0.1280E+00  0.1280E+00  0.1900E+01  0.1900E+01
     16.031  0.9879E-01  0.9879E-01  0.1933E+01  0.1933E+01
     16.314  0.8761E-01  0.8761E-01  0.1958E+01  0.1958E+01
     16.598  0.5664E-01  0.5664E-01  0.1978E+01  0.1978E+01
     16.882  0.7540E-01  0.7540E-01  0.1996E+01  0.1996E+01
     17.166  0.1203E+00  0.1203E+00  0.2031E+01  0.2031E+01
     17.449  0.1593E+00  0.1593E+00  0.2069E+01  0.2069E+01
     17.733  0.1820E+00  0.1820E+00  0.2119E+01  0.2119E+01
     18.017  0.2044E+00  0.2044E+00  0.2174E+01  0.2174E+01
     18.301  0.2323E+00  0.2323E+00  0.2237E+01  0.2237E+01
     18.584  0.2628E+00  0.2628E+00  0.2309E+01  0.2309E+01
     18.868  0.3013E+00  0.3013E+00  0.2390E+01  0.2390E+01
     19.152  0.3291E+00  0.3291E+00  0.2480E+01  0.2480E+01
     19.435  0.2577E+00  0.2577E+00  0.2560E+01  0.2560E+01
     19.719  0.2395E+00  0.2395E+00  0.2631E+01  0.2631E+01
     20.003  0.2216E+00  0.2216E+00  0.2696E+01  0.2696E+01
     20.287  0.2040E+00  0.2040E+00  0.2757E+01  0.2757E+01
     20.570  0.1864E+00  0.1864E+00  0.2812E+01  0.2812E+01
     20.854  0.1909E+00  0.1909E+00  0.2877E+01  0.2877E+01
     21.138  0.2086E+00  0.2086E+00  0.2934E+01  0.2934E+01
     21.422  0.2363E+00  0.2363E+00  0.2997E+01  0.2997E+01
     21.705  0.2679E+00  0.2679E+00  0.3068E+01  0.3068E+01
     21.989  0.3033E+00  0.3033E+00  0.3149E+01  0.3149E+01
     22.273  0.3326E+00  0.3326E+00  0.3240E+01  0.3240E+01
     22.556  0.3471E+00  0.3471E+00  0.3337E+01  0.3337E+01
     22.840  0.3724E+00  0.3724E+00  0.3439E+01  0.3439E+01
     23.124  0.4025E+00  0.4025E+00  0.3549E+01  0.3549E+01
     23.408  0.4215E+00  0.4215E+00  0.3667E+01  0.3667E+01
     23.691  0.4299E+00  0.4299E+00  0.3789E+01  0.3789E+01
     23.975  0.3422E+00  0.3422E+00  0.3905E+01  0.3905E+01
     24.259  0.3229E+00  0.3229E+00  0.3999E+01  0.3999E+01
     24.543  0.4222E+00  0.4223E+00  0.4095E+01  0.4095E+01
     24.826  0.3017E+00  0.3017E+00  0.4186E+01  0.4186E+01
     25.110  0.3842E+00  0.3841E+00  0.4279E+01  0.4279E+01
     25.394  0.4038E+00  0.4038E+00  0.4387E+01  0.4387E+01
     25.677  0.3209E+00  0.3209E+00  0.4503E+01  0.4503E+01
     25.961  0.2686E+00  0.2686E+00  0.4585E+01  0.4585E+01
     26.245  0.2471E+00  0.2471E+00  0.4657E+01  0.4657E+01
     26.529  0.2324E+00  0.2324E+00  0.4725E+01  0.4725E+01
     26.812  0.2286E+00  0.2286E+00  0.4790E+01  0.4790E+01
     27.096  0.2415E+00  0.2415E+00  0.4858E+01  0.4858E+01
     27.380  0.2500E+00  0.2500E+00  0.4925E+01  0.4925E+01
     27.664  0.2959E+00  0.2959E+00  0.5002E+01  0.5002E+01
     27.947  0.1755E+00  0.1755E+00  0.5087E+01  0.5087E+01
     28.231  0.1155E+00  0.1155E+00  0.5128E+01  0.5128E+01
     28.515  0.7431E-01  0.7431E-01  0.5154E+01  0.5154E+01
     28.798  0.4895E-01  0.4895E-01  0.5172E+01  0.5172E+01
     29.082  0.3335E-01  0.3335E-01  0.5183E+01  0.5183E+01
     29.366  0.3421E-01  0.3421E-01  0.5192E+01  0.5192E+01
     29.650  0.3510E-01  0.3510E-01  0.5202E+01  0.5202E+01
     29.933  0.3603E-01  0.3603E-01  0.5212E+01  0.5212E+01
     30.217  0.3700E-01  0.3700E-01  0.5222E+01  0.5222E+01
     30.501  0.3801E-01  0.3801E-01  0.5233E+01  0.5233E+01
     30.785  0.3906E-01  0.3906E-01  0.5244E+01  0.5244E+01
     31.068  0.4015E-01  0.4015E-01  0.5255E+01  0.5255E+01
     31.352  0.4128E-01  0.4128E-01  0.5267E+01  0.5267E+01
     31.636  0.4244E-01  0.4244E-01  0.5279E+01  0.5279E+01
     31.919  0.5180E-01  0.5180E-01  0.5291E+01  0.5291E+01
     32.203  0.5340E-01  0.5340E-01  0.5307E+01  0.5307E+01
     32.487  0.5556E-01  0.5556E-01  0.5322E+01  0.5322E+01
     32.771  0.5675E-01  0.5675E-01  0.5338E+01  0.5338E+01
     33.054  0.5835E-01  0.5835E-01  0.5355E+01  0.5355E+01
     33.338  0.5932E-01  0.5932E-01  0.5371E+01  0.5371E+01
     33.622  0.5966E-01  0.5966E-01  0.5388E+01  0.5388E+01
     33.906  0.5936E-01  0.5936E-01  0.5405E+01  0.5405E+01
     34.189  0.5844E-01  0.5844E-01  0.5422E+01  0.5422E+01
     34.473  0.5806E-01  0.5806E-01  0.5438E+01  0.5438E+01
     34.757  0.5808E-01  0.5808E-01  0.5455E+01  0.5455E+01
     35.041  0.5857E-01  0.5857E-01  0.5471E+01  0.5471E+01
     35.324  0.5909E-01  0.5909E-01  0.5488E+01  0.5488E+01
     35.608  0.5949E-01  0.5949E-01  0.5505E+01  0.5505E+01
     35.892  0.5978E-01  0.5978E-01  0.5522E+01  0.5522E+01
     36.175  0.5994E-01  0.5994E-01  0.5539E+01  0.5539E+01
     36.459  0.5999E-01  0.5999E-01  0.5556E+01  0.5556E+01
     36.743  0.5992E-01  0.5992E-01  0.5573E+01  0.5573E+01
     37.027  0.5973E-01  0.5973E-01  0.5590E+01  0.5590E+01
     37.310  0.5942E-01  0.5942E-01  0.5607E+01  0.5607E+01
     37.594  0.5900E-01  0.5900E-01  0.5624E+01  0.5624E+01
     37.878  0.5847E-01  0.5847E-01  0.5640E+01  0.5640E+01
     38.162  0.5783E-01  0.5783E-01  0.5657E+01  0.5657E+01
     38.445  0.6143E-01  0.6143E-01  0.5675E+01  0.5675E+01
     38.729  0.6512E-01  0.6512E-01  0.5693E+01  0.5693E+01
     39.013  0.6155E-01  0.6155E-01  0.5711E+01  0.5711E+01
     39.296  0.5950E-01  0.5950E-01  0.5728E+01  0.5728E+01
     39.580  0.5845E-01  0.5845E-01  0.5745E+01  0.5745E+01
     39.864  0.5733E-01  0.5733E-01  0.5761E+01  0.5761E+01
     40.148  0.5615E-01  0.5615E-01  0.5777E+01  0.5777E+01
     40.431  0.5490E-01  0.5490E-01  0.5793E+01  0.5793E+01
     40.715  0.5359E-01  0.5359E-01  0.5809E+01  0.5809E+01
     40.999  0.5222E-01  0.5222E-01  0.5824E+01  0.5824E+01
     41.283  0.5078E-01  0.5078E-01  0.5838E+01  0.5838E+01
     41.566  0.4928E-01  0.4928E-01  0.5852E+01  0.5852E+01
     41.850  0.4764E-01  0.4764E-01  0.5866E+01  0.5866E+01
     42.134  0.4508E-01  0.4508E-01  0.5879E+01  0.5879E+01
     42.417  0.4252E-01  0.4252E-01  0.5892E+01  0.5892E+01
     42.701  0.3995E-01  0.3995E-01  0.5904E+01  0.5904E+01
     42.985  0.3737E-01  0.3737E-01  0.5914E+01  0.5914E+01
     43.269  0.4125E-01  0.4125E-01  0.5926E+01  0.5926E+01
     43.552  0.3884E-01  0.3884E-01  0.5937E+01  0.5937E+01
     43.836  0.3254E-01  0.3254E-01  0.5948E+01  0.5948E+01
     44.120  0.2076E-01  0.2076E-01  0.5956E+01  0.5956E+01
     44.404  0.1771E-01  0.1771E-01  0.5962E+01  0.5962E+01
     44.687  0.1532E-01  0.1532E-01  0.5966E+01  0.5966E+01
     44.971  0.1359E-01  0.1359E-01  0.5970E+01  0.5970E+01
     45.255  0.1252E-01  0.1252E-01  0.5974E+01  0.5974E+01
     45.538  0.1198E-01  0.1198E-01  0.5977E+01  0.5977E+01
     45.822  0.1188E-01  0.1188E-01  0.5981E+01  0.5981E+01
     46.106  0.1222E-01  0.1222E-01  0.5984E+01  0.5984E+01
     46.390  0.1300E-01  0.1300E-01  0.5988E+01  0.5988E+01
     46.673  0.1423E-01  0.1423E-01  0.5992E+01  0.5992E+01
     46.957  0.1649E-01  0.1649E-01  0.5997E+01  0.5997E+01
     47.241  0.1788E-01  0.1788E-01  0.6002E+01  0.6002E+01
     47.525  0.1966E-01  0.1966E-01  0.6007E+01  0.6007E+01
     47.808  0.2183E-01  0.2183E-01  0.6013E+01  0.6013E+01
     48.092  0.2788E-01  0.2788E-01  0.6021E+01  0.6021E+01
     48.376  0.2956E-01  0.2956E-01  0.6029E+01  0.6029E+01
     48.659  0.3181E-01  0.3181E-01  0.6038E+01  0.6038E+01
     48.943  0.3999E-01  0.3999E-01  0.6048E+01  0.6048E+01
     49.227  0.5290E-01  0.5290E-01  0.6061E+01  0.6061E+01
     49.511  0.1221E+00  0.1221E+00  0.6087E+01  0.6087E+01
     49.794  0.1411E+00  0.1411E+00  0.6124E+01  0.6124E+01
     50.078  0.1481E+00  0.1481E+00  0.6169E+01  0.6169E+01
     50.362  0.1593E+00  0.1593E+00  0.6213E+01  0.6213E+01
     50.646  0.2081E+00  0.2081E+00  0.6267E+01  0.6267E+01
     50.929  0.2056E+00  0.2056E+00  0.6325E+01  0.6325E+01
     51.213  0.2175E+00  0.2175E+00  0.6385E+01  0.6385E+01
     51.497  0.1956E+00  0.1956E+00  0.6442E+01  0.6442E+01
     51.780  0.1950E+00  0.1950E+00  0.6497E+01  0.6497E+01
     52.064  0.2157E+00  0.2157E+00  0.6554E+01  0.6554E+01
     52.348  0.2732E+00  0.2732E+00  0.6622E+01  0.6622E+01
     52.632  0.2900E+00  0.2900E+00  0.6707E+01  0.6707E+01
     52.915  0.2863E+00  0.2863E+00  0.6788E+01  0.6788E+01
     53.199  0.2782E+00  0.2782E+00  0.6869E+01  0.6869E+01
     53.483  0.2692E+00  0.2692E+00  0.6946E+01  0.6946E+01
     53.767  0.2612E+00  0.2612E+00  0.7021E+01  0.7021E+01
     54.050  0.2529E+00  0.2529E+00  0.7094E+01  0.7094E+01
     54.334  0.2439E+00  0.2439E+00  0.7165E+01  0.7165E+01
     54.618  0.2353E+00  0.2353E+00  0.7233E+01  0.7233E+01
     54.901  0.2275E+00  0.2275E+00  0.7298E+01  0.7298E+01
     55.185  0.2135E+00  0.2135E+00  0.7365E+01  0.7365E+01
     55.469  0.1985E+00  0.1985E+00  0.7423E+01  0.7423E+01
     55.753  0.1845E+00  0.1845E+00  0.7477E+01  0.7477E+01
     56.036  0.1716E+00  0.1716E+00  0.7528E+01  0.7528E+01
     56.320  0.1599E+00  0.1599E+00  0.7575E+01  0.7575E+01
     56.604  0.1708E+00  0.1708E+00  0.7619E+01  0.7619E+01
     56.888  0.1479E+00  0.1479E+00  0.7664E+01  0.7664E+01
     57.171  0.1418E+00  0.1418E+00  0.7705E+01  0.7705E+01
     57.455  0.1292E+00  0.1292E+00  0.7744E+01  0.7744E+01
     57.739  0.1171E+00  0.1171E+00  0.7779E+01  0.7779E+01
     58.022  0.1050E+00  0.1050E+00  0.7810E+01  0.7810E+01
     58.306  0.1453E+00  0.1453E+00  0.7842E+01  0.7842E+01
     58.590  0.8048E-01  0.8048E-01  0.7867E+01  0.7867E+01
     58.874  0.7310E-01  0.7310E-01  0.7889E+01  0.7889E+01
     59.157  0.7326E-01  0.7326E-01  0.7909E+01  0.7909E+01
     59.441  0.1090E+00  0.1090E+00  0.7934E+01  0.7934E+01
     59.725  0.9358E-01  0.9358E-01  0.7964E+01  0.7964E+01
     60.009  0.1029E+00  0.1029E+00  0.7991E+01  0.7991E+01
     60.292  0.1233E+00  0.1233E+00  0.8023E+01  0.8023E+01
     60.576  0.1267E+00  0.1267E+00  0.8061E+01  0.8061E+01
     60.860  0.1079E+00  0.1079E+00  0.8095E+01  0.8095E+01
     61.143  0.1150E+00  0.1150E+00  0.8127E+01  0.8127E+01
     61.427  0.1189E+00  0.1189E+00  0.8160E+01  0.8160E+01
     61.711  0.1295E+00  0.1295E+00  0.8195E+01  0.8195E+01
     61.995  0.1431E+00  0.1431E+00  0.8234E+01  0.8234E+01
     62.278  0.1582E+00  0.1582E+00  0.8276E+01  0.8276E+01
     62.562  0.1690E+00  0.1690E+00  0.8323E+01  0.8323E+01
     62.846  0.1901E+00  0.1901E+00  0.8374E+01  0.8374E+01
     63.130  0.2152E+00  0.2152E+00  0.8434E+01  0.8434E+01
     63.413  0.2356E+00  0.2356E+00  0.8498E+01  0.8498E+01
     63.697  0.2505E+00  0.2505E+00  0.8567E+01  0.8567E+01
     63.981  0.2602E+00  0.2602E+00  0.8639E+01  0.8639E+01
     64.265  0.2771E+00  0.2771E+00  0.8715E+01  0.8715E+01
     64.548  0.2784E+00  0.2784E+00  0.8793E+01  0.8793E+01
     64.832  0.2681E+00  0.2681E+00  0.8872E+01  0.8872E+01
     65.116  0.2391E+00  0.2391E+00  0.8941E+01  0.8941E+01
     65.399  0.2372E+00  0.2372E+00  0.9009E+01  0.9009E+01
     65.683  0.3026E+00  0.3026E+00  0.9079E+01  0.9079E+01
     65.967  0.1645E+00  0.1645E+00  0.9152E+01  0.9152E+01
     66.251  0.1079E+00  0.1079E+00  0.9190E+01  0.9190E+01
     66.534  0.7330E-01  0.7330E-01  0.9215E+01  0.9215E+01
     66.818  0.7634E-01  0.7634E-01  0.9236E+01  0.9236E+01
     67.102  0.8201E-01  0.8201E-01  0.9258E+01  0.9258E+01
     67.386  0.8999E-01  0.8999E-01  0.9282E+01  0.9282E+01
     67.669  0.1097E+00  0.1097E+00  0.9310E+01  0.9310E+01
     67.953  0.1525E+00  0.1525E+00  0.9346E+01  0.9346E+01
     68.237  0.1923E+00  0.1923E+00  0.9395E+01  0.9395E+01
     68.520  0.2182E+00  0.2182E+00  0.9456E+01  0.9456E+01
     68.804  0.2218E+00  0.2218E+00  0.9519E+01  0.9519E+01
     69.088  0.1752E+00  0.1752E+00  0.9576E+01  0.9576E+01
     69.372  0.1976E+00  0.1976E+00  0.9652E+01  0.9652E+01
     69.655  0.1914E+00  0.1914E+00  0.9707E+01  0.9707E+01
     69.939  0.1883E+00  0.1883E+00  0.9761E+01  0.9761E+01
     70.223  0.1947E+00  0.1947E+00  0.9815E+01  0.9815E+01
     70.507  0.2044E+00  0.2044E+00  0.9872E+01  0.9872E+01
     70.790  0.2268E+00  0.2268E+00  0.9933E+01  0.9933E+01
     71.074  0.2414E+00  0.2414E+00  0.1000E+02  0.1000E+02
     71.358  0.2373E+00  0.2373E+00  0.1007E+02  0.1007E+02
     71.641  0.2272E+00  0.2272E+00  0.1014E+02  0.1014E+02
     71.925  0.2294E+00  0.2294E+00  0.1020E+02  0.1020E+02
     72.209  0.2417E+00  0.2417E+00  0.1027E+02  0.1027E+02
     72.493  0.2629E+00  0.2629E+00  0.1034E+02  0.1034E+02
     72.776  0.2979E+00  0.2979E+00  0.1042E+02  0.1042E+02
     73.060  0.3308E+00  0.3308E+00  0.1051E+02  0.1051E+02
     73.344  0.3933E+00  0.3933E+00  0.1061E+02  0.1061E+02
     73.628  0.3483E+00  0.3483E+00  0.1071E+02  0.1071E+02
     73.911  0.3233E+00  0.3233E+00  0.1081E+02  0.1081E+02
     74.195  0.3126E+00  0.3126E+00  0.1090E+02  0.1090E+02
     74.479  0.3036E+00  0.3036E+00  0.1098E+02  0.1098E+02
     74.762  0.2770E+00  0.2770E+00  0.1107E+02  0.1107E+02
     75.046  0.2438E+00  0.2438E+00  0.1114E+02  0.1114E+02
     75.330  0.2710E+00  0.2710E+00  0.1121E+02  0.1121E+02
     75.614  0.1622E+00  0.1622E+00  0.1127E+02  0.1127E+02
     75.897  0.1716E+00  0.1716E+00  0.1132E+02  0.1132E+02
     76.181  0.1893E+00  0.1893E+00  0.1137E+02  0.1137E+02
     76.465  0.2115E+00  0.2115E+00  0.1143E+02  0.1143E+02
     76.749  0.2283E+00  0.2283E+00  0.1149E+02  0.1149E+02
     77.032  0.2066E+00  0.2066E+00  0.1155E+02  0.1155E+02
     77.316  0.1853E+00  0.1853E+00  0.1161E+02  0.1161E+02
     77.600  0.1734E+00  0.1734E+00  0.1166E+02  0.1166E+02
     77.883  0.1567E+00  0.1567E+00  0.1170E+02  0.1170E+02
     78.167  0.1276E+00  0.1276E+00  0.1175E+02  0.1175E+02
     78.451  0.1078E+00  0.1078E+00  0.1178E+02  0.1178E+02
     78.735  0.9070E-01  0.9070E-01  0.1181E+02  0.1181E+02
     79.018  0.7674E-01  0.7674E-01  0.1183E+02  0.1183E+02
     79.302  0.6198E-01  0.6198E-01  0.1185E+02  0.1185E+02
     79.586  0.5887E-01  0.5887E-01  0.1187E+02  0.1187E+02
     79.870  0.5658E-01  0.5658E-01  0.1188E+02  0.1188E+02
     80.153  0.5511E-01  0.5511E-01  0.1190E+02  0.1190E+02
     80.437  0.5445E-01  0.5445E-01  0.1192E+02  0.1192E+02
     80.721  0.7224E-01  0.7224E-01  0.1194E+02  0.1194E+02
     81.004  0.2725E-01  0.2725E-01  0.1195E+02  0.1195E+02
     81.288  0.2496E-01  0.2496E-01  0.1196E+02  0.1196E+02
     81.572  0.2276E-01  0.2276E-01  0.1196E+02  0.1196E+02
     81.856  0.2065E-01  0.2065E-01  0.1197E+02  0.1197E+02
     82.139  0.1862E-01  0.1862E-01  0.1198E+02  0.1198E+02
     82.423  0.1668E-01  0.1668E-01  0.1198E+02  0.1198E+02
     82.707  0.1482E-01  0.1482E-01  0.1199E+02  0.1199E+02
     82.991  0.1304E-01  0.1304E-01  0.1199E+02  0.1199E+02
     83.274  0.1135E-01  0.1135E-01  0.1199E+02  0.1199E+02
     83.558  0.1337E-01  0.1337E-01  0.1200E+02  0.1200E+02
     83.842  0.4550E-02  0.4549E-02  0.1200E+02  0.1200E+02
     84.125  0.0000E+00  0.0000E+00  0.1200E+02  0.1200E+02
     84.409  0.0000E+00  0.0000E+00  0.1200E+02  0.1200E+02
     84.693  0.0000E+00  0.0000E+00  0.1200E+02  0.1200E+02
     84.977  0.0000E+00  0.0000E+00  0.1200E+02  0.1200E+02
     85.260  0.0000E+00  0.0000E+00  0.1200E+02  0.1200E+02
     85.544  0.0000E+00  0.0000E+00  0.1200E+02  0.1200E+02
     85.828  0.0000E+00  0.0000E+00  0.1200E+02  0.1200E+02
     86.112  0.0000E+00  0.0000E+00  0.1200E+02  0.1200E+02
     86.395  0.0000E+00  0.0000E+00  0.1200E+02  0.1200E+02
     86.679  0.0000E+00  0.0000E+00  0.1200E+02  0.1200E+02
     86.963  0.0000E+00  0.0000E+00  0.1200E+02  0.1200E+02
     87.246  0.0000E+00  0.0000E+00  0.1200E+02  0.1200E+02
     87.530  0.0000E+00  0.0000E+00  0.1200E+02  0.1200E+02
     87.814  0.0000E+00  0.0000E+00  0.1200E+02  0.1200E+02
     87.81394754      2.69548663  301     24.26142706      1.00000000
      2.695  0.0000E+00  0.0000E+00  0.0000E+00  0.0000E+00  0.0000E+00  0.0000E+00  0.0000E+00  0.0000E+00  0.0000E+00  0.0000E+00  0.0000E+00  0.0000E+00  0.0000E+00  0.0000E+00  0.0000E+00  0.0000E+00  0.0000E+00  0.0000E+00
      2.979  0.0000E+00  0.0000E+00  0.0000E+00  0.0000E+00  0.0000E+00  0.0000E+00  0.0000E+00  0.0000E+00  0.0000E+00  0.0000E+00  0.0000E+00  0.0000E+00  0.0000E+00  0.0000E+00  0.0000E+00  0.0000E+00  0.0000E+00  0.0000E+00
      3.263  0.0000E+00  0.0000E+00  0.0000E+00  0.0000E+00  0.0000E+00  0.0000E+00  0.0000E+00  0.0000E+00  0.0000E+00  0.0000E+00  0.0000E+00  0.0000E+00  0.0000E+00  0.0000E+00  0.0000E+00  0.0000E+00  0.0000E+00  0.0000E+00
      3.547  0.0000E+00  0.0000E+00  0.0000E+00  0.0000E+00  0.0000E+00  0.0000E+00  0.0000E+00  0.0000E+00  0.0000E+00  0.0000E+00  0.0000E+00  0.0000E+00  0.0000E+00  0.0000E+00  0.0000E+00  0.0000E+00  0.0000E+00  0.0000E+00
      3.830  0.0000E+00  0.0000E+00  0.0000E+00  0.0000E+00  0.0000E+00  0.0000E+00  0.0000E+00  0.0000E+00  0.0000E+00  0.0000E+00  0.0000E+00  0.0000E+00  0.0000E+00  0.0000E+00  0.0000E+00  0.0000E+00  0.0000E+00  0.0000E+00
      4.114  0.0000E+00  0.0000E+00  0.0000E+00  0.0000E+00  0.0000E+00  0.0000E+00  0.0000E+00  0.0000E+00  0.0000E+00  0.0000E+00  0.0000E+00  0.0000E+00  0.0000E+00  0.0000E+00  0.0000E+00  0.0000E+00  0.0000E+00  0.0000E+00
      4.398  0.0000E+00  0.0000E+00  0.0000E+00  0.0000E+00  0.0000E+00  0.0000E+00  0.0000E+00  0.0000E+00  0.0000E+00  0.0000E+00  0.0000E+00  0.0000E+00  0.0000E+00  0.0000E+00  0.0000E+00  0.0000E+00  0.0000E+00  0.0000E+00
      4.682  0.0000E+00  0.0000E+00  0.0000E+00  0.0000E+00  0.0000E+00  0.0000E+00  0.0000E+00  0.0000E+00  0.0000E+00  0.0000E+00  0.0000E+00  0.0000E+00  0.0000E+00  0.0000E+00  0.0000E+00  0.0000E+00  0.0000E+00  0.0000E+00
      4.965  0.0000E+00  0.0000E+00  0.0000E+00  0.0000E+00  0.0000E+00  0.0000E+00  0.0000E+00  0.0000E+00  0.0000E+00  0.0000E+00  0.0000E+00  0.0000E+00  0.0000E+00  0.0000E+00  0.0000E+00  0.0000E+00  0.0000E+00  0.0000E+00
      5.249  0.0000E+00  0.0000E+00  0.0000E+00  0.0000E+00  0.0000E+00  0.0000E+00  0.0000E+00  0.0000E+00  0.0000E+00  0.0000E+00  0.0000E+00  0.0000E+00  0.0000E+00  0.0000E+00  0.0000E+00  0.0000E+00  0.0000E+00  0.0000E+00
      5.533  0.0000E+00  0.0000E+00  0.0000E+00  0.0000E+00  0.0000E+00  0.0000E+00  0.0000E+00  0.0000E+00  0.0000E+00  0.0000E+00  0.0000E+00  0.0000E+00  0.0000E+00  0.0000E+00  0.0000E+00  0.0000E+00  0.0000E+00  0.0000E+00
      5.816  0.0000E+00  0.0000E+00  0.0000E+00  0.0000E+00  0.0000E+00  0.0000E+00  0.0000E+00  0.0000E+00  0.0000E+00  0.0000E+00  0.0000E+00  0.0000E+00  0.0000E+00  0.0000E+00  0.0000E+00  0.0000E+00  0.0000E+00  0.0000E+00
      6.100  0.0000E+00  0.0000E+00  0.0000E+00  0.0000E+00  0.0000E+00  0.0000E+00  0.0000E+00  0.0000E+00  0.0000E+00  0.0000E+00  0.0000E+00  0.0000E+00  0.0000E+00  0.0000E+00  0.0000E+00  0.0000E+00  0.0000E+00  0.0000E+00
      6.384  0.0000E+00  0.0000E+00  0.0000E+00  0.0000E+00  0.0000E+00  0.0000E+00  0.0000E+00  0.0000E+00  0.0000E+00  0.0000E+00  0.0000E+00  0.0000E+00  0.0000E+00  0.0000E+00  0.0000E+00  0.0000E+00  0.0000E+00  0.0000E+00
      6.668  0.4608E-05  0.4608E-05  0.9061E-04  0.9060E-04  0.2558E-06  0.2558E-06  0.6356E-04  0.6356E-04  0.1573E-04  0.1573E-04  0.2605E-05  0.2605E-05  0.6193E-02  0.6193E-02  0.2647E-05  0.2647E-05  0.3332E-02  0.3332E-02
      6.951  0.1102E-04  0.1102E-04  0.1853E-03  0.1853E-03  0.3597E-05  0.3597E-05  0.1262E-03  0.1262E-03  0.3840E-04  0.3840E-04  0.4997E-05  0.4997E-05  0.8579E-02  0.8579E-02  0.5591E-05  0.5591E-05  0.5220E-02  0.5220E-02
      7.235  0.3573E-04  0.3573E-04  0.3324E-03  0.3324E-03  0.1069E-03  0.1069E-03  0.6442E-03  0.6442E-03  0.7903E-04  0.7903E-04  0.8440E-05  0.8440E-05  0.1506E-01  0.1506E-01  0.1024E-04  0.1024E-04  0.1270E-01  0.1270E-01
      7.519  0.6264E-04  0.6264E-04  0.4975E-03  0.4975E-03  0.1972E-03  0.1972E-03  0.9389E-03  0.9389E-03  0.1315E-03  0.1315E-03  0.1182E-04  0.1182E-04  0.2010E-01  0.2010E-01  0.1587E-04  0.1587E-04  0.1591E-01  0.1591E-01
      7.803  0.9661E-04  0.9661E-04  0.6760E-03  0.6760E-03  0.2567E-03  0.2567E-03  0.1234E-02  0.1234E-02  0.1950E-03  0.1950E-03  0.1502E-04  0.1502E-04  0.2461E-01  0.2461E-01  0.2253E-04  0.2253E-04  0.1866E-01  0.1866E-01
      8.086  0.1377E-03  0.1377E-03  0.8678E-03  0.8678E-03  0.2852E-03  0.2852E-03  0.1528E-02  0.1528E-02  0.2696E-03  0.2696E-03  0.1803E-04  0.1803E-04  0.2858E-01  0.2858E-01  0.3023E-04  0.3023E-04  0.2095E-01  0.2095E-01
      8.370  0.1959E-03  0.1959E-03  0.1209E-02  0.1209E-02  0.2929E-03  0.2929E-03  0.1918E-02  0.1918E-02  0.3900E-03  0.3900E-03  0.2431E-04  0.2431E-04  0.3387E-01  0.3387E-01  0.4259E-04  0.4259E-04  0.2494E-01  0.2494E-01
      8.654  0.4776E-03  0.4776E-03  0.2251E-02  0.2251E-02  0.5941E-03  0.5941E-03  0.2728E-02  0.2728E-02  0.1240E-02  0.1240E-02  0.3625E-04  0.3625E-04  0.5192E-01  0.5192E-01  0.1041E-03  0.1041E-03  0.3055E-01  0.3055E-01
      8.938  0.7082E-03  0.7082E-03  0.2036E-02  0.2036E-02  0.8649E-03  0.8649E-03  0.2951E-02  0.2951E-02  0.1843E-02  0.1843E-02  0.4572E-04  0.4572E-04  0.4520E-01  0.4520E-01  0.1869E-03  0.1869E-03  0.2429E-01  0.2429E-01
      9.221  0.1056E-02  0.1056E-02  0.2428E-02  0.2428E-02  0.1091E-02  0.1091E-02  0.3484E-02  0.3484E-02  0.2760E-02  0.2760E-02  0.8890E-04  0.8890E-04  0.5140E-01  0.5140E-01  0.2990E-03  0.2990E-03  0.2543E-01  0.2543E-01
      9.505  0.1512E-01  0.1512E-01  0.3285E-02  0.3285E-02  0.1592E-02  0.1592E-02  0.6014E-02  0.6014E-02  0.2625E-01  0.2625E-01  0.1114E-01  0.1114E-01  0.7942E-01  0.7942E-01  0.8053E-03  0.8053E-03  0.3139E-01  0.3139E-01
      9.789  0.2087E-01  0.2087E-01  0.4279E-02  0.4279E-02  0.2367E-02  0.2367E-02  0.7930E-02  0.7930E-02  0.3609E-01  0.3609E-01  0.1737E-01  0.1737E-01  0.9713E-01  0.9713E-01  0.1691E-02  0.1691E-02  0.3469E-01  0.3469E-01
     10.072  0.2743E-01  0.2743E-01  0.5402E-02  0.5400E-02  0.3156E-02  0.3160E-02  0.1001E-01  0.1001E-01  0.4886E-01  0.4887E-01  0.2289E-01  0.2289E-01  0.1181E+00  0.1181E+00  0.2914E-02  0.2908E-02  0.3752E-01  0.3752E-01
     10.356  0.3344E-01  0.3344E-01  0.6670E-02  0.6666E-02  0.4001E-02  0.4013E-02  0.1222E-01  0.1222E-01  0.6162E-01  0.6166E-01  0.2781E-01  0.2779E-01  0.1401E+00  0.1401E+00  0.4577E-02  0.4559E-02  0.3989E-01  0.3988E-01
     10.640  0.4114E-01  0.4114E-01  0.9612E-02  0.9603E-02  0.6703E-02  0.6726E-02  0.1610E-01  0.1608E-01  0.8165E-01  0.8173E-01  0.3381E-01  0.3376E-01  0.1853E+00  0.1853E+00  0.8353E-02  0.8316E-02  0.4321E-01  0.4320E-01
     10.924  0.4542E-01  0.4542E-01  0.9339E-02  0.9320E-02  0.7094E-02  0.7138E-02  0.1785E-01  0.1782E-01  0.8963E-01  0.8979E-01  0.4420E-01  0.4410E-01  0.1718E+00  0.1719E+00  0.1479E-01  0.1472E-01  0.4542E-01  0.4540E-01
     11.207  0.5064E-01  0.5064E-01  0.8909E-02  0.8862E-02  0.7066E-02  0.7178E-02  0.1965E-01  0.1958E-01  0.9884E-01  0.9926E-01  0.5617E-01  0.5593E-01  0.1569E+00  0.1570E+00  0.2150E-01  0.2132E-01  0.4676E-01  0.4670E-01
     11.491  0.5493E-01  0.5493E-01  0.8941E-02  0.8842E-02  0.7155E-02  0.7392E-02  0.2179E-01  0.2165E-01  0.1066E+00  0.1075E+00  0.6811E-01  0.6759E-01  0.1472E+00  0.1473E+00  0.2885E-01  0.2848E-01  0.4932E-01  0.4922E-01
     11.775  0.5992E-01  0.5992E-01  0.9059E-02  0.8877E-02  0.6990E-02  0.7424E-02  0.2462E-01  0.2437E-01  0.1168E+00  0.1184E+00  0.8248E-01  0.8154E-01  0.1343E+00  0.1345E+00  0.3965E-01  0.3897E-01  0.5058E-01  0.5038E-01
     12.059  0.6261E-01  0.6261E-01  0.1047E-01  0.9947E-02  0.7248E-02  0.8500E-02  0.2858E-01  0.2785E-01  0.1272E+00  0.1319E+00  0.1062E+00  0.1034E+00  0.1105E+00  0.1110E+00  0.6139E-01  0.5943E-01  0.5175E-01  0.5117E-01
     12.342  0.5596E-01  0.5596E-01  0.1036E-01  0.9626E-02  0.6295E-02  0.8054E-02  0.2669E-01  0.2567E-01  0.1094E+00  0.1160E+00  0.9581E-01  0.9199E-01  0.8434E-01  0.8514E-01  0.6023E-01  0.5747E-01  0.4980E-01  0.4899E-01
     12.626  0.4789E-01  0.4789E-01  0.9874E-02  0.9020E-02  0.5257E-02  0.7296E-02  0.2434E-01  0.2316E-01  0.8834E-01  0.9597E-01  0.8054E-01  0.7611E-01  0.6080E-01  0.6173E-01  0.5569E-01  0.5249E-01  0.4765E-01  0.4672E-01
     12.910  0.4254E-01  0.4254E-01  0.1085E-01  0.1001E-01  0.5797E-02  0.7816E-02  0.2377E-01  0.2260E-01  0.8658E-01  0.9414E-01  0.8184E-01  0.7745E-01  0.4547E-01  0.4640E-01  0.8190E-01  0.7874E-01  0.4819E-01  0.4727E-01
     13.193  0.4198E-01  0.4198E-01  0.1569E-01  0.1510E-01  0.9130E-02  0.1054E-01  0.2776E-01  0.2694E-01  0.1017E+00  0.1069E+00  0.1058E+00  0.1027E+00  0.4405E-01  0.4469E-01  0.1373E+00  0.1351E+00  0.6117E-01  0.6053E-01
     13.477  0.4262E-01  0.4262E-01  0.2700E-01  0.2700E-01  0.1584E-01  0.1584E-01  0.3820E-01  0.3820E-01  0.1202E+00  0.1202E+00  0.1257E+00  0.1257E+00  0.5165E-01  0.5165E-01  0.1912E+00  0.1912E+00  0.9262E-01  0.9262E-01
     13.761  0.5257E-01  0.5257E-01  0.6480E-01  0.6736E-01  0.4065E-01  0.3452E-01  0.7838E-01  0.8194E-01  0.1803E+00  0.1574E+00  0.2192E+00  0.2325E+00  0.9167E-01  0.8887E-01  0.3370E+00  0.3466E+00  0.1696E+00  0.1724E+00
     14.045  0.6462E-01  0.6462E-01  0.3669E-01  0.3743E-01  0.2050E-01  0.1873E-01  0.6377E-01  0.6480E-01  0.9912E-01  0.9252E-01  0.1630E+00  0.1668E+00  0.6828E-01  0.6747E-01  0.2242E+00  0.2270E+00  0.1235E+00  0.1243E+00
     14.328  0.1182E+00  0.1182E+00  0.2569E-01  0.2615E-01  0.1292E-01  0.1182E-01  0.5910E-01  0.5974E-01  0.8925E-01  0.8527E-01  0.1156E+00  0.1179E+00  0.5269E-01  0.5219E-01  0.1572E+00  0.1589E+00  0.9934E-01  0.9984E-01
     14.612  0.1419E+00  0.1419E+00  0.2037E-01  0.2059E-01  0.1035E-01  0.9827E-02  0.5239E-01  0.5269E-01  0.7878E-01  0.7756E-01  0.7883E-01  0.7981E-01  0.4713E-01  0.4693E-01  0.1174E+00  0.1177E+00  0.8298E-01  0.8319E-01
     14.896  0.9403E-01  0.9403E-01  0.1526E-01  0.1541E-01  0.7833E-02  0.7449E-02  0.4244E-01  0.4267E-01  0.5133E-01  0.5183E-01  0.5576E-01  0.5617E-01  0.3445E-01  0.3437E-01  0.8826E-01  0.8735E-01  0.6849E-01  0.6856E-01
     15.180  0.2979E-01  0.2979E-01  0.1058E-01  0.1068E-01  0.5018E-02  0.4748E-02  0.3287E-01  0.3303E-01  0.3322E-01  0.3466E-01  0.4279E-01  0.4284E-01  0.2551E-01  0.2551E-01  0.7426E-01  0.7277E-01  0.5748E-01  0.5748E-01
     15.463  0.2316E-01  0.2316E-01  0.7796E-02  0.7855E-02  0.3762E-02  0.3589E-02  0.2814E-01  0.2825E-01  0.2675E-01  0.2902E-01  0.3452E-01  0.3425E-01  0.1981E-01  0.1988E-01  0.6287E-01  0.6087E-01  0.4706E-01  0.4699E-01
     15.747  0.2000E-01  0.2000E-01  0.5392E-02  0.5415E-02  0.2741E-02  0.2649E-02  0.2333E-01  0.2340E-01  0.2124E-01  0.2425E-01  0.2733E-01  0.2679E-01  0.1474E-01  0.1487E-01  0.5244E-01  0.4997E-01  0.3642E-01  0.3629E-01
     16.031  0.1680E-01  0.1680E-01  0.3250E-02  0.3244E-02  0.1846E-02  0.1818E-02  0.1817E-01  0.1820E-01  0.1620E-01  0.1985E-01  0.2111E-01  0.2035E-01  0.1016E-01  0.1034E-01  0.4292E-01  0.4004E-01  0.2553E-01  0.2535E-01
     16.314  0.1610E-01  0.1610E-01  0.1332E-02  0.1274E-02  0.1045E-02  0.1106E-02  0.1426E-01  0.1426E-01  0.1256E-01  0.2004E-01  0.2255E-01  0.2082E-01  0.5111E-02  0.5511E-02  0.4674E-01  0.4098E-01  0.1497E-01  0.1457E-01
     16.598  0.9057E-02  0.9057E-02  0.8284E-03  0.7943E-03  0.1048E-02  0.1088E-02  0.7709E-02  0.7703E-02  0.1055E-01  0.1447E-01  0.1492E-01  0.1400E-01  0.2281E-02  0.2493E-02  0.3056E-01  0.2755E-01  0.7315E-02  0.7103E-02
     16.882  0.6388E-02  0.6388E-02  0.2387E-02  0.2372E-02  0.3238E-02  0.3257E-02  0.7636E-02  0.7631E-02  0.1523E-01  0.1677E-01  0.2421E-01  0.2384E-01  0.2664E-02  0.2748E-02  0.3547E-01  0.3429E-01  0.8964E-02  0.8880E-02