<?xml version="1.0" encoding="ISO-8859-1"?>
<modeling>
 <generator>
  <i name="program" type="string">vasp </i>
  <i name="version" type="string">5.4.1  </i>
  <i name="subversion" type="string">24Jun15 (build Jul 19 2016 16:50:41) complex                          parallel </i>
  <i name="platform" type="string">IFC91_ompi </i>
  <i name="date" type="string">2019 10 17 </i>
  <i name="time" type="string">11:26:24 </i>
 </generator>
 <incar>
  <i type="string" name="SYSTEM"> Fe BCC</i>
  <i type="string" name="PREC">accurate</i>
  <i type="int" name="ISPIN">     2</i>
  <i name="EDIFF">      0.00000100</i>
  <i name="ENMAX">    400.00000000</i>
  <v name="MAGMOM">      4.00000000</v>
  <i type="int" name="ISMEAR">    -5</i>
  <i type="logical" name="LORBIT"> F  </i>
  <v type="int" name="KPOINT_BSE">    -1     0     0     0</v>
 </incar>
 <kpoints>
  <generation param="Monkhorst-Pack">
   <v type="int" name="divisions">       8        8        8 </v>
   <v name="usershift">      0.00000000       0.00000000       0.00000000 </v>
   <v name="genvec1">      0.12500000       0.00000000       0.00000000 </v>
   <v name="genvec2">      0.00000000       0.12500000       0.00000000 </v>
   <v name="genvec3">      0.00000000       0.00000000       0.12500000 </v>
   <v name="shift">      0.50000000       0.50000000       0.50000000 </v>
  </generation>
  <varray name="kpointlist" >
   <v>       0.06250000       0.06250000       0.06250000 </v>
   <v>       0.18750000       0.06250000       0.06250000 </v>
   <v>       0.31250000       0.06250000       0.06250000 </v>
   <v>       0.43750000       0.06250000       0.06250000 </v>
   <v>      -0.06250000       0.06250000       0.06250000 </v>
   <v>       0.18750000       0.18750000       0.06250000 </v>
   <v>       0.31250000       0.18750000       0.06250000 </v>
   <v>      -0.18750000       0.18750000       0.06250000 </v>
   <v>       0.31250000       0.31250000       0.06250000 </v>
   <v>      -0.31250000       0.31250000       0.06250000 </v>
   <v>      -0.18750000       0.31250000       0.06250000 </v>
   <v>      -0.43750000       0.43750000       0.06250000 </v>
   <v>      -0.31250000       0.43750000       0.06250000 </v>
   <v>      -0.43750000      -0.43750000       0.06250000 </v>
   <v>      -0.31250000      -0.43750000       0.06250000 </v>
   <v>       0.18750000       0.18750000       0.18750000 </v>
   <v>       0.31250000       0.18750000       0.18750000 </v>
   <v>      -0.18750000       0.18750000       0.18750000 </v>
   <v>      -0.31250000       0.31250000       0.18750000 </v>
   <v>      -0.43750000       0.43750000       0.18750000 </v>
   <v>      -0.31250000       0.43750000       0.18750000 </v>
   <v>      -0.43750000      -0.43750000       0.18750000 </v>
   <v>      -0.31250000       0.31250000       0.31250000 </v>
   <v>      -0.43750000       0.43750000       0.31250000 </v>
   <v>      -0.43750000      -0.43750000       0.31250000 </v>
   <v>      -0.43750000       0.43750000       0.43750000 </v>
  </varray>
  <varray name="weights" >
   <v>       0.01562500 </v>
   <v>       0.04687500 </v>
   <v>       0.04687500 </v>
   <v>       0.02343750 </v>
   <v>       0.01171875 </v>
   <v>       0.04687500 </v>
   <v>       0.09375000 </v>
   <v>       0.04687500 </v>
   <v>       0.01562500 </v>
   <v>       0.04687500 </v>
   <v>       0.04687500 </v>
   <v>       0.04687500 </v>
   <v>       0.09375000 </v>
   <v>       0.04687500 </v>
   <v>       0.04687500 </v>
   <v>       0.01562500 </v>
   <v>       0.02343750 </v>
   <v>       0.01171875 </v>
   <v>       0.04687500 </v>
   <v>       0.04687500 </v>
   <v>       0.04687500 </v>
   <v>       0.04687500 </v>
   <v>       0.01171875 </v>
   <v>       0.04687500 </v>
   <v>       0.01562500 </v>
   <v>       0.01171875 </v>
  </varray>
  <varray name="tetrahedronlist"  type="int" >
   <v type="int" >        4        1        2        2        6 </v>
   <v type="int" >        8        2        2        6        6 </v>
   <v type="int" >        4        2        6        6       16 </v>
   <v type="int" >        4        2        3        6        7 </v>
   <v type="int" >        4        2        6        6        7 </v>
   <v type="int" >       12        6        6        7       16 </v>
   <v type="int" >        8        3        6        7        7 </v>
   <v type="int" >        8        6        7        7       17 </v>
   <v type="int" >        8        6        7       16       17 </v>
   <v type="int" >        4        3        4        7        7 </v>
   <v type="int" >        4        3        7        7        7 </v>
   <v type="int" >       16        7        7        7       17 </v>
   <v type="int" >        8        4        7        7        7 </v>
   <v type="int" >        4        7        7        7       16 </v>
   <v type="int" >       20        7        7       16       17 </v>
   <v type="int" >        4        3        4        6        7 </v>
   <v type="int" >        4        4        6        7        7 </v>
   <v type="int" >       16        6        7        7       16 </v>
   <v type="int" >        8        3        6        6        7 </v>
   <v type="int" >        4        6        6        6        7 </v>
   <v type="int" >        4        2        2        3        6 </v>
   <v type="int" >        8        2        3        6        6 </v>
   <v type="int" >        4        2        6        6        6 </v>
   <v type="int" >        4        2        2        2        6 </v>
   <v type="int" >        8        2        2        6       11 </v>
   <v type="int" >        4        2        6        6       11 </v>
   <v type="int" >       16        1        2        2        8 </v>
   <v type="int" >        4        2        2        2        8 </v>
   <v type="int" >       12        2        2        8       11 </v>
   <v type="int" >       16        1        2        8        8 </v>
   <v type="int" >        4        2        8        8       18 </v>
   <v type="int" >        4        2        8       11       18 </v>
   <v type="int" >       20        1        5        8        8 </v>
   <v type="int" >        4        1        8        8        8 </v>
   <v type="int" >        4        8        8        8       18 </v>
   <v type="int" >        8        5        8        8        8 </v>
   <v type="int" >        4        8        8        8       11 </v>
   <v type="int" >        4        8        8       11       18 </v>
   <v type="int" >        8        1        2        5        8 </v>
   <v type="int" >        8        2        5        8        8 </v>
   <v type="int" >        8        2        8        8       11 </v>
   <v type="int" >        4        2        2        6        8 </v>
   <v type="int" >        4        2        6        8       11 </v>
   <v type="int" >        4        6        7        9       16 </v>
   <v type="int" >       16        7        9       16       17 </v>
   <v type="int" >       12        9       16       17       17 </v>
   <v type="int" >       20        7        7        9       17 </v>
   <v type="int" >       12        7        9       17       17 </v>
   <v type="int" >        8        7        7       17       17 </v>
   <v type="int" >       12        3        6        7       16 </v>
   <v type="int" >        8        3        7        7       16 </v>
   <v type="int" >        8        3        6        6       16 </v>
   <v type="int" >        4        3        6       13       16 </v>
   <v type="int" >        4        3        7       13       16 </v>
   <v type="int" >        4        2        6        6       10 </v>
   <v type="int" >        4        3        6        6       10 </v>
   <v type="int" >        8        3        6       10       13 </v>
   <v type="int" >       12        2        6       10       11 </v>
   <v type="int" >        4        6       10       11       19 </v>
   <v type="int" >        4        6       10       13       19 </v>
   <v type="int" >        4        2        8       11       11 </v>
   <v type="int" >        4        2       10       11       11 </v>
   <v type="int" >        4       10       11       11       19 </v>
   <v type="int" >        8        8       11       11       18 </v>
   <v type="int" >        8       11       11       18       19 </v>
   <v type="int" >        4       11       11       19       19 </v>
   <v type="int" >        4        8        8       10       18 </v>
   <v type="int" >       12        8       10       11       18 </v>
   <v type="int" >       12       10       11       18       19 </v>
   <v type="int" >        4       10       11       13       18 </v>
   <v type="int" >        4       10       13       18       19 </v>
   <v type="int" >        4        2        3        8       11 </v>
   <v type="int" >        4        3        8       10       11 </v>
   <v type="int" >        8        3       10       11       13 </v>
   <v type="int" >       16        2        3        6       11 </v>
   <v type="int" >        4        3        6        7       11 </v>
   <v type="int" >        4        3        7       11       13 </v>
   <v type="int" >        4        4        7        9       17 </v>
   <v type="int" >        8        4        7        7       17 </v>
   <v type="int" >        4        4        7       14       17 </v>
   <v type="int" >        4        3        7        7       12 </v>
   <v type="int" >        8        4        7        7       12 </v>
   <v type="int" >        8        4        7       12       14 </v>
   <v type="int" >        8        3        7       12       13 </v>
   <v type="int" >        4        7       12       13       20 </v>
   <v type="int" >        4        7       12       14       20 </v>
   <v type="int" >        4        3       10       13       13 </v>
   <v type="int" >        4        3       12       13       13 </v>
   <v type="int" >        4       12       13       13       20 </v>
   <v type="int" >        8       10       13       13       19 </v>
   <v type="int" >       12       13       13       19       21 </v>
   <v type="int" >        4       13       13       20       21 </v>
   <v type="int" >        8       10       11       13       19 </v>
   <v type="int" >        8       11       13       19       19 </v>
   <v type="int" >        4       13       19       19       20 </v>
   <v type="int" >        8       13       19       20       21 </v>
   <v type="int" >        4       10       11       12       19 </v>
   <v type="int" >        4       11       12       13       19 </v>
   <v type="int" >        8       12       13       19       20 </v>
   <v type="int" >        8       10       12       13       19 </v>
   <v type="int" >        4       12       13       14       19 </v>
   <v type="int" >        4       12       14       19       20 </v>
   <v type="int" >        4        3        4       10       13 </v>
   <v type="int" >        4        4       10       12       13 </v>
   <v type="int" >       12        4       12       13       14 </v>
   <v type="int" >       12        3        4        7       13 </v>
   <v type="int" >        8        4        7        7       13 </v>
   <v type="int" >       12        4        7       13       14 </v>
   <v type="int" >        4        4       12       14       14 </v>
   <v type="int" >        4       12       14       14       20 </v>
   <v type="int" >        4       14       14       20       22 </v>
   <v type="int" >        4       12       13       15       20 </v>
   <v type="int" >        4       12       14       15       20 </v>
   <v type="int" >        8       14       15       20       22 </v>
   <v type="int" >       12       13       15       20       21 </v>
   <v type="int" >       12       15       20       21       22 </v>
   <v type="int" >        4       15       20       22       22 </v>
   <v type="int" >        4       13       13       14       21 </v>
   <v type="int" >       12       13       14       15       21 </v>
   <v type="int" >       16       14       15       21       22 </v>
   <v type="int" >        8       13       14       20       21 </v>
   <v type="int" >        4       14       20       20       21 </v>
   <v type="int" >       12       14       20       21       22 </v>
   <v type="int" >        4       12       12       13       20 </v>
   <v type="int" >        8       12       13       14       20 </v>
   <v type="int" >        8       12       14       20       20 </v>
   <v type="int" >        8       12       12       14       20 </v>
   <v type="int" >        4       12       13       20       20 </v>
   <v type="int" >       16        3        4       12       14 </v>
   <v type="int" >        8        3       12       12       14 </v>
   <v type="int" >        8        3       12       13       14 </v>
   <v type="int" >       16        3        4        7       14 </v>
   <v type="int" >        4        3        6        7       14 </v>
   <v type="int" >        4        3        6       13       14 </v>
   <v type="int" >        8       14       15       15       22 </v>
   <v type="int" >        8       15       15       22       22 </v>
   <v type="int" >        8       15       21       22       22 </v>
   <v type="int" >       12       13       14       15       22 </v>
   <v type="int" >        4       13       15       15       22 </v>
   <v type="int" >        8       13       15       21       22 </v>
   <v type="int" >       12       13       14       20       22 </v>
   <v type="int" >        4       13       19       20       22 </v>
   <v type="int" >        4       13       19       21       22 </v>
   <v type="int" >        4       10       12       14       20 </v>
   <v type="int" >        4       10       13       14       20 </v>
   <v type="int" >        8       10       13       19       20 </v>
   <v type="int" >        8       10       12       13       20 </v>
   <v type="int" >        4       10       11       13       20 </v>
   <v type="int" >        4       10       11       19       20 </v>
   <v type="int" >        4        2        3       12       13 </v>
   <v type="int" >        4        2       10       12       13 </v>
   <v type="int" >        8        2       10       11       13 </v>
   <v type="int" >       12        2        3        6       13 </v>
   <v type="int" >        4        2        2        6       13 </v>
   <v type="int" >        4        2        2       11       13 </v>
   <v type="int" >        4       11       13       15       21 </v>
   <v type="int" >        8       11       13       19       21 </v>
   <v type="int" >        4       11       18       19       21 </v>
   <v type="int" >        4        8       10       13       19 </v>
   <v type="int" >        4        8       11       13       19 </v>
   <v type="int" >        8        8       11       18       19 </v>
   <v type="int" >        8        8       10       11       19 </v>
   <v type="int" >        4        8        8       11       19 </v>
   <v type="int" >        4        8        8       18       19 </v>
   <v type="int" >        4        1        2       10       11 </v>
   <v type="int" >        4        1        8       10       11 </v>
   <v type="int" >        8        1        8        8       11 </v>
   <v type="int" >        8        1        2        2       11 </v>
   <v type="int" >       12        1        2        8       11 </v>
   <v type="int" >        4        5        8       11       18 </v>
   <v type="int" >        4        5        8        8       18 </v>
   <v type="int" >        4        1        5        8       18 </v>
   <v type="int" >        4        5        5        8        8 </v>
   <v type="int" >       12        1        5        5        8 </v>
   <v type="int" >        6        1        1        5        5 </v>
   <v type="int" >        8        1        1        5        8 </v>
   <v type="int" >        4        1        1        2        8 </v>
   <v type="int" >        4        2        3        6       16 </v>
   <v type="int" >        4        3        7       16       17 </v>
   <v type="int" >       12        7       16       17       17 </v>
   <v type="int" >        8        7       17       17       17 </v>
   <v type="int" >       12        7        7        9       16 </v>
   <v type="int" >        4        6        6        7        7 </v>
   <v type="int" >       16        3        6        7       13 </v>
   <v type="int" >       12        6        7        7       13 </v>
   <v type="int" >        4        3        6        6       11 </v>
   <v type="int" >       12        3        6       11       13 </v>
   <v type="int" >       12        2        3       10       11 </v>
   <v type="int" >        4        3       10       11       19 </v>
   <v type="int" >        4        3       11       13       19 </v>
   <v type="int" >        4        2        8       10       18 </v>
   <v type="int" >        4        2       10       11       18 </v>
   <v type="int" >        4       10       18       19       19 </v>
   <v type="int" >        4        8        8       11       11 </v>
   <v type="int" >        4        8       10       11       11 </v>
   <v type="int" >        4       10       11       11       13 </v>
   <v type="int" >        4       11       11       13       19 </v>
   <v type="int" >        4        2        6        8       10 </v>
   <v type="int" >        4        6        8       10       11 </v>
   <v type="int" >       12        6       10       11       13 </v>
   <v type="int" >        8        2        3        6       10 </v>
   <v type="int" >        4        3        6        7       10 </v>
   <v type="int" >        4        6        7       10       13 </v>
   <v type="int" >        4       16       17       17       17 </v>
   <v type="int" >        4       17       17       17       17 </v>
   <v type="int" >        4        9       17       17       17 </v>
   <v type="int" >        8        7        7       15       17 </v>
   <v type="int" >        8        7        9       15       17 </v>
   <v type="int" >        4        6        7       13       16 </v>
   <v type="int" >        4        7        7       13       16 </v>
   <v type="int" >       12        7        7       13       15 </v>
   <v type="int" >        8        6        7       13       13 </v>
   <v type="int" >        4        7       13       13       21 </v>
   <v type="int" >        4        7       13       15       21 </v>
   <v type="int" >        4        6       11       13       19 </v>
   <v type="int" >        4        6       13       13       19 </v>
   <v type="int" >        4       13       19       19       23 </v>
   <v type="int" >        4       13       19       21       23 </v>
   <v type="int" >        4       11       18       19       19 </v>
   <v type="int" >        4       11       19       19       19 </v>
   <v type="int" >        4       19       19       19       23 </v>
   <v type="int" >        4       18       19       19       19 </v>
   <v type="int" >        4       19       19       19       21 </v>
   <v type="int" >        4       19       19       21       23 </v>
   <v type="int" >        4       11       13       18       19 </v>
   <v type="int" >        4       13       18       19       19 </v>
   <v type="int" >        8       13       19       19       21 </v>
   <v type="int" >       12       11       13       13       19 </v>
   <v type="int" >        4       13       13       15       19 </v>
   <v type="int" >        4       13       15       19       21 </v>
   <v type="int" >        4        6        7       11       13 </v>
   <v type="int" >        4        7       11       13       13 </v>
   <v type="int" >        8        7       13       13       15 </v>
   <v type="int" >        4        7        7        9       13 </v>
   <v type="int" >        4        7        9       13       15 </v>
   <v type="int" >        4        7        9       14       17 </v>
   <v type="int" >       12        7        9       14       15 </v>
   <v type="int" >        4        9       14       15       22 </v>
   <v type="int" >        4        7       13       15       20 </v>
   <v type="int" >        4        7       14       15       20 </v>
   <v type="int" >        4       15       20       21       24 </v>
   <v type="int" >        4       15       20       22       24 </v>
   <v type="int" >        4       13       19       21       21 </v>
   <v type="int" >        4       13       20       21       21 </v>
   <v type="int" >        4       20       21       21       24 </v>
   <v type="int" >        8       19       21       21       23 </v>
   <v type="int" >        8       21       21       23       24 </v>
   <v type="int" >        4       21       21       24       24 </v>
   <v type="int" >        4       19       19       20       23 </v>
   <v type="int" >       12       19       20       21       23 </v>
   <v type="int" >       12       20       21       23       24 </v>
   <v type="int" >        4       20       21       22       23 </v>
   <v type="int" >        4       20       22       23       24 </v>
   <v type="int" >        4       13       14       19       21 </v>
   <v type="int" >        4       14       19       20       21 </v>
   <v type="int" >        4       14       15       15       21 </v>
   <v type="int" >       16        7       13       14       15 </v>
   <v type="int" >        8        7       14       15       15 </v>
   <v type="int" >       16        7        7        9       15 </v>
   <v type="int" >        4        7        7       15       15 </v>
   <v type="int" >        4       14       20       22       22 </v>
   <v type="int" >        8       20       22       22       24 </v>
   <v type="int" >       16       22       22       24       25 </v>
   <v type="int" >       16       20       21       22       24 </v>
   <v type="int" >        8       21       22       24       24 </v>
   <v type="int" >        4       22       24       24       24 </v>
   <v type="int" >       16       22       24       24       25 </v>
   <v type="int" >        4       20       20       21       24 </v>
   <v type="int" >       12       20       22       24       24 </v>
   <v type="int" >        8       20       20       22       24 </v>
   <v type="int" >        4       20       21       24       24 </v>
   <v type="int" >        4       13       20       20       22 </v>
   <v type="int" >        8       13       20       21       22 </v>
   <v type="int" >        4       13       13       15       22 </v>
   <v type="int" >        4       13       13       21       22 </v>
   <v type="int" >        4        6        7       14       15 </v>
   <v type="int" >        4        6       13       14       15 </v>
   <v type="int" >        4        6       13       13       15 </v>
   <v type="int" >        4        6        7        7       15 </v>
   <v type="int" >        4        3        6        7       15 </v>
   <v type="int" >        4        3        6       13       15 </v>
   <v type="int" >        8       21       22       22       25 </v>
   <v type="int" >       12       21       22       24       25 </v>
   <v type="int" >        4       21       23       24       25 </v>
   <v type="int" >        4       19       20       22       24 </v>
   <v type="int" >        4       19       21       22       24 </v>
   <v type="int" >        8       19       21       23       24 </v>
   <v type="int" >        8       19       20       21       24 </v>
   <v type="int" >        4       19       19       21       24 </v>
   <v type="int" >        4       19       19       23       24 </v>
   <v type="int" >        4       11       13       20       21 </v>
   <v type="int" >        4       11       19       20       21 </v>
   <v type="int" >        4       11       19       19       21 </v>
   <v type="int" >        4       11       13       13       21 </v>
   <v type="int" >        4       10       11       13       21 </v>
   <v type="int" >        4       10       11       19       21 </v>
   <v type="int" >        4        2        6       13       13 </v>
   <v type="int" >        4        2       11       13       13 </v>
   <v type="int" >       12        2        3       10       13 </v>
   <v type="int" >        4        2       10       10       13 </v>
   <v type="int" >        4       18       19       21       23 </v>
   <v type="int" >        4       18       19       19       23 </v>
   <v type="int" >        4       11       18       19       23 </v>
   <v type="int" >        4        8       11       19       19 </v>
   <v type="int" >        4        8       18       19       19 </v>
   <v type="int" >        4        2        8       10       19 </v>
   <v type="int" >        4        2        8       11       19 </v>
   <v type="int" >       16        2        8       10       11 </v>
   <v type="int" >        4        8        8       10       11 </v>
   <v type="int" >       12        2        8        8       10 </v>
   <v type="int" >        8        2        8       10       10 </v>
   <v type="int" >        4        8       10       10       11 </v>
   <v type="int" >        4        1        8       11       18 </v>
   <v type="int" >        4        2        8        8        8 </v>
   <v type="int" >        8        2        2        8       10 </v>
   <v type="int" >        4        2        2        3       10 </v>
   <v type="int" >        4        3        4        7       17 </v>
   <v type="int" >        4        4        7       16       17 </v>
   <v type="int" >        4        7        7        7        9 </v>
   <v type="int" >        4        4        7        7       14 </v>
   <v type="int" >        4        7        7        7       14 </v>
   <v type="int" >       12        3        4       12       13 </v>
   <v type="int" >        4        4       12       13       20 </v>
   <v type="int" >        4        4       13       14       20 </v>
   <v type="int" >        4        3       10       12       19 </v>
   <v type="int" >        4        3       12       13       19 </v>
   <v type="int" >        4       12       13       19       21 </v>
   <v type="int" >        4       12       19       20       21 </v>
   <v type="int" >        4       10       13       19       19 </v>
   <v type="int" >        8       13       13       19       20 </v>
   <v type="int" >        4       10       11       13       13 </v>
   <v type="int" >        4       10       12       13       13 </v>
   <v type="int" >        4       12       13       13       14 </v>
   <v type="int" >        4       13       13       14       20 </v>
   <v type="int" >        4        3        7       10       12 </v>
   <v type="int" >        4        7       10       12       13 </v>
   <v type="int" >        8        7       12       13       14 </v>
   <v type="int" >        8        3        4        7       12 </v>
   <v type="int" >        4        7        7       12       14 </v>
   <v type="int" >        4        7        9       15       16 </v>
   <v type="int" >       12        7        9       15       15 </v>
   <v type="int" >        8        7        7       14       15 </v>
   <v type="int" >        4        7       14       15       22 </v>
   <v type="int" >        4        7       15       15       22 </v>
   <v type="int" >        4        7       13       14       21 </v>
   <v type="int" >        4        7       14       15       21 </v>
   <v type="int" >        4       14       20       21       24 </v>
   <v type="int" >        4       14       21       22       24 </v>
   <v type="int" >        4       13       19       20       23 </v>
   <v type="int" >        4       13       20       21       23 </v>
   <v type="int" >        4       20       23       24       24 </v>
   <v type="int" >        4       19       19       21       21 </v>
   <v type="int" >        4       19       20       21       21 </v>
   <v type="int" >        4       20       21       21       22 </v>
   <v type="int" >        4       21       21       22       24 </v>
   <v type="int" >        4       13       15       19       20 </v>
   <v type="int" >        4       15       19       20       21 </v>
   <v type="int" >        8       13       14       15       20 </v>
   <v type="int" >        4       14       15       15       20 </v>
   <v type="int" >        4       15       15       20       22 </v>
   <v type="int" >        4        7        9       13       14 </v>
   <v type="int" >        4        9       13       14       15 </v>
   <v type="int" >        8        9       14       15       15 </v>
   <v type="int" >        8        7        7        9       14 </v>
   <v type="int" >        4        9       15       15       22 </v>
   <v type="int" >        4       15       22       22       25 </v>
   <v type="int" >        4       15       21       22       24 </v>
   <v type="int" >        4       15       22       22       24 </v>
   <v type="int" >        8       22       24       24       26 </v>
   <v type="int" >        8       22       24       25       26 </v>
   <v type="int" >        4       21       23       24       24 </v>
   <v type="int" >        4       21       24       24       24 </v>
   <v type="int" >        8       24       24       24       26 </v>
   <v type="int" >        4       23       24       24       24 </v>
   <v type="int" >        4       24       24       24       25 </v>
   <v type="int" >       20       24       24       25       26 </v>
   <v type="int" >        4       21       22       23       24 </v>
   <v type="int" >        4       22       23       24       24 </v>
   <v type="int" >       12       21       22       22       24 </v>
   <v type="int" >        4       22       22       22       24 </v>
   <v type="int" >        4       15       15       21       22 </v>
   <v type="int" >        4       15       22       22       22 </v>
   <v type="int" >        4       15       15       15       22 </v>
   <v type="int" >        4       14       15       22       22 </v>
   <v type="int" >        4        7       15       15       15 </v>
   <v type="int" >        4        4        7        7       15 </v>
   <v type="int" >        4        4        7       14       15 </v>
   <v type="int" >        4       22       24       25       25 </v>
   <v type="int" >        8       24       25       25       26 </v>
   <v type="int" >        6       25       25       26       26 </v>
   <v type="int" >       12       24       25       26       26 </v>
   <v type="int" >        4       24       24       26       26 </v>
   <v type="int" >        8       21       24       24       25 </v>
   <v type="int" >        4       20       21       22       25 </v>
   <v type="int" >        4       20       21       24       25 </v>
   <v type="int" >        4       13       15       22       22 </v>
   <v type="int" >        4       13       21       22       22 </v>
   <v type="int" >        4       12       13       14       22 </v>
   <v type="int" >        4       12       13       20       22 </v>
   <v type="int" >        4        3        7       14       15 </v>
   <v type="int" >        4        3       13       14       15 </v>
   <v type="int" >        4       23       24       25       26 </v>
   <v type="int" >        4       23       24       24       26 </v>
   <v type="int" >        4       21       23       24       26 </v>
   <v type="int" >        4       19       21       24       24 </v>
   <v type="int" >        4       19       23       24       24 </v>
   <v type="int" >        4       13       19       20       24 </v>
   <v type="int" >        4       13       19       21       24 </v>
   <v type="int" >        4       10       13       20       21 </v>
   <v type="int" >        4       10       19       20       21 </v>
   <v type="int" >        4        3       10       12       20 </v>
   <v type="int" >        4        3       10       13       20 </v>
   <v type="int" >        8        3       10       12       13 </v>
   <v type="int" >        4       10       10       12       13 </v>
   <v type="int" >        8        3       10       10       12 </v>
   <v type="int" >        8        3       10       12       12 </v>
   <v type="int" >        4       10       12       12       13 </v>
   <v type="int" >        4       11       19       21       23 </v>
   <v type="int" >        4        6       11       13       21 </v>
   <v type="int" >        4        2       10       13       19 </v>
   <v type="int" >        4        2       11       13       19 </v>
   <v type="int" >        8        2        6       11       13 </v>
   <v type="int" >        4        2        6        6       13 </v>
   <v type="int" >        4        3       10       10       11 </v>
   <v type="int" >        4        3       11       13       13 </v>
   <v type="int" >        4        2        2        6       10 </v>
   <v type="int" >        4        6       10       12       13 </v>
   <v type="int" >        4        3        6       10       12 </v>
   <v type="int" >        4        2        3        3       10 </v>
   <v type="int" >        4        3        3       10       12 </v>
   <v type="int" >        4        3        3        4       12 </v>
   <v type="int" >        4        3        4        7       16 </v>
   <v type="int" >        4        6        7        7        7 </v>
   <v type="int" >        4        6        6        7       13 </v>
   <v type="int" >        8        3        7        7       14 </v>
   <v type="int" >        8        3        7       13       14 </v>
   <v type="int" >        4        3       12       14       20 </v>
   <v type="int" >        4        3       13       14       20 </v>
   <v type="int" >        4        4       12       12       20 </v>
   <v type="int" >        4        4       12       14       20 </v>
   <v type="int" >        4       12       14       20       22 </v>
   <v type="int" >        4       12       20       20       22 </v>
   <v type="int" >        4       12       13       14       21 </v>
   <v type="int" >        4       12       14       20       21 </v>
   <v type="int" >        4       14       21       22       22 </v>
   <v type="int" >        4       13       13       15       20 </v>
   <v type="int" >        4       14       15       20       20 </v>
   <v type="int" >        4       15       20       20       22 </v>
   <v type="int" >        4       12       13       14       14 </v>
   <v type="int" >        4       13       14       14       20 </v>
   <v type="int" >        2       14       14       20       20 </v>
   <v type="int" >        2       12       12       14       14 </v>
   <v type="int" >        8        4        7       12       12 </v>
   <v type="int" >        4        7       12       12       14 </v>
   <v type="int" >        4        3        6        7       12 </v>
   <v type="int" >        4        6        7       12       13 </v>
   <v type="int" >        4        6        7       15       16 </v>
   <v type="int" >        8        6        7       13       15 </v>
   <v type="int" >        4        6       13       15       21 </v>
   <v type="int" >        4        7       13       14       22 </v>
   <v type="int" >        4        7       13       15       22 </v>
   <v type="int" >        4       13       20       22       24 </v>
   <v type="int" >        4       13       21       22       24 </v>
   <v type="int" >        4       14       20       20       24 </v>
   <v type="int" >        4       14       20       22       24 </v>
   <v type="int" >        4       20       22       24       25 </v>
   <v type="int" >        4       20       24       24       25 </v>
   <v type="int" >        6       22       22       24       24 </v>
   <v type="int" >        4       20       21       22       22 </v>
   <v type="int" >        2       20       20       22       22 </v>
   <v type="int" >        4        7        7       13       14 </v>
   <v type="int" >        4        3        7       13       13 </v>
   <v type="int" >        4       15       21       22       25 </v>
   <v type="int" >        4       21       24       25       26 </v>
   <v type="int" >        4       24       26       26       26 </v>
   <v type="int" >        6       24       24       25       25 </v>
   <v type="int" >        4        4        7       13       15 </v>
   <v type="int" >        4        4       13       14       15 </v>
   <v type="int" >        8        4       12       12       13 </v>
   <v type="int" >        4       25       26       26       26 </v>
   <v type="int" >        2       26       26       26       26 </v>
   <v type="int" >        4        4       12       12       14 </v>
   <v type="int" >        4       12       12       12       14 </v>
   <v type="int" >        8        4       12       12       12 </v>
   <v type="int" >        4        3        4        4       12 </v>
   <v type="int" >        4        4        4       12       12 </v>
   <v type="int" >        4        1        5        8       11 </v>
   <v type="int" >        4        1        2        6       11 </v>
   <v type="int" >        4        2        8       10       13 </v>
   <v type="int" >        4        2        8       11       13 </v>
   <v type="int" >        4        2        3        7       13 </v>
   <v type="int" >        4        2        6        7       13 </v>
   <v type="int" >        4        3       10       12       14 </v>
   <v type="int" >        4        3       10       13       14 </v>
   <v type="int" >        4        3        4        6       13 </v>
   <v type="int" >        4        4        6        7       13 </v>
   <v type="int" >        4        3       10       11       12 </v>
   <v type="int" >        4        3       11       12       13 </v>
   <v type="int" >        4        2        2        3       11 </v>
   <v type="int" >        6        2        2        8        8 </v>
   <v type="int" >        6        1        1        8        8 </v>
   <v type="int" >        4        5        5        5        8 </v>
   <v type="int" >        4        6       11       13       15 </v>
   <v type="int" >        4        6        7        9       15 </v>
   <v type="int" >        4        7       13       15       15 </v>
   <v type="int" >        4        7        7        7       15 </v>
   <v type="int" >        4        7       13       13       14 </v>
   <v type="int" >        4        3        7        7       13 </v>
   <v type="int" >        4        6       10       13       13 </v>
   <v type="int" >        4        2        6       10       10 </v>
   <v type="int" >        4        3        6       10       10 </v>
   <v type="int" >        4        2        2       10       11 </v>
   <v type="int" >        2        2        2       10       10 </v>
   <v type="int" >        4        1        8        8       10 </v>
   <v type="int" >        4        1        2        8       10 </v>
   <v type="int" >        4        2        3        8       10 </v>
   <v type="int" >        4        3        8       10       10 </v>
   <v type="int" >        4        4        7        9       14 </v>
   <v type="int" >        4        7       12       13       15 </v>
   <v type="int" >        4        7       12       14       15 </v>
   <v type="int" >        4        3        7       12       12 </v>
   <v type="int" >        4        3        3       10       13 </v>
   <v type="int" >        4        3        3       12       13 </v>
   <v type="int" >        2        3        3       12       12 </v>
   <v type="int" >        2        3        3       10       10 </v>
   <v type="int" >        4        2       10       10       12 </v>
   <v type="int" >        4        2        3       10       12 </v>
   <v type="int" >        4        3        4       10       12 </v>
   <v type="int" >        4        4       10       12       12 </v>
   <v type="int" >        4        4        4       12       14 </v>
   <v type="int" >        4        3       12       12       12 </v>
   <v type="int" >        4        3        4       12       12 </v>
   <v type="int" >        4        1        5        5        5 </v>
   <v type="int" >        2        5        5        5        5 </v>
  </varray>
  <i name="volumeweight">      0.00032552 </i>
 </kpoints>
 <parameters>
  <separator name="general" >
   <i type="string" name="SYSTEM">Fe BCC</i>
   <i type="logical" name="LCOMPAT"> F  </i>
  </separator>
  <separator name="electronic" >
   <i type="string" name="PREC">accura</i>
   <i name="ENMAX">    400.00000000</i>
   <i name="ENAUG">    511.36800000</i>
   <i name="EDIFF">      0.00000100</i>
   <i type="int" name="IALGO">    38</i>
   <i type="int" name="IWAVPR">    10</i>
   <i type="int" name="NBANDS">    12</i>
   <i name="NELECT">      8.00000000</i>
   <i type="int" name="TURBO">     0</i>
   <i type="int" name="IRESTART">     0</i>
   <i type="int" name="NREBOOT">     0</i>
   <i type="int" name="NMIN">     0</i>
   <i name="EREF">      0.00000000</i>
   <separator name="electronic smearing" >
    <i type="int" name="ISMEAR">    -5</i>
    <i name="SIGMA">      0.20000000</i>
    <i name="KSPACING">      0.50000000</i>
    <i type="logical" name="KGAMMA"> T  </i>
   </separator>
   <separator name="electronic projectors" >
    <i type="logical" name="LREAL"> F  </i>
    <v name="ROPT">      0.00000000</v>
    <i type="int" name="LMAXPAW">  -100</i>
    <i type="int" name="LMAXMIX">     2</i>
    <i type="logical" name="NLSPLINE"> F  </i>
   </separator>
   <separator name="electronic startup" >
    <i type="int" name="ISTART">     0</i>
    <i type="int" name="ICHARG">     2</i>
    <i type="int" name="INIWAV">     1</i>
   </separator>
   <separator name="electronic spin" >
    <i type="int" name="ISPIN">     2</i>
    <i type="logical" name="LNONCOLLINEAR"> F  </i>
    <v name="MAGMOM">      4.00000000</v>
    <i name="NUPDOWN">     -1.00000000</i>
    <i type="logical" name="LSORBIT"> F  </i>
    <v name="SAXIS">      0.00000000      0.00000000      1.00000000</v>
    <i type="logical" name="LSPIRAL"> F  </i>
    <v name="QSPIRAL">      0.00000000      0.00000000      0.00000000</v>
    <i type="logical" name="LZEROZ"> F  </i>
   </separator>
   <separator name="electronic exchange-correlation" >
    <i type="logical" name="LASPH"> F  </i>
    <i type="logical" name="LMETAGGA"> F  </i>
   </separator>
   <separator name="electronic convergence" >
    <i type="int" name="NELM">    60</i>
    <i type="int" name="NELMDL">    -5</i>
    <i type="int" name="NELMIN">     2</i>
    <i name="ENINI">    400.00000000</i>
    <separator name="electronic convergence detail" >
     <i type="logical" name="LDIAG"> T  </i>
     <i type="logical" name="LSUBROT"> F  </i>
     <i name="WEIMIN">      0.00000000</i>
     <i name="EBREAK">      0.00000002</i>
     <i name="DEPER">      0.30000000</i>
     <i type="int" name="NRMM">     4</i>
     <i name="TIME">      0.40000000</i>
    </separator>
   </separator>
   <separator name="electronic mixer" >
    <i name="AMIX">      0.40000000</i>
    <i name="BMIX">      1.00000000</i>
    <i name="AMIN">      0.10000000</i>
    <i name="AMIX_MAG">      1.60000000</i>
    <i name="BMIX_MAG">      1.00000000</i>
    <separator name="electronic mixer details" >
     <i type="int" name="IMIX">     4</i>
     <i type="logical" name="MIXFIRST"> F  </i>
     <i type="int" name="MAXMIX">   -45</i>
     <i name="WC">    100.00000000</i>
     <i type="int" name="INIMIX">     1</i>
     <i type="int" name="MIXPRE">     1</i>
     <i type="int" name="MREMOVE">     5</i>
    </separator>
   </separator>
   <separator name="electronic dipolcorrection" >
    <i type="logical" name="LDIPOL"> F  </i>
    <i type="logical" name="LMONO"> F  </i>
    <i type="int" name="IDIPOL">     0</i>
    <i name="EPSILON">      1.00000000</i>
    <v name="DIPOL">   -100.00000000   -100.00000000   -100.00000000</v>
    <i name="EFIELD">      0.00000000</i>
   </separator>
  </separator>
  <separator name="grids" >
   <i type="int" name="NGX">    12</i>
   <i type="int" name="NGY">    12</i>
   <i type="int" name="NGZ">    12</i>
   <i type="int" name="NGXF">    24</i>
   <i type="int" name="NGYF">    24</i>
   <i type="int" name="NGZF">    24</i>
   <i type="logical" name="ADDGRID"> F  </i>
  </separator>
  <separator name="ionic" >
   <i type="int" name="NSW">     0</i>
   <i type="int" name="IBRION">    -1</i>
   <i type="int" name="ISIF">     2</i>
   <i name="PSTRESS">      0.00000000</i>
   <i name="EDIFFG">      0.00001000</i>
   <i type="int" name="NFREE">     0</i>
   <i name="POTIM">      0.50000000</i>
   <i name="SMASS">     -3.00000000</i>
   <i name="SCALEE">      1.00000000</i>
  </separator>
  <separator name="ionic md" >
   <i name="TEBEG">      0.00010000</i>
   <i name="TEEND">      0.00010000</i>
   <i type="int" name="NBLOCK">     1</i>
   <i type="int" name="KBLOCK">     1</i>
   <i type="int" name="NPACO">   256</i>
   <i name="APACO">     16.00000000</i>
  </separator>
  <separator name="symmetry" >
   <i type="int" name="ISYM">     2</i>
   <i name="SYMPREC">      0.00001000</i>
  </separator>
  <separator name="dos" >
   <i type="logical" name="LORBIT"> F  </i>
   <v name="RWIGS">     -1.00000000</v>
   <i type="int" name="NEDOS">   301</i>
   <i name="EMIN">     10.00000000</i>
   <i name="EMAX">    -10.00000000</i>
   <i name="EFERMI">      0.00000000</i>
  </separator>
  <separator name="writing" >
   <i type="int" name="NWRITE">     2</i>
   <i type="logical" name="LWAVE"> T  </i>
   <i type="logical" name="LCHARG"> T  </i>
   <i type="logical" name="LPARD"> F  </i>
   <i type="logical" name="LVTOT"> F  </i>
   <i type="logical" name="LVHAR"> F  </i>
   <i type="logical" name="LELF"> F  </i>
   <i type="logical" name="LOPTICS"> F  </i>
   <v name="STM">      0.00000000      0.00000000      0.00000000      0.00000000      0.00000000      0.00000000      0.00000000</v>
  </separator>
  <separator name="performance" >
   <i type="int" name="NPAR">     4</i>
   <i type="int" name="NSIM">     4</i>
   <i type="int" name="NBLK">    -1</i>
   <i type="logical" name="LPLANE"> T  </i>
   <i type="logical" name="LSCALAPACK"> F  </i>
   <i type="logical" name="LSCAAWARE"> F  </i>
   <i type="logical" name="LSCALU"> F  </i>
   <i type="logical" name="LASYNC"> F  </i>
   <i type="logical" name="LORBITALREAL"> F  </i>
  </separator>
  <separator name="miscellaneous" >
   <i type="int" name="IDIOT">     3</i>
   <i type="logical" name="LMUSIC"> F  </i>
   <v name="POMASS">     55.84700000</v>
   <v name="DARWINR">      0.00000000</v>
   <v name="DARWINV">      1.00000000</v>
   <i type="logical" name="LCORR"> T  </i>
  </separator>
  <i type="logical" name="GGA_COMPAT"> T  </i>
  <i type="logical" name="LBERRY"> F  </i>
  <i type="int" name="ICORELEVEL">     0</i>
  <i type="logical" name="LDAU"> F  </i>
  <i type="int" name="I_CONSTRAINED_M">     0</i>
  <separator name="electronic exchange-correlation" >
   <i type="string" name="GGA">--</i>
   <i type="int" name="VOSKOWN">     0</i>
   <i type="logical" name="LHFCALC"> F  </i>
   <i type="string" name="PRECFOCK"></i>
   <i type="logical" name="LSYMGRAD"> F  </i>
   <i type="logical" name="LHFONE"> F  </i>
   <i type="logical" name="LRHFCALC"> F  </i>
   <i type="logical" name="LTHOMAS"> F  </i>
   <i type="logical" name="LMODELHF"> F  </i>
   <i name="ENCUT4O">     -1.00000000</i>
   <i type="int" name="EXXOEP">     0</i>
   <i type="int" name="FOURORBIT">     0</i>
   <i name="AEXX">      0.00000000</i>
   <i name="HFALPHA">      0.00000000</i>
   <i name="MCALPHA">      0.00000000</i>
   <i name="ALDAX">      1.00000000</i>
   <i name="AGGAX">      1.00000000</i>
   <i name="ALDAC">      1.00000000</i>
   <i name="AGGAC">      1.00000000</i>
   <i type="int" name="NKREDX">     1</i>
   <i type="int" name="NKREDY">     1</i>
   <i type="int" name="NKREDZ">     1</i>
   <i type="logical" name="SHIFTRED"> F  </i>
   <i type="logical" name="ODDONLY"> F  </i>
   <i type="logical" name="EVENONLY"> F  </i>
   <i type="int" name="LMAXFOCK">     0</i>
   <i type="int" name="NMAXFOCKAE">     0</i>
   <i type="logical" name="LFOCKAEDFT"> F  </i>
   <i name="HFSCREEN">      0.00000000</i>
   <i name="HFSCREENC">      0.00000000</i>
   <i type="int" name="NBANDSGWLOW">     0</i>
  </separator>
  <separator name="vdW DFT" >
   <i type="logical" name="LUSE_VDW"> F  </i>
   <i name="Zab_VDW">     -0.84910000</i>
   <i name="PARAM1">      0.12340000</i>
   <i name="PARAM2">      1.00000000</i>
   <i name="PARAM3">      0.00000000</i>
  </separator>
  <separator name="model GW" >
   <i type="int" name="MODEL_GW">     0</i>
   <i name="MODEL_EPS0">      2.40000000</i>
   <i name="MODEL_ALPHA">      1.00000000</i>
  </separator>
  <separator name="linear response parameters" >
   <i type="logical" name="LEPSILON"> F  </i>
   <i type="logical" name="LRPA"> F  </i>
   <i type="logical" name="LNABLA"> F  </i>
   <i type="logical" name="LVEL"> F  </i>
   <i type="int" name="KINTER">     0</i>
   <i name="CSHIFT">      0.10000000</i>
   <i name="OMEGAMAX">     -1.00000000</i>
   <i name="DEG_THRESHOLD">      0.00200000</i>
  </separator>
  <separator name="orbital magnetization" >
   <i type="logical" name="NUCIND"> F  </i>
   <v name="MAGPOS">      0.00000000      0.00000000      0.00000000</v>
   <i type="logical" name="LNICSALL"> T  </i>
   <i type="logical" name="ORBITALMAG"> F  </i>
   <i type="logical" name="LMAGBLOCH"> F  </i>
   <i type="logical" name="LCHIMAG"> F  </i>
   <i type="logical" name="LGAUGE"> T  </i>
   <i type="int" name="MAGATOM">     0</i>
   <v name="MAGDIPOL">      0.00000000      0.00000000      0.00000000</v>
   <v name="AVECCONST">      0.00000000      0.00000000      0.00000000</v>
  </separator>
  <separator name="response functions" >
   <i type="logical" name="LADDER"> F  </i>
   <i type="logical" name="LFXC"> F  </i>
   <i type="logical" name="LHARTREE"> T  </i>
   <i type="int" name="IBSE">     0</i>
   <v type="int" name="KPOINT">    -1     0     0     0</v>
   <i type="logical" name="LTCTE"> F  </i>
   <i type="logical" name="LTETE"> F  </i>
   <i type="logical" name="LTRIPLET"> F  </i>
   <i type="logical" name="LFXCEPS"> F  </i>
   <i type="logical" name="LFXHEG"> F  </i>
   <i type="int" name="NATURALO">     0</i>
   <i type="logical" name="L2ORDER"> F  </i>
   <i type="logical" name="LUSEW"> F  </i>
   <i name="ENCUTGW">     -2.00000000</i>
   <i name="ENCUTGWSOFT">     -2.00000000</i>
   <i name="ENCUTLF">     -1.00000000</i>
   <i type="int" name="LMAXMP2">    -1</i>
   <i name="SCISSOR">      0.00000000</i>
   <i type="int" name="NOMEGA">     0</i>
   <i type="int" name="NOMEGAR">     0</i>
   <i type="int" name="NBANDSGW">    -1</i>
   <i type="int" name="NBANDSO">    -1</i>
   <i type="int" name="NBANDSV">    -1</i>
   <i type="int" name="NELM">     1</i>
   <i type="int" name="NELMHF">     1</i>
   <i type="int" name="DIM">     3</i>
   <i type="int" name="ANTIRES">     0</i>
   <i name="OMEGAMAX">    -30.00000000</i>
   <i name="OMEGAMIN">    -30.00000000</i>
   <i name="OMEGATL">   -200.00000000</i>
   <i type="int" name="OMEGAGRID">     0</i>
   <i name="CSHIFT">     -0.10000000</i>
   <i type="logical" name="SELFENERGY"> F  </i>
   <i type="logical" name="LSPECTRAL"> F  </i>
   <i type="logical" name="LSPECTRALGW"> F  </i>
   <i type="logical" name="LSINGLES"> F  </i>
   <i type="logical" name="LFERMIGW"> F  </i>
   <i type="logical" name="ODDONLYGW"> F  </i>
   <i type="logical" name="EVENONLYGW"> F  </i>
   <i type="int" name="NKREDLFX">     1</i>
   <i type="int" name="NKREDLFY">     1</i>
   <i type="int" name="NKREDLFZ">     1</i>
   <i type="int" name="MAXMEM">  1800</i>
   <i type="int" name="TELESCOPE">     0</i>
   <i type="int" name="TAUPAR">     1</i>
   <i type="int" name="OMEGAPAR">    -1</i>
   <i name="LAMBDA">      1.00000000</i>
  </separator>
  <separator name="External order field" >
   <i name="OFIELD_KAPPA">      0.00000000</i>
   <v name="OFIELD_K">      0.00000000      0.00000000      0.00000000</v>
   <i name="OFIELD_Q6_NEAR">      0.00000000</i>
   <i name="OFIELD_Q6_FAR">      0.00000000</i>
   <i name="OFIELD_A">      0.00000000</i>
  </separator>
 </parameters>
 <atominfo>
  <atoms>       1 </atoms>
  <types>       1 </types>
  <array name="atoms" >
   <dimension dim="1">ion</dimension>
   <field type="string">element</field>
   <field type="int">atomtype</field>
   <set>
    <rc><c>Fe</c><c>   1</c></rc>
   </set>
  </array>
  <array name="atomtypes" >
   <dimension dim="1">type</dimension>
   <field type="int">atomspertype</field>
   <field type="string">element</field>
   <field>mass</field>
   <field>valence</field>
   <field type="string">pseudopotential</field>
   <set>
    <rc><c>   1</c><c>Fe</c><c>     55.84700000</c><c>      8.00000000</c><c>  PAW_PBE Fe 06Sep2000                  </c></rc>
   </set>
  </array>
 </atominfo>
 <structure name="initialpos" >
  <crystal>
   <varray name="basis" >
    <v>      -1.00000000       1.00000000       1.00000000 </v>
    <v>       1.00000000      -1.00000000       1.00000000 </v>
    <v>       1.00000000       1.00000000      -1.00000000 </v>
   </varray>
   <i name="volume">      4.00000000 </i>
   <varray name="rec_basis" >
    <v>       0.00000000       0.50000000       0.50000000 </v>
    <v>       0.50000000       0.00000000       0.50000000 </v>
    <v>       0.50000000       0.50000000       0.00000000 </v>
   </varray>
  </crystal>
  <varray name="positions" >
   <v>       0.00000000       0.00000000       0.00000000 </v>
  </varray>
 </structure>
 <calculation>
  <scstep>
   <time name="dav">    2.75    1.75</time>
   <time name="total">    2.86    1.82</time>
   <energy>
    <i name="alphaZ">    172.78444000 </i>
    <i name="ewald">   -838.46699387 </i>
    <i name="hartreedc">    -43.15255435 </i>
    <i name="XCdc">     10.56819879 </i>
    <i name="pawpsdc">    552.89180568 </i>
    <i name="pawaedc">   -560.64780826 </i>
    <i name="eentropy">      0.00000000 </i>
    <i name="bandstr">    142.46630679 </i>
    <i name="atom">    594.30652615 </i>
    <i name="e_fr_energy">     30.74992093 </i>
    <i name="e_wo_entrp">     30.74992093 </i>
    <i name="e_0_energy">     30.74992093 </i>
   </energy>
  </scstep>
  <scstep>
   <time name="dav">    3.63    2.19</time>
   <time name="total">    3.73    2.24</time>
   <energy>
    <i name="e_fr_energy">     10.89539782 </i>
    <i name="e_wo_entrp">     10.89539782 </i>
    <i name="e_0_energy">     10.89539782 </i>
   </energy>
  </scstep>
  <scstep>
   <time name="dav">    4.87    2.96</time>
   <time name="total">    4.97    3.02</time>
   <energy>
    <i name="e_fr_energy">     10.67650677 </i>
    <i name="e_wo_entrp">     10.67650677 </i>
    <i name="e_0_energy">     10.67650677 </i>
   </energy>
  </scstep>
  <scstep>
   <time name="dav">    3.95    2.50</time>
   <time name="total">    4.03    2.56</time>
   <energy>
    <i name="e_fr_energy">     10.67637165 </i>
    <i name="e_wo_entrp">     10.67637165 </i>
    <i name="e_0_energy">     10.67637165 </i>
   </energy>
  </scstep>
  <scstep>
   <time name="dav">    4.05    2.51</time>
   <time name="total">    4.14    2.57</time>
   <energy>
    <i name="e_fr_energy">     10.67637160 </i>
    <i name="e_wo_entrp">     10.67637160 </i>
    <i name="e_0_energy">     10.67637160 </i>
   </energy>
  </scstep>
  <scstep>
   <time name="dav">    4.04    2.58</time>
   <time name="total">    4.21    2.69</time>
   <energy>
    <i name="e_fr_energy">      9.89815596 </i>
    <i name="e_wo_entrp">      9.89815596 </i>
    <i name="e_0_energy">      9.89815596 </i>
   </energy>
  </scstep>
  <scstep>
   <time name="dav">    6.08    3.60</time>
   <time name="total">    6.25    3.71</time>
   <energy>
    <i name="e_fr_energy">     10.01536558 </i>
    <i name="e_wo_entrp">     10.01536558 </i>
    <i name="e_0_energy">     10.01536558 </i>
   </energy>
  </scstep>
  <scstep>
   <time name="dav">    5.68    3.56</time>
   <time name="total">    5.87    3.67</time>
   <energy>
    <i name="e_fr_energy">     10.25408473 </i>
    <i name="e_wo_entrp">     10.25408473 </i>
    <i name="e_0_energy">     10.25408473 </i>
   </energy>
  </scstep>
  <scstep>
   <time name="dav">    4.39    2.75</time>
   <time name="total">    4.58    2.86</time>
   <energy>
    <i name="e_fr_energy">     10.18874870 </i>
    <i name="e_wo_entrp">     10.18874870 </i>
    <i name="e_0_energy">     10.18874870 </i>
   </energy>
  </scstep>
  <scstep>
   <time name="dav">    3.50    2.24</time>
   <time name="total">    3.65    2.34</time>
   <energy>
    <i name="e_fr_energy">     10.18773649 </i>
    <i name="e_wo_entrp">     10.18773649 </i>
    <i name="e_0_energy">     10.18773649 </i>
   </energy>
  </scstep>
  <scstep>
   <time name="dav">    3.74    2.38</time>
   <time name="total">    3.89    2.48</time>
   <energy>
    <i name="e_fr_energy">     10.18785247 </i>
    <i name="e_wo_entrp">     10.18785247 </i>
    <i name="e_0_energy">     10.18785247 </i>
   </energy>
  </scstep>
  <scstep>
   <time name="dav">    3.06    1.99</time>
   <time name="total">    3.22    2.10</time>
   <energy>
    <i name="e_fr_energy">     10.18784391 </i>
    <i name="e_wo_entrp">     10.18784391 </i>
    <i name="e_0_energy">     10.18784391 </i>
   </energy>
  </scstep>
  <scstep>
   <time name="dav">    4.17    2.66</time>
   <time name="total">    4.30    2.73</time>
   <energy>
    <i name="e_fr_energy">     10.18784772 </i>
    <i name="e_wo_entrp">     10.18784772 </i>
    <i name="e_0_energy">     10.18784772 </i>
   </energy>
  </scstep>
  <scstep>
   <time name="dav">    4.56    2.89</time>
   <time name="total">    4.76    3.01</time>
   <energy>
    <i name="e_fr_energy">     10.18784296 </i>
    <i name="e_wo_entrp">     10.18784296 </i>
    <i name="e_0_energy">     10.18784296 </i>
   </energy>
  </scstep>
  <scstep>
   <time name="dav">    2.05    1.20</time>
   <time name="total">    2.21    1.31</time>
   <energy>
    <i name="e_fr_energy">     10.18784048 </i>
    <i name="e_wo_entrp">     10.18784048 </i>
    <i name="e_0_energy">     10.18784048 </i>
   </energy>
  </scstep>
  <scstep>
   <time name="dav">    2.30    1.31</time>
   <time name="total">    2.39    1.37</time>
   <energy>
    <i name="alphaZ">    172.78444000 </i>
    <i name="ewald">   -838.46699387 </i>
    <i name="hartreedc">    -38.67308216 </i>
    <i name="XCdc">      7.89986796 </i>
    <i name="pawpsdc">   2715.32016085 </i>
    <i name="pawaedc">  -2738.83845915 </i>
    <i name="eentropy">      0.00000000 </i>
    <i name="bandstr">    135.85538079 </i>
    <i name="atom">    594.30652615 </i>
    <i name="e_fr_energy">     10.18784057 </i>
    <i name="e_wo_entrp">     10.18784057 </i>
    <i name="e_0_energy">     10.18784057 </i>
   </energy>
  </scstep>
  <structure>
   <crystal>
    <varray name="basis" >
     <v>      -1.00000000       1.00000000       1.00000000 </v>
     <v>       1.00000000      -1.00000000       1.00000000 </v>
     <v>       1.00000000       1.00000000      -1.00000000 </v>
    </varray>
    <i name="volume">      4.00000000 </i>
    <varray name="rec_basis" >
     <v>       0.00000000       0.50000000       0.50000000 </v>
     <v>       0.50000000       0.00000000       0.50000000 </v>
     <v>       0.50000000       0.50000000       0.00000000 </v>
    </varray>
   </crystal>
   <varray name="positions" >
    <v>       0.00000000       0.00000000       0.00000000 </v>
   </varray>
  </structure>
  <varray name="forces" >
   <v>       0.00000000      -0.00000000      -0.00000000 </v>
  </varray>
  <varray name="stress" >
   <v>   19432.51163423       0.00000000      -0.00000000 </v>
   <v>      -0.00000000   19432.51163423       0.00000000 </v>
   <v>       0.00000000      -0.00000000   19432.51163423 </v>
  </varray>
  <energy>
   <i name="e_fr_energy">     10.18784057 </i>
   <i name="e_wo_entrp">     10.18784057 </i>
   <i name="e_0_energy">      0.00000000 </i>
  </energy>
  <time name="totalsc">   65.47   40.79</time>
  <eigenvalues>
   <array>
    <dimension dim="1">band</dimension>
    <dimension dim="2">kpoint</dimension>
    <dimension dim="3">spin</dimension>
    <field>eigene</field>
    <field>occ</field>
    <set>
     <set comment="spin 1">
      <set comment="kpoint 1">
       <r>   15.1976    1.0000 </r>
       <r>   16.5200    1.0000 </r>
       <r>   16.5200    1.0000 </r>
       <r>   20.7082    1.0000 </r>
       <r>   23.0905    1.0207 </r>
       <r>   23.0905    0.7802 </r>
       <r>   59.8540    0.0000 </r>
       <r>   59.8540    0.0000 </r>
       <r>   61.4839    0.0000 </r>
       <r>   69.1422    0.0000 </r>
       <r>   69.1422    0.0000 </r>
       <r>   70.0607    0.0000 </r>
      </set>
      <set comment="kpoint 2">
       <r>   13.6088    1.0000 </r>
       <r>   14.5839    1.0000 </r>
       <r>   19.0224    1.0000 </r>
       <r>   22.9205    1.0013 </r>
       <r>   24.0058    0.6076 </r>
       <r>   26.0209   -0.0159 </r>
       <r>   57.0701    0.0000 </r>
       <r>   57.2843    0.0000 </r>
       <r>   65.7280    0.0000 </r>
       <r>   68.7362    0.0000 </r>
       <r>   70.5827    0.0000 </r>
       <r>   72.7294    0.0000 </r>
      </set>
      <set comment="kpoint 3">
       <r>   10.8023    1.0000 </r>
       <r>   13.0939    1.0000 </r>
       <r>   23.5170    1.0000 </r>
       <r>   23.8947    0.9604 </r>
       <r>   24.8430    0.0036 </r>
       <r>   31.8497    0.0000 </r>
       <r>   52.8239    0.0000 </r>
       <r>   53.4749    0.0000 </r>
       <r>   65.9139    0.0000 </r>
       <r>   70.4899    0.0000 </r>
       <r>   72.3853    0.0000 </r>
       <r>   76.6123    0.0000 </r>
      </set>
      <set comment="kpoint 4">
       <r>    9.6920    1.0000 </r>
       <r>   12.5507    1.0000 </r>
       <r>   24.3525    0.9917 </r>
       <r>   25.2432    0.0338 </r>
       <r>   25.8949    0.0000 </r>
       <r>   34.8640    0.0000 </r>
       <r>   50.1193    0.0000 </r>
       <r>   51.7936    0.0000 </r>
       <r>   64.3551    0.0000 </r>
       <r>   71.7045    0.0000 </r>
       <r>   73.7700    0.0000 </r>
       <r>   79.0246    0.0000 </r>
      </set>
      <set comment="kpoint 5">
       <r>   14.0784    1.0000 </r>
       <r>   17.6194    1.0000 </r>
       <r>   17.6194    1.0000 </r>
       <r>   18.0296    1.0000 </r>
       <r>   22.5075    1.0000 </r>
       <r>   23.8890    0.7711 </r>
       <r>   59.2217    0.0000 </r>
       <r>   60.7796    0.0000 </r>
       <r>   60.7796    0.0000 </r>
       <r>   68.4804    0.0000 </r>
       <r>   69.1485    0.0000 </r>
       <r>   69.1485    0.0000 </r>
      </set>
      <set comment="kpoint 6">
       <r>   12.8851    1.0000 </r>
       <r>   13.8850    1.0000 </r>
       <r>   19.2290    1.0000 </r>
       <r>   23.4048    1.0370 </r>
       <r>   25.0767   -0.0150 </r>
       <r>   32.8327   -0.0012 </r>
       <r>   53.9447    0.0000 </r>
       <r>   54.6871    0.0000 </r>
       <r>   65.7228    0.0000 </r>
       <r>   69.1036    0.0000 </r>
       <r>   73.7289    0.0000 </r>
       <r>   74.0499    0.0000 </r>
      </set>
      <set comment="kpoint 7">
       <r>   11.8964    1.0000 </r>
       <r>   13.6416    1.0000 </r>
       <r>   20.5943    1.0001 </r>
       <r>   24.2933    0.5335 </r>
       <r>   25.6317   -0.0003 </r>
       <r>   38.7325    0.0000 </r>
       <r>   49.8923    0.0000 </r>
       <r>   52.4350    0.0000 </r>
       <r>   62.7787    0.0000 </r>
       <r>   72.3696    0.0000 </r>
       <r>   75.4011    0.0000 </r>
       <r>   77.7234    0.0000 </r>
      </set>
      <set comment="kpoint 8">
       <r>   14.7380    1.0000 </r>
       <r>   16.2082    1.0000 </r>
       <r>   18.7040    1.0000 </r>
       <r>   20.7070    1.0000 </r>
       <r>   21.2130    1.1140 </r>
       <r>   24.8005    0.0633 </r>
       <r>   58.3074    0.0000 </r>
       <r>   60.3938    0.0000 </r>
       <r>   64.2078    0.0000 </r>
       <r>   67.9295    0.0000 </r>
       <r>   69.3046    0.0000 </r>
       <r>   71.1929    0.0000 </r>
      </set>
      <set comment="kpoint 9">
       <r>   12.1527    1.0000 </r>
       <r>   16.9057    1.0000 </r>
       <r>   16.9057    1.0000 </r>
       <r>   25.1002   -0.0139 </r>
       <r>   25.1002    0.0000 </r>
       <r>   45.2307    0.0000 </r>
       <r>   45.2307    0.0000 </r>
       <r>   51.5749    0.0000 </r>
       <r>   61.7913    0.0000 </r>
       <r>   75.2513    0.0000 </r>
       <r>   75.2513    0.0000 </r>
       <r>   76.8872    0.0000 </r>
      </set>
      <set comment="kpoint 10">
       <r>   11.6286    1.0000 </r>
       <r>   14.3111    1.0000 </r>
       <r>   21.0047    1.0000 </r>
       <r>   23.4559    1.0009 </r>
       <r>   25.1883    0.0898 </r>
       <r>   27.2597   -0.0033 </r>
       <r>   55.4270    0.0000 </r>
       <r>   55.7154    0.0000 </r>
       <r>   66.5608    0.0000 </r>
       <r>   69.7511    0.0000 </r>
       <r>   70.5162    0.0000 </r>
       <r>   76.0568    0.0000 </r>
      </set>
      <set comment="kpoint 11">
       <r>   14.1449    1.0000 </r>
       <r>   14.9252    1.0000 </r>
       <r>   18.8779    1.0000 </r>
       <r>   20.6092    1.0000 </r>
       <r>   24.3463    0.3710 </r>
       <r>   28.0540   -0.0137 </r>
       <r>   56.7916    0.0000 </r>
       <r>   58.1670    0.0000 </r>
       <r>   65.5517    0.0000 </r>
       <r>   67.3185    0.0000 </r>
       <r>   72.3092    0.0000 </r>
       <r>   73.9744    0.0000 </r>
      </set>
      <set comment="kpoint 12">
       <r>    9.3466    1.0000 </r>
       <r>   13.1140    1.0000 </r>
       <r>   22.6539    1.0020 </r>
       <r>   23.9438    0.9388 </r>
       <r>   28.9313   -0.0008 </r>
       <r>   32.0512    0.0000 </r>
       <r>   51.2285    0.0000 </r>
       <r>   52.6214    0.0000 </r>
       <r>   64.8359    0.0000 </r>
       <r>   71.1595    0.0000 </r>
       <r>   73.2801    0.0000 </r>
       <r>   77.0930    0.0000 </r>
      </set>
      <set comment="kpoint 13">
       <r>   11.6761    1.0000 </r>
       <r>   14.1187    1.0000 </r>
       <r>   19.3321    1.0001 </r>
       <r>   22.4364    1.0324 </r>
       <r>   26.5580   -0.0117 </r>
       <r>   34.2022    0.0000 </r>
       <r>   53.1198    0.0000 </r>
       <r>   54.6966    0.0000 </r>
       <r>   64.5952    0.0000 </r>
       <r>   68.4776    0.0000 </r>
       <r>   75.1210    0.0000 </r>
       <r>   75.4633    0.0000 </r>
      </set>
      <set comment="kpoint 14">
       <r>   10.5488    1.0000 </r>
       <r>   13.9625    1.0000 </r>
       <r>   19.5596    1.0008 </r>
       <r>   22.9658    1.0579 </r>
       <r>   27.9106    0.0000 </r>
       <r>   38.1901    0.0000 </r>
       <r>   49.8700    0.0000 </r>
       <r>   53.4327    0.0000 </r>
       <r>   63.2097    0.0000 </r>
       <r>   70.5624    0.0000 </r>
       <r>   73.5390    0.0000 </r>
       <r>   76.2309    0.0000 </r>
      </set>
      <set comment="kpoint 15">
       <r>   12.7526    1.0000 </r>
       <r>   13.8868    1.0000 </r>
       <r>   16.9899    1.0000 </r>
       <r>   23.7915    0.9830 </r>
       <r>   26.2485    0.0000 </r>
       <r>   41.7150    0.0000 </r>
       <r>   49.3991    0.0000 </r>
       <r>   52.5390    0.0000 </r>
       <r>   65.0083    0.0000 </r>
       <r>   68.2142    0.0000 </r>
       <r>   71.8710    0.0000 </r>
       <r>   80.5427    0.0000 </r>
      </set>
      <set comment="kpoint 16">
       <r>   13.7599    1.0000 </r>
       <r>   13.7599    1.0000 </r>
       <r>   18.8341    1.0000 </r>
       <r>   24.9980    0.0281 </r>
       <r>   24.9980   -0.0006 </r>
       <r>   39.1912    0.0000 </r>
       <r>   51.4373    0.0000 </r>
       <r>   51.4373    0.0000 </r>
       <r>   61.3180    0.0000 </r>
       <r>   75.1833    0.0000 </r>
       <r>   75.1833    0.0000 </r>
       <r>   75.5722    0.0000 </r>
      </set>
      <set comment="kpoint 17">
       <r>   13.8538    1.0000 </r>
       <r>   14.5853    1.0000 </r>
       <r>   18.4152    1.0000 </r>
       <r>   25.2224   -0.0370 </r>
       <r>   25.4319    0.0000 </r>
       <r>   43.5568    0.0000 </r>
       <r>   48.0124    0.0000 </r>
       <r>   50.4390    0.0000 </r>
       <r>   59.3673    0.0000 </r>
       <r>   75.5667    0.0000 </r>
       <r>   78.0305    0.0000 </r>
       <r>   79.2073    0.0000 </r>
      </set>
      <set comment="kpoint 18">
       <r>   16.6141    1.0000 </r>
       <r>   17.1608    1.0000 </r>
       <r>   18.1130    1.0000 </r>
       <r>   18.1130    1.0000 </r>
       <r>   20.5757    1.3095 </r>
       <r>   28.0654   -0.0207 </r>
       <r>   58.2415    0.0000 </r>
       <r>   62.8487    0.0000 </r>
       <r>   64.4668    0.0000 </r>
       <r>   64.4668    0.0000 </r>
       <r>   71.3038    0.0000 </r>
       <r>   71.3038    0.0000 </r>
      </set>
      <set comment="kpoint 19">
       <r>   12.7999    1.0000 </r>
       <r>   16.3270    1.0000 </r>
       <r>   17.4000    1.0000 </r>
       <r>   20.7380    1.0000 </r>
       <r>   24.5369    0.1323 </r>
       <r>   32.5001    0.0000 </r>
       <r>   56.5702    0.0000 </r>
       <r>   58.1617    0.0000 </r>
       <r>   62.9673    0.0000 </r>
       <r>   65.7504    0.0000 </r>
       <r>   74.5939    0.0000 </r>
       <r>   74.7206    0.0000 </r>
      </set>
      <set comment="kpoint 20">
       <r>   10.4722    1.0000 </r>
       <r>   16.2282    1.0000 </r>
       <r>   16.4988    1.0000 </r>
       <r>   21.4879    1.0086 </r>
       <r>   28.5016    0.0000 </r>
       <r>   38.2674    0.0000 </r>
       <r>   51.3223    0.0000 </r>
       <r>   56.5003    0.0000 </r>
       <r>   60.6113    0.0000 </r>
       <r>   68.3067    0.0000 </r>
       <r>   72.2541    0.0000 </r>
       <r>   76.7696    0.0000 </r>
      </set>
      <set comment="kpoint 21">
       <r>   11.2715    1.0000 </r>
       <r>   13.9698    1.0000 </r>
       <r>   17.9126    1.0021 </r>
       <r>   22.2310    1.0029 </r>
       <r>   26.6788   -0.0018 </r>
       <r>   38.5796    0.0000 </r>
       <r>   54.3490    0.0000 </r>
       <r>   54.9903    0.0000 </r>
       <r>   63.0137    0.0000 </r>
       <r>   63.8235    0.0000 </r>
       <r>   72.6541    0.0000 </r>
       <r>   79.2176    0.0000 </r>
      </set>
      <set comment="kpoint 22">
       <r>   10.7883    1.0000 </r>
       <r>   13.1424    1.0000 </r>
       <r>   17.0438    1.0049 </r>
       <r>   23.7376    0.9336 </r>
       <r>   27.7495    0.0000 </r>
       <r>   44.0046    0.0000 </r>
       <r>   49.5091    0.0000 </r>
       <r>   53.5534    0.0000 </r>
       <r>   62.3358    0.0000 </r>
       <r>   66.1091    0.0000 </r>
       <r>   70.1102    0.0000 </r>
       <r>   80.7564    0.0000 </r>
      </set>
      <set comment="kpoint 23">
       <r>   10.2447    1.0000 </r>
       <r>   13.5553    1.0000 </r>
       <r>   21.5661    1.0016 </r>
       <r>   21.5661    1.0071 </r>
       <r>   24.5595    0.0380 </r>
       <r>   37.2598    0.0000 </r>
       <r>   58.8137    0.0000 </r>
       <r>   58.8137    0.0000 </r>
       <r>   58.8751    0.0000 </r>
       <r>   59.9771    0.0000 </r>
       <r>   75.5545    0.0000 </r>
       <r>   78.5823    0.0000 </r>
      </set>
      <set comment="kpoint 24">
       <r>    8.6541    1.0000 </r>
       <r>   10.6493    1.0000 </r>
       <r>   22.0816    0.9901 </r>
       <r>   23.4901    0.8243 </r>
       <r>   27.9175    0.0000 </r>
       <r>   43.1242    0.0000 </r>
       <r>   51.7946    0.0000 </r>
       <r>   55.1791    0.0000 </r>
       <r>   59.4198    0.0000 </r>
       <r>   62.5349    0.0000 </r>
       <r>   73.4858    0.0000 </r>
       <r>   80.8128    0.0000 </r>
      </set>
      <set comment="kpoint 25">
       <r>    8.3499    1.0000 </r>
       <r>    8.3499    1.0000 </r>
       <r>   22.6025    0.9429 </r>
       <r>   27.2230   -0.1772 </r>
       <r>   27.2230    0.0000 </r>
       <r>   48.6941    0.0000 </r>
       <r>   48.6941    0.0000 </r>
       <r>   50.7398    0.0000 </r>
       <r>   61.3413    0.0000 </r>
       <r>   61.3413    0.0000 </r>
       <r>   73.2680    0.0000 </r>
       <r>   83.9449    0.0000 </r>
      </set>
      <set comment="kpoint 26">
       <r>    6.5645    1.0000 </r>
       <r>    7.1684    1.0000 </r>
       <r>   26.9857    0.1471 </r>
       <r>   26.9857   -0.0841 </r>
       <r>   27.7248    0.0000 </r>
       <r>   46.7911    0.0000 </r>
       <r>   50.5353    0.0000 </r>
       <r>   50.5353    0.0000 </r>
       <r>   59.7095    0.0000 </r>
       <r>   60.4675    0.0000 </r>
       <r>   76.1039    0.0000 </r>
       <r>   83.3803    0.0000 </r>
      </set>
     </set>
     <set comment="spin 2">
      <set comment="kpoint 1">
       <r>   15.1976    1.0000 </r>
       <r>   16.5200    1.0000 </r>
       <r>   16.5200    1.0000 </r>
       <r>   20.7082    1.0000 </r>
       <r>   23.0905    1.0207 </r>
       <r>   23.0905    0.7802 </r>
       <r>   59.8540    0.0000 </r>
       <r>   59.8540    0.0000 </r>
       <r>   61.4839    0.0000 </r>
       <r>   69.1422    0.0000 </r>
       <r>   69.1422    0.0000 </r>
       <r>   70.0607    0.0000 </r>
      </set>
      <set comment="kpoint 2">
       <r>   13.6088    1.0000 </r>
       <r>   14.5839    1.0000 </r>
       <r>   19.0224    1.0000 </r>
       <r>   22.9205    1.0013 </r>
       <r>   24.0058    0.6076 </r>
       <r>   26.0209   -0.0159 </r>
       <r>   57.0701    0.0000 </r>
       <r>   57.2843    0.0000 </r>
       <r>   65.7280    0.0000 </r>
       <r>   68.7362    0.0000 </r>
       <r>   70.5827    0.0000 </r>
       <r>   72.7294    0.0000 </r>
      </set>
      <set comment="kpoint 3">
       <r>   10.8023    1.0000 </r>
       <r>   13.0939    1.0000 </r>
       <r>   23.5170    1.0000 </r>
       <r>   23.8947    0.9604 </r>
       <r>   24.8430    0.0036 </r>
       <r>   31.8497    0.0000 </r>
       <r>   52.8238    0.0000 </r>
       <r>   53.4749    0.0000 </r>
       <r>   65.9139    0.0000 </r>
       <r>   70.4899    0.0000 </r>
       <r>   72.3853    0.0000 </r>
       <r>   76.6123    0.0000 </r>
      </set>
      <set comment="kpoint 4">
       <r>    9.6920    1.0000 </r>
       <r>   12.5507    1.0000 </r>
       <r>   24.3525    0.9917 </r>
       <r>   25.2432    0.0338 </r>
       <r>   25.8949    0.0000 </r>
       <r>   34.8640    0.0000 </r>
       <r>   50.1193    0.0000 </r>
       <r>   51.7936    0.0000 </r>
       <r>   64.3551    0.0000 </r>
       <r>   71.7045    0.0000 </r>
       <r>   73.7700    0.0000 </r>
       <r>   79.0246    0.0000 </r>
      </set>
      <set comment="kpoint 5">
       <r>   14.0784    1.0000 </r>
       <r>   17.6194    1.0000 </r>
       <r>   17.6194    1.0000 </r>
       <r>   18.0296    1.0000 </r>
       <r>   22.5075    1.0000 </r>
       <r>   23.8890    0.7711 </r>
       <r>   59.2217    0.0000 </r>
       <r>   60.7796    0.0000 </r>
       <r>   60.7796    0.0000 </r>
       <r>   68.4804    0.0000 </r>
       <r>   69.1485    0.0000 </r>
       <r>   69.1485    0.0000 </r>
      </set>
      <set comment="kpoint 6">
       <r>   12.8851    1.0000 </r>
       <r>   13.8850    1.0000 </r>
       <r>   19.2290    1.0000 </r>
       <r>   23.4048    1.0370 </r>
       <r>   25.0767   -0.0150 </r>
       <r>   32.8327   -0.0012 </r>
       <r>   53.9447    0.0000 </r>
       <r>   54.6871    0.0000 </r>
       <r>   65.7228    0.0000 </r>
       <r>   69.1036    0.0000 </r>
       <r>   73.7289    0.0000 </r>
       <r>   74.0499    0.0000 </r>
      </set>
      <set comment="kpoint 7">
       <r>   11.8964    1.0000 </r>
       <r>   13.6416    1.0000 </r>
       <r>   20.5943    1.0001 </r>
       <r>   24.2933    0.5335 </r>
       <r>   25.6317   -0.0003 </r>
       <r>   38.7325    0.0000 </r>
       <r>   49.8923    0.0000 </r>
       <r>   52.4350    0.0000 </r>
       <r>   62.7787    0.0000 </r>
       <r>   72.3696    0.0000 </r>
       <r>   75.4010    0.0000 </r>
       <r>   77.7234    0.0000 </r>
      </set>
      <set comment="kpoint 8">
       <r>   14.7380    1.0000 </r>
       <r>   16.2082    1.0000 </r>
       <r>   18.7040    1.0000 </r>
       <r>   20.7070    1.0000 </r>
       <r>   21.2130    1.1140 </r>
       <r>   24.8005    0.0633 </r>
       <r>   58.3074    0.0000 </r>
       <r>   60.3938    0.0000 </r>
       <r>   64.2079    0.0000 </r>
       <r>   67.9295    0.0000 </r>
       <r>   69.3046    0.0000 </r>
       <r>   71.1929    0.0000 </r>
      </set>
      <set comment="kpoint 9">
       <r>   12.1527    1.0000 </r>
       <r>   16.9057    1.0000 </r>
       <r>   16.9057    1.0000 </r>
       <r>   25.1002   -0.0139 </r>
       <r>   25.1002    0.0000 </r>
       <r>   45.2307    0.0000 </r>
       <r>   45.2307    0.0000 </r>
       <r>   51.5749    0.0000 </r>
       <r>   61.7913    0.0000 </r>
       <r>   75.2512    0.0000 </r>
       <r>   75.2512    0.0000 </r>
       <r>   76.8872    0.0000 </r>
      </set>
      <set comment="kpoint 10">
       <r>   11.6286    1.0000 </r>
       <r>   14.3111    1.0000 </r>
       <r>   21.0047    1.0000 </r>
       <r>   23.4559    1.0009 </r>
       <r>   25.1883    0.0898 </r>
       <r>   27.2597   -0.0033 </r>
       <r>   55.4269    0.0000 </r>
       <r>   55.7154    0.0000 </r>
       <r>   66.5608    0.0000 </r>
       <r>   69.7510    0.0000 </r>
       <r>   70.5162    0.0000 </r>
       <r>   76.0568    0.0000 </r>
      </set>
      <set comment="kpoint 11">
       <r>   14.1449    1.0000 </r>
       <r>   14.9252    1.0000 </r>
       <r>   18.8779    1.0000 </r>
       <r>   20.6092    1.0000 </r>
       <r>   24.3463    0.3710 </r>
       <r>   28.0540   -0.0137 </r>
       <r>   56.7916    0.0000 </r>
       <r>   58.1670    0.0000 </r>
       <r>   65.5518    0.0000 </r>
       <r>   67.3185    0.0000 </r>
       <r>   72.3092    0.0000 </r>
       <r>   73.9744    0.0000 </r>
      </set>
      <set comment="kpoint 12">
       <r>    9.3466    1.0000 </r>
       <r>   13.1140    1.0000 </r>
       <r>   22.6539    1.0020 </r>
       <r>   23.9438    0.9388 </r>
       <r>   28.9313   -0.0008 </r>
       <r>   32.0512    0.0000 </r>
       <r>   51.2285    0.0000 </r>
       <r>   52.6214    0.0000 </r>
       <r>   64.8359    0.0000 </r>
       <r>   71.1595    0.0000 </r>
       <r>   73.2802    0.0000 </r>
       <r>   77.0930    0.0000 </r>
      </set>
      <set comment="kpoint 13">
       <r>   11.6761    1.0000 </r>
       <r>   14.1187    1.0000 </r>
       <r>   19.3321    1.0001 </r>
       <r>   22.4364    1.0324 </r>
       <r>   26.5580   -0.0117 </r>
       <r>   34.2022    0.0000 </r>
       <r>   53.1198    0.0000 </r>
       <r>   54.6966    0.0000 </r>
       <r>   64.5952    0.0000 </r>
       <r>   68.4776    0.0000 </r>
       <r>   75.1210    0.0000 </r>
       <r>   75.4633    0.0000 </r>
      </set>
      <set comment="kpoint 14">
       <r>   10.5488    1.0000 </r>
       <r>   13.9625    1.0000 </r>
       <r>   19.5596    1.0008 </r>
       <r>   22.9658    1.0579 </r>
       <r>   27.9106    0.0000 </r>
       <r>   38.1901    0.0000 </r>
       <r>   49.8700    0.0000 </r>
       <r>   53.4327    0.0000 </r>
       <r>   63.2097    0.0000 </r>
       <r>   70.5624    0.0000 </r>
       <r>   73.5390    0.0000 </r>
       <r>   76.2309    0.0000 </r>
      </set>
[...]
       </set>
       <set comment="band 5">
        <r>  0.0216  0.0114  0.0114  0.0758  0.1289  0.4409  0.0648  0.1289  0.1945 </r>
       </set>
       <set comment="band 6">
        <r>  0.0633  0.1459  0.1459  0.6956  0.1553  0.3265  0.1440  0.1553  0.4320 </r>
       </set>
       <set comment="band 7">
        <r>  0.0000  0.3076  0.3076  0.0000  0.4603  0.0000  0.8461  0.4603  0.2820 </r>
       </set>
       <set comment="band 8">
        <r>  0.4150  0.0162  0.0162  0.0252  0.5465  0.3601  0.0028  0.5465  0.0084 </r>
       </set>
       <set comment="band 9">
        <r>  0.0542  0.8210  0.8210  0.4581  0.0153  0.0165  0.0103  0.0153  0.0308 </r>
       </set>
       <set comment="band 10">
        <r>  0.0000  0.2389  0.2389  0.0000  0.3551  0.0000  0.7332  0.3551  0.2444 </r>
       </set>
       <set comment="band 11">
        <r>  0.0047  0.0380  0.0380  1.1084  0.0040  0.3331  0.2330  0.0040  0.6989 </r>
       </set>
       <set comment="band 12">
        <r>  1.6150  0.2134  0.2135  2.0643  0.2325  0.7341  0.0168  0.2325  0.0504 </r>
       </set>
      </set>
      <set comment="kpoint 16">
       <set comment="band 1">
        <r>  0.0000  0.0531  0.2151  0.0635  0.8047  0.2375  0.0984  0.1986  0.0028 </r>
       </set>
       <set comment="band 2">
        <r>  0.0000  0.1680  0.0060  0.1576  0.0225  0.5897  0.0028  0.6286  0.0984 </r>
       </set>
       <set comment="band 3">
        <r>  0.2760  0.2796  0.2796  0.2796  0.2322  0.2322  0.0000  0.2322  0.0000 </r>
       </set>
       <set comment="band 4">
        <r>  0.0000  0.0002  0.0003  0.0003  0.0306  0.0272  0.4938  0.0270  0.4173 </r>
       </set>
       <set comment="band 5">
        <r>  0.0000  0.0003  0.0002  0.0003  0.0259  0.0294  0.4173  0.0295  0.4938 </r>
       </set>
       <set comment="band 6">
        <r>  0.1304  0.2715  0.2715  0.2715  0.3962  0.3962  0.0000  0.3962  0.0000 </r>
       </set>
       <set comment="band 7">
        <r>  0.0000  0.0569  0.2504  0.1141  0.9140  0.4164  0.2311  0.2078  0.0282 </r>
       </set>
       <set comment="band 8">
        <r>  0.0000  0.2240  0.0305  0.1669  0.1114  0.6091  0.0282  0.8177  0.2311 </r>
       </set>
       <set comment="band 9">
        <r>  0.8226  0.1254  0.1254  0.1254  0.0318  0.0318  0.0000  0.0318  0.0000 </r>
       </set>
       <set comment="band 10">
        <r>  0.0000  0.6838  3.0888  1.5034  0.0055  0.0027  0.1027  0.0012  0.0143 </r>
       </set>
       <set comment="band 11">
        <r>  0.0000  2.8335  0.4285  2.0140  0.0008  0.0036  0.0143  0.0050  0.1027 </r>
       </set>
       <set comment="band 12">
        <r>  0.0000  0.0000  0.0000  0.0000  0.0000  0.0000  0.0000  0.0000  0.0000 </r>
       </set>
      </set>
      <set comment="kpoint 17">
       <set comment="band 1">
        <r>  0.0000  0.1844  0.1844  0.0000  0.6633  0.0000  0.0000  0.6633  0.0000 </r>
       </set>
       <set comment="band 2">
        <r>  0.0669  0.0000  0.0000  0.5126  0.0000  1.0373  0.0296  0.0000  0.0887 </r>
       </set>
       <set comment="band 3">
        <r>  0.0000  0.4046  0.4046  0.0000  0.4254  0.0000  0.0000  0.4254  0.0000 </r>
       </set>
       <set comment="band 4">
        <r>  0.0012  0.0000  0.0000  0.0025  0.0000  0.1002  0.2249  0.0000  0.6747 </r>
       </set>
       <set comment="band 5">
        <r>  0.0000  0.0000  0.0000  0.0000  0.0000  0.0000  0.7547  0.0000  0.2516 </r>
       </set>
       <set comment="band 6">
        <r>  0.0000  0.4251  0.4251  0.0000  0.6800  0.0000  0.0000  0.6800  0.0000 </r>
       </set>
       <set comment="band 7">
        <r>  0.0967  0.0000  0.0000  0.4838  0.0000  1.6518  0.0464  0.0000  0.1393 </r>
       </set>
       <set comment="band 8">
        <r>  0.0000  0.2291  0.2291  0.0000  0.8303  0.0000  0.0000  0.8303  0.0000 </r>
       </set>
       <set comment="band 9">
        <r>  0.9063  0.0000  0.0000  0.2018  0.0000  0.0079  0.0019  0.0000  0.0056 </r>
       </set>
       <set comment="band 10">
        <r>  0.0000  2.6303  2.6303  0.0000  0.0020  0.0000  0.0000  0.0020  0.0000 </r>
       </set>
       <set comment="band 11">
        <r>  0.1839  0.0000  0.0000  4.8713  0.0000  0.0043  0.0334  0.0000  0.1001 </r>
       </set>
       <set comment="band 12">
        <r>  0.0000  2.1721  2.1721  0.0000  0.0052  0.0000  0.0000  0.0052  0.0000 </r>
       </set>
      </set>
      <set comment="kpoint 18">
       <set comment="band 1">
        <r>  0.0000  0.0000  0.0000  0.0000  0.0000  0.0000  0.8629  0.0000  0.2876 </r>
       </set>
       <set comment="band 2">
        <r>  1.2261  0.0000  0.0000  0.7630  0.0000  0.0000  0.0952  0.0000  0.2857 </r>
       </set>
       <set comment="band 3">
        <r>  0.0000  0.0454  0.0454  0.0000  0.5734  0.0000  0.0000  0.5734  0.0000 </r>
       </set>
       <set comment="band 4">
        <r>  0.0000  0.0454  0.0454  0.0000  0.5734  0.0000  0.0000  0.5734  0.0000 </r>
       </set>
       <set comment="band 5">
        <r>  0.0000  0.0000  0.0000  0.0000  0.0000  1.0757  0.0000  0.0000  0.0000 </r>
       </set>
       <set comment="band 6">
        <r>  0.4119  0.0000  0.0000  0.2807  0.0000  0.0000  0.1927  0.0000  0.5782 </r>
       </set>
       <set comment="band 7">
        <r>  0.0000  0.0000  0.0000  0.0000  0.0000  0.0000  2.0259  0.0000  0.6753 </r>
       </set>
       <set comment="band 8">
        <r>  0.2246  0.0000  0.0000  0.6397  0.0000  0.0000  0.0055  0.0000  0.0165 </r>
       </set>
       <set comment="band 9">
        <r>  0.0000  0.2730  0.2730  0.0000  1.0418  0.0000  0.0000  1.0419  0.0000 </r>
       </set>
       <set comment="band 10">
        <r>  0.0000  0.2730  0.2730  0.0000  1.0419  0.0000  0.0000  1.0418  0.0000 </r>
       </set>
       <set comment="band 11">
        <r>  0.0000  1.7065  1.7075  0.0000  0.0190  0.0000  0.0000  0.0190  0.0000 </r>
       </set>
       <set comment="band 12">
        <r>  0.0000  1.7075  1.7065  0.0000  0.0190  0.0000  0.0000  0.0190  0.0000 </r>
       </set>
      </set>
      <set comment="kpoint 19">
       <set comment="band 1">
        <r>  0.0957  0.0432  0.0000  0.0571  0.2522  0.0000  1.0346  0.0000  0.0780 </r>
       </set>
       <set comment="band 2">
        <r>  0.3884  0.0199  0.0000  0.4943  0.1397  0.0000  0.0040  0.0000  0.7258 </r>
       </set>
       <set comment="band 3">
        <r>  0.0000  0.0000  0.0907  0.0000  0.0000  0.3910  0.0000  0.8002  0.0000 </r>
       </set>
       <set comment="band 4">
        <r>  0.0113  0.1285  0.0000  0.1186  0.6876  0.0000  0.1929  0.0000  0.0634 </r>
       </set>
       <set comment="band 5">
        <r>  0.0000  0.0000  0.0370  0.0000  0.0000  0.6754  0.0000  0.2896  0.0000 </r>
       </set>
       <set comment="band 6">
        <r>  0.4808  0.0821  0.0000  0.6877  0.0154  0.0000  0.1334  0.0000  0.4919 </r>
       </set>
       <set comment="band 7">
        <r>  0.0783  0.1671  0.0000  0.0268  0.8802  0.0000  1.2914  0.0000  0.4807 </r>
       </set>
       <set comment="band 8">
        <r>  0.1230  0.0115  0.0000  0.1237  0.2358  0.0000  0.9138  0.0000  0.0980 </r>
       </set>
       <set comment="band 9">
        <r>  0.0000  0.0000  0.8213  0.0000  0.0000  0.0399  0.0000  2.0183  0.0000 </r>
       </set>
       <set comment="band 10">
        <r>  0.0280  0.9711  0.0000  0.1662  0.9450  0.0000  0.1347  0.0000  0.3209 </r>
       </set>
       <set comment="band 11">
        <r>  0.0000  0.0000  2.8542  0.0000  0.0000  0.3056  0.0000  0.5150  0.0000 </r>
       </set>
       <set comment="band 12">
        <r>  0.0270  1.5350  0.0000  1.9747  0.2209  0.0000  0.1614  0.0000  0.1756 </r>
       </set>
      </set>
      <set comment="kpoint 20">
       <set comment="band 1">
        <r>  0.1507  0.0756  0.0000  0.0837  0.3658  0.0000  1.1539  0.0000  0.0085 </r>
       </set>
       <set comment="band 2">
        <r>  0.0538  0.1654  0.0000  0.3668  0.0227  0.0000  0.0026  0.0000  0.9880 </r>
       </set>
       <set comment="band 3">
        <r>  0.0000  0.0000  0.0924  0.0000  0.0000  0.5738  0.0000  0.6813  0.0000 </r>
       </set>
       <set comment="band 4">
        <r>  0.0708  0.0557  0.0000  0.0026  0.6561  0.0000  0.2591  0.0000  0.0191 </r>
       </set>
       <set comment="band 5">
        <r>  0.0000  0.0000  0.0105  0.0000  0.0000  0.6104  0.0000  0.4825  0.0000 </r>
       </set>
       <set comment="band 6">
        <r>  0.1280  0.4164  0.0000  0.8886  0.0373  0.0000  0.0446  0.0000  0.6161 </r>
       </set>
       <set comment="band 7">
        <r>  0.2901  0.2348  0.0000  0.0007  1.4386  0.0000  0.6545  0.0000  0.1235 </r>
       </set>
       <set comment="band 8">
        <r>  0.0664  0.0595  0.0000  0.0681  0.1151  0.0000  1.4589  0.0000  0.0188 </r>
       </set>
       <set comment="band 9">
        <r>  0.0000  0.0000  0.8837  0.0000  0.0000  0.2719  0.0000  1.0681  0.0000 </r>
       </set>
       <set comment="band 10">
        <r>  0.0157  0.9378  0.0000  0.0962  0.1519  0.0000  0.1805  0.0000  1.0339 </r>
       </set>
       <set comment="band 11">
        <r>  0.0638  1.1365  0.0000  2.3647  0.0020  0.0000  0.3627  0.0000  0.3417 </r>
       </set>
       <set comment="band 12">
        <r>  0.0000  0.0000  2.4955  0.0000  0.0000  0.8920  0.0000  0.9625  0.0000 </r>
       </set>
      </set>
      <set comment="kpoint 21">
       <set comment="band 1">
        <r>  0.0000  0.0672  0.0672  0.0000  0.0480  0.0000  1.0703  0.0480  0.3568 </r>
       </set>
       <set comment="band 2">
        <r>  0.1812  0.0062  0.0062  0.4665  0.1058  0.0193  0.2258  0.1058  0.6774 </r>
       </set>
       <set comment="band 3">
        <r>  0.0145  0.0574  0.0574  0.0481  0.2809  0.3904  0.0383  0.2809  0.1148 </r>
       </set>
       <set comment="band 4">
        <r>  0.0000  0.0761  0.0761  0.0000  0.4300  0.0000  0.0531  0.4300  0.0177 </r>
       </set>
       <set comment="band 5">
        <r>  0.0292  0.0018  0.0018  0.0235  0.1420  0.6535  0.0122  0.1420  0.0366 </r>
       </set>
       <set comment="band 6">
        <r>  0.2721  0.0767  0.0767  0.8721  0.0523  0.0441  0.1627  0.0523  0.4882 </r>
       </set>
       <set comment="band 7">
        <r>  0.0000  0.2264  0.2264  0.0000  0.4126  0.0000  1.3611  0.4126  0.4537 </r>
       </set>
       <set comment="band 8">
        <r>  0.2502  0.1093  0.1093  0.0311  0.5881  0.1027  0.0352  0.5881  0.1057 </r>
       </set>
       <set comment="band 9">
        <r>  0.0000  0.1724  0.1724  0.0000  0.4435  0.0000  1.1656  0.4435  0.3885 </r>
       </set>
       <set comment="band 10">
        <r>  0.0343  0.4048  0.4048  0.0756  0.1005  0.0212  0.1568  0.1005  0.4704 </r>
       </set>
       <set comment="band 11">
        <r>  0.0891  0.5420  0.5420  2.0835  0.0400  0.1198  0.1632  0.0400  0.4895 </r>
       </set>
       <set comment="band 12">
        <r>  0.0000  1.9795  1.9798  0.0000  0.2038  0.0000  0.0471  0.2038  0.0157 </r>
       </set>
      </set>
      <set comment="kpoint 22">
       <set comment="band 1">
        <r>  0.0368  0.0769  0.0804  0.0769  0.1346  0.0001  1.3885  0.0001  0.0000 </r>
       </set>
       <set comment="band 2">
        <r>  0.0000  0.2128  0.0000  0.2128  0.0000  0.0120  0.0000  0.0120  1.2570 </r>
       </set>
       <set comment="band 3">
        <r>  0.0837  0.0058  0.0671  0.0058  0.2483  0.4424  0.0219  0.4424  0.0000 </r>
       </set>
       <set comment="band 4">
        <r>  0.0284  0.0326  0.0604  0.0326  0.5884  0.1139  0.0880  0.1139  0.0000 </r>
       </set>
       <set comment="band 5">
        <r>  0.0000  0.0395  0.0000  0.0395  0.0000  0.4929  0.0000  0.4929  0.0386 </r>
       </set>
       <set comment="band 6">
        <r>  0.0000  0.5860  0.0000  0.5860  0.0000  0.1205  0.0000  0.1205  0.8734 </r>
       </set>
       <set comment="band 7">
        <r>  0.2292  0.1705  0.1192  0.1705  1.0557  0.0001  0.8005  0.0001  0.0000 </r>
       </set>
       <set comment="band 8">
        <r>  0.1955  0.0013  0.3916  0.0013  0.1135  0.4354  0.5199  0.4354  0.0000 </r>
       </set>
       <set comment="band 9">
        <r>  0.0105  0.0130  0.4058  0.0130  0.1470  0.1245  1.5138  0.1245  0.0000 </r>
       </set>
       <set comment="band 10">
        <r>  0.0000  0.1354  0.0000  0.1354  0.0000  0.0425  0.0000  0.0425  1.9485 </r>
       </set>
       <set comment="band 11">
        <r>  0.1192  1.3634  0.4251  1.3634  0.0018  0.0727  0.3375  0.0727  0.0000 </r>
       </set>
       <set comment="band 12">
        <r>  0.1353  0.5110  2.6685  0.5110  0.0013  0.4290  0.0253  0.4290  0.0000 </r>
       </set>
      </set>
      <set comment="kpoint 23">
       <set comment="band 1">
        <r>  0.0000  0.0000  0.0000  0.0000  0.0000  0.0000  1.2408  0.0000  0.4136 </r>
       </set>
       <set comment="band 2">
        <r>  0.1565  0.0000  0.0000  0.5651  0.0000  0.0000  0.2842  0.0000  0.8527 </r>
       </set>
       <set comment="band 3">
        <r>  0.0000  0.0949  0.0949  0.0000  0.4671  0.0000  0.0000  0.4671  0.0000 </r>
       </set>
       <set comment="band 4">
        <r>  0.0000  0.0949  0.0949  0.0000  0.4671  0.0000  0.0000  0.4671  0.0000 </r>
       </set>
       <set comment="band 5">
        <r>  0.0000  0.0000  0.0000  0.0000  0.0000  0.9789  0.0000  0.0000  0.0000 </r>
       </set>
       <set comment="band 6">
        <r>  0.4356  0.0000  0.0000  0.9170  0.0000  0.0000  0.1602  0.0000  0.4805 </r>
       </set>
       <set comment="band 7">
        <r>  0.0000  0.3598  0.3598  0.0000  0.8654  0.0000  0.0000  0.8654  0.0000 </r>
       </set>
       <set comment="band 8">
        <r>  0.0000  0.3598  0.3598  0.0000  0.8654  0.0000  0.0000  0.8654  0.0000 </r>
       </set>
       <set comment="band 9">
        <r>  0.0000  0.0000  0.0000  0.0000  0.0000  0.0000  2.9625  0.0000  0.9875 </r>
       </set>
       <set comment="band 10">
        <r>  0.2276  0.0000  0.0000  0.0532  0.0000  0.0000  0.2655  0.0000  0.7965 </r>
       </set>
       <set comment="band 11">
        <r>  0.5422  0.0000  0.0000  3.6800  0.0000  0.0000  0.1235  0.0000  0.3706 </r>
       </set>
       <set comment="band 12">
        <r>  0.0000  0.2511  3.5359  0.0000  0.0292  0.0000  0.0000  0.4113  0.0000 </r>
       </set>
      </set>
      <set comment="kpoint 24">
       <set comment="band 1">
        <r>  0.0065  0.0514  0.0000  0.0125  0.0222  0.0000  1.5839  0.0000  0.1890 </r>
       </set>
       <set comment="band 2">
        <r>  0.0221  0.0333  0.0000  0.2950  0.0047  0.0000  0.1489  0.0000  1.3608 </r>
       </set>
       <set comment="band 3">
        <r>  0.0000  0.0000  0.1478  0.0000  0.0000  0.3635  0.0000  0.5778  0.0000 </r>
       </set>
       <set comment="band 4">
        <r>  0.0434  0.1311  0.0000  0.0249  0.8620  0.0000  0.0211  0.0000  0.0005 </r>
       </set>
       <set comment="band 5">
        <r>  0.0000  0.0000  0.0116  0.0000  0.0000  0.6712  0.0000  0.3891  0.0000 </r>
       </set>
       <set comment="band 6">
        <r>  0.1672  0.1256  0.0000  0.9932  0.0595  0.0000  0.1046  0.0000  0.5672 </r>
       </set>
       <set comment="band 7">
        <r>  0.1267  0.6426  0.0000  0.0019  0.9418  0.0000  0.2807  0.0000  0.2419 </r>
       </set>
       <set comment="band 8">
        <r>  0.0000  0.0000  0.8558  0.0000  0.0000  0.1499  0.0000  0.8659  0.0000 </r>
       </set>
       <set comment="band 9">
        <r>  0.0572  0.0008  0.0000  0.0020  0.0756  0.0000  3.3548  0.0000  0.0229 </r>
       </set>
       <set comment="band 10">
        <r>  0.0336  0.1706  0.0000  0.0086  0.0467  0.0000  0.0086  0.0000  2.5000 </r>
       </set>
       <set comment="band 11">
        <r>  0.6020  0.9581  0.0000  2.1114  0.0023  0.0000  0.1862  0.0000  0.1414 </r>
       </set>
       <set comment="band 12">
        <r>  0.0000  0.0000  3.9323  0.0000  0.0000  0.2105  0.0000  0.3731  0.0000 </r>
       </set>
      </set>
      <set comment="kpoint 25">
       <set comment="band 1">
        <r>  0.0000  0.0657  0.0000  0.0657  0.0000  0.0031  0.0000  0.0031  1.8055 </r>
       </set>
       <set comment="band 2">
        <r>  0.0000  0.0219  0.0875  0.0219  0.0042  0.0010  1.8055  0.0010  0.0000 </r>
       </set>
       <set comment="band 3">
        <r>  0.0356  0.0465  0.0465  0.0465  0.3035  0.3035  0.0000  0.3035  0.0000 </r>
       </set>
       <set comment="band 4">
        <r>  0.0000  0.0126  0.0506  0.0126  0.6617  0.1654  0.0071  0.1654  0.0000 </r>
       </set>
       <set comment="band 5">
        <r>  0.0000  0.0379  0.0000  0.0379  0.0000  0.4963  0.0000  0.4963  0.0071 </r>
       </set>
       <set comment="band 6">
        <r>  0.0000  0.5434  0.0000  0.5434  0.0000  0.1318  0.0000  0.1318  0.6493 </r>
       </set>
       <set comment="band 7">
        <r>  0.0000  0.1811  0.7245  0.1811  0.1757  0.0439  0.6493  0.0439  0.0000 </r>
       </set>
       <set comment="band 8">
        <r>  0.2274  0.2126  0.2126  0.2126  0.2726  0.2726  0.0000  0.2726  0.0000 </r>
       </set>
       <set comment="band 9">
        <r>  0.0000  0.0530  0.0000  0.0530  0.0000  0.0257  0.0000  0.0257  3.4127 </r>
       </set>
       <set comment="band 10">
        <r>  0.0000  0.0177  0.0706  0.0177  0.0343  0.0086  3.4127  0.0086  0.0000 </r>
       </set>
       <set comment="band 11">
        <r>  0.8632  0.8635  0.8635  0.8635  0.0073  0.0073  0.0000  0.0073  0.0000 </r>
       </set>
       <set comment="band 12">
        <r>  0.0000  0.4883  2.2893  1.9073  0.0374  0.0312  0.0089  0.0080  0.0033 </r>
       </set>
      </set>
      <set comment="kpoint 26">
       <set comment="band 1">
        <r>  0.0000  0.0000  0.0000  0.0000  0.0000  0.0000  1.5355  0.0000  0.5118 </r>
       </set>
       <set comment="band 2">
        <r>  0.0019  0.0000  0.0000  0.0895  0.0000  0.0000  0.4881  0.0000  1.4643 </r>
       </set>
       <set comment="band 3">
        <r>  0.0000  0.0391  0.0391  0.0000  0.4945  0.0000  0.0000  0.4945  0.0000 </r>
       </set>
       <set comment="band 4">
        <r>  0.0000  0.0391  0.0391  0.0000  0.4945  0.0000  0.0000  0.4945  0.0000 </r>
       </set>
       <set comment="band 5">
        <r>  0.0000  0.0000  0.0000  0.0000  0.0000  1.0571  0.0000  0.0000  0.0000 </r>
       </set>
       <set comment="band 6">
        <r>  0.0858  0.0000  0.0000  1.1706  0.0000  0.0000  0.0807  0.0000  0.2420 </r>
       </set>
       <set comment="band 7">
        <r>  0.0000  0.5565  0.5565  0.0000  0.1574  0.0000  0.0000  0.1574  0.0000 </r>
       </set>
       <set comment="band 8">
        <r>  0.0000  0.5565  0.5565  0.0000  0.1574  0.0000  0.0000  0.1574  0.0000 </r>
       </set>
       <set comment="band 9">
        <r>  0.0000  0.0000  0.0000  0.0000  0.0000  0.0000  3.4364  0.0000  1.1455 </r>
       </set>
       <set comment="band 10">
        <r>  0.0206  0.0000  0.0000  0.0252  0.0000  0.0000  0.9942  0.0000  2.9825 </r>
       </set>
       <set comment="band 11">
        <r>  2.1052  0.0000  0.0000  1.4263  0.0000  0.0000  0.0116  0.0000  0.0348 </r>
       </set>
       <set comment="band 12">
        <r>  0.0000  0.3482  4.2627  0.0000  0.0061  0.0000  0.0000  0.0742  0.0000 </r>
       </set>
      </set>
     </set>
    </set>
   </array>
  </projected>
 </calculation>
 <structure name="finalpos" >
  <crystal>
   <varray name="basis" >
    <v>      -1.00000000       1.00000000       1.00000000 </v>
    <v>       1.00000000      -1.00000000       1.00000000 </v>
    <v>       1.00000000       1.00000000      -1.00000000 </v>
   </varray>
   <i name="volume">      4.00000000 </i>
   <varray name="rec_basis" >
    <v>       0.00000000       0.50000000       0.50000000 </v>
    <v>       0.50000000       0.00000000       0.50000000 </v>
    <v>       0.50000000       0.50000000       0.00000000 </v>
   </varray>
  </crystal>
  <varray name="positions" >
   <v>       0.00000000       0.00000000       0.00000000 </v>
  </varray>
 </structure>
</modeling>
