Fe FCC                                  
   2.70000000000000     
    -0.500000    0.500000    0.500000
     0.500000   -0.500000    0.500000
     0.500000    0.500000   -0.500000
   Fe
     1
Direct
  0.000000  0.000000  0.000000
 
   32   32   32
  83.087      81.337      76.322      68.686      59.324      49.196      39.163      29.908      21.909      15.455    
  10.661      7.4641      5.6260      4.7571      4.3843      4.1688      4.0939      4.1688      4.3843      4.7571    
  5.6260      7.4641      10.661      15.455      21.909      29.908      39.163      49.196      59.324      68.686    
  76.322      81.337      81.337      80.759      76.847      70.115      61.379      51.582      41.616      32.216    
  23.920      17.073      11.842      8.2230      6.0331      4.9291      4.4595      4.2054      4.0832      4.1080    
  4.2770      4.5756      5.2035      6.6236      9.2600      13.406      19.186      26.546      35.260      44.920    
  54.922      64.469      72.637      78.505      76.322      76.847      74.142      68.567      60.818      51.771    
  42.303      33.171      24.952      18.033      12.627      8.7762      6.3533      5.0660      4.4992      4.2139    
  4.0513      4.0279      4.1462      4.3927      4.8233      5.8229      7.8329      11.194      16.092      22.540    
  30.380      39.280      48.723      58.005      66.274      72.637      68.686      70.115      68.567      64.251    
  57.721      49.744      41.140      32.652      24.868      18.200      12.893      9.0272      6.5219      5.1363    
  4.5010      4.1919      3.9991      3.9336      4.0018      4.1978      4.5107      5.1522      6.5501      9.0780    
  12.980      18.337      25.063      32.905      41.435      50.052      58.005      64.469      59.324      61.379    
  60.818      57.721      52.494      45.776      38.295      30.743      23.691      17.558      12.602      8.9308    
  6.5003      5.1167      4.4595      4.1394      3.9281      3.8300      3.8535      3.9974      4.2501      4.6502    
  5.5264      7.2639      10.153      14.343      19.822      26.414      33.785      41.435      48.723      54.922    
  49.196      51.582      51.771      49.744      45.776      40.370      34.141      27.707      21.597      16.210    
  11.805      8.5034      6.2868      5.0011      4.3736      4.0586      3.8408      3.7216      3.7091      3.8047    
  4.0043      4.2954      4.8018      5.8742      7.8311      10.879      15.079      20.340      26.414      32.905    
  39.280      44.920      39.163      41.616      42.303      41.140      38.295      34.141      29.179      23.932    
  18.868      14.353      10.629      7.8174      5.9166      4.8037      4.2489      3.9541      3.7406      3.6120    
  3.5745      3.6297      3.7777      4.0138      4.3362      4.9328      6.1198      8.1441      11.134      15.079    
  19.822      25.063      30.380      35.260      29.908      32.216      33.171      32.652      30.743      27.707    
  23.932      19.844      15.838      12.232      9.2429      6.9811      5.4514      4.5545      4.0980      3.8319    
  3.6317      3.5042      3.4529      3.4783      3.5817      3.7640      4.0212      4.3670      5.0089      6.2082    
  8.1441      10.879      14.343      18.337      22.540      26.546      21.909      23.920      24.952      24.868    
  23.691      21.597      18.868      15.838      12.826      10.094      7.8248      6.1129      4.9624      4.2903    
  3.9354      3.6996      3.5190      3.4009      3.3458      3.3523      3.4210      3.5552      3.7576      4.0248    
  4.3786      5.0089      6.1198      7.8311      10.153      12.980      16.092      19.186      15.455      17.073    
  18.033      18.200      17.558      16.210      14.353      12.232      10.094      8.1438      6.5271      5.3168    
  4.5126      4.0427      3.7716      3.5646      3.4078      3.3046      3.2532      3.2504      3.2955      3.3916    
  3.5437      3.7557      4.0248      4.3670      4.9328      5.8742      7.2639      9.0780      11.194      13.406    
  10.661      11.842      12.627      12.893      12.602      11.805      10.629      9.2429      7.8248      6.5271    
  5.4565      4.6644      4.1433      3.8288      3.6113      3.4342      3.3028      3.2175      3.1746      3.1698    
  3.2012      3.2705      3.3826      3.5437      3.7576      4.0212      4.3362      4.8018      5.5264      6.5501    
  7.8329      9.2600      7.4641      8.2230      8.7762      9.0272      8.9308      8.5034      7.8174      6.9811    
  6.1129      5.3168      4.6644      4.1858      3.8655      3.6444      3.4609      3.3143      3.2082      3.1414    
  3.1096      3.1078      3.1333      3.1863      3.2705      3.3916      3.5552      3.7640      4.0138      4.2954    
  4.6502      5.1522      5.8229      6.6236      5.6260      6.0331      6.3533      6.5219      6.5003      6.2868    
  5.9166      5.4514      4.9624      4.5126      4.1433      3.8655      3.6563      3.4773      3.3266      3.2095    
  3.1275      3.0784      3.0582      3.0623      3.0876      3.1333      3.2012      3.2955      3.4210      3.5817    
  3.7777      4.0043      4.2501      4.5107      4.8233      5.2035      4.7571      4.9291      5.0660      5.1363    
  5.1167      5.0011      4.8037      4.5545      4.2903      4.0427      3.8288      3.6444      3.4773      3.3318    
  3.2129      3.1232      3.0630      3.0301      3.0213      3.0330      3.0623      3.1078      3.1698      3.2504    
  3.3523      3.4783      3.6297      3.8047      3.9974      4.1978      4.3927      4.5756      4.3843      4.4595    
  4.4992      4.5010      4.4595      4.3736      4.2489      4.0980      3.9354      3.7716      3.6113      3.4609    
  3.3266      3.2129      3.1227      3.0572      3.0161      2.9980      3.0005      3.0213      3.0582      3.1096    
  3.1746      3.2532      3.3458      3.4529      3.5745      3.7091      3.8535      4.0018      4.1462      4.2770    
  4.1688      4.2054      4.2139      4.1919      4.1394      4.0586      3.9541      3.8319      3.6996      3.5646    
  3.4342      3.3143      3.2095      3.1232      3.0572      3.0121      2.9878      2.9834      2.9980      3.0301    
  3.0784      3.1414      3.2175      3.3046      3.4009      3.5042      3.6120      3.7216      3.8300      3.9336    
  4.0279      4.1080      4.0939      4.0832      4.0513      3.9991      3.9281      3.8408      3.7406      3.6317    
  3.5190      3.4078      3.3028      3.2082      3.1275      3.0630      3.0161      2.9878      2.9783      2.9878    
  3.0161      3.0630      3.1275      3.2082      3.3028      3.4078      3.5190      3.6317      3.7406      3.8408    
  3.9281      3.9991      4.0513      4.0832      4.1688      4.1080      4.0279      3.9336      3.8300      3.7216    
  3.6120      3.5042      3.4009      3.3046      3.2175      3.1414      3.0784      3.0301      2.9980      2.9834    
  2.9878      3.0121      3.0572      3.1232      3.2095      3.3143      3.4342      3.5646      3.6996      3.8319    
  3.9541      4.0586      4.1394      4.1919      4.2139      4.2054      4.3843      4.2770      4.1462      4.0018    
  3.8535      3.7091      3.5745      3.4529      3.3458      3.2532      3.1746      3.1096      3.0582      3.0213    
  3.0005      2.9980      3.0161      3.0572      3.1227      3.2129      3.3266      3.4609      3.6113      3.7716    
  3.9354      4.0980      4.2489      4.3736      4.4595      4.5010      4.4992      4.4595      4.7571      4.5756    
  4.3927      4.1978      3.9974      3.8047      3.6297      3.4783      3.3523      3.2504      3.1698      3.1078    
  3.0623      3.0330      3.0213      3.0301      3.0630      3.1232      3.2129      3.3318      3.4773      3.6444    
  3.8288      4.0427      4.2903      4.5545      4.8037      5.0011      5.1167      5.1363      5.0660      4.9291    
  5.6260      5.2035      4.8233      4.5107      4.2501      4.0043      3.7777      3.5817      3.4210      3.2955    
  3.2012      3.1333      3.0876      3.0623      3.0582      3.0784      3.1275      3.2095      3.3266      3.4773    
  3.6563      3.8655      4.1433      4.5126      4.9624      5.4514      5.9166      6.2868      6.5003      6.5219    
  6.3533      6.0331      7.4641      6.6236      5.8229      5.1522      4.6502      4.2954      4.0138      3.7640    
  3.5552      3.3916      3.2705      3.1863      3.1333      3.1078      3.1096      3.1414      3.2082      3.3143    
  3.4609      3.6444      3.8655      4.1858      4.6644      5.3168      6.1129      6.9811      7.8174      8.5034    
  8.9308      9.0272      8.7762      8.2230      10.661      9.2600      7.8329      6.5501      5.5264      4.8018    
  4.3362      4.0212      3.7576      3.5437      3.3826      3.2705      3.2012      3.1698      3.1746      3.2175    
  3.3028      3.4342      3.6113      3.8288      4.1433      4.6644      5.4565      6.5271      7.8248      9.2429    
  10.629      11.805      12.602      12.893      12.627      11.842      15.455      13.406      11.194      9.0780    
  7.2639      5.8742      4.9328      4.3670      4.0248      3.7557      3.5437      3.3916      3.2955      3.2504    
  3.2532      3.3046      3.4078      3.5646      3.7716      4.0427      4.5126      5.3168      6.5271      8.1438    
  10.094      12.232      14.353      16.210      17.558      18.200      18.033      17.073      21.909      19.186    
  16.092      12.980      10.153      7.8311      6.1198      5.0089      4.3786      4.0248      3.7576      3.5552    
  3.4210      3.3523      3.3458      3.4009      3.5190      3.6996      3.9354      4.2903      4.9624      6.1129    
  7.8248      10.094      12.826      15.838      18.868      21.597      23.691      24.868      24.952      23.920    
  29.908      26.546      22.540      18.337      14.343      10.879      8.1441      6.2082      5.0089      4.3670    
  4.0212      3.7640      3.5817      3.4783      3.4529      3.5042      3.6317      3.8319      4.0980      4.5545    
  5.4514      6.9811      9.2429      12.232      15.838      19.844      23.932      27.707      30.743      32.652    
  33.171      32.216      39.163      35.260      30.380      25.063      19.822      15.079      11.134      8.1441    
  6.1198      4.9328      4.3362      4.0138      3.7777      3.6297      3.5745      3.6120      3.7406      3.9541    
  4.2489      4.8037      5.9166      7.8174      10.629      14.353      18.868      23.932      29.179      34.141    
  38.295      41.140      42.303      41.616      49.196      44.920      39.280      32.905      26.414      20.340    
  15.079      10.879      7.8311      5.8742      4.8018      4.2954      4.0043      3.8047      3.7091      3.7216    
  3.8408      4.0586      4.3736      5.0011      6.2868      8.5034      11.805      16.210      21.597      27.707    
  34.141      40.370      45.776      49.744      51.771      51.582      59.324      54.922      48.723      41.435    
  33.785      26.414      19.822      14.343      10.153      7.2639      5.5264      4.6502      4.2501      3.9974    
  3.8535      3.8300      3.9281      4.1394      4.4595      5.1167      6.5003      8.9308      12.602      17.558    
  23.691      30.743      38.295      45.776      52.494      57.721      60.818      61.379      68.686      64.469    
  58.005      50.052      41.435      32.905      25.063      18.337      12.980      9.0780      6.5501      5.1522    
  4.5107      4.1978      4.0018      3.9336      3.9991      4.1919      4.5010      5.1363      6.5219      9.0272    
  12.893      18.200      24.868      32.652      41.140      49.744      57.721      64.251      68.567      70.115    
  76.322      72.637      66.274      58.005      48.723      39.280      30.380      22.540      16.092      11.194    
  7.8329      5.8229      4.8233      4.3927      4.1462      4.0279      4.0513      4.2139      4.4992      5.0660    
  6.3533      8.7762      12.627      18.033      24.952      33.171      42.303      51.771      60.818      68.567    
  74.142      76.847      81.337      78.505      72.637      64.469      54.922      44.920      35.260      26.546    
  19.186      13.406      9.2600      6.6236      5.2035      4.5756      4.2770      4.1080      4.0832      4.2054    
  4.4595      4.9291      6.0331      8.2230      11.842      17.073      23.920      32.216      41.616      51.582    
  61.379      70.115      76.847      80.759      81.337      80.759      76.847      70.115      61.379      51.582    
  41.616      32.216      23.920      17.073      11.842      8.2230      6.0331      4.9291      4.4595      4.2054    
  4.0832      4.1080      4.2770      4.5756      5.2035      6.6236      9.2600      13.406      19.186      26.546    
  35.260      44.920      54.922      64.469      72.637      78.505      80.759      81.337      78.505      72.637    
  64.469      54.922      44.920      35.260      26.546      19.186      13.406      9.2600      6.6236      5.2035    
  4.5756      4.2770      4.1080      4.0832      4.2054      4.4595      4.9291      6.0331      8.2230      11.842    
  17.073      23.920      32.216      41.616      51.582      61.379      70.115      76.847      76.847      78.505    
  76.847      72.097      64.863      55.994      46.400      36.904      28.156      20.615      14.556      10.083    
  7.1278      5.4503      4.6667      4.3184      4.1100      4.0378      4.1100      4.3184      4.6667      5.4503    
  7.1278      10.083      14.556      20.615      28.156      36.904      46.400      55.994      64.863      72.097    
  70.115      72.637      72.097      68.567      62.509      54.659      45.865      36.935      28.538      21.162    
  15.121      10.559      7.4551      5.6208      4.7205      4.3252      4.0877      3.9747      3.9982      4.1560    
  4.4317      4.9474      6.1183      8.3524      11.942      17.021      23.553      31.335      39.993      48.969    
  57.538      64.863      61.379      64.469      64.863      62.509      57.721      51.099      43.394      35.359    
  27.647      20.757      15.020      10.610      7.5418      5.6744      4.7214      4.2957      4.0408      3.8967    
  3.8771      3.9842      4.2088      4.5557      5.2957      6.8375      9.5126      13.517      18.885      25.489    
  33.037      41.070      48.969      55.994      51.582      54.922      55.994      54.659      51.099      45.776    
  39.318      32.397      25.620      19.468      14.275      10.228      7.3682      5.5918      4.6596      4.2311    
  3.9706      3.8068      3.7535      3.8143      3.9864      4.2569      4.6991      5.6560      7.4782      10.413    
  14.566      19.886      26.164      33.037      39.993      46.400      41.616      44.920      46.400      45.865    
  43.394      39.318      34.141      28.434      22.734      17.486      13.005      9.4796      6.9633      5.3817    
  4.5369      4.1352      3.8799      3.7083      3.6323      3.6554      3.7778      3.9952      4.2986      4.8399    
  5.9529      7.9186      10.904      14.934      19.886      25.489      31.335      36.904      32.216      35.260    
  36.904      36.935      35.359      32.397      28.434      23.932      19.350      15.075      11.395      8.4824    
  6.3953      5.0782      4.3678      4.0144      3.7731      3.6045      3.5171      3.5131      3.5934      3.7583    
  4.0038      4.3339      4.9435      6.1201      8.0751      10.904      14.566      18.885      23.553      28.156    
  23.920      26.546      28.156      28.538      27.647      25.620      22.734      19.350      15.838      12.525    
  9.6553      7.3805      5.7535      4.7301      4.1746      3.8768      3.6561      3.4989      3.4104      3.3902    
  3.4386      3.5574      3.7487      4.0092      4.3550      4.9816      6.1201      7.9186      10.413      13.517    
  17.021      20.615      17.073      19.186      20.615      21.162      20.757      19.468      17.486      15.075    
  12.525      10.094      7.9817      6.3118      5.1266      4.3874      3.9797      3.7307      3.5350      3.3954    
  3.3134      3.2868      3.3139      3.3966      3.5391      3.7447      4.0109      4.3550      4.9435      5.9529    
  7.4782      9.5126      11.942      14.556      11.842      13.406      14.556      15.121      15.020      14.275    
  13.005      11.395      9.6553      7.9817      6.5271      5.3851      4.5841      4.0874      3.7970      3.5844    
  3.4162      3.2975      3.2273      3.2014      3.2170      3.2746      3.3781      3.5335      3.7447      4.0092    
  4.3339      4.8399      5.6560      6.8375      8.3524      10.083      8.2230      9.2600      10.083      10.559    
  10.610      10.228      9.4796      8.4824      7.3805      6.3118      5.3851      4.6644      4.1638      3.8456    
  3.6264      3.4452      3.3052      3.2087      3.1526      3.1323      3.1438      3.1863      3.2626      3.3781    
  3.5391      3.7487      4.0038      4.2986      4.6991      5.2957      6.1183      7.1278      6.0331      6.6236    
  7.1278      7.4551      7.5418      7.3682      6.9633      6.3953      5.7535      5.1266      4.5841      4.1638    
  3.8655      3.6502      3.4684      3.3191      3.2068      3.1317      3.0904      3.0781      3.0907      3.1264    
  3.1863      3.2746      3.3966      3.5574      3.7583      3.9952      4.2569      4.5557      4.9474      5.4503    
  4.9291      5.2035      5.4503      5.6208      5.6744      5.5918      5.3817      5.0782      4.7301      4.3874    
  4.0874      3.8456      3.6502      3.4773      3.3290      3.2106      3.1242      3.0690      3.0418      3.0385    
  3.0556      3.0907      3.1438      3.2170      3.3139      3.4386      3.5934      3.7778      3.9864      4.2088    
  4.4317      4.6667      4.4595      4.5756      4.6667      4.7205      4.7214      4.6596      4.5369      4.3678    
  4.1746      3.9797      3.7970      3.6264      3.4684      3.3290      3.2129      3.1228      3.0596      3.0221    
  3.0081      3.0145      3.0385      3.0781      3.1323      3.2014      3.2868      3.3902      3.5131      3.6554    
  3.8143      3.9842      4.1560      4.3184      4.2054      4.2770      4.3184      4.3252      4.2957      4.2311    
  4.1352      4.0144      3.8768      3.7307      3.5844      3.4452      3.3191      3.2106      3.1228      3.0572    
  3.0140      2.9924      2.9910      3.0081      3.0418      3.0904      3.1526      3.2273      3.3134      3.4104    
  3.5171      3.6323      3.7535      3.8771      3.9982      4.1100      4.0832      4.1080      4.1100      4.0877    
  4.0408      3.9706      3.8799      3.7731      3.6561      3.5350      3.4162      3.3052      3.2068      3.1242    
  3.0596      3.0140      2.9878      2.9807      2.9924      3.0221      3.0690      3.1317      3.2087      3.2975    
  3.3954      3.4989      3.6045      3.7083      3.8068      3.8967      3.9747      4.0378      4.1080      4.0832    
  4.0378      3.9747      3.8967      3.8068      3.7083      3.6045      3.4989      3.3954      3.2975      3.2087    
  3.1317      3.0690      3.0221      2.9924      2.9807      2.9878      3.0140      3.0596      3.1242      3.2068    
  3.3052      3.4162      3.5350      3.6561      3.7731      3.8799      3.9706      4.0408      4.0877      4.1100    
  4.2770      4.2054      4.1100      3.9982      3.8771      3.7535      3.6323      3.5171      3.4104      3.3134    
  3.2273      3.1526      3.0904      3.0418      3.0081      2.9910      2.9924      3.0140      3.0572      3.1228    
  3.2106      3.3191      3.4452      3.5844      3.7307      3.8768      4.0144      4.1352      4.2311      4.2957    
  4.3252      4.3184      4.5756      4.4595      4.3184      4.1560      3.9842      3.8143      3.6554      3.5131    
  3.3902      3.2868      3.2014      3.1323      3.0781      3.0385      3.0145      3.0081      3.0221      3.0596    
  3.1228      3.2129      3.3290      3.4684      3.6264      3.7970      3.9797      4.1746      4.3678      4.5369    
  4.6596      4.7214      4.7205      4.6667      5.2035      4.9291      4.6667      4.4317      4.2088      3.9864    
  3.7778      3.5934      3.4386      3.3139      3.2170      3.1438      3.0907      3.0556      3.0385      3.0418    
  3.0690      3.1242      3.2106      3.3290      3.4773      3.6502      3.8456      4.0874      4.3874      4.7301    
  5.0782      5.3817      5.5918      5.6744      5.6208      5.4503      6.6236      6.0331      5.4503      4.9474    
  4.5557      4.2569      3.9952      3.7583      3.5574      3.3966      3.2746      3.1863      3.1264      3.0907    
  3.0781      3.0904      3.1317      3.2068      3.3191      3.4684      3.6502      3.8655      4.1638      4.5841    
  5.1266      5.7535      6.3953      6.9633      7.3682      7.5418      7.4551      7.1278      9.2600      8.2230    
  7.1278      6.1183      5.2957      4.6991      4.2986      4.0038      3.7487      3.5391      3.3781      3.2626    
  3.1863      3.1438      3.1323      3.1526      3.2087      3.3052      3.4452      3.6264      3.8456      4.1638    
  4.6644      5.3851      6.3118      7.3805      8.4824      9.4796      10.228      10.610      10.559      10.083    
  13.406      11.842      10.083      8.3524      6.8375      5.6560      4.8399      4.3339      4.0092      3.7447    
  3.5335      3.3781      3.2746      3.2170      3.2014      3.2273      3.2975      3.4162      3.5844      3.7970    
  4.0874      4.5841      5.3851      6.5271      7.9817      9.6553      11.395      13.005      14.275      15.020    
  15.121      14.556      19.186      17.073      14.556      11.942      9.5126      7.4782      5.9529      4.9435    
  4.3550      4.0109      3.7447      3.5391      3.3966      3.3139      3.2868      3.3134      3.3954      3.5350    
  3.7307      3.9797      4.3874      5.1266      6.3118      7.9817      10.094      12.525      15.075      17.486    
  19.468      20.757      21.162      20.615      26.546      23.920      20.615      17.021      13.517      10.413    
  7.9186      6.1201      4.9816      4.3550      4.0092      3.7487      3.5574      3.4386      3.3902      3.4104    
  3.4989      3.6561      3.8768      4.1746      4.7301      5.7535      7.3805      9.6553      12.525      15.838    
  19.350      22.734      25.620      27.647      28.538      28.156      35.260      32.216      28.156      23.553    
  18.885      14.566      10.904      8.0751      6.1201      4.9435      4.3339      4.0038      3.7583      3.5934    
  3.5131      3.5171      3.6045      3.7731      4.0144      4.3678      5.0782      6.3953      8.4824      11.395    
  15.075      19.350      23.932      28.434      32.397      35.359      36.935      36.904      44.920      41.616    
  36.904      31.335      25.489      19.886      14.934      10.904      7.9186      5.9529      4.8399      4.2986    
  3.9952      3.7778      3.6554      3.6323      3.7083      3.8799      4.1352      4.5369      5.3817      6.9633    
  9.4796      13.005      17.486      22.734      28.434      34.141      39.318      43.394      45.865      46.400    
  54.922      51.582      46.400      39.993      33.037      26.164      19.886      14.566      10.413      7.4782    
  5.6560      4.6991      4.2569      3.9864      3.8143      3.7535      3.8068      3.9706      4.2311      4.6596    
  5.5918      7.3682      10.228      14.275      19.468      25.620      32.397      39.318      45.776      51.099    
  54.659      55.994      64.469      61.379      55.994      48.969      41.070      33.037      25.489      18.885    
  13.517      9.5126      6.8375      5.2957      4.5557      4.2088      3.9842      3.8771      3.8967      4.0408    
  4.2957      4.7214      5.6744      7.5418      10.610      15.020      20.757      27.647      35.359      43.394    
  51.099      57.721      62.509      64.863      72.637      70.115      64.863      57.538      48.969      39.993    
  31.335      23.553      17.021      11.942      8.3524      6.1183      4.9474      4.4317      4.1560      3.9982    
  3.9747      4.0877      4.3252      4.7205      5.6208      7.4551      10.559      15.121      21.162      28.538    
  36.935      45.865      54.659      62.509      68.567      72.097      78.505      76.847      72.097      64.863    
  55.994      46.400      36.904      28.156      20.615      14.556      10.083      7.1278      5.4503      4.6667    
  4.3184      4.1100      4.0378      4.1100      4.3184      4.6667      5.4503      7.1278      10.083      14.556    
  20.615      28.156      36.904      46.400      55.994      64.863      72.097      76.847      76.322      76.847    
  74.142      68.567      60.818      51.771      42.303      33.171      24.952      18.033      12.627      8.7762    
  6.3533      5.0660      4.4992      4.2139      4.0513      4.0279      4.1462      4.3927      4.8233      5.8229    
  7.8329      11.194      16.092      22.540      30.380      39.280      48.723      58.005      66.274      72.637    
  76.847      78.505      76.847      72.097      64.863      55.994      46.400      36.904      28.156      20.615    
  14.556      10.083      7.1278      5.4503      4.6667      4.3184      4.1100      4.0378      4.1100      4.3184    
  4.6667      5.4503      7.1278      10.083      14.556      20.615      28.156      36.904      46.400      55.994    
  64.863      72.097      74.142      76.847      76.322      72.637      66.274      58.005      48.723      39.280    
  30.380      22.540      16.092      11.194      7.8329      5.8229      4.8233      4.3927      4.1462      4.0279    
  4.0513      4.2139      4.4992      5.0660      6.3533      8.7762      12.627      18.033      24.952      33.171    
  42.303      51.771      60.818      68.567      68.567      72.097      72.637      70.115      64.863      57.538    
  48.969      39.993      31.335      23.553      17.021      11.942      8.3524      6.1183      4.9474      4.4317    
  4.1560      3.9982      3.9747      4.0877      4.3252      4.7205      5.6208      7.4551      10.559      15.121    
  21.162      28.538      36.935      45.865      54.659      62.509      60.818      64.863      66.274      64.863    
  60.818      54.659      47.109      38.951      30.897      23.515      17.207      12.209      8.5948      6.2765    
  5.0112      4.4338      4.1370      3.9494      3.8851      3.9494      4.1370      4.4338      5.0112      6.2765    
  8.5948      12.209      17.207      23.515      30.897      38.951      47.109      54.659      51.771      55.994    
  58.005      57.538      54.659      49.744      43.394      36.302      29.134      22.441      16.631      11.956    
  8.5156      6.2607      4.9935      4.3953      4.0889      3.8829      3.7870      3.8078      3.9445      4.1869    
  4.5557      5.3432      6.9233      9.5822      13.471      18.588      24.775      31.719      38.951      45.865    
  42.303      46.400      48.723      48.969      47.109      43.394      38.295      32.397      26.292      20.491    
  15.385      11.226      8.1278      6.0681      4.8882      4.3155      4.0136      3.8009      3.6844      3.6705    
  3.7604      3.9504      4.2285      4.6867      5.6533      7.4389      10.249      14.153      19.070      24.775    
  30.897      36.935      33.171      36.904      39.280      39.993      38.951      36.302      32.397      27.707    
  22.734      17.931      13.652      10.135      7.4973      5.7304      4.7080      4.1997      3.9152      3.7064    
  3.5807      3.5427      3.5937      3.7336      3.9588      4.2631      4.8003      5.8730      7.7238      10.484    
  14.153      18.588      23.515      28.538      24.952      28.156      30.380      31.335      30.897      29.134    
  26.292      22.734      18.868      15.075      11.664      8.8449      6.7249      5.3043      4.4802      4.0591    
  3.7996      3.6035      3.4787      3.4276      3.4499      3.5467      3.7195      3.9652      4.2885      4.8664    
  5.9522      7.7238      10.249      13.471      17.207      21.162      18.033      20.615      22.540      23.553    
  23.515      22.441      20.491      17.931      15.075      12.232      9.6553      7.5219      5.9218      4.8558    
  4.2379      3.9061      3.6739      3.4968      3.3810      3.3262      3.3304      3.3942      3.5206      3.7127    
  3.9684      4.2980      4.8664      5.8730      7.4389      9.5822      12.209      15.121      12.627      14.556    
  16.092      17.021      17.207      16.631      15.385      13.652      11.664      9.6553      7.8248      6.3118    
  5.1858      4.4431      4.0096      3.7495      3.5452      3.3912      3.2899      3.2387      3.2342      3.2755    
  3.3653      3.5090      3.7107      3.9684      4.2885      4.8003      5.6533      6.9233      8.5948      10.559    
  8.7762      10.083      11.194      11.942      12.209      11.956      11.226      10.135      8.8449      7.5219    
  6.3118      5.3168      4.5841      4.1037      3.8093      3.5952      3.4206      3.2914      3.2074      3.1645    
  3.1584      3.1867      3.2511      3.3565      3.5090      3.7127      3.9652      4.2631      4.6867      5.3432    
  6.2765      7.4551      6.3533      7.1278      7.8329      8.3524      8.5948      8.5156      8.1278      7.4973    
  6.7249      5.9218      5.1858      4.5841      4.1433      3.8456      3.6312      3.4502      3.3059      3.2016    