Fe FCC                                  
   2.70000000000000     
    -0.500000    0.500000    0.500000
     0.500000   -0.500000    0.500000
     0.500000    0.500000   -0.500000
   Fe
     1
Direct
  0.000000  0.000000  0.000000
 
   32   32   32
 0.83087483138E+02 0.81337470297E+02 0.76322281610E+02 0.68685757472E+02 0.59324062482E+02
 0.49195529028E+02 0.39163277350E+02 0.29908270815E+02 0.21909036661E+02 0.15455294572E+02
 0.10661026382E+02 0.74640922314E+01 0.56259523734E+01 0.47570921261E+01 0.43843233404E+01
 0.41688398046E+01 0.40939300563E+01 0.41688398046E+01 0.43843233404E+01 0.47570921261E+01
 0.56259523734E+01 0.74640922314E+01 0.10661026382E+02 0.15455294572E+02 0.21909036661E+02
 0.29908270815E+02 0.39163277350E+02 0.49195529028E+02 0.59324062482E+02 0.68685757472E+02
 0.76322281610E+02 0.81337470297E+02 0.81337470297E+02 0.80758944839E+02 0.76847339753E+02
 0.70114658761E+02 0.61379077935E+02 0.51581748510E+02 0.41615784351E+02 0.32216161564E+02
 0.23920096978E+02 0.17072761586E+02 0.11842268901E+02 0.82230202994E+01 0.60330875604E+01
 0.49291364934E+01 0.44594534951E+01 0.42054238947E+01 0.40832063320E+01 0.41080270470E+01
 0.42769955818E+01 0.45756413600E+01 0.52035460087E+01 0.66235542491E+01 0.92599744712E+01
 0.13406263784E+02 0.19185857247E+02 0.26545901174E+02 0.35259959772E+02 0.44920151762E+02
 0.54921877118E+02 0.64469319926E+02 0.72637286512E+02 0.78504864415E+02 0.76322281610E+02
 0.76847339753E+02 0.74142394954E+02 0.68566751743E+02 0.60818213160E+02 0.51770721208E+02
 0.42302794481E+02 0.33171268109E+02 0.24952007829E+02 0.18032974536E+02 0.12626657405E+02
 0.87762293790E+01 0.63532958197E+01 0.50659508188E+01 0.44992236952E+01 0.42138709061E+01
 0.40513023006E+01 0.40278731853E+01 0.41461919486E+01 0.43926884576E+01 0.48232680694E+01
 0.58228616849E+01 0.78328513924E+01 0.11194039362E+02 0.16092159266E+02 0.22540369061E+02
 0.30380375365E+02 0.39280264289E+02 0.48723061007E+02 0.58004610032E+02 0.66273672258E+02
 0.72637286512E+02 0.68685757472E+02 0.70114658761E+02 0.68566751743E+02 0.64250829561E+02
 0.57720854136E+02 0.49743842548E+02 0.41140431967E+02 0.32652494093E+02 0.24868096477E+02
 0.18200212846E+02 0.12892733818E+02 0.90271953944E+01 0.65219235320E+01 0.51363048436E+01
 0.45009560637E+01 0.41919135524E+01 0.39990712273E+01 0.39335650611E+01 0.40018372724E+01
 0.41977934964E+01 0.45106844889E+01 0.51522324735E+01 0.65500734507E+01 0.90779506532E+01
 0.12979698271E+02 0.18336944560E+02 0.25063242957E+02 0.32904706705E+02 0.41434900572E+02
 0.50052098273E+02 0.58004610032E+02 0.64469319926E+02 0.59324062482E+02 0.61379077935E+02
 0.60818213160E+02 0.57720854136E+02 0.52494486197E+02 0.45776222933E+02 0.38294866435E+02
 0.30742693280E+02 0.23691373565E+02 0.17557831580E+02 0.12601795835E+02 0.89307536785E+01
 0.65002998314E+01 0.51167401996E+01 0.44595285363E+01 0.41394263946E+01 0.39280851980E+01
 0.38300323167E+01 0.38534838767E+01 0.39973772978E+01 0.42500631094E+01 0.46502482447E+01
 0.55264441226E+01 0.72639466734E+01 0.10153489585E+02 0.14343399171E+02 0.19821740189E+02
 0.26414393420E+02 0.33784822312E+02 0.41434900572E+02 0.48723061007E+02 0.54921877118E+02
 0.49195529028E+02 0.51581748510E+02 0.51770721208E+02 0.49743842548E+02 0.45776222933E+02
 0.40369779146E+02 0.34141426647E+02 0.27707219858E+02 0.21596664702E+02 0.16209536826E+02
 0.11805042027E+02 0.85034228291E+01 0.62867696944E+01 0.50011422870E+01 0.43735515724E+01
 0.40586486561E+01 0.38407851186E+01 0.37216145833E+01 0.37091216626E+01 0.38046971676E+01
 0.40042597172E+01 0.42953708122E+01 0.48017604414E+01 0.58742257448E+01 0.78311378300E+01
 0.10878852623E+02 0.15079393710E+02 0.20340254359E+02 0.26414393420E+02 0.32904706705E+02
 0.39280264289E+02 0.44920151762E+02 0.39163277350E+02 0.41615784351E+02 0.42302794481E+02
 0.41140431967E+02 0.38294866435E+02 0.34141426647E+02 0.29179121498E+02 0.23931998126E+02
 0.18868212301E+02 0.14352515105E+02 0.10628710870E+02 0.78174181792E+01 0.59165937283E+01
 0.48036774573E+01 0.42488974431E+01 0.39540626507E+01 0.37405609469E+01 0.36119747558E+01
 0.35744772959E+01 0.36297436643E+01 0.37777328594E+01 0.40138345770E+01 0.43362481790E+01
 0.49328042318E+01 0.61197665474E+01 0.81440536932E+01 0.11134431527E+02 0.15079393710E+02
 0.19821740189E+02 0.25063242957E+02 0.30380375365E+02 0.35259959772E+02 0.29908270815E+02
 0.32216161564E+02 0.33171268109E+02 0.32652494093E+02 0.30742693280E+02 0.27707219858E+02
 0.23931998126E+02 0.19843736097E+02 0.15838090687E+02 0.12232196293E+02 0.92429068486E+01
 0.69810939124E+01 0.54514027058E+01 0.45545087788E+01 0.40980003810E+01 0.38319333972E+01
 0.36316828232E+01 0.35041955222E+01 0.34529063294E+01 0.34783301543E+01 0.35816597765E+01
 0.37639610019E+01 0.40211918291E+01 0.43670142642E+01 0.50088727638E+01 0.62081915662E+01
 0.81440536932E+01 0.10878852623E+02 0.14343399171E+02 0.18336944560E+02 0.22540369061E+02
 0.26545901174E+02 0.21909036661E+02 0.23920096978E+02 0.24952007829E+02 0.24868096477E+02
 0.23691373565E+02 0.21596664702E+02 0.18868212301E+02 0.15838090687E+02 0.12825724628E+02
 0.10093805229E+02 0.78248381068E+01 0.61128885350E+01 0.49623624264E+01 0.42902630964E+01
 0.39354447909E+01 0.36995966766E+01 0.35190483050E+01 0.34009478540E+01 0.33457836721E+01
 0.33522635593E+01 0.34210411333E+01 0.35552478950E+01 0.37575927399E+01 0.40248383252E+01
 0.43786003577E+01 0.50088727638E+01 0.61197665474E+01 0.78311378300E+01 0.10153489585E+02
 0.12979698271E+02 0.16092159266E+02 0.19185857247E+02 0.15455294572E+02 0.17072761586E+02
 0.18032974536E+02 0.18200212846E+02 0.17557831580E+02 0.16209536826E+02 0.14352515105E+02
 0.12232196293E+02 0.10093805229E+02 0.81438357377E+01 0.65270548611E+01 0.53167581591E+01
 0.45126066603E+01 0.40426917575E+01 0.37716349568E+01 0.35646457710E+01 0.34077784801E+01
 0.33046328740E+01 0.32531767923E+01 0.32503550804E+01 0.32955053439E+01 0.33915633216E+01
 0.35437219916E+01 0.37557401256E+01 0.40248383252E+01 0.43670142642E+01 0.49328042318E+01
 0.58742257448E+01 0.72639466734E+01 0.90779506532E+01 0.11194039362E+02 0.13406263784E+02
 0.10661026382E+02 0.11842268901E+02 0.12626657405E+02 0.12892733818E+02 0.12601795835E+02
 0.11805042027E+02 0.10628710870E+02 0.92429068486E+01 0.78248381068E+01 0.65270548611E+01
 0.54565249667E+01 0.46644487287E+01 0.41433481325E+01 0.38287851674E+01 0.36112522425E+01
 0.34341819810E+01 0.33027556581E+01 0.32174547254E+01 0.31745798599E+01 0.31698422579E+01
 0.32012426583E+01 0.32704792786E+01 0.33825787666E+01 0.35437219916E+01 0.37575927399E+01
 0.40211918291E+01 0.43362481790E+01 0.48017604414E+01 0.55264441226E+01 0.65500734507E+01
 0.78328513924E+01 0.92599744712E+01 0.74640922314E+01 0.82230202994E+01 0.87762293790E+01
 0.90271953944E+01 0.89307536785E+01 0.85034228291E+01 0.78174181792E+01 0.69810939124E+01
 0.61128885350E+01 0.53167581591E+01 0.46644487287E+01 0.41858101903E+01 0.38654828965E+01
 0.36443750647E+01 0.34608951687E+01 0.33142535648E+01 0.32082179535E+01 0.31414379180E+01
 0.31095520279E+01 0.31078067725E+01 0.31333037832E+01 0.31863258045E+01 0.32704792786E+01
 0.33915633216E+01 0.35552478950E+01 0.37639610019E+01 0.40138345770E+01 0.42953708122E+01
 0.46502482447E+01 0.51522324735E+01 0.58228616849E+01 0.66235542491E+01 0.56259523734E+01
 0.60330875604E+01 0.63532958197E+01 0.65219235320E+01 0.65002998314E+01 0.62867696944E+01
 0.59165937283E+01 0.54514027058E+01 0.49623624264E+01 0.45126066603E+01 0.41433481325E+01
 0.38654828965E+01 0.36563356186E+01 0.34772968823E+01 0.33265944188E+01 0.32095358682E+01
 0.31275024530E+01 0.30784260679E+01 0.30581735543E+01 0.30622939689E+01 0.30876119049E+01
 0.31333037832E+01 0.32012426583E+01 0.32955053439E+01 0.34210411333E+01 0.35816597765E+01
 0.37777328594E+01 0.40042597172E+01 0.42500631094E+01 0.45106844889E+01 0.48232680694E+01
 0.52035460087E+01 0.47570921261E+01 0.49291364934E+01 0.50659508188E+01 0.51363048436E+01
 0.51167401996E+01 0.50011422870E+01 0.48036774573E+01 0.45545087788E+01 0.42902630964E+01
 0.40426917575E+01 0.38287851674E+01 0.36443750647E+01 0.34772968823E+01 0.33317993399E+01
 0.32128924949E+01 0.31232402653E+01 0.30629747792E+01 0.30300902737E+01 0.30212813283E+01
 0.30329726912E+01 0.30622939689E+01 0.31078067725E+01 0.31698422579E+01 0.32503550804E+01
 0.33522635593E+01 0.34783301543E+01 0.36297436643E+01 0.38046971676E+01 0.39973772978E+01
 0.41977934964E+01 0.43926884576E+01 0.45756413600E+01 0.43843233404E+01 0.44594534951E+01
 0.44992236952E+01 0.45009560637E+01 0.44595285363E+01 0.43735515724E+01 0.42488974431E+01
 0.40980003810E+01 0.39354447909E+01 0.37716349568E+01 0.36112522425E+01 0.34608951687E+01
 0.33265944188E+01 0.32128924949E+01 0.31226897497E+01 0.30572049046E+01 0.30161254428E+01
 0.29979538566E+01 0.30004798900E+01 0.30212813283E+01 0.30581735543E+01 0.31095520279E+01
 0.31745798599E+01 0.32531767923E+01 0.33457836721E+01 0.34529063294E+01 0.35744772959E+01
 0.37091216626E+01 0.38534838767E+01 0.40018372724E+01 0.41461919486E+01 0.42769955818E+01
 0.41688398046E+01 0.42054238947E+01 0.42138709061E+01 0.41919135524E+01 0.41394263946E+01
 0.40586486561E+01 0.39540626507E+01 0.38319333972E+01 0.36995966766E+01 0.35646457710E+01
 0.34341819810E+01 0.33142535648E+01 0.32095358682E+01 0.31232402653E+01 0.30572049046E+01
 0.30121116731E+01 0.29877719829E+01 0.29834198771E+01 0.29979538566E+01 0.30300902737E+01
 0.30784260679E+01 0.31414379180E+01 0.32174547254E+01 0.33046328740E+01 0.34009478540E+01
 0.35041955222E+01 0.36119747558E+01 0.37216145833E+01 0.38300323167E+01 0.39335650611E+01
 0.40278731853E+01 0.41080270470E+01 0.40939300563E+01 0.40832063320E+01 0.40513023006E+01
 0.39990712273E+01 0.39280851980E+01 0.38407851186E+01 0.37405609469E+01 0.36316828232E+01
 0.35190483050E+01 0.34077784801E+01 0.33027556581E+01 0.32082179535E+01 0.31275024530E+01
 0.30629747792E+01 0.30161254428E+01 0.29877719829E+01 0.29782867285E+01 0.29877719829E+01
 0.30161254428E+01 0.30629747792E+01 0.31275024530E+01 0.32082179535E+01 0.33027556581E+01
 0.34077784801E+01 0.35190483050E+01 0.36316828232E+01 0.37405609469E+01 0.38407851186E+01
 0.39280851980E+01 0.39990712273E+01 0.40513023006E+01 0.40832063320E+01 0.41688398046E+01
 0.41080270470E+01 0.40278731853E+01 0.39335650611E+01 0.38300323167E+01 0.37216145833E+01
 0.36119747558E+01 0.35041955222E+01 0.34009478540E+01 0.33046328740E+01 0.32174547254E+01
 0.31414379180E+01 0.30784260679E+01 0.30300902737E+01 0.29979538566E+01 0.29834198771E+01
 0.29877719829E+01 0.30121116731E+01 0.30572049046E+01 0.31232402653E+01 0.32095358682E+01
 0.33142535648E+01 0.34341819810E+01 0.35646457710E+01 0.36995966766E+01 0.38319333972E+01
 0.39540626507E+01 0.40586486561E+01 0.41394263946E+01 0.41919135524E+01 0.42138709061E+01
 0.42054238947E+01 0.43843233404E+01 0.42769955818E+01 0.41461919486E+01 0.40018372724E+01
 0.38534838767E+01 0.37091216626E+01 0.35744772959E+01 0.34529063294E+01 0.33457836721E+01
 0.32531767923E+01 0.31745798599E+01 0.31095520279E+01 0.30581735543E+01 0.30212813283E+01
 0.30004798900E+01 0.29979538566E+01 0.30161254428E+01 0.30572049046E+01 0.31226897497E+01
 0.32128924949E+01 0.33265944188E+01 0.34608951687E+01 0.36112522425E+01 0.37716349568E+01
 0.39354447909E+01 0.40980003810E+01 0.42488974431E+01 0.43735515724E+01 0.44595285363E+01
 0.45009560637E+01 0.44992236952E+01 0.44594534951E+01 0.47570921261E+01 0.45756413600E+01
 0.43926884576E+01 0.41977934964E+01 0.39973772978E+01 0.38046971676E+01 0.36297436643E+01
 0.34783301543E+01 0.33522635593E+01 0.32503550804E+01 0.31698422579E+01 0.31078067725E+01
 0.30622939689E+01 0.30329726912E+01 0.30212813283E+01 0.30300902737E+01 0.30629747792E+01
 0.31232402653E+01 0.32128924949E+01 0.33317993399E+01 0.34772968823E+01 0.36443750647E+01
 0.38287851674E+01 0.40426917575E+01 0.42902630964E+01 0.45545087788E+01 0.48036774573E+01
 0.50011422870E+01 0.51167401996E+01 0.51363048436E+01 0.50659508188E+01 0.49291364934E+01
 0.56259523734E+01 0.52035460087E+01 0.48232680694E+01 0.45106844889E+01 0.42500631094E+01
 0.40042597172E+01 0.37777328594E+01 0.35816597765E+01 0.34210411333E+01 0.32955053439E+01
 0.32012426583E+01 0.31333037832E+01 0.30876119049E+01 0.30622939689E+01 0.30581735543E+01
 0.30784260679E+01 0.31275024530E+01 0.32095358682E+01 0.33265944188E+01 0.34772968823E+01
 0.36563356186E+01 0.38654828965E+01 0.41433481325E+01 0.45126066603E+01 0.49623624264E+01
 0.54514027058E+01 0.59165937283E+01 0.62867696944E+01 0.65002998314E+01 0.65219235320E+01
 0.63532958197E+01 0.60330875604E+01 0.74640922314E+01 0.66235542491E+01 0.58228616849E+01
 0.51522324735E+01 0.46502482447E+01 0.42953708122E+01 0.40138345770E+01 0.37639610019E+01
 0.35552478950E+01 0.33915633216E+01 0.32704792786E+01 0.31863258045E+01 0.31333037832E+01
 0.31078067725E+01 0.31095520279E+01 0.31414379180E+01 0.32082179535E+01 0.33142535648E+01
 0.34608951687E+01 0.36443750647E+01 0.38654828965E+01 0.41858101903E+01 0.46644487287E+01
 0.53167581591E+01 0.61128885350E+01 0.69810939124E+01 0.78174181792E+01 0.85034228291E+01
 0.89307536785E+01 0.90271953944E+01 0.87762293790E+01 0.82230202994E+01 0.10661026382E+02
 0.92599744712E+01 0.78328513924E+01 0.65500734507E+01 0.55264441226E+01 0.48017604414E+01
 0.43362481790E+01 0.40211918291E+01 0.37575927399E+01 0.35437219916E+01 0.33825787666E+01
 0.32704792786E+01 0.32012426583E+01 0.31698422579E+01 0.31745798599E+01 0.32174547254E+01
 0.33027556581E+01 0.34341819810E+01 0.36112522425E+01 0.38287851674E+01 0.41433481325E+01
 0.46644487287E+01 0.54565249667E+01 0.65270548611E+01 0.78248381068E+01 0.92429068486E+01
 0.10628710870E+02 0.11805042027E+02 0.12601795835E+02 0.12892733818E+02 0.12626657405E+02
 0.11842268901E+02 0.15455294572E+02 0.13406263784E+02 0.11194039362E+02 0.90779506532E+01
 0.72639466734E+01 0.58742257448E+01 0.49328042318E+01 0.43670142642E+01 0.40248383252E+01
 0.37557401256E+01 0.35437219916E+01 0.33915633216E+01 0.32955053439E+01 0.32503550804E+01
 0.32531767923E+01 0.33046328740E+01 0.34077784801E+01 0.35646457710E+01 0.37716349568E+01
 0.40426917575E+01 0.45126066603E+01 0.53167581591E+01 0.65270548611E+01 0.81438357377E+01
 0.10093805229E+02 0.12232196293E+02 0.14352515105E+02 0.16209536826E+02 0.17557831580E+02
 0.18200212846E+02 0.18032974536E+02 0.17072761586E+02 0.21909036661E+02 0.19185857247E+02
 0.16092159266E+02 0.12979698271E+02 0.10153489585E+02 0.78311378300E+01 0.61197665474E+01
 0.50088727638E+01 0.43786003577E+01 0.40248383252E+01 0.37575927399E+01 0.35552478950E+01
 0.34210411333E+01 0.33522635593E+01 0.33457836721E+01 0.34009478540E+01 0.35190483050E+01
 0.36995966766E+01 0.39354447909E+01 0.42902630964E+01 0.49623624264E+01 0.61128885350E+01
 0.78248381068E+01 0.10093805229E+02 0.12825724628E+02 0.15838090687E+02 0.18868212301E+02
 0.21596664702E+02 0.23691373565E+02 0.24868096477E+02 0.24952007829E+02 0.23920096978E+02
 0.29908270815E+02 0.26545901174E+02 0.22540369061E+02 0.18336944560E+02 0.14343399171E+02
 0.10878852623E+02 0.81440536932E+01 0.62081915662E+01 0.50088727638E+01 0.43670142642E+01
 0.40211918291E+01 0.37639610019E+01 0.35816597765E+01 0.34783301543E+01 0.34529063294E+01
 0.35041955222E+01 0.36316828232E+01 0.38319333972E+01 0.40980003810E+01 0.45545087788E+01
 0.54514027058E+01 0.69810939124E+01 0.92429068486E+01 0.12232196293E+02 0.15838090687E+02
 0.19843736097E+02 0.23931998126E+02 0.27707219858E+02 0.30742693280E+02 0.32652494093E+02
 0.33171268109E+02 0.32216161564E+02 0.39163277350E+02 0.35259959772E+02 0.30380375365E+02
 0.25063242957E+02 0.19821740189E+02 0.15079393710E+02 0.11134431527E+02 0.81440536932E+01
 0.61197665474E+01 0.49328042318E+01 0.43362481790E+01 0.40138345770E+01 0.37777328594E+01
 0.36297436643E+01 0.35744772959E+01 0.36119747558E+01 0.37405609469E+01 0.39540626507E+01
 0.42488974431E+01 0.48036774573E+01 0.59165937283E+01 0.78174181792E+01 0.10628710870E+02
 0.14352515105E+02 0.18868212301E+02 0.23931998126E+02 0.29179121498E+02 0.34141426647E+02
 0.38294866435E+02 0.41140431967E+02 0.42302794481E+02 0.41615784351E+02 0.49195529028E+02
 0.44920151762E+02 0.39280264289E+02 0.32904706705E+02 0.26414393420E+02 0.20340254359E+02
 0.15079393710E+02 0.10878852623E+02 0.78311378300E+01 0.58742257448E+01 0.48017604414E+01
 0.42953708122E+01 0.40042597172E+01 0.38046971676E+01 0.37091216626E+01 0.37216145833E+01
 0.38407851186E+01 0.40586486561E+01 0.43735515724E+01 0.50011422870E+01 0.62867696944E+01
 0.85034228291E+01 0.11805042027E+02 0.16209536826E+02 0.21596664702E+02 0.27707219858E+02
 0.34141426647E+02 0.40369779146E+02 0.45776222933E+02 0.49743842548E+02 0.51770721208E+02
 0.51581748510E+02 0.59324062482E+02 0.54921877118E+02 0.48723061007E+02 0.41434900572E+02
 0.33784822312E+02 0.26414393420E+02 0.19821740189E+02 0.14343399171E+02 0.10153489585E+02
 0.72639466734E+01 0.55264441226E+01 0.46502482447E+01 0.42500631094E+01 0.39973772978E+01
 0.38534838767E+01 0.38300323167E+01 0.39280851980E+01 0.41394263946E+01 0.44595285363E+01
 0.51167401996E+01 0.65002998314E+01 0.89307536785E+01 0.12601795835E+02 0.17557831580E+02
 0.23691373565E+02 0.30742693280E+02 0.38294866435E+02 0.45776222933E+02 0.52494486197E+02
 0.57720854136E+02 0.60818213160E+02 0.61379077935E+02 0.68685757472E+02 0.64469319926E+02
 0.58004610032E+02 0.50052098273E+02 0.41434900572E+02 0.32904706705E+02 0.25063242957E+02
 0.18336944560E+02 0.12979698271E+02 0.90779506532E+01 0.65500734507E+01 0.51522324735E+01
 0.45106844889E+01 0.41977934964E+01 0.40018372724E+01 0.39335650611E+01 0.39990712273E+01
 0.41919135524E+01 0.45009560637E+01 0.51363048436E+01 0.65219235320E+01 0.90271953944E+01
 0.12892733818E+02 0.18200212846E+02 0.24868096477E+02 0.32652494093E+02 0.41140431967E+02
 0.49743842548E+02 0.57720854136E+02 0.64250829561E+02 0.68566751743E+02 0.70114658761E+02
 0.76322281610E+02 0.72637286512E+02 0.66273672258E+02 0.58004610032E+02 0.48723061007E+02
 0.39280264289E+02 0.30380375365E+02 0.22540369061E+02 0.16092159266E+02 0.11194039362E+02
 0.78328513924E+01 0.58228616849E+01 0.48232680694E+01 0.43926884576E+01 0.41461919486E+01
 0.40278731853E+01 0.40513023006E+01 0.42138709061E+01 0.44992236952E+01 0.50659508188E+01
 0.63532958197E+01 0.87762293790E+01 0.12626657405E+02 0.18032974536E+02 0.24952007829E+02
 0.33171268109E+02 0.42302794481E+02 0.51770721208E+02 0.60818213160E+02 0.68566751743E+02
 0.74142394954E+02 0.76847339753E+02 0.81337470297E+02 0.78504864415E+02 0.72637286512E+02
 0.64469319926E+02 0.54921877118E+02 0.44920151762E+02 0.35259959772E+02 0.26545901174E+02
 0.19185857247E+02 0.13406263784E+02 0.92599744712E+01 0.66235542491E+01 0.52035460087E+01
 0.45756413600E+01 0.42769955818E+01 0.41080270470E+01 0.40832063320E+01 0.42054238947E+01
 0.44594534951E+01 0.49291364934E+01 0.60330875604E+01 0.82230202994E+01 0.11842268901E+02
 0.17072761586E+02 0.23920096978E+02 0.32216161564E+02 0.41615784351E+02 0.51581748510E+02
 0.61379077935E+02 0.70114658761E+02 0.76847339753E+02 0.80758944839E+02 0.81337470297E+02
 0.80758944839E+02 0.76847339753E+02 0.70114658761E+02 0.61379077935E+02 0.51581748510E+02
 0.41615784351E+02 0.32216161564E+02 0.23920096978E+02 0.17072761586E+02 0.11842268901E+02
 0.82230202994E+01 0.60330875604E+01 0.49291364934E+01 0.44594534951E+01 0.42054238947E+01
 0.40832063320E+01 0.41080270470E+01 0.42769955818E+01 0.45756413600E+01 0.52035460087E+01
 0.66235542491E+01 0.92599744712E+01 0.13406263784E+02 0.19185857247E+02 0.26545901174E+02
 0.35259959772E+02 0.44920151762E+02 0.54921877118E+02 0.64469319926E+02 0.72637286512E+02
 0.78504864415E+02 0.80758944839E+02 0.81337470227E+02 0.78504864283E+02 0.72637286336E+02
 0.64469319732E+02 0.54921876930E+02 0.44920151599E+02 0.35259959643E+02 0.26545901079E+02
 0.19185857180E+02 0.13406263732E+02 0.92599744250E+01 0.66235542030E+01 0.52035459630E+01
 0.45756413199E+01 0.42769955547E+01 0.41080270391E+01 0.40832063454E+01 0.42054239269E+01
 0.44594535395E+01 0.49291365426E+01 0.60330876092E+01 0.82230203474E+01 0.11842268954E+02
 0.17072761651E+02 0.23920097066E+02 0.32216161679E+02 0.41615784491E+02 0.51581748664E+02
 0.61379078083E+02 0.70114658879E+02 0.76847339820E+02 0.76847339753E+02 0.78504864283E+02
 0.76847339634E+02 0.72096860406E+02 0.64862656907E+02 0.55993804916E+02 0.46400229103E+02
 0.36903987974E+02 0.28155973218E+02 0.20614501620E+02 0.14555513044E+02 0.10082903678E+02
 0.71278420887E+01 0.54503128529E+01 0.46666503550E+01 0.43183886769E+01 0.41100271758E+01
 0.40378496429E+01 0.41100272123E+01 0.43183887414E+01 0.46666504342E+01 0.54503129345E+01
 0.71278421669E+01 0.10082903757E+02 0.14555513138E+02 0.20614501747E+02 0.28155973394E+02
 0.36903988206E+02 0.46400229381E+02 0.55993805214E+02 0.64862657186E+02 0.72096860623E+02
 0.70114658761E+02 0.72637286336E+02 0.72096860406E+02 0.68566751613E+02 0.62508601497E+02
 0.54658611129E+02 0.45864890398E+02 0.36935204013E+02 0.28537582916E+02 0.21161929516E+02
 0.15120831885E+02 0.10559072402E+02 0.74551093182E+01 0.56208450776E+01 0.47204751892E+01
 0.43251935907E+01 0.40877244460E+01 0.39746883397E+01 0.39981547135E+01 0.41559585869E+01
 0.44317408462E+01 0.49473682931E+01 0.61182753748E+01 0.83524033614E+01 0.11941919660E+02
 0.17020540321E+02 0.23552785712E+02 0.31335297045E+02 0.39992656694E+02 0.48968958193E+02
 0.57538088029E+02 0.64862657130E+02 0.61379077935E+02 0.64469319732E+02 0.64862656907E+02
 0.62508601497E+02 0.57720854036E+02 0.51099474184E+02 0.43394001339E+02 0.35359124252E+02
 0.27647493478E+02 0.20756955186E+02 0.15020074677E+02 0.10609753428E+02 0.75417614013E+01
 0.56743873122E+01 0.47214323319E+01 0.42956650466E+01 0.40408302201E+01 0.38966582087E+01
 0.38771447804E+01 0.39841679400E+01 0.42088090087E+01 0.45556819484E+01 0.52957096452E+01
 0.68375038983E+01 0.95125951887E+01 0.13516533263E+02 0.18884696087E+02 0.25488874526E+02
 0.33037091904E+02 0.41070321894E+02 0.48968958152E+02 0.55993805121E+02 0.51581748510E+02
 0.54921876930E+02 0.55993804916E+02 0.54658611129E+02 0.51099474184E+02 0.45776222884E+02
 0.39318311702E+02 0.32397194392E+02 0.25620135333E+02 0.19468240437E+02 0.14275404326E+02
 0.10228246233E+02 0.73682225154E+01 0.55917568824E+01 0.46596144643E+01 0.42310853888E+01
 0.39705733186E+01 0.38068012163E+01 0.37534774102E+01 0.38143251219E+01 0.39864441547E+01
 0.42569196206E+01 0.46991362348E+01 0.56560090904E+01 0.74782158273E+01 0.10413213616E+02
 0.14565988828E+02 0.19885581133E+02 0.26163931429E+02 0.33037091879E+02 0.39992656631E+02
 0.46400229272E+02 0.41615784351E+02 0.44920151599E+02 0.46400229103E+02 0.45864890398E+02
 0.43394001339E+02 0.39318311702E+02 0.34141426650E+02 0.28433675077E+02 0.22734170915E+02
 0.17485629579E+02 0.13005416473E+02 0.94795521033E+01 0.69632948523E+01 0.53817040811E+01
 0.45369372193E+01 0.41351748065E+01 0.38798507665E+01 0.37082864703E+01 0.36322602575E+01
 0.36553832922E+01 0.37778241956E+01 0.39952492403E+01 0.42985649029E+01 0.48399100200E+01
 0.59528726267E+01 0.79185621333E+01 0.10903640564E+02 0.14933719467E+02 0.19885581122E+02
 0.25488874491E+02 0.31335296978E+02 0.36903988100E+02 0.32216161564E+02 0.35259959643E+02
 0.36903987974E+02 0.36935204013E+02 0.35359124252E+02 0.32397194392E+02 0.28433675077E+02
 0.23931998162E+02 0.19349702146E+02 0.15075358902E+02 0.11395248668E+02 0.84824244475E+01
 0.63952656487E+01 0.50781948148E+01 0.43678210813E+01 0.40143953719E+01 0.37731289469E+01
 0.36044765882E+01 0.35171095601E+01 0.35131363961E+01 0.35934093087E+01 0.37583403693E+01
 0.40038052458E+01 0.43338894647E+01 0.49435158069E+01 0.61200826311E+01 0.80751084939E+01
 0.10903640562E+02 0.14565988816E+02 0.18884696055E+02 0.23552785653E+02 0.28155973305E+02
 0.23920096978E+02 0.26545901079E+02 0.28155973218E+02 0.28537582916E+02 0.27647493478E+02
 0.25620135333E+02 0.22734170915E+02 0.19349702146E+02 0.15838090730E+02 0.12524847081E+02
 0.96553259473E+01 0.73804820324E+01 0.57534523682E+01 0.47301272708E+01 0.41746132297E+01
 0.38767996174E+01 0.36560783445E+01 0.34989497275E+01 0.34103564333E+01 0.33902187700E+01
 0.34385504331E+01 0.35573699448E+01 0.37486864868E+01 0.40091566360E+01 0.43549547232E+01
 0.49816147407E+01 0.61200826346E+01 0.79185621356E+01 0.10413213610E+02 0.13516533240E+02
 0.17020540275E+02 0.20614501678E+02 0.17072761586E+02 0.19185857180E+02 0.20614501620E+02
 0.21161929516E+02 0.20756955186E+02 0.19468240437E+02 0.17485629579E+02 0.15075358902E+02
 0.12524847081E+02 0.10093805258E+02 0.79816811352E+01 0.63118428920E+01 0.51265917488E+01
 0.43873642198E+01 0.39796890217E+01 0.37307329856E+01 0.35350008733E+01 0.33954169327E+01
 0.33134285310E+01 0.32867594823E+01 0.33139359896E+01 0.33966192360E+01 0.35390575306E+01
 0.37447051853E+01 0.40108861408E+01 0.43549547274E+01 0.49435158143E+01 0.59528726329E+01
 0.74782158259E+01 0.95125951730E+01 0.11941919626E+02 0.14555513085E+02 0.11842268901E+02
 0.13406263732E+02 0.14555513044E+02 0.15120831885E+02 0.15020074677E+02 0.14275404326E+02
 0.13005416473E+02 0.11395248668E+02 0.96553259473E+01 0.79816811352E+01 0.65270548662E+01
 0.53850503536E+01 0.45841447276E+01 0.40874048632E+01 0.37969582259E+01 0.35844118402E+01
 0.34161717107E+01 0.32975353391E+01 0.32272589810E+01 0.32013898839E+01 0.32170157876E+01
 0.32745652903E+01 0.33781037841E+01 0.35334961111E+01 0.37447051877E+01 0.40091566419E+01
 0.43338894729E+01 0.48399100265E+01 0.56560090896E+01 0.68375038850E+01 0.83524033326E+01
 0.10082903714E+02 0.82230202994E+01 0.92599744250E+01 0.10082903678E+02 0.10559072402E+02
 0.10609753428E+02 0.10228246233E+02 0.94795521033E+01 0.84824244475E+01 0.73804820324E+01
 0.63118428920E+01 0.53850503536E+01 0.46644487143E+01 0.41638197283E+01 0.38456425870E+01
 0.36264012982E+01 0.34451706312E+01 0.33052395076E+01 0.32086749886E+01 0.31526311500E+01
 0.31323008417E+01 0.31438306359E+01 0.31863337777E+01 0.32625660974E+01 0.33781037838E+01
 0.35390575320E+01 0.37486864905E+01 0.40038052503E+01 0.42985649047E+01 0.46991362293E+01
 0.52957096282E+01 0.61182753445E+01 0.71278421251E+01 0.60330875604E+01 0.66235542030E+01
 0.71278420887E+01 0.74551093182E+01 0.75417614013E+01 0.73682225154E+01 0.69632948523E+01
 0.63952656487E+01 0.57534523682E+01 0.51265917488E+01 0.45841447276E+01 0.41638197283E+01
 0.38654828737E+01 0.36501842098E+01 0.34684184390E+01 0.33190527378E+01 0.32068009668E+01
 0.31317193165E+01 0.30904258265E+01 0.30781296418E+01 0.30907263657E+01 0.31263906531E+01
 0.31863337757E+01 0.32745652875E+01 0.33966192336E+01 0.35573699430E+01 0.37583403667E+01
 0.39952492337E+01 0.42569196065E+01 0.45556819239E+01 0.49473682573E+01 0.54503128898E+01
 0.49291364934E+01 0.52035459630E+01 0.54503128529E+01 0.56208450776E+01 0.56743873122E+01
 0.55917568824E+01 0.53817040811E+01 0.50781948148E+01 0.47301272708E+01 0.43873642198E+01
 0.40874048632E+01 0.38456425870E+01 0.36501842098E+01 0.34772968619E+01 0.33290255138E+01
 0.32106038315E+01 0.31242045956E+01 0.30689607702E+01 0.30417672512E+01 0.30385483521E+01
 0.30556056103E+01 0.30907263638E+01 0.31438306317E+01 0.32170157818E+01 0.33139359828E+01
 0.34385504251E+01 0.35934092982E+01 0.37778241803E+01 0.39864441320E+01 0.42088089769E+01
 0.44317408055E+01 0.46666503870E+01 0.44594534951E+01 0.45756413199E+01 0.46666503550E+01
 0.47204751892E+01 0.47214323319E+01 0.46596144643E+01 0.45369372193E+01 0.43678210813E+01
 0.41746132297E+01 0.39796890217E+01 0.37969582259E+01 0.36264012982E+01 0.34684184390E+01
 0.33290255138E+01 0.32128924828E+01 0.31228170505E+01 0.30595735370E+01 0.30221111476E+01
 0.30080728975E+01 0.30144979262E+01 0.30385483518E+01 0.30781296396E+01 0.31323008372E+01
 0.32013898770E+01 0.32867594731E+01 0.33902187581E+01 0.35131363805E+01 0.36553832713E+01
 0.38143250945E+01 0.39841679054E+01 0.41559585461E+01 0.43183886968E+01 0.42054238947E+01
 0.42769955547E+01 0.43183886769E+01 0.43251935907E+01 0.42956650466E+01 0.42310853888E+01
 0.41351748065E+01 0.40143953719E+01 0.38767996174E+01 0.37307329856E+01 0.35844118402E+01
 0.34451706312E+01 0.33190527378E+01 0.32106038315E+01 0.31228170505E+01 0.30572049009E+01
 0.30139912789E+01 0.29924036706E+01 0.29910151707E+01 0.30080728998E+01 0.30417672536E+01
 0.30904258276E+01 0.31526311488E+01 0.32272589769E+01 0.33134285237E+01 0.34103564221E+01
 0.35171095444E+01 0.36322602368E+01 0.37534773843E+01 0.38771447498E+01 0.39981546798E+01
 0.41100271778E+01 0.40832063320E+01 0.41080270391E+01 0.41100271758E+01 0.40877244460E+01
 0.40408302201E+01 0.39705733186E+01 0.38798507665E+01 0.37731289469E+01 0.36560783445E+01
 0.35350008733E+01 0.34161717107E+01 0.33052395076E+01 0.32068009668E+01 0.31242045956E+01
 0.30595735370E+01 0.30139912789E+01 0.29877719855E+01 0.29807336956E+01 0.29924036750E+01
 0.30221111551E+01 0.30689607790E+01 0.31317193250E+01 0.32086749952E+01 0.32975353425E+01
 0.33954169319E+01 0.34989497218E+01 0.36044765776E+01 0.37082864552E+01 0.38068011978E+01
 0.38966581884E+01 0.39746883196E+01 0.40378496252E+01 0.41080270470E+01 0.40832063454E+01
 0.40378496429E+01 0.39746883397E+01 0.38966582087E+01 0.38068012163E+01 0.37082864703E+01
 0.36044765882E+01 0.34989497275E+01 0.33954169327E+01 0.32975353391E+01 0.32086749886E+01
 0.31317193165E+01 0.30689607702E+01 0.30221111476E+01 0.29924036706E+01 0.29807336956E+01
 0.29877719908E+01 0.30139912896E+01 0.30595735524E+01 0.31242046140E+01 0.32068009862E+01
 0.33052395255E+01 0.34161717248E+01 0.35350008821E+01 0.36560783473E+01 0.37731289443E+01
 0.38798507601E+01 0.39705733108E+01 0.40408302134E+01 0.40877244428E+01 0.41100271778E+01
 0.42769955818E+01 0.42054239269E+01 0.41100272123E+01 0.39981547135E+01 0.38771447804E+01
 0.37534774102E+01 0.36322602575E+01 0.35171095601E+01 0.34103564333E+01 0.33134285310E+01
 0.32272589810E+01 0.31526311500E+01 0.30904258265E+01 0.30417672512E+01 0.30080728975E+01
 0.29910151707E+01 0.29924036750E+01 0.30139912896E+01 0.30572049187E+01 0.31228170752E+01
 0.32106038612E+01 0.33190527694E+01 0.34451706612E+01 0.35844118652E+01 0.37307330036E+01
 0.38767996279E+01 0.40143953763E+01 0.41351748076E+01 0.42310853903E+01 0.42956650522E+01