    1    1    1    2
  0.9841500E+01  0.2338269E-09  0.2338269E-09  0.2338269E-09  0.5000000E-15
  1.000000000000000E-004
  CAR 
 Fe FCC                                  
      8     26     12
 
  0.6250000E-01  0.6250000E-01  0.6250000E-01  0.1562500E-01
    1       -0.822999     -0.631867   1.000000   1.000000
    2        4.549046      6.256692   1.000000   1.000000
    3        4.549046      6.256692   1.000000   1.000000
    4        5.559586      7.359554   1.000000   0.674074
    5        6.312343      8.818811   1.000000   0.000000
    6        6.312343      8.818811   1.003345   0.000000
    7       30.458907     30.676030   0.000000   0.000000
    8       30.458907     30.676030   0.000000   0.000000
    9       34.828233     34.623478   0.000000   0.000000
   10       35.992381     36.830612   0.000000   0.000000
   11       41.157501     41.444063   0.000000   0.000000
   12       41.157501     41.444063   0.000000   0.000000
 
  0.1875000E+00  0.6250000E-01  0.6250000E-01  0.4687500E-01
    1        0.904303      1.194622   1.000000   1.000000
    2        4.031060      5.655330   1.000000   1.000000
    3        4.295005      5.884031   1.000000   1.000000
    4        6.236279      8.636429   1.000000  -0.064310
    5        6.476252      8.679342   1.001723   0.000000
    6        6.829838      9.019000   0.855527   0.000000
    7       25.039365     25.645301   0.000000   0.000000
    8       28.062111     28.399148   0.000000   0.000000
    9       31.623745     32.359089   0.000000   0.000000
   10       35.493440     35.478840   0.000000   0.000000
   11       41.017089     41.611956   0.000000   0.000000
   12       41.770750     42.045325   0.000000   0.000000
 
  0.3125000E+00  0.6250000E-01  0.6250000E-01  0.4687500E-01
    1        1.947780      2.848249   1.000000   1.000000
    2        3.592809      5.144502   1.000000   1.000000
    3        5.262031      6.263984   1.000000   1.000000
    4        6.421983      8.783230   1.000000  -0.000016
    5        6.608341      9.197376   1.035036   0.000000
    6        8.532162     10.273347  -0.008396   0.000000
    7       19.392412     20.339417   0.000000   0.000000
    8       26.189167     26.507428   0.000000   0.000000
    9       28.937183     29.578697   0.000000   0.000000
   10       35.255259     35.488420   0.000000   0.000000
   11       40.290771     40.863764   0.000000   0.000000
   12       45.254042     45.456977   0.000000   0.000000
 
  0.4375000E+00  0.6250000E-01  0.6250000E-01  0.2343750E-01
    1        1.927872      3.116304   1.000000   1.000000
    2        3.425599      4.950310   1.000000   1.000000
    3        6.429714      7.285521   1.000000   1.000000
    4        6.508939      8.880285   1.000000   0.000000
    5        6.663543      9.275638   1.072924   0.000000
    6        9.962964     11.317630  -0.004395   0.000000
    7       16.224173     17.494655   0.000000   0.000000
    8       25.482820     25.775969   0.000000   0.000000
    9       27.931843     28.524157   0.000000   0.000000
   10       35.103692     35.415942   0.000000   0.000000
   11       40.245491     40.846019   0.000000   0.000000
   12       44.878753     44.961328   0.000000   0.000000
 
 -0.6250000E-01  0.6250000E-01  0.6250000E-01  0.1171875E-01
    1       -1.510920     -1.328863   1.000000   1.000000
    2        4.809689      6.552234   1.000000   1.000000
    3        4.809689      6.552234   1.000000   1.000000
    4        4.920523      6.684063   1.000000   1.039023
    5        6.212020      8.708714   1.000000   0.000000
    6        6.473235      9.029308   1.000000   0.000000
    7       32.171412     32.141072   0.000000   0.000000
    8       33.670886     33.586880   0.000000   0.000000
    9       33.670887     33.586882   0.000000   0.000000
   10       37.841170     38.210087   0.000000   0.000000
   11       40.821937     41.615043   0.000000   0.000000
   12       40.821938     41.615047   0.000000   0.000000
 
  0.1875000E+00  0.1875000E+00  0.6250000E-01  0.4687500E-01
    1        2.445252      3.041651   1.000000   1.000000
    2        3.673670      5.206367   1.000000   1.000000
    3        3.954298      5.360651   1.000000   1.000000
    4        6.341981      8.749563   1.000000  -0.000179
    5        6.650199      9.196754   1.001316   0.000000
    6        8.795158     10.522639  -0.027029   0.000000
    7       22.304041     23.022908   0.000000   0.000000
    8       23.391555     24.017011   0.000000   0.000000
    9       27.812057     28.422625   0.000000   0.000000
   10       37.625018     37.602553   0.000000   0.000000
   11       42.134901     42.456101   0.000000   0.000000
   12       44.812398     45.147963   0.000000   0.000000
 
  0.3125000E+00  0.1875000E+00  0.6250000E-01  0.9375000E-01
    1        2.687796      3.884702   1.000000   1.000000
    2        3.475213      4.934047   1.000000   1.000000
    3        4.732993      5.858130   1.000000   1.000000
    4        6.525007      8.934075   1.000000   0.000000
    5        6.770217      9.290764   1.011182   0.000000
    6       11.516012     12.841075  -0.002755   0.000000
    7       17.557601     18.569672   0.000000   0.000000
    8       21.628516     22.281775   0.000000   0.000000
    9       26.300472     26.859702   0.000000   0.000000
   10       38.207884     38.320505   0.000000   0.000000
   11       42.993572     43.138407   0.000000   0.000000
   12       45.680463     46.131514   0.000000   0.000000
 
 -0.1875000E+00  0.1875000E+00  0.6250000E-01  0.4687500E-01
    1       -0.191517      0.022001   1.000000   1.000000
    2        4.468736      6.155313   1.000000   1.000000
    3        4.706655      6.405179   1.000000   1.000000
    4        5.688836      7.509549   1.000000   0.430215
    5        5.901452      8.269461   1.000000   0.000000
    6        6.605577      9.169698   1.008917   0.000000
    7       27.954292     28.378206   0.000000   0.000000
    8       31.335004     31.484610   0.000000   0.000000
    9       32.647952     32.947721   0.000000   0.000000
   10       37.225358     37.595275   0.000000   0.000000
   11       37.705754     38.332654   0.000000   0.000000
   12       39.271332     39.780065   0.000000   0.000000
 
  0.3125000E+00  0.3125000E+00  0.6250000E-01  0.1562500E-01
    1        3.048344      4.404068   1.000000   1.000000
    2        3.933152      5.225650   1.000000   1.000000
    3        3.933152      5.225651   1.000000   1.000000
    4        6.701324      9.152577   1.000000   0.000000
    5        6.701324      9.152577   1.003781   0.000000
    6       15.344035     16.369491   0.000000   0.000000
    7       15.344036     16.369492   0.000000   0.000000
    8       18.488281     19.352879   0.000000   0.000000
    9       25.770127     26.345607   0.000000   0.000000
   10       40.830182     40.908054   0.000000   0.000000
   11       40.830183     40.908058   0.000000   0.000000
   12       49.369658     50.051812   0.000000   0.000000
 
 -0.3125000E+00  0.3125000E+00  0.6250000E-01  0.4687500E-01
    1        1.478382      2.021163   1.000000   1.000000
    2        3.966952      5.579148   1.000000   1.000000
    3        4.785912      6.182719   1.000000   1.000000
    4        6.166206      8.380404   1.000000  -0.029954
    5        6.837133      8.891027   1.015475   0.000000
    6        6.955911      9.335556   0.664855   0.000000
    7       22.081758     22.883818   0.000000   0.000000
    8       28.695175     28.860735   0.000000   0.000000
    9       30.778710     31.358779   0.000000   0.000000
   10       35.446010     35.938446   0.000000   0.000000
   11       37.668310     38.193040   0.000000   0.000000
   12       40.528831     40.841859   0.000000   0.000000
 
 -0.1875000E+00  0.3125000E+00  0.6250000E-01  0.4687500E-01
    1        1.356431      1.717230   1.000000   1.000000
    2        4.177768      5.883615   1.000000   1.000000
    3        4.455827      6.044476   1.000000   1.000126
    4        5.742482      7.942038   1.000000  -0.045262
    5        6.621947      8.571408   1.003810   0.000000
    6        7.077466      9.488036   0.702747   0.000000
    7       25.042152     25.670855   0.000000   0.000000
    8       26.372154     26.918429   0.000000   0.000000
    9       32.929719     33.179302   0.000000   0.000000
   10       33.769498     34.284383   0.000000   0.000000
   11       37.678755     38.082383   0.000000   0.000000
   12       42.663025     43.056545   0.000000   0.000000
 
 -0.4375000E+00  0.4375000E+00  0.6250000E-01  0.4687500E-01
    1        1.796521      2.929574   1.000000   1.000000
    2        3.629287      5.195152   1.000000   1.000000
    3        5.740274      7.081844   1.000000   1.000000
    4        6.390203      8.659329   1.000000  -0.000035
    5        7.982915      9.860737   0.284004   0.000000
    6        8.252386     10.032226   0.003507   0.000000
    7       17.149844     18.322375   0.000000   0.000000
    8       27.155972     27.293038   0.000000   0.000000
    9       29.063066     29.636063   0.000000   0.000000
   10       34.659706     35.172273   0.000000   0.000000
   11       38.128740     38.736117   0.000000   0.000000
   12       42.013440     42.171496   0.000000   0.000000
 
 -0.3125000E+00  0.4375000E+00  0.6250000E-01  0.9375000E-01
    1        2.342411      3.304057   1.000000   1.000000
    2        3.806282      5.382738   1.000000   1.000000
    3        4.536223      5.950702   1.000000   1.000434
    4        6.127881      8.280196   1.000000  -0.005056
    5        7.122623      9.366053   1.005698   0.000000
    6        9.094026     10.800958  -0.037967   0.000000
    7       19.767198     20.680402   0.000000   0.000000
    8       23.884866     24.483605   0.000000   0.000000
    9       30.852118     31.216674   0.000000   0.000000
   10       34.298562     34.706670   0.000000   0.000000
   11       38.201996     38.534046   0.000000   0.000000
   12       43.405119     43.874156   0.000000   0.000000
 
 -0.4375000E+00 -0.4375000E+00  0.6250000E-01  0.4687500E-01
    1        2.303565      3.581278   1.000000   1.000000
    2        3.798358      5.352299   1.000000   1.000000
    3        4.737920      6.162770   1.000000   1.000469
    4        6.268425      8.478955   1.000000  -0.000012
    5        7.543415      9.661776   0.663782   0.000000
    6       11.209497     12.441066  -0.001520   0.000000
    7       16.289482     17.506124   0.000000   0.000000
    8       23.115965     23.705225   0.000000   0.000000
    9       29.892577     30.228344   0.000000   0.000000
   10       34.791229     35.282932   0.000000   0.000000
   11       38.907680     39.054630   0.000000   0.000000
   12       42.728647     43.278381   0.000000   0.000000
 
 -0.3125000E+00 -0.4375000E+00  0.6250000E-01  0.4687500E-01
    1        3.150807      4.448079   1.000000   1.000000
    2        3.427795      4.949935   1.000000   1.000000
    3        4.107906      5.581019   1.000000   1.001260
    4        6.505806      8.651459   1.000000  -0.000016
    5        7.082916      9.264184   1.060347   0.000000
    6       12.708861     13.964058  -0.000389   0.000000
    7       17.518588     18.510617   0.000000   0.000000
    8       19.290285     20.085232   0.000000   0.000000
    9       31.508908     31.997399   0.000000   0.000000
   10       34.420281     34.657269   0.000000   0.000000
   11       36.874153     37.119359   0.000000   0.000000
   12       45.683451     46.540625   0.000000   0.000000
 
  0.1875000E+00  0.1875000E+00  0.1875000E+00  0.1562500E-01
    1        3.458667      4.588762   1.000000   1.000000
    2        3.458667      4.866924   1.000000   1.000000
    3        3.754343      4.866924   1.000000   1.000000
    4        6.630443      9.192259   1.000000   0.000000
    5        6.630443      9.192259   1.000000   0.000000
    6       11.561881     12.961694  -0.003583   0.000000
    7       20.521869     21.265501   0.000000   0.000000
    8       20.521869     21.265501   0.000000   0.000000
    9       22.638591     23.308610   0.000000   0.000000
   10       42.530175     42.335533   0.000000   0.000000
   11       45.960282     46.166433   0.000000   0.000000
   12       45.960282     46.166433   0.000000   0.000000
 
  0.3125000E+00  0.1875000E+00  0.1875000E+00  0.2343750E-01
    1        3.337923      4.590199   1.000000   1.000000
    2        3.416303      4.776818   1.000000   1.000000
    3        4.240763      5.405361   1.000000   1.000000
    4        6.674733      9.235913   1.000000   0.000000
    5        6.696955      9.317740   1.000005   0.000000
    6       14.548593     15.567508   0.000000   0.000000
    7       16.753046     17.753901   0.000000   0.000000
    8       19.904286     20.650128   0.000000   0.000000
    9       21.530257     22.191690   0.000000   0.000000
   10       43.870489     43.823035   0.000000   0.000000
   11       47.687743     47.792264   0.000000   0.000000
   12       48.572428     48.939069   0.000000   0.000000
 
 -0.1875000E+00  0.1875000E+00  0.1875000E+00  0.1171875E-01
    1        0.938899      1.226718   1.000000   1.000000
    2        4.882987      6.681841   1.000000   1.000000
    3        4.990807      6.681841   1.000000   1.000167
    4        4.990807      7.080780   1.000000   0.928672
    5        5.701615      7.532615   1.000000   0.000000
    6        7.077967      9.591042   0.845058   0.000000
    7       27.797197     28.208127   0.000000   0.000000
    8       29.581102     30.134876   0.000000   0.000000
    9       29.581102     30.134879   0.000000   0.000000
   10       31.538731     31.918474   0.000000   0.000000
   11       41.692099     42.048534   0.000000   0.000000
   12       41.692100     42.048535   0.000000   0.000000
 
 -0.3125000E+00  0.3125000E+00  0.1875000E+00  0.4687500E-01
    1        2.255348      2.937622   1.000000   1.000000
    2        3.921279      5.752617   1.000000   1.000000
    3        4.812085      6.473847   1.000000   1.009615
    4        5.644666      7.506953   1.000000   0.157247
    5        6.806105      8.724695   1.044094   0.000000
    6        8.099282     10.189649   0.056010   0.000000
    7       22.984295     23.746144   0.000000   0.000000
    8       26.822008     27.436719   0.000000   0.000000
    9       27.581224     28.036189   0.000000   0.000000
   10       32.126800     32.533481   0.000000   0.000000
   11       40.799379     41.262128   0.000000   0.000000
   12       42.737117     43.171190   0.000000   0.000000
 
 -0.4375000E+00  0.4375000E+00  0.1875000E+00  0.4687500E-01
    1        2.413901      3.739086   1.000000   1.000000
    2        3.860253      5.411308   1.000000   1.000000
    3        4.562248      6.191476   1.000000   1.022199
    4        5.926330      7.920609   1.000001  -0.001154
    5        7.878996      9.916677   0.127800   0.000000
    6       10.808768     12.112253  -0.009588   0.000000
    7       17.627242     18.672530   0.000000   0.000000
    8       25.031726     25.603602   0.000000   0.000000
    9       26.660334     27.135260   0.000000   0.000000
   10       34.620989     34.915175   0.000000   0.000000
   11       39.795097     40.273692   0.000000   0.000000
   12       40.793771     41.420165   0.000000   0.000000
 
 -0.3125000E+00  0.4375000E+00  0.1875000E+00  0.4687500E-01
    1        2.839094      4.026187   1.000000   1.000000
    2        3.134445      4.878523   1.000000   1.000000
    3        4.910357      6.573613   1.000000   1.021564
    4        6.141549      8.005744   1.000010  -0.011008
    5        7.345570      9.359338   0.889335   0.000000
    6       10.758020     12.172912  -0.012225   0.000000
    7       20.619702     21.480641   0.000000   0.000000
    8       21.454257     22.131034   0.000000   0.000000
    9       29.162716     29.642678   0.000000   0.000000
   10       31.025960     31.433030   0.000000   0.000000
   11       39.499097     40.016840   0.000000   0.000000
   12       43.174181     43.914116   0.000000   0.000000
 
 -0.4375000E+00 -0.4375000E+00  0.1875000E+00  0.4687500E-01
    1        2.703848      4.270193   1.000000   1.000000
    2        3.172572      4.743764   1.000000   1.000000
    3        4.671362      6.264643   1.000000   1.041365
    4        6.536150      8.458193   1.000090  -0.000013
    5        7.633368      9.653661   0.263012   0.000000
    6       13.981405     15.010498   0.000000   0.000000
    7       16.656713     17.683557   0.000000   0.000000
    8       20.310289     21.015624   0.000000   0.000000
    9       29.208370     29.668476   0.000000   0.000000
   10       32.492537     32.818167   0.000000   0.000000
   11       37.169242     37.844336   0.000000   0.000000
   12       42.057983     42.768796   0.000000   0.000000
 
 -0.3125000E+00  0.3125000E+00  0.3125000E+00  0.1171875E-01
    1        2.586387      3.742698   1.000000   1.000000
    2        3.063535      4.920488   1.000000   1.000000
    3        5.951482      7.680065   1.000000   0.707116
    4        5.951483      7.680065   1.000033  -0.002557
    5        6.849325      8.787833   1.166889   0.000000
    6       10.058410     11.535672  -0.017564   0.000000
    7       23.563994     24.157115   0.000000   0.000000
    8       23.563995     24.157119   0.000000   0.000000
    9       25.578886     26.373412   0.000000   0.000000
   10       28.162355     28.673674   0.000000   0.000000
   11       41.520139     42.293783   0.000000   0.000000
   12       45.961781     46.398164   0.000000   0.000000
 
 -0.4375000E+00  0.4375000E+00  0.3125000E+00  0.4687500E-01
    1        2.362246      3.937999   1.000000   1.000000
    2        2.526109      4.181169   1.000000   1.000000
    3        6.124272      7.892436   1.000000   0.386438
    4        6.482245      8.277717   1.005086  -0.001537
    5        7.735530      9.757952   0.079052   0.000000
    6       13.460744     14.419016   0.000000   0.000000
    7       18.756016     19.506722   0.000000   0.000000
    8       21.496213     22.002909   0.000000   0.000000
    9       25.907196     26.675654   0.000000   0.000000
   10       29.038271     29.559252   0.000000   0.000000
   11       36.775161     37.669874   0.000000   0.000000
   12       45.382090     45.796228   0.000000   0.000000
 
 -0.4375000E+00 -0.4375000E+00  0.3125000E+00  0.1562500E-01
    1        2.178441      3.823024   1.000000   1.000000
    2        2.178441      3.823024   1.000000   1.000000
    3        6.258414      8.008573   1.000000   0.201054
    4        7.534541      9.506740   0.966318   0.000000
    5        7.534542      9.506741   0.114023   0.000000
    6       17.133928     17.841351   0.000000   0.000000
    7       17.133928     17.841356   0.000000   0.000000
    8       18.531180     19.114286   0.000000   0.000000
    9       27.418586     28.063424   0.000000   0.000000
   10       27.418586     28.063426   0.000000   0.000000
   11       34.326915     35.312745   0.000000   0.000000
   12       46.009641     46.420005   0.000000   0.000000
 
 -0.4375000E+00  0.4375000E+00  0.4375000E+00  0.1171875E-01
    1        1.841151      3.476210   1.000000   1.000000
    2        1.853771      3.510681   1.000000   1.000000
    3        7.481825      9.436933   1.000000  -0.043500
    4        7.481825      9.436934   1.007442   0.000000
    5        7.691397      9.715314   0.020970   0.000000
    6       16.443713     16.989396   0.000000   0.000000
    7       19.164337     19.520380   0.000000   0.000000
    8       19.164338     19.520385   0.000000   0.000000
    9       24.795313     25.794036   0.000000   0.000000
   10       26.078777     26.885611   0.000000   0.000000
   11       32.735215     33.755595   0.000000   0.000000
   12       49.092050     49.369410   0.000000   0.000000
