PROCAR lm decomposed
# of k-points:   26         # of bands:  12         # of ions:   1

 k-point    1 :    0.06250000 0.06250000 0.06250000     weight = 0.01562500

band   1 # energy   -0.82299870 # occ.  1.00000000
 
ion      s     py     pz     px    dxy    dyz    dz2    dxz    dx2    tot
  1  0.780  0.027  0.027  0.027  0.003  0.003  0.000  0.003  0.000  0.871
 
band   2 # energy    4.54904586 # occ.  1.00000000
 
ion      s     py     pz     px    dxy    dyz    dz2    dxz    dx2    tot
  1  0.000  0.000  0.001  0.002  0.313  0.575  0.013  0.072  0.013  0.990
 
band   3 # energy    4.54904586 # occ.  1.00000000
 
ion      s     py     pz     px    dxy    dyz    dz2    dxz    dx2    tot
  1  0.000  0.002  0.001  0.000  0.327  0.065  0.013  0.568  0.013  0.990
 
band   4 # energy    5.55958584 # occ.  1.00000000
 
ion      s     py     pz     px    dxy    dyz    dz2    dxz    dx2    tot
  1  0.002  0.005  0.005  0.005  0.324  0.324  0.000  0.324  0.000  0.990
 
band   5 # energy    6.31234344 # occ.  1.00000000
 
ion      s     py     pz     px    dxy    dyz    dz2    dxz    dx2    tot
  1  0.000  0.000  0.000  0.000  0.015  0.000  0.720  0.014  0.222  0.971
 
band   6 # energy    6.31234344 # occ.  1.00334528
 
ion      s     py     pz     px    dxy    dyz    dz2    dxz    dx2    tot
  1  0.000  0.000  0.000  0.000  0.005  0.019  0.222  0.005  0.720  0.971
 
band   7 # energy   30.45890744 # occ.  0.00000000
 
ion      s     py     pz     px    dxy    dyz    dz2    dxz    dx2    tot
  1  0.000  0.011  0.056  0.025  0.185  0.083  0.219  0.037  0.021  0.637
 
band   8 # energy   30.45890744 # occ.  0.00000000
 
ion      s     py     pz     px    dxy    dyz    dz2    dxz    dx2    tot
  1  0.000  0.050  0.005  0.036  0.018  0.121  0.021  0.166  0.219  0.637
 
band   9 # energy   34.82823276 # occ.  0.00000000
 
ion      s     py     pz     px    dxy    dyz    dz2    dxz    dx2    tot
  1  0.000  0.000  0.000  0.000  0.000  0.000  0.000  0.000  0.000  0.000
 
band  10 # energy   35.99238122 # occ.  0.00000000
 
ion      s     py     pz     px    dxy    dyz    dz2    dxz    dx2    tot
  1  0.075  0.164  0.164  0.164  0.208  0.208  0.000  0.208  0.000  1.191
 
band  11 # energy   41.15750088 # occ.  0.00000000
 
ion      s     py     pz     px    dxy    dyz    dz2    dxz    dx2    tot
  1  0.000  0.034  0.123  0.057  0.111  0.051  0.119  0.030  0.018  0.543
 
band  12 # energy   41.15750088 # occ.  0.00000000
 
ion      s     py     pz     px    dxy    dyz    dz2    dxz    dx2    tot
  1  0.000  0.109  0.019  0.086  0.017  0.077  0.018  0.098  0.119  0.543
 

 k-point    2 :    0.18750000 0.06250000 0.06250000     weight = 0.04687500

band   1 # energy    0.90430345 # occ.  1.00000000
 
ion      s     py     pz     px    dxy    dyz    dz2    dxz    dx2    tot
  1  0.586  0.079  0.079  0.024  0.007  0.082  0.005  0.007  0.014  0.883
 
band   2 # energy    4.03106035 # occ.  1.00000000
 
ion      s     py     pz     px    dxy    dyz    dz2    dxz    dx2    tot
  1  0.000  0.003  0.003  0.000  0.477  0.000  0.019  0.477  0.006  0.986
 
band   3 # energy    4.29500474 # occ.  1.00000000
 
ion      s     py     pz     px    dxy    dyz    dz2    dxz    dx2    tot
  1  0.019  0.027  0.027  0.003  0.094  0.544  0.039  0.094  0.117  0.964
 
band   4 # energy    6.23627896 # occ.  1.00000000
 
ion      s     py     pz     px    dxy    dyz    dz2    dxz    dx2    tot
  1  0.002  0.000  0.000  0.000  0.017  0.157  0.196  0.017  0.588  0.976
 
band   5 # energy    6.47625197 # occ.  1.00172266
 
ion      s     py     pz     px    dxy    dyz    dz2    dxz    dx2    tot
  1  0.000  0.000  0.000  0.000  0.015  0.000  0.711  0.015  0.237  0.978
 
band   6 # energy    6.82983832 # occ.  0.85552748
 
ion      s     py     pz     px    dxy    dyz    dz2    dxz    dx2    tot
  1  0.016  0.016  0.016  0.015  0.369  0.179  0.000  0.369  0.000  0.980
 
band   7 # energy   25.03936485 # occ.  0.00000000
 
ion      s     py     pz     px    dxy    dyz    dz2    dxz    dx2    tot
  1  0.052  0.109  0.109  0.030  0.012  0.375  0.050  0.012  0.151  0.900
 
band   8 # energy   28.06211063 # occ.  0.00000000
 
ion      s     py     pz     px    dxy    dyz    dz2    dxz    dx2    tot
  1  0.000  0.100  0.100  0.000  0.180  0.000  0.106  0.180  0.035  0.700
 
band   9 # energy   31.62374502 # occ.  0.00000000
 
ion      s     py     pz     px    dxy    dyz    dz2    dxz    dx2    tot
  1  0.134  0.067  0.067  0.380  0.143  0.010  0.011  0.143  0.033  0.986
 
band  10 # energy   35.49343997 # occ.  0.00000000
 
ion      s     py     pz     px    dxy    dyz    dz2    dxz    dx2    tot
  1  0.000  0.001  0.001  0.000  0.200  0.000  0.018  0.200  0.006  0.425
 
band  11 # energy   41.01708888 # occ.  0.00000000
 
ion      s     py     pz     px    dxy    dyz    dz2    dxz    dx2    tot
  1  0.033  0.053  0.053  0.146  0.092  0.170  0.127  0.092  0.381  1.149
 
band  12 # energy   41.77075006 # occ.  0.00000000
 
ion      s     py     pz     px    dxy    dyz    dz2    dxz    dx2    tot
  1  0.000  0.091  0.091  0.000  0.195  0.000  0.001  0.195  0.000  0.572
 

 k-point    3 :    0.31250000 0.06250000 0.06250000     weight = 0.04687500

band   1 # energy    1.94778041 # occ.  1.00000000
 
ion      s     py     pz     px    dxy    dyz    dz2    dxz    dx2    tot
  1  0.234  0.026  0.026  0.022  0.001  0.431  0.047  0.001  0.141  0.928
 
band   2 # energy    3.59280933 # occ.  1.00000000
 
ion      s     py     pz     px    dxy    dyz    dz2    dxz    dx2    tot
  1  0.000  0.005  0.005  0.000  0.484  0.000  0.006  0.484  0.002  0.986
 
band   3 # energy    5.26203099 # occ.  1.00000000
 
ion      s     py     pz     px    dxy    dyz    dz2    dxz    dx2    tot
  1  0.098  0.162  0.162  0.000  0.153  0.081  0.028  0.153  0.083  0.919
 
band   4 # energy    6.42198251 # occ.  1.00000000
 
ion      s     py     pz     px    dxy    dyz    dz2    dxz    dx2    tot
  1  0.003  0.002  0.002  0.001  0.016  0.295  0.163  0.016  0.488  0.985
 
band   5 # energy    6.60834111 # occ.  1.03503609
 
ion      s     py     pz     px    dxy    dyz    dz2    dxz    dx2    tot
  1  0.000  0.000  0.000  0.000  0.005  0.000  0.731  0.005  0.244  0.985
 
band   6 # energy    8.53216208 # occ. -0.00839639
 
ion      s     py     pz     px    dxy    dyz    dz2    dxz    dx2    tot
  1  0.048  0.073  0.073  0.012  0.326  0.103  0.001  0.326  0.002  0.964
 
band   7 # energy   19.39241190 # occ.  0.00000000
 
ion      s     py     pz     px    dxy    dyz    dz2    dxz    dx2    tot
  1  0.224  0.107  0.107  0.017  0.005  0.378  0.031  0.005  0.093  0.968
 
band   8 # energy   26.18916713 # occ.  0.00000000
 
ion      s     py     pz     px    dxy    dyz    dz2    dxz    dx2    tot
  1  0.000  0.133  0.133  0.000  0.162  0.000  0.030  0.162  0.010  0.628
 
band   9 # energy   28.93718299 # occ.  0.00000000
 
ion      s     py     pz     px    dxy    dyz    dz2    dxz    dx2    tot
  1  0.135  0.012  0.012  0.550  0.049  0.010  0.015  0.049  0.046  0.877
 
band  10 # energy   35.25525906 # occ.  0.00000000
 
ion      s     py     pz     px    dxy    dyz    dz2    dxz    dx2    tot
  1  0.000  0.003  0.003  0.000  0.463  0.000  0.007  0.463  0.002  0.942
 
band  11 # energy   40.29077143 # occ.  0.00000000
 
ion      s     py     pz     px    dxy    dyz    dz2    dxz    dx2    tot
  1  0.106  0.024  0.024  0.124  0.024  0.009  0.191  0.024  0.574  1.099
 
band  12 # energy   45.25404156 # occ.  0.00000000
 
ion      s     py     pz     px    dxy    dyz    dz2    dxz    dx2    tot
  1  0.060  0.009  0.011  0.011  0.005  0.311  0.001  0.006  0.006  0.418
 

 k-point    4 :    0.43750000 0.06250000 0.06250000     weight = 0.02343750

band   1 # energy    1.92787176 # occ.  1.00000000
 
ion      s     py     pz     px    dxy    dyz    dz2    dxz    dx2    tot
  1  0.139  0.000  0.000  0.020  0.000  0.512  0.067  0.000  0.201  0.941
 
band   2 # energy    3.42559932 # occ.  1.00000000
 
ion      s     py     pz     px    dxy    dyz    dz2    dxz    dx2    tot
  1  0.000  0.005  0.005  0.000  0.488  0.000  0.000  0.488  0.000  0.987
 
band   3 # energy    6.42971424 # occ.  1.00000000
 
ion      s     py     pz     px    dxy    dyz    dz2    dxz    dx2    tot
  1  0.000  0.196  0.196  0.000  0.268  0.000  0.000  0.268  0.000  0.927
 
band   4 # energy    6.50893922 # occ.  1.00000000
 
ion      s     py     pz     px    dxy    dyz    dz2    dxz    dx2    tot
  1  0.014  0.000  0.000  0.001  0.000  0.299  0.168  0.000  0.505  0.987
 
band   5 # energy    6.66354331 # occ.  1.07292402
 
ion      s     py     pz     px    dxy    dyz    dz2    dxz    dx2    tot
  1  0.000  0.000  0.000  0.000  0.000  0.000  0.741  0.000  0.247  0.988
 
band   6 # energy    9.96296425 # occ. -0.00439496
 
ion      s     py     pz     px    dxy    dyz    dz2    dxz    dx2    tot
  1  0.000  0.221  0.221  0.000  0.240  0.000  0.000  0.240  0.000  0.922
 
band   7 # energy   16.22417341 # occ.  0.00000000
 
ion      s     py     pz     px    dxy    dyz    dz2    dxz    dx2    tot
  1  0.428  0.000  0.000  0.021  0.000  0.442  0.027  0.000  0.082  1.000
 
band   8 # energy   25.48282030 # occ.  0.00000000
 
ion      s     py     pz     px    dxy    dyz    dz2    dxz    dx2    tot
  1  0.000  0.143  0.143  0.000  0.153  0.000  0.000  0.153  0.000  0.592
 
band   9 # energy   27.93184280 # occ.  0.00000000
 
ion      s     py     pz     px    dxy    dyz    dz2    dxz    dx2    tot
  1  0.132  0.000  0.000  0.616  0.000  0.023  0.015  0.000  0.044  0.829
 
band  10 # energy   35.10369219 # occ.  0.00000000
 
ion      s     py     pz     px    dxy    dyz    dz2    dxz    dx2    tot
  1  0.000  0.003  0.003  0.000  0.547  0.000  0.000  0.547  0.000  1.101
 
band  11 # energy   40.24549072 # occ.  0.00000000
 
ion      s     py     pz     px    dxy    dyz    dz2    dxz    dx2    tot
  1  0.154  0.000  0.000  0.117  0.000  0.004  0.222  0.000  0.667  1.163
 
band  12 # energy   44.87875285 # occ.  0.00000000
 
ion      s     py     pz     px    dxy    dyz    dz2    dxz    dx2    tot
  1  0.000  0.038  0.038  0.000  0.009  0.000  0.000  0.009  0.000  0.093
 

 k-point    5 :   -0.06250000 0.06250000 0.06250000     weight = 0.01171875

band   1 # energy   -1.51092011 # occ.  1.00000000
 
ion      s     py     pz     px    dxy    dyz    dz2    dxz    dx2    tot
  1  0.839  0.000  0.000  0.030  0.000  0.000  0.000  0.000  0.001  0.869
 
band   2 # energy    4.80968923 # occ.  1.00000000
 
ion      s     py     pz     px    dxy    dyz    dz2    dxz    dx2    tot
  1  0.000  0.002  0.002  0.000  0.496  0.000  0.000  0.496  0.000  0.996
 
band   3 # energy    4.80968925 # occ.  1.00000000
 
ion      s     py     pz     px    dxy    dyz    dz2    dxz    dx2    tot
  1  0.000  0.002  0.002  0.000  0.496  0.000  0.000  0.496  0.000  0.996
 
band   4 # energy    4.92052326 # occ.  1.00000000
 
ion      s     py     pz     px    dxy    dyz    dz2    dxz    dx2    tot
  1  0.000  0.000  0.000  0.000  0.000  0.996  0.000  0.000  0.000  0.996
 
band   5 # energy    6.21201971 # occ.  1.00000000
 
ion      s     py     pz     px    dxy    dyz    dz2    dxz    dx2    tot
  1  0.000  0.000  0.000  0.000  0.000  0.000  0.725  0.000  0.242  0.966
 
band   6 # energy    6.47323524 # occ.  1.00000000
 
ion      s     py     pz     px    dxy    dyz    dz2    dxz    dx2    tot
  1  0.001  0.000  0.000  0.000  0.000  0.000  0.244  0.000  0.731  0.975
 
band   7 # energy   32.17141246 # occ.  0.00000000
 
ion      s     py     pz     px    dxy    dyz    dz2    dxz    dx2    tot
  1  0.000  0.000  0.000  0.000  0.000  0.000  0.226  0.000  0.075  0.302
 
band   8 # energy   33.67088632 # occ.  0.00000000
 
ion      s     py     pz     px    dxy    dyz    dz2    dxz    dx2    tot
  1  0.000  0.007  0.007  0.000  0.122  0.000  0.000  0.122  0.000  0.257
 
band   9 # energy   33.67088662 # occ.  0.00000000
 
ion      s     py     pz     px    dxy    dyz    dz2    dxz    dx2    tot
  1  0.000  0.007  0.007  0.000  0.122  0.000  0.000  0.122  0.000  0.257
 
band  10 # energy   37.84116981 # occ.  0.00000000
 
ion      s     py     pz     px    dxy    dyz    dz2    dxz    dx2    tot
  1  0.014  0.000  0.000  0.236  0.000  0.000  0.111  0.000  0.332  0.693
 
band  11 # energy   40.82193712 # occ.  0.00000000
 
ion      s     py     pz     px    dxy    dyz    dz2    dxz    dx2    tot
  1  0.000  0.208  0.208  0.000  0.415  0.000  0.000  0.415  0.000  1.246
 
band  12 # energy   40.82193845 # occ.  0.00000000
 
ion      s     py     pz     px    dxy    dyz    dz2    dxz    dx2    tot
  1  0.000  0.208  0.208  0.000  0.415  0.000  0.000  0.415  0.000  1.246
 

 k-point    6 :    0.18750000 0.18750000 0.06250000     weight = 0.04687500

band   1 # energy    2.44525212 # occ.  1.00000000
 
ion      s     py     pz     px    dxy    dyz    dz2    dxz    dx2    tot
  1  0.316  0.055  0.079  0.055  0.002  0.177  0.051  0.177  0.000  0.913
 
band   2 # energy    3.67366988 # occ.  1.00000000
 
ion      s     py     pz     px    dxy    dyz    dz2    dxz    dx2    tot
  1  0.000  0.027  0.000  0.027  0.000  0.352  0.000  0.352  0.202  0.962
 
band   3 # energy    3.95429798 # occ.  1.00000000
 
ion      s     py     pz     px    dxy    dyz    dz2    dxz    dx2    tot
  1  0.045  0.006  0.093  0.006  0.674  0.067  0.005  0.067  0.000  0.964
 
band   4 # energy    6.34198060 # occ.  1.00000000
 
ion      s     py     pz     px    dxy    dyz    dz2    dxz    dx2    tot
  1  0.000  0.001  0.000  0.001  0.000  0.113  0.000  0.113  0.753  0.980
 
band   5 # energy    6.65019906 # occ.  1.00131571
 
ion      s     py     pz     px    dxy    dyz    dz2    dxz    dx2    tot
  1  0.006  0.000  0.001  0.000  0.000  0.035  0.909  0.035  0.000  0.986
 
band   6 # energy    8.79515792 # occ. -0.02702870
 
ion      s     py     pz     px    dxy    dyz    dz2    dxz    dx2    tot
  1  0.069  0.038  0.071  0.038  0.306  0.214  0.018  0.214  0.000  0.967
 
band   7 # energy   22.30404052 # occ.  0.00000000
 
ion      s     py     pz     px    dxy    dyz    dz2    dxz    dx2    tot
  1  0.000  0.170  0.000  0.170  0.000  0.208  0.000  0.208  0.172  0.929
 
band   8 # energy   23.39155547 # occ.  0.00000000
 
ion      s     py     pz     px    dxy    dyz    dz2    dxz    dx2    tot
  1  0.182  0.007  0.268  0.007  0.112  0.127  0.029  0.127  0.000  0.859
 
band   9 # energy   27.81205709 # occ.  0.00000000
 
ion      s     py     pz     px    dxy    dyz    dz2    dxz    dx2    tot
  1  0.180  0.219  0.001  0.219  0.190  0.002  0.033  0.002  0.000  0.847
 
band  10 # energy   37.62501815 # occ.  0.00000000
 
ion      s     py     pz     px    dxy    dyz    dz2    dxz    dx2    tot
  1  0.000  0.011  0.000  0.011  0.000  0.111  0.000  0.111  0.134  0.377
 
band  11 # energy   42.13490073 # occ.  0.00000000
 
ion      s     py     pz     px    dxy    dyz    dz2    dxz    dx2    tot
  1  0.019  0.018  0.022  0.018  0.489  0.192  0.014  0.192  0.000  0.965
 
band  12 # energy   44.81239767 # occ.  0.00000000
 
ion      s     py     pz     px    dxy    dyz    dz2    dxz    dx2    tot
  1  0.000  0.085  0.000  0.085  0.000  0.077  0.000  0.077  0.471  0.796
 

 k-point    7 :    0.31250000 0.18750000 0.06250000     weight = 0.09375000

band   1 # energy    2.68779612 # occ.  1.00000000
 
ion      s     py     pz     px    dxy    dyz    dz2    dxz    dx2    tot
  1  0.098  0.002  0.006  0.059  0.036  0.546  0.057  0.041  0.104  0.949
 
band   2 # energy    3.47521339 # occ.  1.00000000
 
ion      s     py     pz     px    dxy    dyz    dz2    dxz    dx2    tot
  1  0.000  0.029  0.013  0.016  0.332  0.024  0.001  0.486  0.072  0.972
 
band   3 # energy    4.73299256 # occ.  1.00000000
 
ion      s     py     pz     px    dxy    dyz    dz2    dxz    dx2    tot
  1  0.024  0.111  0.155  0.001  0.363  0.008  0.078  0.141  0.056  0.937
 
band   4 # energy    6.52500691 # occ.  1.00000000
 
ion      s     py     pz     px    dxy    dyz    dz2    dxz    dx2    tot
  1  0.003  0.002  0.000  0.002  0.000  0.215  0.049  0.048  0.667  0.985
 
band   5 # energy    6.77021699 # occ.  1.01118190
 
ion      s     py     pz     px    dxy    dyz    dz2    dxz    dx2    tot
  1  0.005  0.005  0.007  0.000  0.051  0.014  0.777  0.076  0.053  0.989
 
band   6 # energy   11.51601249 # occ. -0.00275481
 
ion      s     py     pz     px    dxy    dyz    dz2    dxz    dx2    tot
  1  0.066  0.137  0.203  0.022  0.214  0.078  0.033  0.188  0.000  0.940
 
band   7 # energy   17.55760111 # occ.  0.00000000
 
ion      s     py     pz     px    dxy    dyz    dz2    dxz    dx2    tot
  1  0.238  0.122  0.025  0.091  0.013  0.356  0.007  0.023  0.083  0.957
 
band   8 # energy   21.62851643 # occ.  0.00000000
 
ion      s     py     pz     px    dxy    dyz    dz2    dxz    dx2    tot
  1  0.179  0.058  0.120  0.132  0.125  0.000  0.000  0.213  0.031  0.859
 
band   9 # energy   26.30047178 # occ.  0.00000000
 
ion      s     py     pz     px    dxy    dyz    dz2    dxz    dx2    tot
  1  0.166  0.110  0.045  0.276  0.120  0.043  0.011  0.039  0.005  0.817
 
band  10 # energy   38.20788391 # occ.  0.00000000
 
ion      s     py     pz     px    dxy    dyz    dz2    dxz    dx2    tot
  1  0.006  0.002  0.001  0.022  0.171  0.012  0.013  0.270  0.153  0.649
 
band  11 # energy   42.99357197 # occ.  0.00000000
 
ion      s     py     pz     px    dxy    dyz    dz2    dxz    dx2    tot
  1  0.004  0.054  0.003  0.000  0.187  0.070  0.118  0.007  0.104  0.548
 
band  12 # energy   45.68046319 # occ.  0.00000000
 
ion      s     py     pz     px    dxy    dyz    dz2    dxz    dx2    tot
  1  0.054  0.010  0.005  0.131  0.081  0.005  0.274  0.034  0.399  0.993
 

 k-point    8 :   -0.18750000 0.18750000 0.06250000     weight = 0.04687500

band   1 # energy   -0.19151748 # occ.  1.00000000
 
ion      s     py     pz     px    dxy    dyz    dz2    dxz    dx2    tot
  1  0.715  0.024  0.000  0.104  0.018  0.000  0.007  0.000  0.006  0.873
 
band   2 # energy    4.46873621 # occ.  1.00000000
 
ion      s     py     pz     px    dxy    dyz    dz2    dxz    dx2    tot
  1  0.000  0.000  0.003  0.000  0.000  0.384  0.000  0.604  0.000  0.991
 
band   3 # energy    4.70665478 # occ.  1.00000000
 
ion      s     py     pz     px    dxy    dyz    dz2    dxz    dx2    tot
  1  0.006  0.018  0.000  0.010  0.816  0.000  0.113  0.000  0.012  0.976
 
band   4 # energy    5.68883626 # occ.  1.00000000
 
ion      s     py     pz     px    dxy    dyz    dz2    dxz    dx2    tot
  1  0.000  0.000  0.009  0.000  0.000  0.604  0.000  0.375  0.000  0.988
 
band   5 # energy    5.90145176 # occ.  1.00000000
 
ion      s     py     pz     px    dxy    dyz    dz2    dxz    dx2    tot
  1  0.000  0.000  0.000  0.000  0.134  0.000  0.649  0.000  0.180  0.963
 
band   6 # energy    6.60557663 # occ.  1.00891709
 
ion      s     py     pz     px    dxy    dyz    dz2    dxz    dx2    tot
  1  0.007  0.000  0.000  0.001  0.005  0.000  0.189  0.000  0.777  0.979
 
band   7 # energy   27.95429169 # occ.  0.00000000
 
ion      s     py     pz     px    dxy    dyz    dz2    dxz    dx2    tot
  1  0.021  0.107  0.000  0.044  0.317  0.000  0.293  0.000  0.025  0.808
 
band   8 # energy   31.33500395 # occ.  0.00000000
 
ion      s     py     pz     px    dxy    dyz    dz2    dxz    dx2    tot
  1  0.022  0.000  0.000  0.126  0.088  0.000  0.036  0.000  0.179  0.452
 
band   9 # energy   32.64795189 # occ.  0.00000000
 
ion      s     py     pz     px    dxy    dyz    dz2    dxz    dx2    tot
  1  0.000  0.000  0.140  0.000  0.000  0.050  0.000  0.697  0.000  0.887
 
band  10 # energy   37.22535774 # occ.  0.00000000
 
ion      s     py     pz     px    dxy    dyz    dz2    dxz    dx2    tot
  1  0.004  0.191  0.000  0.094  0.290  0.000  0.099  0.000  0.007  0.685
 
band  11 # energy   37.70575388 # occ.  0.00000000
 
ion      s     py     pz     px    dxy    dyz    dz2    dxz    dx2    tot
  1  0.000  0.000  0.400  0.000  0.000  0.550  0.000  0.058  0.000  1.009
 
band  12 # energy   39.27133152 # occ.  0.00000000
 
ion      s     py     pz     px    dxy    dyz    dz2    dxz    dx2    tot
  1  0.095  0.187  0.000  0.107  0.042  0.000  0.149  0.000  0.003  0.583
 

 k-point    9 :    0.31250000 0.31250000 0.06250000     weight = 0.01562500

band   1 # energy    3.04834379 # occ.  1.00000000
 
ion      s     py     pz     px    dxy    dyz    dz2    dxz    dx2    tot
  1  0.046  0.009  0.009  0.009  0.300  0.300  0.000  0.300  0.000  0.973
 
band   2 # energy    3.93315212 # occ.  1.00000000
 
ion      s     py     pz     px    dxy    dyz    dz2    dxz    dx2    tot
  1  0.000  0.031  0.125  0.031  0.362  0.091  0.216  0.091  0.000  0.946
 
band   3 # energy    3.93315231 # occ.  1.00000000
 
ion      s     py     pz     px    dxy    dyz    dz2    dxz    dx2    tot
  1  0.000  0.094  0.000  0.094  0.000  0.272  0.000  0.272  0.216  0.946
 
band   4 # energy    6.70132391 # occ.  1.00000000
 
ion      s     py     pz     px    dxy    dyz    dz2    dxz    dx2    tot
  1  0.000  0.005  0.000  0.005  0.000  0.121  0.000  0.121  0.737  0.988
 
band   5 # energy    6.70132417 # occ.  1.00378084
 
ion      s     py     pz     px    dxy    dyz    dz2    dxz    dx2    tot
  1  0.000  0.002  0.006  0.002  0.161  0.040  0.737  0.040  0.000  0.988
 
band   6 # energy   15.34403515 # occ.  0.00000000
 
ion      s     py     pz     px    dxy    dyz    dz2    dxz    dx2    tot
  1  0.000  0.080  0.320  0.080  0.257  0.064  0.073  0.064  0.000  0.938
 
band   7 # energy   15.34403562 # occ.  0.00000000
 
ion      s     py     pz     px    dxy    dyz    dz2    dxz    dx2    tot
  1  0.000  0.240  0.000  0.240  0.000  0.192  0.000  0.192  0.073  0.938
 
band   8 # energy   18.48828149 # occ.  0.00000000
 
ion      s     py     pz     px    dxy    dyz    dz2    dxz    dx2    tot
  1  0.581  0.003  0.003  0.003  0.102  0.102  0.000  0.102  0.000  0.898
 
band   9 # energy   25.77012746 # occ.  0.00000000
 
ion      s     py     pz     px    dxy    dyz    dz2    dxz    dx2    tot
  1  0.161  0.135  0.135  0.135  0.093  0.093  0.000  0.093  0.000  0.845
 
band  10 # energy   40.83018194 # occ.  0.00000000
 
ion      s     py     pz     px    dxy    dyz    dz2    dxz    dx2    tot
  1  0.000  0.024  0.000  0.024  0.000  0.064  0.000  0.064  0.312  0.488
 
band  11 # energy   40.83018257 # occ.  0.00000000
 
ion      s     py     pz     px    dxy    dyz    dz2    dxz    dx2    tot
  1  0.000  0.008  0.032  0.008  0.085  0.021  0.312  0.021  0.000  0.488
 
band  12 # energy   49.36965823 # occ.  0.00000000
 
ion      s     py     pz     px    dxy    dyz    dz2    dxz    dx2    tot
  1  0.016  0.050  0.050  0.050  0.425  0.425  0.000  0.425  0.000  1.443
 

 k-point   10 :   -0.31250000 0.31250000 0.06250000     weight = 0.04687500

band   1 # energy    1.47838179 # occ.  1.00000000
 
ion      s     py     pz     px    dxy    dyz    dz2    dxz    dx2    tot
  1  0.409  0.031  0.000  0.108  0.232  0.000  0.112  0.000  0.010  0.902
 
band   2 # energy    3.96695190 # occ.  1.00000000
 
ion      s     py     pz     px    dxy    dyz    dz2    dxz    dx2    tot
  1  0.000  0.000  0.003  0.000  0.000  0.446  0.000  0.538  0.000  0.988
 
band   3 # energy    4.78591218 # occ.  1.00000000
 
ion      s     py     pz     px    dxy    dyz    dz2    dxz    dx2    tot
  1  0.077  0.089  0.000  0.099  0.248  0.000  0.263  0.000  0.148  0.924
 
band   4 # energy    6.16620620 # occ.  1.00000000
 
ion      s     py     pz     px    dxy    dyz    dz2    dxz    dx2    tot
  1  0.001  0.014  0.000  0.015  0.452  0.000  0.473  0.000  0.024  0.978
 
band   5 # energy    6.83713260 # occ.  1.01547538
 
ion      s     py     pz     px    dxy    dyz    dz2    dxz    dx2    tot
  1  0.038  0.011  0.000  0.024  0.003  0.000  0.103  0.000  0.799  0.979
 
band   6 # energy    6.95591074 # occ.  0.66485459
 
ion      s     py     pz     px    dxy    dyz    dz2    dxz    dx2    tot
  1  0.000  0.000  0.012  0.000  0.000  0.538  0.000  0.434  0.000  0.985
 
band   7 # energy   22.08175760 # occ.  0.00000000
 
ion      s     py     pz     px    dxy    dyz    dz2    dxz    dx2    tot
  1  0.138  0.174  0.000  0.090  0.379  0.000  0.169  0.000  0.009  0.960
 
band   8 # energy   28.69517521 # occ.  0.00000000
 
ion      s     py     pz     px    dxy    dyz    dz2    dxz    dx2    tot
  1  0.025  0.053  0.000  0.140  0.008  0.000  0.077  0.000  0.091  0.393
 
band   9 # energy   30.77870965 # occ.  0.00000000
 
ion      s     py     pz     px    dxy    dyz    dz2    dxz    dx2    tot
  1  0.000  0.000  0.431  0.000  0.000  0.033  0.000  0.614  0.000  1.078
 
band  10 # energy   35.44601050 # occ.  0.00000000
 
ion      s     py     pz     px    dxy    dyz    dz2    dxz    dx2    tot
  1  0.000  0.000  0.242  0.000  0.000  0.722  0.000  0.138  0.000  1.103
 
band  11 # energy   37.66830973 # occ.  0.00000000
 
ion      s     py     pz     px    dxy    dyz    dz2    dxz    dx2    tot
  1  0.074  0.240  0.000  0.000  0.061  0.000  0.535  0.000  0.009  0.918
 
band  12 # energy   40.52883111 # occ.  0.00000000
 
ion      s     py     pz     px    dxy    dyz    dz2    dxz    dx2    tot
  1  0.132  0.007  0.000  0.066  0.179  0.000  0.080  0.000  0.115  0.578
 

 k-point   11 :   -0.18750000 0.31250000 0.06250000     weight = 0.04687500

band   1 # energy    1.35643076 # occ.  1.00000000
 
ion      s     py     pz     px    dxy    dyz    dz2    dxz    dx2    tot
  1  0.509  0.016  0.016  0.174  0.047  0.000  0.019  0.047  0.057  0.885
 
band   2 # energy    4.17776797 # occ.  1.00000000
 
ion      s     py     pz     px    dxy    dyz    dz2    dxz    dx2    tot
  1  0.000  0.015  0.015  0.000  0.282  0.000  0.270  0.282  0.090  0.955
 
band   3 # energy    4.45582698 # occ.  1.00000000
 
ion      s     py     pz     px    dxy    dyz    dz2    dxz    dx2    tot
  1  0.014  0.006  0.006  0.030  0.221  0.480  0.000  0.221  0.000  0.979
 
band   4 # energy    5.74248209 # occ.  1.00000000
 
ion      s     py     pz     px    dxy    dyz    dz2    dxz    dx2    tot
  1  0.000  0.003  0.003  0.000  0.193  0.000  0.433  0.193  0.144  0.969
 
band   5 # energy    6.62194689 # occ.  1.00381008
 
ion      s     py     pz     px    dxy    dyz    dz2    dxz    dx2    tot
  1  0.000  0.005  0.005  0.002  0.171  0.366  0.066  0.171  0.198  0.985
 
band   6 # energy    7.07746619 # occ.  0.70274669
 
ion      s     py     pz     px    dxy    dyz    dz2    dxz    dx2    tot
  1  0.056  0.008  0.008  0.031  0.042  0.138  0.163  0.042  0.490  0.978
 
band   7 # energy   25.04215237 # occ.  0.00000000
 
ion      s     py     pz     px    dxy    dyz    dz2    dxz    dx2    tot
  1  0.000  0.122  0.122  0.000  0.162  0.000  0.268  0.162  0.089  0.925
 
band   8 # energy   26.37215355 # occ.  0.00000000
 
ion      s     py     pz     px    dxy    dyz    dz2    dxz    dx2    tot
  1  0.137  0.057  0.057  0.182  0.189  0.027  0.003  0.189  0.008  0.847
 
band   9 # energy   32.92971909 # occ.  0.00000000
 
ion      s     py     pz     px    dxy    dyz    dz2    dxz    dx2    tot
  1  0.000  0.056  0.056  0.000  0.192  0.000  0.200  0.192  0.067  0.762
 
band  10 # energy   33.76949818 # occ.  0.00000000
 
ion      s     py     pz     px    dxy    dyz    dz2    dxz    dx2    tot
  1  0.002  0.234  0.234  0.046  0.039  0.097  0.004  0.039  0.012  0.707
 
band  11 # energy   37.67875522 # occ.  0.00000000
 
ion      s     py     pz     px    dxy    dyz    dz2    dxz    dx2    tot
  1  0.102  0.004  0.004  0.057  0.131  0.439  0.015  0.131  0.046  0.929
 
band  12 # energy   42.66302483 # occ.  0.00000000
 
ion      s     py     pz     px    dxy    dyz    dz2    dxz    dx2    tot
  1  0.000  0.156  0.156  0.000  0.000  0.000  0.140  0.000  0.047  0.499
 

 k-point   12 :   -0.43750000 0.43750000 0.06250000     weight = 0.04687500

band   1 # energy    1.79652084 # occ.  1.00000000
 
ion      s     py     pz     px    dxy    dyz    dz2    dxz    dx2    tot
  1  0.168  0.000  0.000  0.019  0.452  0.000  0.295  0.000  0.001  0.934
 
band   2 # energy    3.62928712 # occ.  1.00000000
 
ion      s     py     pz     px    dxy    dyz    dz2    dxz    dx2    tot
  1  0.000  0.000  0.003  0.000  0.000  0.479  0.000  0.506  0.000  0.988
 
band   3 # energy    5.74027380 # occ.  1.00000000
 
ion      s     py     pz     px    dxy    dyz    dz2    dxz    dx2    tot
  1  0.022  0.095  0.000  0.104  0.001  0.000  0.091  0.000  0.621  0.935
 
band   4 # energy    6.39020347 # occ.  1.00000000
 
ion      s     py     pz     px    dxy    dyz    dz2    dxz    dx2    tot
  1  0.010  0.008  0.000  0.006  0.349  0.000  0.545  0.000  0.065  0.983
 
band   5 # energy    7.98291474 # occ.  0.28400376
 
ion      s     py     pz     px    dxy    dyz    dz2    dxz    dx2    tot
  1  0.000  0.000  0.003  0.000  0.000  0.512  0.000  0.478  0.000  0.992
 
band   6 # energy    8.25238628 # occ.  0.00350663
 
ion      s     py     pz     px    dxy    dyz    dz2    dxz    dx2    tot
  1  0.052  0.228  0.000  0.275  0.050  0.000  0.007  0.000  0.305  0.917
 
band   7 # energy   17.14984377 # occ.  0.00000000
 
ion      s     py     pz     px    dxy    dyz    dz2    dxz    dx2    tot
  1  0.358  0.085  0.000  0.021  0.406  0.000  0.124  0.000  0.003  0.997
 
band   8 # energy   27.15597220 # occ.  0.00000000
 
ion      s     py     pz     px    dxy    dyz    dz2    dxz    dx2    tot
  1  0.022  0.104  0.000  0.129  0.003  0.000  0.079  0.000  0.011  0.348
 
band   9 # energy   29.06306630 # occ.  0.00000000
 
ion      s     py     pz     px    dxy    dyz    dz2    dxz    dx2    tot
  1  0.000  0.000  0.626  0.000  0.000  0.069  0.000  0.253  0.000  0.948
 
band  10 # energy   34.65970625 # occ.  0.00000000
 
ion      s     py     pz     px    dxy    dyz    dz2    dxz    dx2    tot
  1  0.000  0.000  0.142  0.000  0.000  0.683  0.000  0.491  0.000  1.316
 
band  11 # energy   38.12874019 # occ.  0.00000000
 
ion      s     py     pz     px    dxy    dyz    dz2    dxz    dx2    tot