<?xml version="1.0" encoding="ISO-8859-1"?>
<modeling>
 <generator>
  <i name="program" type="string">vasp </i>
  <i name="version" type="string">5.4.1  </i>
  <i name="subversion" type="string">24Jun15 (build Jul 19 2016 16:50:41) complex                          parallel </i>
  <i name="platform" type="string">IFC91_ompi </i>
  <i name="date" type="string">2019 10 17 </i>
  <i name="time" type="string">13:10:26 </i>
 </generator>
 <incar>
  <i type="string" name="SYSTEM"> Fe FCC</i>
  <i type="string" name="PREC">accurate</i>
  <i type="int" name="ISPIN">     2</i>
  <i name="EDIFF">      0.00000100</i>
  <i name="ENCUT">    400.00000000</i>
  <v name="MAGMOM">      4.00000000</v>
  <i type="int" name="ISMEAR">    -5</i>
  <i type="logical" name="LORBIT"> F  </i>
  <v type="int" name="KPOINT_BSE">    -1     0     0     0</v>
 </incar>
 <kpoints>
  <generation param="Monkhorst-Pack">
   <v type="int" name="divisions">       8        8        8 </v>
   <v name="usershift">      0.00000000       0.00000000       0.00000000 </v>
   <v name="genvec1">      0.12500000       0.00000000       0.00000000 </v>
   <v name="genvec2">      0.00000000       0.12500000       0.00000000 </v>
   <v name="genvec3">      0.00000000       0.00000000       0.12500000 </v>
   <v name="shift">      0.50000000       0.50000000       0.50000000 </v>
  </generation>
  <varray name="kpointlist" >
   <v>       0.06250000       0.06250000       0.06250000 </v>
   <v>       0.18750000       0.06250000       0.06250000 </v>
   <v>       0.31250000       0.06250000       0.06250000 </v>
   <v>       0.43750000       0.06250000       0.06250000 </v>
   <v>      -0.06250000       0.06250000       0.06250000 </v>
   <v>       0.18750000       0.18750000       0.06250000 </v>
   <v>       0.31250000       0.18750000       0.06250000 </v>
   <v>      -0.18750000       0.18750000       0.06250000 </v>
   <v>       0.31250000       0.31250000       0.06250000 </v>
   <v>      -0.31250000       0.31250000       0.06250000 </v>
   <v>      -0.18750000       0.31250000       0.06250000 </v>
   <v>      -0.43750000       0.43750000       0.06250000 </v>
   <v>      -0.31250000       0.43750000       0.06250000 </v>
   <v>      -0.43750000      -0.43750000       0.06250000 </v>
   <v>      -0.31250000      -0.43750000       0.06250000 </v>
   <v>       0.18750000       0.18750000       0.18750000 </v>
   <v>       0.31250000       0.18750000       0.18750000 </v>
   <v>      -0.18750000       0.18750000       0.18750000 </v>
   <v>      -0.31250000       0.31250000       0.18750000 </v>
   <v>      -0.43750000       0.43750000       0.18750000 </v>
   <v>      -0.31250000       0.43750000       0.18750000 </v>
   <v>      -0.43750000      -0.43750000       0.18750000 </v>
   <v>      -0.31250000       0.31250000       0.31250000 </v>
   <v>      -0.43750000       0.43750000       0.31250000 </v>
   <v>      -0.43750000      -0.43750000       0.31250000 </v>
   <v>      -0.43750000       0.43750000       0.43750000 </v>
  </varray>
  <varray name="weights" >
   <v>       0.01562500 </v>
   <v>       0.04687500 </v>
   <v>       0.04687500 </v>
   <v>       0.02343750 </v>
   <v>       0.01171875 </v>
   <v>       0.04687500 </v>
   <v>       0.09375000 </v>
   <v>       0.04687500 </v>
   <v>       0.01562500 </v>
   <v>       0.04687500 </v>
   <v>       0.04687500 </v>
   <v>       0.04687500 </v>
   <v>       0.09375000 </v>
   <v>       0.04687500 </v>
   <v>       0.04687500 </v>
   <v>       0.01562500 </v>
   <v>       0.02343750 </v>
   <v>       0.01171875 </v>
   <v>       0.04687500 </v>
   <v>       0.04687500 </v>
   <v>       0.04687500 </v>
   <v>       0.04687500 </v>
   <v>       0.01171875 </v>
   <v>       0.04687500 </v>
   <v>       0.01562500 </v>
   <v>       0.01171875 </v>
  </varray>
  <varray name="tetrahedronlist"  type="int" >
   <v type="int" >        4        1        2        2        6 </v>
   <v type="int" >        8        2        2        6        6 </v>
   <v type="int" >        4        2        6        6       16 </v>
   <v type="int" >        4        2        3        6        7 </v>
   <v type="int" >        4        2        6        6        7 </v>
   <v type="int" >       12        6        6        7       16 </v>
   <v type="int" >        8        3        6        7        7 </v>
   <v type="int" >        8        6        7        7       17 </v>
   <v type="int" >        8        6        7       16       17 </v>
   <v type="int" >        4        3        4        7        7 </v>
   <v type="int" >        4        3        7        7        7 </v>
   <v type="int" >       16        7        7        7       17 </v>
   <v type="int" >        8        4        7        7        7 </v>
   <v type="int" >        4        7        7        7       16 </v>
   <v type="int" >       20        7        7       16       17 </v>
   <v type="int" >        4        3        4        6        7 </v>
   <v type="int" >        4        4        6        7        7 </v>
   <v type="int" >       16        6        7        7       16 </v>
   <v type="int" >        8        3        6        6        7 </v>
   <v type="int" >        4        6        6        6        7 </v>
   <v type="int" >        4        2        2        3        6 </v>
   <v type="int" >        8        2        3        6        6 </v>
   <v type="int" >        4        2        6        6        6 </v>
   <v type="int" >        4        2        2        2        6 </v>
   <v type="int" >        8        2        2        6       11 </v>
   <v type="int" >        4        2        6        6       11 </v>
   <v type="int" >       16        1        2        2        8 </v>
   <v type="int" >        4        2        2        2        8 </v>
   <v type="int" >       12        2        2        8       11 </v>
   <v type="int" >       16        1        2        8        8 </v>
   <v type="int" >        4        2        8        8       18 </v>
   <v type="int" >        4        2        8       11       18 </v>
   <v type="int" >       20        1        5        8        8 </v>
   <v type="int" >        4        1        8        8        8 </v>
   <v type="int" >        4        8        8        8       18 </v>
   <v type="int" >        8        5        8        8        8 </v>
   <v type="int" >        4        8        8        8       11 </v>
   <v type="int" >        4        8        8       11       18 </v>
   <v type="int" >        8        1        2        5        8 </v>
   <v type="int" >        8        2        5        8        8 </v>
   <v type="int" >        8        2        8        8       11 </v>
   <v type="int" >        4        2        2        6        8 </v>
   <v type="int" >        4        2        6        8       11 </v>
   <v type="int" >        4        6        7        9       16 </v>
   <v type="int" >       16        7        9       16       17 </v>
   <v type="int" >       12        9       16       17       17 </v>
   <v type="int" >       20        7        7        9       17 </v>
   <v type="int" >       12        7        9       17       17 </v>
   <v type="int" >        8        7        7       17       17 </v>
   <v type="int" >       12        3        6        7       16 </v>
   <v type="int" >        8        3        7        7       16 </v>
   <v type="int" >        8        3        6        6       16 </v>
   <v type="int" >        4        3        6       13       16 </v>
   <v type="int" >        4        3        7       13       16 </v>
   <v type="int" >        4        2        6        6       10 </v>
   <v type="int" >        4        3        6        6       10 </v>
   <v type="int" >        8        3        6       10       13 </v>
   <v type="int" >       12        2        6       10       11 </v>
   <v type="int" >        4        6       10       11       19 </v>
   <v type="int" >        4        6       10       13       19 </v>
   <v type="int" >        4        2        8       11       11 </v>
   <v type="int" >        4        2       10       11       11 </v>
   <v type="int" >        4       10       11       11       19 </v>
   <v type="int" >        8        8       11       11       18 </v>
   <v type="int" >        8       11       11       18       19 </v>
   <v type="int" >        4       11       11       19       19 </v>
   <v type="int" >        4        8        8       10       18 </v>
   <v type="int" >       12        8       10       11       18 </v>
   <v type="int" >       12       10       11       18       19 </v>
   <v type="int" >        4       10       11       13       18 </v>
   <v type="int" >        4       10       13       18       19 </v>
   <v type="int" >        4        2        3        8       11 </v>
   <v type="int" >        4        3        8       10       11 </v>
   <v type="int" >        8        3       10       11       13 </v>
   <v type="int" >       16        2        3        6       11 </v>
   <v type="int" >        4        3        6        7       11 </v>
   <v type="int" >        4        3        7       11       13 </v>
   <v type="int" >        4        4        7        9       17 </v>
   <v type="int" >        8        4        7        7       17 </v>
   <v type="int" >        4        4        7       14       17 </v>
   <v type="int" >        4        3        7        7       12 </v>
   <v type="int" >        8        4        7        7       12 </v>
   <v type="int" >        8        4        7       12       14 </v>
   <v type="int" >        8        3        7       12       13 </v>
   <v type="int" >        4        7       12       13       20 </v>
   <v type="int" >        4        7       12       14       20 </v>
   <v type="int" >        4        3       10       13       13 </v>
   <v type="int" >        4        3       12       13       13 </v>
   <v type="int" >        4       12       13       13       20 </v>
   <v type="int" >        8       10       13       13       19 </v>
   <v type="int" >       12       13       13       19       21 </v>
   <v type="int" >        4       13       13       20       21 </v>
   <v type="int" >        8       10       11       13       19 </v>
   <v type="int" >        8       11       13       19       19 </v>
   <v type="int" >        4       13       19       19       20 </v>
   <v type="int" >        8       13       19       20       21 </v>
   <v type="int" >        4       10       11       12       19 </v>
   <v type="int" >        4       11       12       13       19 </v>
   <v type="int" >        8       12       13       19       20 </v>
   <v type="int" >        8       10       12       13       19 </v>
   <v type="int" >        4       12       13       14       19 </v>
   <v type="int" >        4       12       14       19       20 </v>
   <v type="int" >        4        3        4       10       13 </v>
   <v type="int" >        4        4       10       12       13 </v>
   <v type="int" >       12        4       12       13       14 </v>
   <v type="int" >       12        3        4        7       13 </v>
   <v type="int" >        8        4        7        7       13 </v>
   <v type="int" >       12        4        7       13       14 </v>
   <v type="int" >        4        4       12       14       14 </v>
   <v type="int" >        4       12       14       14       20 </v>
   <v type="int" >        4       14       14       20       22 </v>
   <v type="int" >        4       12       13       15       20 </v>
   <v type="int" >        4       12       14       15       20 </v>
   <v type="int" >        8       14       15       20       22 </v>
   <v type="int" >       12       13       15       20       21 </v>
   <v type="int" >       12       15       20       21       22 </v>
   <v type="int" >        4       15       20       22       22 </v>
   <v type="int" >        4       13       13       14       21 </v>
   <v type="int" >       12       13       14       15       21 </v>
   <v type="int" >       16       14       15       21       22 </v>
   <v type="int" >        8       13       14       20       21 </v>
   <v type="int" >        4       14       20       20       21 </v>
   <v type="int" >       12       14       20       21       22 </v>
   <v type="int" >        4       12       12       13       20 </v>
   <v type="int" >        8       12       13       14       20 </v>
   <v type="int" >        8       12       14       20       20 </v>
   <v type="int" >        8       12       12       14       20 </v>
   <v type="int" >        4       12       13       20       20 </v>
   <v type="int" >       16        3        4       12       14 </v>
   <v type="int" >        8        3       12       12       14 </v>
   <v type="int" >        8        3       12       13       14 </v>
   <v type="int" >       16        3        4        7       14 </v>
   <v type="int" >        4        3        6        7       14 </v>
   <v type="int" >        4        3        6       13       14 </v>
   <v type="int" >        8       14       15       15       22 </v>
   <v type="int" >        8       15       15       22       22 </v>
   <v type="int" >        8       15       21       22       22 </v>
   <v type="int" >       12       13       14       15       22 </v>
   <v type="int" >        4       13       15       15       22 </v>
   <v type="int" >        8       13       15       21       22 </v>
   <v type="int" >       12       13       14       20       22 </v>
   <v type="int" >        4       13       19       20       22 </v>
   <v type="int" >        4       13       19       21       22 </v>
   <v type="int" >        4       10       12       14       20 </v>
   <v type="int" >        4       10       13       14       20 </v>
   <v type="int" >        8       10       13       19       20 </v>
   <v type="int" >        8       10       12       13       20 </v>
   <v type="int" >        4       10       11       13       20 </v>
   <v type="int" >        4       10       11       19       20 </v>
   <v type="int" >        4        2        3       12       13 </v>
   <v type="int" >        4        2       10       12       13 </v>
   <v type="int" >        8        2       10       11       13 </v>
   <v type="int" >       12        2        3        6       13 </v>
   <v type="int" >        4        2        2        6       13 </v>
   <v type="int" >        4        2        2       11       13 </v>
   <v type="int" >        4       11       13       15       21 </v>
   <v type="int" >        8       11       13       19       21 </v>
   <v type="int" >        4       11       18       19       21 </v>
   <v type="int" >        4        8       10       13       19 </v>
   <v type="int" >        4        8       11       13       19 </v>
   <v type="int" >        8        8       11       18       19 </v>
   <v type="int" >        8        8       10       11       19 </v>
   <v type="int" >        4        8        8       11       19 </v>
   <v type="int" >        4        8        8       18       19 </v>
   <v type="int" >        4        1        2       10       11 </v>
   <v type="int" >        4        1        8       10       11 </v>
   <v type="int" >        8        1        8        8       11 </v>
   <v type="int" >        8        1        2        2       11 </v>
   <v type="int" >       12        1        2        8       11 </v>
   <v type="int" >        4        5        8       11       18 </v>
   <v type="int" >        4        5        8        8       18 </v>
   <v type="int" >        4        1        5        8       18 </v>
   <v type="int" >        4        5        5        8        8 </v>
   <v type="int" >       12        1        5        5        8 </v>
   <v type="int" >        6        1        1        5        5 </v>
   <v type="int" >        8        1        1        5        8 </v>
   <v type="int" >        4        1        1        2        8 </v>
   <v type="int" >        4        2        3        6       16 </v>
   <v type="int" >        4        3        7       16       17 </v>
   <v type="int" >       12        7       16       17       17 </v>
   <v type="int" >        8        7       17       17       17 </v>
   <v type="int" >       12        7        7        9       16 </v>
   <v type="int" >        4        6        6        7        7 </v>
   <v type="int" >       16        3        6        7       13 </v>
   <v type="int" >       12        6        7        7       13 </v>
   <v type="int" >        4        3        6        6       11 </v>
   <v type="int" >       12        3        6       11       13 </v>
   <v type="int" >       12        2        3       10       11 </v>
   <v type="int" >        4        3       10       11       19 </v>
   <v type="int" >        4        3       11       13       19 </v>
   <v type="int" >        4        2        8       10       18 </v>
   <v type="int" >        4        2       10       11       18 </v>
   <v type="int" >        4       10       18       19       19 </v>
   <v type="int" >        4        8        8       11       11 </v>
   <v type="int" >        4        8       10       11       11 </v>
   <v type="int" >        4       10       11       11       13 </v>
   <v type="int" >        4       11       11       13       19 </v>
   <v type="int" >        4        2        6        8       10 </v>
   <v type="int" >        4        6        8       10       11 </v>
   <v type="int" >       12        6       10       11       13 </v>
   <v type="int" >        8        2        3        6       10 </v>
   <v type="int" >        4        3        6        7       10 </v>
   <v type="int" >        4        6        7       10       13 </v>
   <v type="int" >        4       16       17       17       17 </v>
   <v type="int" >        4       17       17       17       17 </v>
   <v type="int" >        4        9       17       17       17 </v>
   <v type="int" >        8        7        7       15       17 </v>
   <v type="int" >        8        7        9       15       17 </v>
   <v type="int" >        4        6        7       13       16 </v>
   <v type="int" >        4        7        7       13       16 </v>
   <v type="int" >       12        7        7       13       15 </v>
   <v type="int" >        8        6        7       13       13 </v>
   <v type="int" >        4        7       13       13       21 </v>
   <v type="int" >        4        7       13       15       21 </v>
   <v type="int" >        4        6       11       13       19 </v>
   <v type="int" >        4        6       13       13       19 </v>
   <v type="int" >        4       13       19       19       23 </v>
   <v type="int" >        4       13       19       21       23 </v>
   <v type="int" >        4       11       18       19       19 </v>
   <v type="int" >        4       11       19       19       19 </v>
   <v type="int" >        4       19       19       19       23 </v>
   <v type="int" >        4       18       19       19       19 </v>
   <v type="int" >        4       19       19       19       21 </v>
   <v type="int" >        4       19       19       21       23 </v>
   <v type="int" >        4       11       13       18       19 </v>
   <v type="int" >        4       13       18       19       19 </v>
   <v type="int" >        8       13       19       19       21 </v>
   <v type="int" >       12       11       13       13       19 </v>
   <v type="int" >        4       13       13       15       19 </v>
   <v type="int" >        4       13       15       19       21 </v>
   <v type="int" >        4        6        7       11       13 </v>
   <v type="int" >        4        7       11       13       13 </v>
   <v type="int" >        8        7       13       13       15 </v>
   <v type="int" >        4        7        7        9       13 </v>
   <v type="int" >        4        7        9       13       15 </v>
   <v type="int" >        4        7        9       14       17 </v>
   <v type="int" >       12        7        9       14       15 </v>
   <v type="int" >        4        9       14       15       22 </v>
   <v type="int" >        4        7       13       15       20 </v>
   <v type="int" >        4        7       14       15       20 </v>
   <v type="int" >        4       15       20       21       24 </v>
   <v type="int" >        4       15       20       22       24 </v>
   <v type="int" >        4       13       19       21       21 </v>
   <v type="int" >        4       13       20       21       21 </v>
   <v type="int" >        4       20       21       21       24 </v>
   <v type="int" >        8       19       21       21       23 </v>
   <v type="int" >        8       21       21       23       24 </v>
   <v type="int" >        4       21       21       24       24 </v>
   <v type="int" >        4       19       19       20       23 </v>
   <v type="int" >       12       19       20       21       23 </v>
   <v type="int" >       12       20       21       23       24 </v>
   <v type="int" >        4       20       21       22       23 </v>
   <v type="int" >        4       20       22       23       24 </v>
   <v type="int" >        4       13       14       19       21 </v>
   <v type="int" >        4       14       19       20       21 </v>
   <v type="int" >        4       14       15       15       21 </v>
   <v type="int" >       16        7       13       14       15 </v>
   <v type="int" >        8        7       14       15       15 </v>
   <v type="int" >       16        7        7        9       15 </v>
   <v type="int" >        4        7        7       15       15 </v>
   <v type="int" >        4       14       20       22       22 </v>
   <v type="int" >        8       20       22       22       24 </v>
   <v type="int" >       16       22       22       24       25 </v>
   <v type="int" >       16       20       21       22       24 </v>
   <v type="int" >        8       21       22       24       24 </v>
   <v type="int" >        4       22       24       24       24 </v>
   <v type="int" >       16       22       24       24       25 </v>
   <v type="int" >        4       20       20       21       24 </v>
   <v type="int" >       12       20       22       24       24 </v>
   <v type="int" >        8       20       20       22       24 </v>
   <v type="int" >        4       20       21       24       24 </v>
   <v type="int" >        4       13       20       20       22 </v>
   <v type="int" >        8       13       20       21       22 </v>
   <v type="int" >        4       13       13       15       22 </v>
   <v type="int" >        4       13       13       21       22 </v>
   <v type="int" >        4        6        7       14       15 </v>
   <v type="int" >        4        6       13       14       15 </v>
   <v type="int" >        4        6       13       13       15 </v>
   <v type="int" >        4        6        7        7       15 </v>
   <v type="int" >        4        3        6        7       15 </v>
   <v type="int" >        4        3        6       13       15 </v>
   <v type="int" >        8       21       22       22       25 </v>
   <v type="int" >       12       21       22       24       25 </v>
   <v type="int" >        4       21       23       24       25 </v>
   <v type="int" >        4       19       20       22       24 </v>
   <v type="int" >        4       19       21       22       24 </v>
   <v type="int" >        8       19       21       23       24 </v>
   <v type="int" >        8       19       20       21       24 </v>
   <v type="int" >        4       19       19       21       24 </v>
   <v type="int" >        4       19       19       23       24 </v>
   <v type="int" >        4       11       13       20       21 </v>
   <v type="int" >        4       11       19       20       21 </v>
   <v type="int" >        4       11       19       19       21 </v>
   <v type="int" >        4       11       13       13       21 </v>
   <v type="int" >        4       10       11       13       21 </v>
   <v type="int" >        4       10       11       19       21 </v>
   <v type="int" >        4        2        6       13       13 </v>
   <v type="int" >        4        2       11       13       13 </v>
   <v type="int" >       12        2        3       10       13 </v>
   <v type="int" >        4        2       10       10       13 </v>
   <v type="int" >        4       18       19       21       23 </v>
   <v type="int" >        4       18       19       19       23 </v>
   <v type="int" >        4       11       18       19       23 </v>
   <v type="int" >        4        8       11       19       19 </v>
   <v type="int" >        4        8       18       19       19 </v>
   <v type="int" >        4        2        8       10       19 </v>
   <v type="int" >        4        2        8       11       19 </v>
   <v type="int" >       16        2        8       10       11 </v>
   <v type="int" >        4        8        8       10       11 </v>
   <v type="int" >       12        2        8        8       10 </v>
   <v type="int" >        8        2        8       10       10 </v>
   <v type="int" >        4        8       10       10       11 </v>
   <v type="int" >        4        1        8       11       18 </v>
   <v type="int" >        4        2        8        8        8 </v>
   <v type="int" >        8        2        2        8       10 </v>
   <v type="int" >        4        2        2        3       10 </v>
   <v type="int" >        4        3        4        7       17 </v>
   <v type="int" >        4        4        7       16       17 </v>
   <v type="int" >        4        7        7        7        9 </v>
   <v type="int" >        4        4        7        7       14 </v>
   <v type="int" >        4        7        7        7       14 </v>
   <v type="int" >       12        3        4       12       13 </v>
   <v type="int" >        4        4       12       13       20 </v>
   <v type="int" >        4        4       13       14       20 </v>
   <v type="int" >        4        3       10       12       19 </v>
   <v type="int" >        4        3       12       13       19 </v>
   <v type="int" >        4       12       13       19       21 </v>
   <v type="int" >        4       12       19       20       21 </v>
   <v type="int" >        4       10       13       19       19 </v>
   <v type="int" >        8       13       13       19       20 </v>
   <v type="int" >        4       10       11       13       13 </v>
   <v type="int" >        4       10       12       13       13 </v>
   <v type="int" >        4       12       13       13       14 </v>
   <v type="int" >        4       13       13       14       20 </v>
   <v type="int" >        4        3        7       10       12 </v>
   <v type="int" >        4        7       10       12       13 </v>
   <v type="int" >        8        7       12       13       14 </v>
   <v type="int" >        8        3        4        7       12 </v>
   <v type="int" >        4        7        7       12       14 </v>
   <v type="int" >        4        7        9       15       16 </v>
   <v type="int" >       12        7        9       15       15 </v>
   <v type="int" >        8        7        7       14       15 </v>
   <v type="int" >        4        7       14       15       22 </v>
   <v type="int" >        4        7       15       15       22 </v>
   <v type="int" >        4        7       13       14       21 </v>
   <v type="int" >        4        7       14       15       21 </v>
   <v type="int" >        4       14       20       21       24 </v>
   <v type="int" >        4       14       21       22       24 </v>
   <v type="int" >        4       13       19       20       23 </v>
   <v type="int" >        4       13       20       21       23 </v>
   <v type="int" >        4       20       23       24       24 </v>
   <v type="int" >        4       19       19       21       21 </v>
   <v type="int" >        4       19       20       21       21 </v>
   <v type="int" >        4       20       21       21       22 </v>
   <v type="int" >        4       21       21       22       24 </v>
   <v type="int" >        4       13       15       19       20 </v>
   <v type="int" >        4       15       19       20       21 </v>
   <v type="int" >        8       13       14       15       20 </v>
   <v type="int" >        4       14       15       15       20 </v>
   <v type="int" >        4       15       15       20       22 </v>
   <v type="int" >        4        7        9       13       14 </v>
   <v type="int" >        4        9       13       14       15 </v>
   <v type="int" >        8        9       14       15       15 </v>
   <v type="int" >        8        7        7        9       14 </v>
   <v type="int" >        4        9       15       15       22 </v>
   <v type="int" >        4       15       22       22       25 </v>
   <v type="int" >        4       15       21       22       24 </v>
   <v type="int" >        4       15       22       22       24 </v>
   <v type="int" >        8       22       24       24       26 </v>
   <v type="int" >        8       22       24       25       26 </v>
   <v type="int" >        4       21       23       24       24 </v>
   <v type="int" >        4       21       24       24       24 </v>
   <v type="int" >        8       24       24       24       26 </v>
   <v type="int" >        4       23       24       24       24 </v>
   <v type="int" >        4       24       24       24       25 </v>
   <v type="int" >       20       24       24       25       26 </v>
   <v type="int" >        4       21       22       23       24 </v>
   <v type="int" >        4       22       23       24       24 </v>
   <v type="int" >       12       21       22       22       24 </v>
   <v type="int" >        4       22       22       22       24 </v>
   <v type="int" >        4       15       15       21       22 </v>
   <v type="int" >        4       15       22       22       22 </v>
   <v type="int" >        4       15       15       15       22 </v>
   <v type="int" >        4       14       15       22       22 </v>
   <v type="int" >        4        7       15       15       15 </v>
   <v type="int" >        4        4        7        7       15 </v>
   <v type="int" >        4        4        7       14       15 </v>
   <v type="int" >        4       22       24       25       25 </v>
   <v type="int" >        8       24       25       25       26 </v>
   <v type="int" >        6       25       25       26       26 </v>
   <v type="int" >       12       24       25       26       26 </v>
   <v type="int" >        4       24       24       26       26 </v>
   <v type="int" >        8       21       24       24       25 </v>
   <v type="int" >        4       20       21       22       25 </v>
   <v type="int" >        4       20       21       24       25 </v>
   <v type="int" >        4       13       15       22       22 </v>
   <v type="int" >        4       13       21       22       22 </v>
   <v type="int" >        4       12       13       14       22 </v>
   <v type="int" >        4       12       13       20       22 </v>
   <v type="int" >        4        3        7       14       15 </v>
   <v type="int" >        4        3       13       14       15 </v>
   <v type="int" >        4       23       24       25       26 </v>
   <v type="int" >        4       23       24       24       26 </v>
   <v type="int" >        4       21       23       24       26 </v>
   <v type="int" >        4       19       21       24       24 </v>
   <v type="int" >        4       19       23       24       24 </v>
   <v type="int" >        4       13       19       20       24 </v>
   <v type="int" >        4       13       19       21       24 </v>
   <v type="int" >        4       10       13       20       21 </v>
   <v type="int" >        4       10       19       20       21 </v>
   <v type="int" >        4        3       10       12       20 </v>
   <v type="int" >        4        3       10       13       20 </v>
   <v type="int" >        8        3       10       12       13 </v>
   <v type="int" >        4       10       10       12       13 </v>
   <v type="int" >        8        3       10       10       12 </v>
   <v type="int" >        8        3       10       12       12 </v>
   <v type="int" >        4       10       12       12       13 </v>
   <v type="int" >        4       11       19       21       23 </v>
   <v type="int" >        4        6       11       13       21 </v>
   <v type="int" >        4        2       10       13       19 </v>
   <v type="int" >        4        2       11       13       19 </v>
   <v type="int" >        8        2        6       11       13 </v>
   <v type="int" >        4        2        6        6       13 </v>
   <v type="int" >        4        3       10       10       11 </v>
   <v type="int" >        4        3       11       13       13 </v>
   <v type="int" >        4        2        2        6       10 </v>
   <v type="int" >        4        6       10       12       13 </v>
   <v type="int" >        4        3        6       10       12 </v>
   <v type="int" >        4        2        3        3       10 </v>
   <v type="int" >        4        3        3       10       12 </v>
   <v type="int" >        4        3        3        4       12 </v>
   <v type="int" >        4        3        4        7       16 </v>
   <v type="int" >        4        6        7        7        7 </v>
   <v type="int" >        4        6        6        7       13 </v>
   <v type="int" >        8        3        7        7       14 </v>
   <v type="int" >        8        3        7       13       14 </v>
   <v type="int" >        4        3       12       14       20 </v>
   <v type="int" >        4        3       13       14       20 </v>
   <v type="int" >        4        4       12       12       20 </v>
   <v type="int" >        4        4       12       14       20 </v>
   <v type="int" >        4       12       14       20       22 </v>
   <v type="int" >        4       12       20       20       22 </v>
   <v type="int" >        4       12       13       14       21 </v>
   <v type="int" >        4       12       14       20       21 </v>
   <v type="int" >        4       14       21       22       22 </v>
   <v type="int" >        4       13       13       15       20 </v>
   <v type="int" >        4       14       15       20       20 </v>
   <v type="int" >        4       15       20       20       22 </v>
   <v type="int" >        4       12       13       14       14 </v>
   <v type="int" >        4       13       14       14       20 </v>
   <v type="int" >        2       14       14       20       20 </v>
   <v type="int" >        2       12       12       14       14 </v>
   <v type="int" >        8        4        7       12       12 </v>
   <v type="int" >        4        7       12       12       14 </v>
   <v type="int" >        4        3        6        7       12 </v>
   <v type="int" >        4        6        7       12       13 </v>
   <v type="int" >        4        6        7       15       16 </v>
   <v type="int" >        8        6        7       13       15 </v>
   <v type="int" >        4        6       13       15       21 </v>
   <v type="int" >        4        7       13       14       22 </v>
   <v type="int" >        4        7       13       15       22 </v>
   <v type="int" >        4       13       20       22       24 </v>
   <v type="int" >        4       13       21       22       24 </v>
   <v type="int" >        4       14       20       20       24 </v>
   <v type="int" >        4       14       20       22       24 </v>
   <v type="int" >        4       20       22       24       25 </v>
   <v type="int" >        4       20       24       24       25 </v>
   <v type="int" >        6       22       22       24       24 </v>
   <v type="int" >        4       20       21       22       22 </v>
   <v type="int" >        2       20       20       22       22 </v>
   <v type="int" >        4        7        7       13       14 </v>
   <v type="int" >        4        3        7       13       13 </v>
   <v type="int" >        4       15       21       22       25 </v>
   <v type="int" >        4       21       24       25       26 </v>
   <v type="int" >        4       24       26       26       26 </v>
   <v type="int" >        6       24       24       25       25 </v>
   <v type="int" >        4        4        7       13       15 </v>
   <v type="int" >        4        4       13       14       15 </v>
   <v type="int" >        8        4       12       12       13 </v>
   <v type="int" >        4       25       26       26       26 </v>
   <v type="int" >        2       26       26       26       26 </v>
   <v type="int" >        4        4       12       12       14 </v>
   <v type="int" >        4       12       12       12       14 </v>
   <v type="int" >        8        4       12       12       12 </v>
   <v type="int" >        4        3        4        4       12 </v>
   <v type="int" >        4        4        4       12       12 </v>
   <v type="int" >        4        1        5        8       11 </v>
   <v type="int" >        4        1        2        6       11 </v>
   <v type="int" >        4        2        8       10       13 </v>
   <v type="int" >        4        2        8       11       13 </v>
   <v type="int" >        4        2        3        7       13 </v>
   <v type="int" >        4        2        6        7       13 </v>
   <v type="int" >        4        3       10       12       14 </v>
   <v type="int" >        4        3       10       13       14 </v>
   <v type="int" >        4        3        4        6       13 </v>
   <v type="int" >        4        4        6        7       13 </v>
   <v type="int" >        4        3       10       11       12 </v>
   <v type="int" >        4        3       11       12       13 </v>
   <v type="int" >        4        2        2        3       11 </v>
   <v type="int" >        6        2        2        8        8 </v>
   <v type="int" >        6        1        1        8        8 </v>
   <v type="int" >        4        5        5        5        8 </v>
   <v type="int" >        4        6       11       13       15 </v>
   <v type="int" >        4        6        7        9       15 </v>
   <v type="int" >        4        7       13       15       15 </v>
   <v type="int" >        4        7        7        7       15 </v>
   <v type="int" >        4        7       13       13       14 </v>
   <v type="int" >        4        3        7        7       13 </v>
   <v type="int" >        4        6       10       13       13 </v>
   <v type="int" >        4        2        6       10       10 </v>
   <v type="int" >        4        3        6       10       10 </v>
   <v type="int" >        4        2        2       10       11 </v>
   <v type="int" >        2        2        2       10       10 </v>
   <v type="int" >        4        1        8        8       10 </v>
   <v type="int" >        4        1        2        8       10 </v>
   <v type="int" >        4        2        3        8       10 </v>
   <v type="int" >        4        3        8       10       10 </v>
   <v type="int" >        4        4        7        9       14 </v>
   <v type="int" >        4        7       12       13       15 </v>
   <v type="int" >        4        7       12       14       15 </v>
   <v type="int" >        4        3        7       12       12 </v>
   <v type="int" >        4        3        3       10       13 </v>
   <v type="int" >        4        3        3       12       13 </v>
   <v type="int" >        2        3        3       12       12 </v>
   <v type="int" >        2        3        3       10       10 </v>
   <v type="int" >        4        2       10       10       12 </v>
   <v type="int" >        4        2        3       10       12 </v>
   <v type="int" >        4        3        4       10       12 </v>
   <v type="int" >        4        4       10       12       12 </v>
   <v type="int" >        4        4        4       12       14 </v>
   <v type="int" >        4        3       12       12       12 </v>
   <v type="int" >        4        3        4       12       12 </v>
   <v type="int" >        4        1        5        5        5 </v>
   <v type="int" >        2        5        5        5        5 </v>
  </varray>
  <i name="volumeweight">      0.00032552 </i>
 </kpoints>
 <parameters>
  <separator name="general" >
   <i type="string" name="SYSTEM">Fe FCC</i>
   <i type="logical" name="LCOMPAT"> F  </i>
  </separator>
  <separator name="electronic" >
   <i type="string" name="PREC">accura</i>
   <i name="ENMAX">    400.00000000</i>
   <i name="ENAUG">    511.36800000</i>
   <i name="EDIFF">      0.00000100</i>
   <i type="int" name="IALGO">    38</i>
   <i type="int" name="IWAVPR">    10</i>
   <i type="int" name="NBANDS">    12</i>
   <i name="NELECT">      8.00000000</i>
   <i type="int" name="TURBO">     0</i>
   <i type="int" name="IRESTART">     0</i>
   <i type="int" name="NREBOOT">     0</i>
   <i type="int" name="NMIN">     0</i>
   <i name="EREF">      0.00000000</i>
   <separator name="electronic smearing" >
    <i type="int" name="ISMEAR">    -5</i>
    <i name="SIGMA">      0.20000000</i>
    <i name="KSPACING">      0.50000000</i>
    <i type="logical" name="KGAMMA"> T  </i>
   </separator>
   <separator name="electronic projectors" >
    <i type="logical" name="LREAL"> F  </i>
    <v name="ROPT">      0.00000000</v>
    <i type="int" name="LMAXPAW">  -100</i>
    <i type="int" name="LMAXMIX">     2</i>
    <i type="logical" name="NLSPLINE"> F  </i>
   </separator>
   <separator name="electronic startup" >
    <i type="int" name="ISTART">     0</i>
    <i type="int" name="ICHARG">     2</i>
    <i type="int" name="INIWAV">     1</i>
   </separator>
   <separator name="electronic spin" >
    <i type="int" name="ISPIN">     2</i>
    <i type="logical" name="LNONCOLLINEAR"> F  </i>
    <v name="MAGMOM">      4.00000000</v>
    <i name="NUPDOWN">     -1.00000000</i>
    <i type="logical" name="LSORBIT"> F  </i>
    <v name="SAXIS">      0.00000000      0.00000000      1.00000000</v>
    <i type="logical" name="LSPIRAL"> F  </i>
    <v name="QSPIRAL">      0.00000000      0.00000000      0.00000000</v>
    <i type="logical" name="LZEROZ"> F  </i>
   </separator>
   <separator name="electronic exchange-correlation" >
    <i type="logical" name="LASPH"> F  </i>
    <i type="logical" name="LMETAGGA"> F  </i>
   </separator>
   <separator name="electronic convergence" >
    <i type="int" name="NELM">    60</i>
    <i type="int" name="NELMDL">    -5</i>
    <i type="int" name="NELMIN">     2</i>
    <i name="ENINI">    400.00000000</i>
    <separator name="electronic convergence detail" >
     <i type="logical" name="LDIAG"> T  </i>
     <i type="logical" name="LSUBROT"> F  </i>
     <i name="WEIMIN">      0.00000000</i>
     <i name="EBREAK">      0.00000002</i>
     <i name="DEPER">      0.30000000</i>
     <i type="int" name="NRMM">     4</i>
     <i name="TIME">      0.40000000</i>
    </separator>
   </separator>
   <separator name="electronic mixer" >
    <i name="AMIX">      0.40000000</i>
    <i name="BMIX">      1.00000000</i>
    <i name="AMIN">      0.10000000</i>
    <i name="AMIX_MAG">      1.60000000</i>
    <i name="BMIX_MAG">      1.00000000</i>
    <separator name="electronic mixer details" >
     <i type="int" name="IMIX">     4</i>
     <i type="logical" name="MIXFIRST"> F  </i>
     <i type="int" name="MAXMIX">   -45</i>
     <i name="WC">    100.00000000</i>
     <i type="int" name="INIMIX">     1</i>
     <i type="int" name="MIXPRE">     1</i>
     <i type="int" name="MREMOVE">     5</i>
    </separator>
   </separator>
   <separator name="electronic dipolcorrection" >
    <i type="logical" name="LDIPOL"> F  </i>
    <i type="logical" name="LMONO"> F  </i>
    <i type="int" name="IDIPOL">     0</i>
    <i name="EPSILON">      1.00000000</i>
    <v name="DIPOL">   -100.00000000   -100.00000000   -100.00000000</v>
    <i name="EFIELD">      0.00000000</i>
   </separator>
  </separator>
  <separator name="grids" >
   <i type="int" name="NGX">    16</i>
   <i type="int" name="NGY">    16</i>
   <i type="int" name="NGZ">    16</i>
   <i type="int" name="NGXF">    32</i>
   <i type="int" name="NGYF">    32</i>
   <i type="int" name="NGZF">    32</i>
   <i type="logical" name="ADDGRID"> F  </i>
  </separator>
  <separator name="ionic" >
   <i type="int" name="NSW">     0</i>
   <i type="int" name="IBRION">    -1</i>
   <i type="int" name="ISIF">     2</i>
   <i name="PSTRESS">      0.00000000</i>
   <i name="EDIFFG">      0.00001000</i>
   <i type="int" name="NFREE">     0</i>
   <i name="POTIM">      0.50000000</i>
   <i name="SMASS">     -3.00000000</i>
   <i name="SCALEE">      1.00000000</i>
  </separator>
  <separator name="ionic md" >
   <i name="TEBEG">      0.00010000</i>
   <i name="TEEND">      0.00010000</i>
   <i type="int" name="NBLOCK">     1</i>
   <i type="int" name="KBLOCK">     1</i>
   <i type="int" name="NPACO">   256</i>
   <i name="APACO">     16.00000000</i>
  </separator>
  <separator name="symmetry" >
   <i type="int" name="ISYM">     2</i>
   <i name="SYMPREC">      0.00001000</i>
  </separator>
  <separator name="dos" >
   <i type="logical" name="LORBIT"> F  </i>
   <v name="RWIGS">     -1.00000000</v>
   <i type="int" name="NEDOS">   301</i>
   <i name="EMIN">     10.00000000</i>
   <i name="EMAX">    -10.00000000</i>
   <i name="EFERMI">      0.00000000</i>
  </separator>
  <separator name="writing" >
   <i type="int" name="NWRITE">     2</i>
   <i type="logical" name="LWAVE"> T  </i>
   <i type="logical" name="LCHARG"> T  </i>
   <i type="logical" name="LPARD"> F  </i>
   <i type="logical" name="LVTOT"> F  </i>
   <i type="logical" name="LVHAR"> F  </i>
   <i type="logical" name="LELF"> F  </i>
   <i type="logical" name="LOPTICS"> F  </i>
   <v name="STM">      0.00000000      0.00000000      0.00000000      0.00000000      0.00000000      0.00000000      0.00000000</v>
  </separator>
  <separator name="performance" >
   <i type="int" name="NPAR">     4</i>
   <i type="int" name="NSIM">     4</i>
   <i type="int" name="NBLK">    -1</i>
   <i type="logical" name="LPLANE"> T  </i>
   <i type="logical" name="LSCALAPACK"> F  </i>
   <i type="logical" name="LSCAAWARE"> F  </i>
   <i type="logical" name="LSCALU"> F  </i>
   <i type="logical" name="LASYNC"> F  </i>
   <i type="logical" name="LORBITALREAL"> F  </i>
  </separator>
  <separator name="miscellaneous" >
   <i type="int" name="IDIOT">     3</i>
   <i type="logical" name="LMUSIC"> F  </i>
   <v name="POMASS">     55.84700000</v>
   <v name="DARWINR">      0.00000000</v>
   <v name="DARWINV">      1.00000000</v>
   <i type="logical" name="LCORR"> T  </i>
  </separator>
  <i type="logical" name="GGA_COMPAT"> T  </i>
  <i type="logical" name="LBERRY"> F  </i>
  <i type="int" name="ICORELEVEL">     0</i>
  <i type="logical" name="LDAU"> F  </i>
  <i type="int" name="I_CONSTRAINED_M">     0</i>
  <separator name="electronic exchange-correlation" >
   <i type="string" name="GGA">--</i>
   <i type="int" name="VOSKOWN">     0</i>
   <i type="logical" name="LHFCALC"> F  </i>
   <i type="string" name="PRECFOCK"></i>
   <i type="logical" name="LSYMGRAD"> F  </i>
   <i type="logical" name="LHFONE"> F  </i>
   <i type="logical" name="LRHFCALC"> F  </i>
   <i type="logical" name="LTHOMAS"> F  </i>
   <i type="logical" name="LMODELHF"> F  </i>
   <i name="ENCUT4O">     -1.00000000</i>
   <i type="int" name="EXXOEP">     0</i>
   <i type="int" name="FOURORBIT">     0</i>
   <i name="AEXX">      0.00000000</i>
   <i name="HFALPHA">      0.00000000</i>
   <i name="MCALPHA">      0.00000000</i>
   <i name="ALDAX">      1.00000000</i>
   <i name="AGGAX">      1.00000000</i>
   <i name="ALDAC">      1.00000000</i>
   <i name="AGGAC">      1.00000000</i>
   <i type="int" name="NKREDX">     1</i>
   <i type="int" name="NKREDY">     1</i>
   <i type="int" name="NKREDZ">     1</i>
   <i type="logical" name="SHIFTRED"> F  </i>
   <i type="logical" name="ODDONLY"> F  </i>
   <i type="logical" name="EVENONLY"> F  </i>
   <i type="int" name="LMAXFOCK">     0</i>
   <i type="int" name="NMAXFOCKAE">     0</i>
   <i type="logical" name="LFOCKAEDFT"> F  </i>
   <i name="HFSCREEN">      0.00000000</i>
   <i name="HFSCREENC">      0.00000000</i>
   <i type="int" name="NBANDSGWLOW">     0</i>
  </separator>
  <separator name="vdW DFT" >
   <i type="logical" name="LUSE_VDW"> F  </i>
   <i name="Zab_VDW">     -0.84910000</i>
   <i name="PARAM1">      0.12340000</i>
   <i name="PARAM2">      1.00000000</i>
   <i name="PARAM3">      0.00000000</i>
  </separator>
  <separator name="model GW" >
   <i type="int" name="MODEL_GW">     0</i>
   <i name="MODEL_EPS0">      5.90490000</i>
   <i name="MODEL_ALPHA">      1.00000000</i>
  </separator>
  <separator name="linear response parameters" >
   <i type="logical" name="LEPSILON"> F  </i>
   <i type="logical" name="LRPA"> F  </i>
   <i type="logical" name="LNABLA"> F  </i>
   <i type="logical" name="LVEL"> F  </i>
   <i type="int" name="KINTER">     0</i>
   <i name="CSHIFT">      0.10000000</i>
   <i name="OMEGAMAX">     -1.00000000</i>
   <i name="DEG_THRESHOLD">      0.00200000</i>
  </separator>
  <separator name="orbital magnetization" >
   <i type="logical" name="NUCIND"> F  </i>
   <v name="MAGPOS">      0.00000000      0.00000000      0.00000000</v>
   <i type="logical" name="LNICSALL"> T  </i>
   <i type="logical" name="ORBITALMAG"> F  </i>
   <i type="logical" name="LMAGBLOCH"> F  </i>
   <i type="logical" name="LCHIMAG"> F  </i>
   <i type="logical" name="LGAUGE"> T  </i>
   <i type="int" name="MAGATOM">     0</i>
   <v name="MAGDIPOL">      0.00000000      0.00000000      0.00000000</v>
   <v name="AVECCONST">      0.00000000      0.00000000      0.00000000</v>
  </separator>
  <separator name="response functions" >
   <i type="logical" name="LADDER"> F  </i>
   <i type="logical" name="LFXC"> F  </i>
   <i type="logical" name="LHARTREE"> T  </i>
   <i type="int" name="IBSE">     0</i>
   <v type="int" name="KPOINT">    -1     0     0     0</v>
   <i type="logical" name="LTCTE"> F  </i>
   <i type="logical" name="LTETE"> F  </i>
   <i type="logical" name="LTRIPLET"> F  </i>
   <i type="logical" name="LFXCEPS"> F  </i>
   <i type="logical" name="LFXHEG"> F  </i>
   <i type="int" name="NATURALO">     0</i>
   <i type="logical" name="L2ORDER"> F  </i>
   <i type="logical" name="LUSEW"> F  </i>
   <i name="ENCUTGW">     -2.00000000</i>
   <i name="ENCUTGWSOFT">     -2.00000000</i>
   <i name="ENCUTLF">     -1.00000000</i>
   <i type="int" name="LMAXMP2">    -1</i>
   <i name="SCISSOR">      0.00000000</i>
   <i type="int" name="NOMEGA">     0</i>
   <i type="int" name="NOMEGAR">     0</i>
   <i type="int" name="NBANDSGW">    -1</i>
   <i type="int" name="NBANDSO">    -1</i>
   <i type="int" name="NBANDSV">    -1</i>
   <i type="int" name="NELM">     1</i>
   <i type="int" name="NELMHF">     1</i>
   <i type="int" name="DIM">     3</i>
   <i type="int" name="ANTIRES">     0</i>
   <i name="OMEGAMAX">    -30.00000000</i>
   <i name="OMEGAMIN">    -30.00000000</i>
   <i name="OMEGATL">   -200.00000000</i>
   <i type="int" name="OMEGAGRID">     0</i>
   <i name="CSHIFT">     -0.10000000</i>
   <i type="logical" name="SELFENERGY"> F  </i>
   <i type="logical" name="LSPECTRAL"> F  </i>
   <i type="logical" name="LSPECTRALGW"> F  </i>
   <i type="logical" name="LSINGLES"> F  </i>
   <i type="logical" name="LFERMIGW"> F  </i>
   <i type="logical" name="ODDONLYGW"> F  </i>
   <i type="logical" name="EVENONLYGW"> F  </i>
   <i type="int" name="NKREDLFX">     1</i>
   <i type="int" name="NKREDLFY">     1</i>
   <i type="int" name="NKREDLFZ">     1</i>
   <i type="int" name="MAXMEM">  1800</i>
   <i type="int" name="TELESCOPE">     0</i>
   <i type="int" name="TAUPAR">     1</i>
   <i type="int" name="OMEGAPAR">    -1</i>
   <i name="LAMBDA">      1.00000000</i>
  </separator>
  <separator name="External order field" >
   <i name="OFIELD_KAPPA">      0.00000000</i>
   <v name="OFIELD_K">      0.00000000      0.00000000      0.00000000</v>
   <i name="OFIELD_Q6_NEAR">      0.00000000</i>
   <i name="OFIELD_Q6_FAR">      0.00000000</i>
   <i name="OFIELD_A">      0.00000000</i>
  </separator>
 </parameters>
 <atominfo>
  <atoms>       1 </atoms>
  <types>       1 </types>
  <array name="atoms" >
   <dimension dim="1">ion</dimension>
   <field type="string">element</field>
   <field type="int">atomtype</field>
   <set>
    <rc><c>Fe</c><c>   1</c></rc>
   </set>
  </array>
  <array name="atomtypes" >
   <dimension dim="1">type</dimension>
   <field type="int">atomspertype</field>
   <field type="string">element</field>
   <field>mass</field>
   <field>valence</field>
   <field type="string">pseudopotential</field>
   <set>
    <rc><c>   1</c><c>Fe</c><c>     55.84700000</c><c>      8.00000000</c><c>  PAW_PBE Fe 06Sep2000                  </c></rc>
   </set>
  </array>
 </atominfo>
 <structure name="initialpos" >
  <crystal>
   <varray name="basis" >
    <v>      -1.35000000       1.35000000       1.35000000 </v>
    <v>       1.35000000      -1.35000000       1.35000000 </v>
    <v>       1.35000000       1.35000000      -1.35000000 </v>
   </varray>
   <i name="volume">      9.84150000 </i>
   <varray name="rec_basis" >
    <v>       0.00000000       0.37037037       0.37037037 </v>
    <v>       0.37037037       0.00000000       0.37037037 </v>
    <v>       0.37037037       0.37037037       0.00000000 </v>
   </varray>
  </crystal>
  <varray name="positions" >
   <v>       0.00000000       0.00000000       0.00000000 </v>
  </varray>
 </structure>
 <calculation>
  <scstep>
   <time name="dav">    3.62    2.30</time>
   <time name="total">    3.78    2.41</time>
   <energy>
    <i name="alphaZ">     70.22687192 </i>
    <i name="ewald">   -621.08666213 </i>
    <i name="hartreedc">   -100.72981166 </i>
    <i name="XCdc">      6.47430218 </i>
    <i name="pawpsdc">    552.89180568 </i>
    <i name="pawaedc">   -560.64780826 </i>
    <i name="eentropy">      0.00000000 </i>
    <i name="bandstr">     76.56394132 </i>
    <i name="atom">    594.30652615 </i>
    <i name="e_fr_energy">     17.99916520 </i>
    <i name="e_wo_entrp">     17.99916520 </i>
    <i name="e_0_energy">     17.99916520 </i>
   </energy>
  </scstep>
  <scstep>
   <time name="dav">    4.07    2.60</time>
   <time name="total">    4.14    2.64</time>
   <energy>
    <i name="e_fr_energy">     -7.72873183 </i>
    <i name="e_wo_entrp">     -7.72873183 </i>
    <i name="e_0_energy">     -7.72873183 </i>
   </energy>
  </scstep>
  <scstep>
   <time name="dav">    4.49    2.85</time>
   <time name="total">    4.57    2.90</time>
   <energy>
    <i name="e_fr_energy">     -8.30877306 </i>
    <i name="e_wo_entrp">     -8.30877306 </i>
    <i name="e_0_energy">     -8.30877306 </i>
   </energy>
  </scstep>
  <scstep>
   <time name="dav">    4.14    2.64</time>
   <time name="total">    4.26    2.72</time>
   <energy>
    <i name="e_fr_energy">     -8.31067550 </i>
    <i name="e_wo_entrp">     -8.31067550 </i>
    <i name="e_0_energy">     -8.31067550 </i>
   </energy>
  </scstep>
  <scstep>
   <time name="dav">    3.49    2.19</time>
   <time name="total">    3.64    2.28</time>
   <energy>
    <i name="e_fr_energy">     -8.31068521 </i>
    <i name="e_wo_entrp">     -8.31068521 </i>
    <i name="e_0_energy">     -8.31068521 </i>
   </energy>
  </scstep>
  <scstep>
   <time name="dav">    3.90    2.49</time>
   <time name="total">    4.17    2.66</time>
   <energy>
    <i name="e_fr_energy">     -8.09698897 </i>
    <i name="e_wo_entrp">     -8.09698897 </i>
    <i name="e_0_energy">     -8.09698897 </i>
   </energy>
  </scstep>
  <scstep>
   <time name="dav">    4.24    2.75</time>
   <time name="total">    4.42    2.86</time>
   <energy>
    <i name="e_fr_energy">     -8.09849920 </i>
    <i name="e_wo_entrp">     -8.09849920 </i>
    <i name="e_0_energy">     -8.09849920 </i>
   </energy>
  </scstep>
  <scstep>
   <time name="dav">    4.44    2.88</time>
   <time name="total">    4.62    3.00</time>
   <energy>
    <i name="e_fr_energy">     -8.08408677 </i>
    <i name="e_wo_entrp">     -8.08408677 </i>
    <i name="e_0_energy">     -8.08408677 </i>
   </energy>
  </scstep>
  <scstep>
   <time name="dav">    4.89    3.20</time>
   <time name="total">    5.06    3.31</time>
   <energy>
    <i name="e_fr_energy">     -8.07741231 </i>
    <i name="e_wo_entrp">     -8.07741231 </i>
    <i name="e_0_energy">     -8.07741231 </i>
   </energy>
  </scstep>
  <scstep>
   <time name="dav">    4.13    2.55</time>
   <time name="total">    4.33    2.67</time>
   <energy>
    <i name="e_fr_energy">     -8.07838147 </i>
    <i name="e_wo_entrp">     -8.07838147 </i>
    <i name="e_0_energy">     -8.07838147 </i>
   </energy>
  </scstep>
  <scstep>
   <time name="dav">    4.59    2.94</time>
   <time name="total">    4.77    3.05</time>
   <energy>
    <i name="e_fr_energy">     -8.07851044 </i>
    <i name="e_wo_entrp">     -8.07851044 </i>
    <i name="e_0_energy">     -8.07851044 </i>
   </energy>
  </scstep>
  <scstep>
   <time name="dav">    3.83    2.37</time>
   <time name="total">    4.11    2.54</time>
   <energy>
    <i name="e_fr_energy">     -8.07856578 </i>
    <i name="e_wo_entrp">     -8.07856578 </i>
    <i name="e_0_energy">     -8.07856578 </i>
   </energy>
  </scstep>
  <scstep>
   <time name="dav">    2.08    1.31</time>
   <time name="total">    2.26    1.43</time>
   <energy>
    <i name="e_fr_energy">     -8.07856684 </i>
    <i name="e_wo_entrp">     -8.07856684 </i>
    <i name="e_0_energy">     -8.07856684 </i>
   </energy>
  </scstep>
  <scstep>
   <time name="dav">    2.93    1.88</time>
   <time name="total">    3.13    2.01</time>
   <energy>
    <i name="e_fr_energy">     -8.07854362 </i>
    <i name="e_wo_entrp">     -8.07854362 </i>
    <i name="e_0_energy">     -8.07854362 </i>
   </energy>
  </scstep>
  <scstep>
   <time name="dav">    2.68    1.68</time>
   <time name="total">    2.87    1.80</time>
   <energy>
    <i name="e_fr_energy">     -8.07854139 </i>
    <i name="e_wo_entrp">     -8.07854139 </i>
    <i name="e_0_energy">     -8.07854139 </i>
   </energy>
  </scstep>
  <scstep>
   <time name="dav">    2.60    1.63</time>
   <time name="total">    2.77    1.73</time>
   <energy>
    <i name="e_fr_energy">     -8.07853970 </i>
    <i name="e_wo_entrp">     -8.07853970 </i>
    <i name="e_0_energy">     -8.07853970 </i>
   </energy>
  </scstep>
  <scstep>
   <time name="dav">    2.54    1.54</time>
   <time name="total">    2.70    1.64</time>
   <energy>
    <i name="alphaZ">     70.22687192 </i>
    <i name="ewald">   -621.08666213 </i>
    <i name="hartreedc">    -84.46652508 </i>
    <i name="XCdc">      4.56733493 </i>
    <i name="pawpsdc">    801.17249626 </i>
    <i name="pawaedc">   -810.84806074 </i>
    <i name="eentropy">      0.00000000 </i>
    <i name="bandstr">     38.04947866 </i>
    <i name="atom">    594.30652615 </i>
    <i name="e_fr_energy">     -8.07854001 </i>
    <i name="e_wo_entrp">     -8.07854001 </i>
    <i name="e_0_energy">     -8.07854001 </i>
   </energy>
  </scstep>
  <structure>
   <crystal>
    <varray name="basis" >
     <v>      -1.35000000       1.35000000       1.35000000 </v>
     <v>       1.35000000      -1.35000000       1.35000000 </v>
     <v>       1.35000000       1.35000000      -1.35000000 </v>
    </varray>
    <i name="volume">      9.84150000 </i>
    <varray name="rec_basis" >
     <v>       0.00000000       0.37037037       0.37037037 </v>
     <v>       0.37037037       0.00000000       0.37037037 </v>
     <v>       0.37037037       0.37037037       0.00000000 </v>
    </varray>
   </crystal>
   <varray name="positions" >
    <v>       0.00000000       0.00000000       0.00000000 </v>
   </varray>
  </structure>
  <varray name="forces" >
   <v>       0.00000000       0.00000000       0.00000000 </v>
  </varray>
  <varray name="stress" >
   <v>     390.32568076      -0.00000000       0.00000000 </v>
   <v>       0.00000000     390.32568076       0.00000000 </v>
   <v>       0.00000000       0.00000000     390.32568076 </v>
  </varray>
  <energy>
   <i name="e_fr_energy">     -8.07854001 </i>
   <i name="e_wo_entrp">     -8.07854001 </i>
   <i name="e_0_energy">      0.00000000 </i>
  </energy>
  <time name="totalsc">   66.19   42.17</time>
  <eigenvalues>
   <array>
    <dimension dim="1">band</dimension>
    <dimension dim="2">kpoint</dimension>
    <dimension dim="3">spin</dimension>
    <field>eigene</field>
    <field>occ</field>
    <set>
     <set comment="spin 1">
      <set comment="kpoint 1">
       <r>   -0.8230    1.0000 </r>
       <r>    4.5490    1.0000 </r>
       <r>    4.5490    1.0000 </r>
       <r>    5.5596    1.0000 </r>
       <r>    6.3123    1.0000 </r>
       <r>    6.3123    1.0033 </r>
       <r>   30.4589    0.0000 </r>
       <r>   30.4589    0.0000 </r>
       <r>   34.8282    0.0000 </r>
       <r>   35.9924    0.0000 </r>
       <r>   41.1575    0.0000 </r>
       <r>   41.1575    0.0000 </r>
      </set>
      <set comment="kpoint 2">
       <r>    0.9043    1.0000 </r>
       <r>    4.0311    1.0000 </r>
       <r>    4.2950    1.0000 </r>
       <r>    6.2363    1.0000 </r>
       <r>    6.4763    1.0017 </r>
       <r>    6.8298    0.8555 </r>
       <r>   25.0394    0.0000 </r>
       <r>   28.0621    0.0000 </r>
       <r>   31.6237    0.0000 </r>
       <r>   35.4934    0.0000 </r>
       <r>   41.0171    0.0000 </r>
       <r>   41.7708    0.0000 </r>
      </set>
      <set comment="kpoint 3">
       <r>    1.9478    1.0000 </r>
       <r>    3.5928    1.0000 </r>
       <r>    5.2620    1.0000 </r>
       <r>    6.4220    1.0000 </r>
       <r>    6.6083    1.0350 </r>
       <r>    8.5322   -0.0084 </r>
       <r>   19.3924    0.0000 </r>
       <r>   26.1892    0.0000 </r>
       <r>   28.9372    0.0000 </r>
       <r>   35.2553    0.0000 </r>
       <r>   40.2908    0.0000 </r>
       <r>   45.2540    0.0000 </r>
      </set>
      <set comment="kpoint 4">
       <r>    1.9279    1.0000 </r>
       <r>    3.4256    1.0000 </r>
       <r>    6.4297    1.0000 </r>
       <r>    6.5089    1.0000 </r>
       <r>    6.6635    1.0729 </r>
       <r>    9.9630   -0.0044 </r>
       <r>   16.2242    0.0000 </r>
       <r>   25.4828    0.0000 </r>
       <r>   27.9318    0.0000 </r>
       <r>   35.1037    0.0000 </r>
       <r>   40.2455    0.0000 </r>
       <r>   44.8788    0.0000 </r>
      </set>
      <set comment="kpoint 5">
       <r>   -1.5109    1.0000 </r>
       <r>    4.8097    1.0000 </r>
       <r>    4.8097    1.0000 </r>
       <r>    4.9205    1.0000 </r>
       <r>    6.2120    1.0000 </r>
       <r>    6.4732    1.0000 </r>
       <r>   32.1714    0.0000 </r>
       <r>   33.6709    0.0000 </r>
       <r>   33.6709    0.0000 </r>
       <r>   37.8412    0.0000 </r>
       <r>   40.8219    0.0000 </r>
       <r>   40.8219    0.0000 </r>
      </set>
      <set comment="kpoint 6">
       <r>    2.4453    1.0000 </r>
       <r>    3.6737    1.0000 </r>
       <r>    3.9543    1.0000 </r>
       <r>    6.3420    1.0000 </r>
       <r>    6.6502    1.0013 </r>
       <r>    8.7952   -0.0270 </r>
       <r>   22.3040    0.0000 </r>
       <r>   23.3916    0.0000 </r>
       <r>   27.8121    0.0000 </r>
       <r>   37.6250    0.0000 </r>
       <r>   42.1349    0.0000 </r>
       <r>   44.8124    0.0000 </r>
      </set>
      <set comment="kpoint 7">
       <r>    2.6878    1.0000 </r>
       <r>    3.4752    1.0000 </r>
       <r>    4.7330    1.0000 </r>
       <r>    6.5250    1.0000 </r>
       <r>    6.7702    1.0112 </r>
       <r>   11.5160   -0.0028 </r>
       <r>   17.5576    0.0000 </r>
       <r>   21.6285    0.0000 </r>
       <r>   26.3005    0.0000 </r>
       <r>   38.2079    0.0000 </r>
       <r>   42.9936    0.0000 </r>
       <r>   45.6805    0.0000 </r>
      </set>
      <set comment="kpoint 8">
       <r>   -0.1915    1.0000 </r>
       <r>    4.4687    1.0000 </r>
       <r>    4.7067    1.0000 </r>
       <r>    5.6888    1.0000 </r>
       <r>    5.9015    1.0000 </r>
       <r>    6.6056    1.0089 </r>
       <r>   27.9543    0.0000 </r>
       <r>   31.3350    0.0000 </r>
       <r>   32.6480    0.0000 </r>
       <r>   37.2254    0.0000 </r>
       <r>   37.7058    0.0000 </r>
       <r>   39.2713    0.0000 </r>
      </set>
      <set comment="kpoint 9">
       <r>    3.0483    1.0000 </r>
       <r>    3.9332    1.0000 </r>
       <r>    3.9332    1.0000 </r>
       <r>    6.7013    1.0000 </r>
       <r>    6.7013    1.0038 </r>
       <r>   15.3440    0.0000 </r>
       <r>   15.3440    0.0000 </r>
       <r>   18.4883    0.0000 </r>
       <r>   25.7701    0.0000 </r>
       <r>   40.8302    0.0000 </r>
       <r>   40.8302    0.0000 </r>
       <r>   49.3697    0.0000 </r>
      </set>
      <set comment="kpoint 10">
       <r>    1.4784    1.0000 </r>
       <r>    3.9670    1.0000 </r>
       <r>    4.7859    1.0000 </r>
       <r>    6.1662    1.0000 </r>
       <r>    6.8371    1.0155 </r>
       <r>    6.9559    0.6649 </r>
       <r>   22.0818    0.0000 </r>
       <r>   28.6952    0.0000 </r>
       <r>   30.7787    0.0000 </r>
       <r>   35.4460    0.0000 </r>
       <r>   37.6683    0.0000 </r>
       <r>   40.5288    0.0000 </r>
      </set>
      <set comment="kpoint 11">
       <r>    1.3564    1.0000 </r>
       <r>    4.1778    1.0000 </r>
       <r>    4.4558    1.0000 </r>
       <r>    5.7425    1.0000 </r>
       <r>    6.6219    1.0038 </r>
       <r>    7.0775    0.7027 </r>
       <r>   25.0422    0.0000 </r>
       <r>   26.3722    0.0000 </r>
       <r>   32.9297    0.0000 </r>
       <r>   33.7695    0.0000 </r>
       <r>   37.6788    0.0000 </r>
       <r>   42.6630    0.0000 </r>
      </set>
      <set comment="kpoint 12">
       <r>    1.7965    1.0000 </r>
       <r>    3.6293    1.0000 </r>
       <r>    5.7403    1.0000 </r>
       <r>    6.3902    1.0000 </r>
       <r>    7.9829    0.2840 </r>
       <r>    8.2524    0.0035 </r>
       <r>   17.1498    0.0000 </r>
       <r>   27.1560    0.0000 </r>
       <r>   29.0631    0.0000 </r>
       <r>   34.6597    0.0000 </r>
       <r>   38.1287    0.0000 </r>
       <r>   42.0134    0.0000 </r>
      </set>
      <set comment="kpoint 13">
       <r>    2.3424    1.0000 </r>
       <r>    3.8063    1.0000 </r>
       <r>    4.5362    1.0000 </r>
       <r>    6.1279    1.0000 </r>
       <r>    7.1226    1.0057 </r>
       <r>    9.0940   -0.0380 </r>
       <r>   19.7672    0.0000 </r>
       <r>   23.8849    0.0000 </r>
       <r>   30.8521    0.0000 </r>
       <r>   34.2986    0.0000 </r>
       <r>   38.2020    0.0000 </r>
       <r>   43.4051    0.0000 </r>
      </set>
      <set comment="kpoint 14">
       <r>    2.3036    1.0000 </r>
       <r>    3.7984    1.0000 </r>
       <r>    4.7379    1.0000 </r>
       <r>    6.2684    1.0000 </r>
       <r>    7.5434    0.6638 </r>
       <r>   11.2095   -0.0015 </r>
       <r>   16.2895    0.0000 </r>
       <r>   23.1160    0.0000 </r>
       <r>   29.8926    0.0000 </r>
       <r>   34.7912    0.0000 </r>
       <r>   38.9077    0.0000 </r>
       <r>   42.7286    0.0000 </r>
      </set>
      <set comment="kpoint 15">
       <r>    3.1508    1.0000 </r>
       <r>    3.4278    1.0000 </r>
       <r>    4.1079    1.0000 </r>
       <r>    6.5058    1.0000 </r>
       <r>    7.0829    1.0603 </r>
       <r>   12.7089   -0.0004 </r>
       <r>   17.5186    0.0000 </r>
       <r>   19.2903    0.0000 </r>
       <r>   31.5089    0.0000 </r>
       <r>   34.4203    0.0000 </r>
       <r>   36.8742    0.0000 </r>
       <r>   45.6835    0.0000 </r>
      </set>
      <set comment="kpoint 16">
       <r>    3.4587    1.0000 </r>
       <r>    3.4587    1.0000 </r>
       <r>    3.7543    1.0000 </r>
       <r>    6.6304    1.0000 </r>
       <r>    6.6304    1.0000 </r>
       <r>   11.5619   -0.0036 </r>
       <r>   20.5219    0.0000 </r>
       <r>   20.5219    0.0000 </r>
       <r>   22.6386    0.0000 </r>
       <r>   42.5302    0.0000 </r>
       <r>   45.9603    0.0000 </r>
       <r>   45.9603    0.0000 </r>
      </set>
      <set comment="kpoint 17">
       <r>    3.3379    1.0000 </r>
       <r>    3.4163    1.0000 </r>
       <r>    4.2408    1.0000 </r>
       <r>    6.6747    1.0000 </r>
       <r>    6.6970    1.0000 </r>
       <r>   14.5486    0.0000 </r>
       <r>   16.7530    0.0000 </r>
       <r>   19.9043    0.0000 </r>
       <r>   21.5303    0.0000 </r>
       <r>   43.8705    0.0000 </r>
       <r>   47.6877    0.0000 </r>
       <r>   48.5724    0.0000 </r>
      </set>
      <set comment="kpoint 18">
       <r>    0.9389    1.0000 </r>
       <r>    4.8830    1.0000 </r>
       <r>    4.9908    1.0000 </r>
       <r>    4.9908    1.0000 </r>
       <r>    5.7016    1.0000 </r>
       <r>    7.0780    0.8451 </r>
       <r>   27.7972    0.0000 </r>
       <r>   29.5811    0.0000 </r>
       <r>   29.5811    0.0000 </r>
       <r>   31.5387    0.0000 </r>
       <r>   41.6921    0.0000 </r>
       <r>   41.6921    0.0000 </r>
      </set>
      <set comment="kpoint 19">
       <r>    2.2553    1.0000 </r>
       <r>    3.9213    1.0000 </r>
       <r>    4.8121    1.0000 </r>
       <r>    5.6447    1.0000 </r>
       <r>    6.8061    1.0441 </r>
       <r>    8.0993    0.0560 </r>
       <r>   22.9843    0.0000 </r>
       <r>   26.8220    0.0000 </r>
       <r>   27.5812    0.0000 </r>
       <r>   32.1268    0.0000 </r>
       <r>   40.7994    0.0000 </r>
       <r>   42.7371    0.0000 </r>
      </set>
      <set comment="kpoint 20">
       <r>    2.4139    1.0000 </r>
       <r>    3.8603    1.0000 </r>
       <r>    4.5622    1.0000 </r>
       <r>    5.9263    1.0000 </r>
       <r>    7.8790    0.1278 </r>
       <r>   10.8088   -0.0096 </r>
       <r>   17.6272    0.0000 </r>
       <r>   25.0317    0.0000 </r>
       <r>   26.6603    0.0000 </r>
       <r>   34.6210    0.0000 </r>
       <r>   39.7951    0.0000 </r>
       <r>   40.7938    0.0000 </r>
      </set>
      <set comment="kpoint 21">
       <r>    2.8391    1.0000 </r>
       <r>    3.1344    1.0000 </r>
       <r>    4.9104    1.0000 </r>
       <r>    6.1415    1.0000 </r>
       <r>    7.3456    0.8893 </r>
       <r>   10.7580   -0.0122 </r>
       <r>   20.6197    0.0000 </r>
       <r>   21.4543    0.0000 </r>
       <r>   29.1627    0.0000 </r>
       <r>   31.0260    0.0000 </r>
       <r>   39.4991    0.0000 </r>
       <r>   43.1742    0.0000 </r>
      </set>
      <set comment="kpoint 22">
       <r>    2.7038    1.0000 </r>
       <r>    3.1726    1.0000 </r>
       <r>    4.6714    1.0000 </r>
       <r>    6.5361    1.0001 </r>
       <r>    7.6334    0.2630 </r>
       <r>   13.9814    0.0000 </r>
       <r>   16.6567    0.0000 </r>
       <r>   20.3103    0.0000 </r>
       <r>   29.2084    0.0000 </r>
       <r>   32.4925    0.0000 </r>
       <r>   37.1692    0.0000 </r>
       <r>   42.0580    0.0000 </r>
      </set>
      <set comment="kpoint 23">
       <r>    2.5864    1.0000 </r>
       <r>    3.0635    1.0000 </r>
       <r>    5.9515    1.0000 </r>
       <r>    5.9515    1.0000 </r>
       <r>    6.8493    1.1669 </r>
       <r>   10.0584   -0.0176 </r>
       <r>   23.5640    0.0000 </r>
       <r>   23.5640    0.0000 </r>
       <r>   25.5789    0.0000 </r>
       <r>   28.1624    0.0000 </r>
       <r>   41.5201    0.0000 </r>
       <r>   45.9618    0.0000 </r>
      </set>
      <set comment="kpoint 24">
       <r>    2.3622    1.0000 </r>
       <r>    2.5261    1.0000 </r>
       <r>    6.1243    1.0000 </r>
       <r>    6.4822    1.0051 </r>
       <r>    7.7355    0.0791 </r>
       <r>   13.4607    0.0000 </r>
       <r>   18.7560    0.0000 </r>
       <r>   21.4962    0.0000 </r>
       <r>   25.9072    0.0000 </r>
       <r>   29.0383    0.0000 </r>
       <r>   36.7752    0.0000 </r>
       <r>   45.3821    0.0000 </r>
      </set>
      <set comment="kpoint 25">
       <r>    2.1784    1.0000 </r>
       <r>    2.1784    1.0000 </r>
       <r>    6.2584    1.0000 </r>
       <r>    7.5345    0.9663 </r>
       <r>    7.5345    0.1140 </r>
       <r>   17.1339    0.0000 </r>
       <r>   17.1339    0.0000 </r>
       <r>   18.5312    0.0000 </r>
       <r>   27.4186    0.0000 </r>
       <r>   27.4186    0.0000 </r>
       <r>   34.3269    0.0000 </r>
       <r>   46.0096    0.0000 </r>
      </set>
      <set comment="kpoint 26">
       <r>    1.8412    1.0000 </r>
       <r>    1.8538    1.0000 </r>
       <r>    7.4818    1.0000 </r>
       <r>    7.4818    1.0074 </r>
       <r>    7.6914    0.0210 </r>
       <r>   16.4437    0.0000 </r>
       <r>   19.1643    0.0000 </r>
       <r>   19.1643    0.0000 </r>
       <r>   24.7953    0.0000 </r>
       <r>   26.0788    0.0000 </r>
       <r>   32.7352    0.0000 </r>
       <r>   49.0920    0.0000 </r>
      </set>
     </set>
     <set comment="spin 2">
      <set comment="kpoint 1">
       <r>   -0.6319    1.0000 </r>
       <r>    6.2567    1.0000 </r>
       <r>    6.2567    1.0000 </r>
       <r>    7.3596    0.6741 </r>
       <r>    8.8188    0.0000 </r>
       <r>    8.8188    0.0000 </r>
       <r>   30.6760    0.0000 </r>
       <r>   30.6760    0.0000 </r>
       <r>   34.6235    0.0000 </r>
       <r>   36.8306    0.0000 </r>
       <r>   41.4441    0.0000 </r>
       <r>   41.4441    0.0000 </r>
      </set>
      <set comment="kpoint 2">
       <r>    1.1946    1.0000 </r>
       <r>    5.6553    1.0000 </r>
       <r>    5.8840    1.0000 </r>
       <r>    8.6364   -0.0643 </r>
       <r>    8.6793    0.0000 </r>
       <r>    9.0190    0.0000 </r>
       <r>   25.6453    0.0000 </r>
       <r>   28.3991    0.0000 </r>
       <r>   32.3591    0.0000 </r>
       <r>   35.4788    0.0000 </r>
       <r>   41.6120    0.0000 </r>
       <r>   42.0453    0.0000 </r>
      </set>
      <set comment="kpoint 3">
       <r>    2.8482    1.0000 </r>
       <r>    5.1445    1.0000 </r>
       <r>    6.2640    1.0000 </r>
       <r>    8.7832   -0.0000 </r>
       <r>    9.1974    0.0000 </r>
       <r>   10.2733    0.0000 </r>
       <r>   20.3394    0.0000 </r>
       <r>   26.5074    0.0000 </r>
       <r>   29.5787    0.0000 </r>
       <r>   35.4884    0.0000 </r>
       <r>   40.8638    0.0000 </r>
       <r>   45.4570    0.0000 </r>
      </set>
      <set comment="kpoint 4">
       <r>    3.1163    1.0000 </r>
       <r>    4.9503    1.0000 </r>
       <r>    7.2855    1.0000 </r>
       <r>    8.8803    0.0000 </r>
       <r>    9.2756    0.0000 </r>
       <r>   11.3176    0.0000 </r>
       <r>   17.4947    0.0000 </r>
       <r>   25.7760    0.0000 </r>
       <r>   28.5242    0.0000 </r>
       <r>   35.4159    0.0000 </r>
       <r>   40.8460    0.0000 </r>
       <r>   44.9613    0.0000 </r>
      </set>
      <set comment="kpoint 5">
       <r>   -1.3289    1.0000 </r>
       <r>    6.5522    1.0000 </r>
       <r>    6.5522    1.0000 </r>
       <r>    6.6841    1.0390 </r>
       <r>    8.7087    0.0000 </r>
       <r>    9.0293    0.0000 </r>
       <r>   32.1411    0.0000 </r>
       <r>   33.5869    0.0000 </r>
       <r>   33.5869    0.0000 </r>
       <r>   38.2101    0.0000 </r>
       <r>   41.6150    0.0000 </r>
       <r>   41.6150    0.0000 </r>
      </set>
      <set comment="kpoint 6">
       <r>    3.0417    1.0000 </r>
       <r>    5.2064    1.0000 </r>
       <r>    5.3607    1.0000 </r>
       <r>    8.7496   -0.0002 </r>
       <r>    9.1968    0.0000 </r>
       <r>   10.5226    0.0000 </r>
       <r>   23.0229    0.0000 </r>
       <r>   24.0170    0.0000 </r>
       <r>   28.4226    0.0000 </r>
       <r>   37.6026    0.0000 </r>
       <r>   42.4561    0.0000 </r>
       <r>   45.1480    0.0000 </r>
      </set>
      <set comment="kpoint 7">
       <r>    3.8847    1.0000 </r>
       <r>    4.9340    1.0000 </r>
       <r>    5.8581    1.0000 </r>
       <r>    8.9341    0.0000 </r>
       <r>    9.2908    0.0000 </r>
       <r>   12.8411    0.0000 </r>
       <r>   18.5697    0.0000 </r>
       <r>   22.2818    0.0000 </r>
       <r>   26.8597    0.0000 </r>
       <r>   38.3205    0.0000 </r>
       <r>   43.1384    0.0000 </r>
       <r>   46.1315    0.0000 </r>
      </set>
      <set comment="kpoint 8">
       <r>    0.0220    1.0000 </r>
       <r>    6.1553    1.0000 </r>
       <r>    6.4052    1.0000 </r>
       <r>    7.5095    0.4302 </r>
       <r>    8.2695    0.0000 </r>
       <r>    9.1697    0.0000 </r>
       <r>   28.3782    0.0000 </r>
       <r>   31.4846    0.0000 </r>
       <r>   32.9477    0.0000 </r>
       <r>   37.5953    0.0000 </r>
       <r>   38.3327    0.0000 </r>
       <r>   39.7801    0.0000 </r>
      </set>
      <set comment="kpoint 9">
       <r>    4.4041    1.0000 </r>
       <r>    5.2256    1.0000 </r>
       <r>    5.2257    1.0000 </r>
       <r>    9.1526    0.0000 </r>
       <r>    9.1526    0.0000 </r>
       <r>   16.3695    0.0000 </r>
       <r>   16.3695    0.0000 </r>
       <r>   19.3529    0.0000 </r>
       <r>   26.3456    0.0000 </r>
       <r>   40.9081    0.0000 </r>
       <r>   40.9081    0.0000 </r>
       <r>   50.0518    0.0000 </r>
      </set>
      <set comment="kpoint 10">
       <r>    2.0212    1.0000 </r>
       <r>    5.5791    1.0000 </r>
       <r>    6.1827    1.0000 </r>
       <r>    8.3804   -0.0300 </r>
       <r>    8.8910    0.0000 </r>
       <r>    9.3356    0.0000 </r>
       <r>   22.8838    0.0000 </r>
       <r>   28.8607    0.0000 </r>
       <r>   31.3588    0.0000 </r>
       <r>   35.9384    0.0000 </r>
       <r>   38.1930    0.0000 </r>
       <r>   40.8419    0.0000 </r>
      </set>
      <set comment="kpoint 11">
       <r>    1.7172    1.0000 </r>
       <r>    5.8836    1.0000 </r>
       <r>    6.0445    1.0001 </r>
       <r>    7.9420   -0.0453 </r>
       <r>    8.5714    0.0000 </r>
       <r>    9.4880    0.0000 </r>
       <r>   25.6709    0.0000 </r>
       <r>   26.9184    0.0000 </r>
       <r>   33.1793    0.0000 </r>
       <r>   34.2844    0.0000 </r>
       <r>   38.0824    0.0000 </r>
       <r>   43.0565    0.0000 </r>
      </set>
      <set comment="kpoint 12">
       <r>    2.9296    1.0000 </r>
       <r>    5.1952    1.0000 </r>
       <r>    7.0818    1.0000 </r>
       <r>    8.6593   -0.0000 </r>
       <r>    9.8607    0.0000 </r>
       <r>   10.0322    0.0000 </r>
       <r>   18.3224    0.0000 </r>
       <r>   27.2930    0.0000 </r>
       <r>   29.6361    0.0000 </r>
       <r>   35.1723    0.0000 </r>
       <r>   38.7361    0.0000 </r>
       <r>   42.1715    0.0000 </r>
      </set>
      <set comment="kpoint 13">
       <r>    3.3041    1.0000 </r>
       <r>    5.3827    1.0000 </r>
       <r>    5.9507    1.0004 </r>
       <r>    8.2802   -0.0051 </r>
       <r>    9.3661    0.0000 </r>
       <r>   10.8010    0.0000 </r>
       <r>   20.6804    0.0000 </r>
       <r>   24.4836    0.0000 </r>
       <r>   31.2167    0.0000 </r>
       <r>   34.7067    0.0000 </r>
       <r>   38.5340    0.0000 </r>
       <r>   43.8742    0.0000 </r>
      </set>
      <set comment="kpoint 14">
       <r>    3.5813    1.0000 </r>
       <r>    5.3523    1.0000 </r>
       <r>    6.1628    1.0005 </r>
       <r>    8.4790   -0.0000 </r>
       <r>    9.6618    0.0000 </r>
[...]
       </set>
       <set comment="band 5">
        <r>  0.0078  0.0017  0.0017  0.0140  0.0961  0.3333  0.1088  0.0961  0.3263 </r>
       </set>
       <set comment="band 6">
        <r>  0.0584  0.0533  0.0533  0.2570  0.0894  0.1484  0.0531  0.0894  0.1593 </r>
       </set>
       <set comment="band 7">
        <r>  0.0000  0.2216  0.2216  0.0000  0.1519  0.0000  0.1675  0.1519  0.0558 </r>
       </set>
       <set comment="band 8">
        <r>  0.4698  0.0428  0.0428  0.0269  0.0994  0.1029  0.0014  0.0994  0.0042 </r>
       </set>
       <set comment="band 9">
        <r>  0.0329  0.1937  0.1937  0.0831  0.0609  0.0971  0.0010  0.0609  0.0029 </r>
       </set>
       <set comment="band 10">
        <r>  0.0000  0.0453  0.0453  0.0000  0.0714  0.0000  0.3523  0.0714  0.1174 </r>
       </set>
       <set comment="band 11">
        <r>  0.0250  0.0066  0.0066  0.0359  0.0241  0.1833  0.1107  0.0241  0.3322 </r>
       </set>
       <set comment="band 12">
        <r>  0.1008  0.0344  0.0344  0.1765  0.2710  0.3294  0.0232  0.2710  0.0697 </r>
       </set>
      </set>
      <set comment="kpoint 16">
       <set comment="band 1">
        <r>  0.1661  0.1061  0.1061  0.1061  0.1449  0.1449  0.0000  0.1449  0.0000 </r>
       </set>
       <set comment="band 2">
        <r>  0.0000  0.0367  0.0033  0.0581  0.0276  0.4884  0.0024  0.3088  0.0451 </r>
       </set>
       <set comment="band 3">
        <r>  0.0000  0.0287  0.0621  0.0073  0.5222  0.0615  0.0451  0.2410  0.0024 </r>
       </set>
       <set comment="band 4">
        <r>  0.0000  0.0000  0.0000  0.0000  0.0010  0.0291  0.0223  0.0297  0.9055 </r>
       </set>
       <set comment="band 5">
        <r>  0.0000  0.0000  0.0000  0.0000  0.0389  0.0107  0.9055  0.0102  0.0223 </r>
       </set>
       <set comment="band 6">
        <r>  0.0742  0.0743  0.0743  0.0743  0.2204  0.2204  0.0000  0.2204  0.0000 </r>
       </set>
       <set comment="band 7">
        <r>  0.0000  0.0585  0.2202  0.0843  0.2932  0.1122  0.0455  0.0778  0.0045 </r>
       </set>
       <set comment="band 8">
        <r>  0.0000  0.1835  0.0218  0.1577  0.0290  0.2099  0.0045  0.2443  0.0455 </r>
       </set>
       <set comment="band 9">
        <r>  0.5908  0.0834  0.0834  0.0834  0.0024  0.0024  0.0000  0.0024  0.0000 </r>
       </set>
       <set comment="band 10">
        <r>  0.0000  0.0000  0.0000  0.0000  0.0000  0.0000  0.0000  0.0000  0.0000 </r>
       </set>
       <set comment="band 11">
        <r>  0.0000  0.0012  0.0065  0.0021  0.4429  0.1414  0.0695  0.0840  0.0004 </r>
       </set>
       <set comment="band 12">
        <r>  0.0000  0.0053  0.0000  0.0044  0.0026  0.3041  0.0004  0.3616  0.0695 </r>
       </set>
      </set>
      <set comment="kpoint 17">
       <set comment="band 1">
        <r>  0.0365  0.0000  0.0000  0.1594  0.0000  0.7067  0.0133  0.0000  0.0398 </r>
       </set>
       <set comment="band 2">
        <r>  0.0000  0.0553  0.0553  0.0000  0.4313  0.0000  0.0000  0.4313  0.0000 </r>
       </set>
       <set comment="band 3">
        <r>  0.0000  0.1450  0.1450  0.0000  0.3273  0.0000  0.0000  0.3273  0.0000 </r>
       </set>
       <set comment="band 4">
        <r>  0.0004  0.0000  0.0000  0.0004  0.0000  0.0697  0.2298  0.0000  0.6893 </r>
       </set>
       <set comment="band 5">
        <r>  0.0000  0.0000  0.0000  0.0000  0.0000  0.0000  0.7433  0.0000  0.2478 </r>
       </set>
       <set comment="band 6">
        <r>  0.0000  0.2036  0.2036  0.0000  0.2587  0.0000  0.0000  0.2587  0.0000 </r>
       </set>
       <set comment="band 7">
        <r>  0.2068  0.0000  0.0000  0.2301  0.0000  0.4661  0.0086  0.0000  0.0258 </r>
       </set>
       <set comment="band 8">
        <r>  0.0000  0.1867  0.1867  0.0000  0.2576  0.0000  0.0000  0.2576  0.0000 </r>
       </set>
       <set comment="band 9">
        <r>  0.5932  0.0000  0.0000  0.2053  0.0000  0.0407  0.0019  0.0000  0.0058 </r>
       </set>
       <set comment="band 10">
        <r>  0.0000  0.0005  0.0005  0.0000  0.1410  0.0000  0.0000  0.1410  0.0000 </r>
       </set>
       <set comment="band 11">
        <r>  0.0000  0.0295  0.0295  0.0000  0.0765  0.0000  0.0000  0.0765  0.0000 </r>
       </set>
       <set comment="band 12">
        <r>  0.0142  0.0000  0.0000  0.1090  0.0000  0.1793  0.1150  0.0000  0.3446 </r>
       </set>
      </set>
      <set comment="kpoint 18">
       <set comment="band 1">
        <r>  0.5976  0.0000  0.0000  0.2221  0.0000  0.0000  0.0143  0.0000  0.0430 </r>
       </set>
       <set comment="band 2">
        <r>  0.0000  0.0154  0.0154  0.0000  0.4776  0.0000  0.0000  0.4776  0.0000 </r>
       </set>
       <set comment="band 3">
        <r>  0.0000  0.0154  0.0154  0.0000  0.4776  0.0000  0.0000  0.4776  0.0000 </r>
       </set>
       <set comment="band 4">
        <r>  0.0000  0.0000  0.0000  0.0000  0.0000  0.0000  0.6892  0.0000  0.2297 </r>
       </set>
       <set comment="band 5">
        <r>  0.0000  0.0000  0.0000  0.0000  0.0000  0.9879  0.0000  0.0000  0.0000 </r>
       </set>
       <set comment="band 6">
        <r>  0.0361  0.0000  0.0000  0.0110  0.0000  0.0000  0.2354  0.0000  0.7061 </r>
       </set>
       <set comment="band 7">
        <r>  0.0000  0.0000  0.0000  0.0000  0.0000  0.0000  0.5481  0.0000  0.1827 </r>
       </set>
       <set comment="band 8">
        <r>  0.0000  0.1669  0.1669  0.0000  0.3555  0.0000  0.0000  0.3555  0.0000 </r>
       </set>
       <set comment="band 9">
        <r>  0.0000  0.1669  0.1669  0.0000  0.3555  0.0000  0.0000  0.3555  0.0000 </r>
       </set>
       <set comment="band 10">
        <r>  0.1499  0.0000  0.0000  0.2684  0.0000  0.0000  0.0001  0.0000  0.0002 </r>
       </set>
       <set comment="band 11">
        <r>  0.0000  0.1721  0.1721  0.0000  0.0002  0.0000  0.0000  0.0002  0.0000 </r>
       </set>
       <set comment="band 12">
        <r>  0.0000  0.1721  0.1721  0.0000  0.0002  0.0000  0.0000  0.0002  0.0000 </r>
       </set>
      </set>
      <set comment="kpoint 19">
       <set comment="band 1">
        <r>  0.3501  0.0077  0.0000  0.2638  0.0649  0.0000  0.0869  0.0000  0.1146 </r>
       </set>
       <set comment="band 2">
        <r>  0.0034  0.0366  0.0000  0.0173  0.1856  0.0000  0.4242  0.0000  0.2483 </r>
       </set>
       <set comment="band 3">
        <r>  0.0000  0.0000  0.0306  0.0000  0.0000  0.2848  0.0000  0.6667  0.0000 </r>
       </set>
       <set comment="band 4">
        <r>  0.0000  0.0309  0.0000  0.0111  0.6611  0.0000  0.2533  0.0000  0.0092 </r>
       </set>
       <set comment="band 5">
        <r>  0.0000  0.0000  0.0117  0.0000  0.0000  0.6992  0.0000  0.2714  0.0000 </r>
       </set>
       <set comment="band 6">
        <r>  0.1088  0.0107  0.0000  0.0726  0.0087  0.0000  0.1661  0.0000  0.6166 </r>
       </set>
       <set comment="band 7">
        <r>  0.0863  0.2739  0.0000  0.0324  0.3328  0.0000  0.1709  0.0000  0.0688 </r>
       </set>
       <set comment="band 8">
        <r>  0.0000  0.0000  0.5014  0.0000  0.0000  0.0139  0.0000  0.5285  0.0000 </r>
       </set>
       <set comment="band 9">
        <r>  0.0904  0.0034  0.0000  0.0737  0.0494  0.0000  0.4171  0.0000  0.0581 </r>
       </set>
       <set comment="band 10">
        <r>  0.0580  0.2040  0.0000  0.0612  0.1560  0.0000  0.0367  0.0000  0.1508 </r>
       </set>
       <set comment="band 11">
        <r>  0.0000  0.0000  0.1840  0.0000  0.0000  0.7042  0.0000  0.1432  0.0000 </r>
       </set>
       <set comment="band 12">
        <r>  0.0696  0.1897  0.0000  0.0109  0.0860  0.0000  0.2230  0.0000  0.0994 </r>
       </set>
      </set>
      <set comment="kpoint 20">
       <set comment="band 1">
        <r>  0.1232  0.0021  0.0000  0.0902  0.2778  0.0000  0.3999  0.0000  0.0243 </r>
       </set>
       <set comment="band 2">
        <r>  0.0075  0.1098  0.0000  0.1202  0.0173  0.0000  0.0777  0.0000  0.5656 </r>
       </set>
       <set comment="band 3">
        <r>  0.0000  0.0000  0.0299  0.0000  0.0000  0.4255  0.0000  0.5261  0.0000 </r>
       </set>
       <set comment="band 4">
        <r>  0.0238  0.0145  0.0000  0.0008  0.5210  0.0000  0.3974  0.0000  0.0043 </r>
       </set>
       <set comment="band 5">
        <r>  0.0000  0.0000  0.0034  0.0000  0.0000  0.5569  0.0000  0.4301  0.0000 </r>
       </set>
       <set comment="band 6">
        <r>  0.0746  0.1298  0.0000  0.2651  0.0339  0.0000  0.0323  0.0000  0.4239 </r>
       </set>
       <set comment="band 7">
        <r>  0.2753  0.2076  0.0000  0.0013  0.3435  0.0000  0.1240  0.0000  0.0301 </r>
       </set>
       <set comment="band 8">
        <r>  0.0000  0.0000  0.6182  0.0000  0.0000  0.0832  0.0000  0.2712  0.0000 </r>
       </set>
       <set comment="band 9">
        <r>  0.1007  0.0205  0.0000  0.0511  0.0148  0.0000  0.4703  0.0000  0.0068 </r>
       </set>
       <set comment="band 10">
        <r>  0.0091  0.1455  0.0000  0.0000  0.0322  0.0000  0.0300  0.0000  0.4681 </r>
       </set>
       <set comment="band 11">
        <r>  0.0000  0.0000  0.1526  0.0000  0.0000  0.6135  0.0000  0.3883  0.0000 </r>
       </set>
       <set comment="band 12">
        <r>  0.0063  0.1546  0.0000  0.2035  0.0046  0.0000  0.4541  0.0000  0.0998 </r>
       </set>
      </set>
      <set comment="kpoint 21">
       <set comment="band 1">
        <r>  0.1304  0.0056  0.0056  0.2159  0.0505  0.0004  0.1103  0.0505  0.3310 </r>
       </set>
       <set comment="band 2">
        <r>  0.0000  0.0249  0.0249  0.0000  0.0616  0.0000  0.5522  0.0616  0.1841 </r>
       </set>
       <set comment="band 3">
        <r>  0.0074  0.0200  0.0200  0.0116  0.2532  0.3306  0.0182  0.2532  0.0546 </r>
       </set>
       <set comment="band 4">
        <r>  0.0000  0.0209  0.0209  0.0000  0.3882  0.0000  0.1153  0.3882  0.0384 </r>
       </set>
       <set comment="band 5">
        <r>  0.0139  0.0005  0.0005  0.0070  0.1200  0.6113  0.0275  0.1200  0.0824 </r>
       </set>
       <set comment="band 6">
        <r>  0.1446  0.0236  0.0236  0.2406  0.0420  0.0390  0.1027  0.0420  0.3082 </r>
       </set>
       <set comment="band 7">
        <r>  0.0000  0.2264  0.2264  0.0000  0.1311  0.0000  0.2139  0.1311  0.0713 </r>
       </set>
       <set comment="band 8">
        <r>  0.2396  0.1567  0.1567  0.0302  0.1350  0.0335  0.0044  0.1350  0.0131 </r>
       </set>
       <set comment="band 9">
        <r>  0.0000  0.0674  0.0674  0.0000  0.0651  0.0000  0.4721  0.0651  0.1574 </r>
       </set>
       <set comment="band 10">
        <r>  0.0738  0.1177  0.1177  0.0245  0.0134  0.0030  0.0671  0.0134  0.2013 </r>
       </set>
       <set comment="band 11">
        <r>  0.0027  0.0744  0.0744  0.1166  0.0649  0.3052  0.0618  0.0649  0.1854 </r>
       </set>
       <set comment="band 12">
        <r>  0.1634  0.0006  0.0006  0.1976  0.1284  0.2747  0.0495  0.1284  0.1486 </r>
       </set>
      </set>
      <set comment="kpoint 22">
       <set comment="band 1">
        <r>  0.0289  0.0287  0.0264  0.0287  0.1527  0.0000  0.6459  0.0000  0.0000 </r>
       </set>
       <set comment="band 2">
        <r>  0.0000  0.0871  0.0000  0.0871  0.0000  0.0171  0.0000  0.0171  0.6938 </r>
       </set>
       <set comment="band 3">
        <r>  0.0369  0.0013  0.0266  0.0013  0.1631  0.3496  0.0390  0.3496  0.0000 </r>
       </set>
       <set comment="band 4">
        <r>  0.0118  0.0088  0.0160  0.0088  0.5239  0.1094  0.1842  0.1094  0.0000 </r>
       </set>
       <set comment="band 5">
        <r>  0.0000  0.0125  0.0000  0.0125  0.0000  0.4398  0.0000  0.4398  0.0823 </r>
       </set>
       <set comment="band 6">
        <r>  0.0000  0.2784  0.0000  0.2784  0.0000  0.0496  0.0000  0.0496  0.3028 </r>
       </set>
       <set comment="band 7">
        <r>  0.2538  0.1061  0.0554  0.1061  0.2849  0.0001  0.1623  0.0001  0.0000 </r>
       </set>
       <set comment="band 8">
        <r>  0.1827  0.0016  0.4036  0.0016  0.0061  0.1147  0.0918  0.1147  0.0000 </r>
       </set>
       <set comment="band 9">
        <r>  0.0243  0.0011  0.1537  0.0011  0.0238  0.0187  0.5743  0.0187  0.0000 </r>
       </set>
       <set comment="band 10">
        <r>  0.0000  0.0498  0.0000  0.0498  0.0000  0.0077  0.0000  0.0077  0.6649 </r>
       </set>
       <set comment="band 11">
        <r>  0.0234  0.2034  0.0960  0.2034  0.0016  0.0689  0.1108  0.0689  0.0000 </r>
       </set>
       <set comment="band 12">
        <r>  0.2249  0.0352  0.0050  0.0352  0.2168  0.3307  0.0166  0.3307  0.0000 </r>
       </set>
      </set>
      <set comment="kpoint 23">
       <set comment="band 1">
        <r>  0.1375  0.0000  0.0000  0.2473  0.0000  0.0000  0.1269  0.0000  0.3808 </r>
       </set>
       <set comment="band 2">
        <r>  0.0000  0.0000  0.0000  0.0000  0.0000  0.0000  0.6739  0.0000  0.2246 </r>
       </set>
       <set comment="band 3">
        <r>  0.0000  0.0315  0.0315  0.0000  0.4550  0.0000  0.0000  0.4550  0.0000 </r>
       </set>
       <set comment="band 4">
        <r>  0.0000  0.0315  0.0315  0.0000  0.4550  0.0000  0.0000  0.4550  0.0000 </r>
       </set>
       <set comment="band 5">
        <r>  0.0000  0.0000  0.0000  0.0000  0.0000  0.9803  0.0000  0.0000  0.0000 </r>
       </set>
       <set comment="band 6">
        <r>  0.2108  0.0000  0.0000  0.2275  0.0000  0.0000  0.1309  0.0000  0.3928 </r>
       </set>
       <set comment="band 7">
        <r>  0.0000  0.3041  0.3041  0.0000  0.1887  0.0000  0.0000  0.1887  0.0000 </r>
       </set>
       <set comment="band 8">
        <r>  0.0000  0.3041  0.3041  0.0000  0.1887  0.0000  0.0000  0.1887  0.0000 </r>
       </set>
       <set comment="band 9">
        <r>  0.0000  0.0000  0.0000  0.0000  0.0000  0.0000  0.7467  0.0000  0.2489 </r>
       </set>
       <set comment="band 10">
        <r>  0.2617  0.0000  0.0000  0.0626  0.0000  0.0000  0.0716  0.0000  0.2147 </r>
       </set>
       <set comment="band 11">
        <r>  0.1369  0.0000  0.0000  0.3237  0.0000  0.0000  0.1250  0.0000  0.3750 </r>
       </set>
       <set comment="band 12">
        <r>  0.0000  0.0000  0.0000  0.0000  0.0000  1.1995  0.0000  0.0000  0.0000 </r>
       </set>
      </set>
      <set comment="kpoint 24">
       <set comment="band 1">
        <r>  0.0232  0.0002  0.0000  0.1027  0.0236  0.0000  0.4985  0.0000  0.2541 </r>
       </set>
       <set comment="band 2">
        <r>  0.0003  0.0310  0.0000  0.0186  0.0090  0.0000  0.3199  0.0000  0.5224 </r>
       </set>
       <set comment="band 3">
        <r>  0.0000  0.0000  0.0503  0.0000  0.0000  0.3349  0.0000  0.5872  0.0000 </r>
       </set>
       <set comment="band 4">
        <r>  0.0217  0.0430  0.0000  0.0077  0.8400  0.0000  0.0541  0.0000  0.0014 </r>
       </set>
       <set comment="band 5">
        <r>  0.0000  0.0000  0.0033  0.0000  0.0000  0.6406  0.0000  0.3439  0.0000 </r>
       </set>
       <set comment="band 6">
        <r>  0.1336  0.0512  0.0000  0.4384  0.0282  0.0000  0.0484  0.0000  0.2412 </r>
       </set>
       <set comment="band 7">
        <r>  0.1258  0.4853  0.0000  0.0001  0.2065  0.0000  0.0699  0.0000  0.0559 </r>
       </set>
       <set comment="band 8">
        <r>  0.0000  0.0000  0.6987  0.0000  0.0000  0.0363  0.0000  0.1868  0.0000 </r>
       </set>
       <set comment="band 9">
        <r>  0.0691  0.0054  0.0000  0.0028  0.0133  0.0000  0.8494  0.0000  0.0263 </r>
       </set>
       <set comment="band 10">
        <r>  0.0681  0.0997  0.0000  0.0017  0.0089  0.0000  0.0012  0.0000  0.6659 </r>
       </set>
       <set comment="band 11">
        <r>  0.2913  0.0699  0.0000  0.2791  0.0150  0.0000  0.0931  0.0000  0.1042 </r>
       </set>
       <set comment="band 12">
        <r>  0.0000  0.0000  0.0724  0.0000  0.0000  0.5902  0.0000  0.2754  0.0000 </r>
       </set>
      </set>
      <set comment="kpoint 25">
       <set comment="band 1">
        <r>  0.0000  0.0234  0.0000  0.0234  0.0000  0.0038  0.0000  0.0038  0.8485 </r>
       </set>
       <set comment="band 2">
        <r>  0.0000  0.0078  0.0312  0.0078  0.0051  0.0013  0.8485  0.0013  0.0000 </r>
       </set>
       <set comment="band 3">
        <r>  0.0195  0.0165  0.0165  0.0165  0.2996  0.2996  0.0000  0.2996  0.0000 </r>
       </set>
       <set comment="band 4">
        <r>  0.0000  0.0043  0.0171  0.0043  0.6275  0.1569  0.0164  0.1569  0.0000 </r>
       </set>
       <set comment="band 5">
        <r>  0.0000  0.0128  0.0000  0.0128  0.0000  0.4706  0.0000  0.4706  0.0164 </r>
       </set>
       <set comment="band 6">
        <r>  0.0000  0.3355  0.0000  0.3355  0.0000  0.0332  0.0000  0.0332  0.1969 </r>
       </set>
       <set comment="band 7">
        <r>  0.0000  0.1118  0.4474  0.1118  0.0443  0.0111  0.1969  0.0111  0.0000 </r>
       </set>
       <set comment="band 8">
        <r>  0.2543  0.1475  0.1475  0.1475  0.0622  0.0622  0.0000  0.0622  0.0000 </r>
       </set>
       <set comment="band 9">
        <r>  0.0000  0.0444  0.0000  0.0444  0.0000  0.0051  0.0000  0.0051  0.8860 </r>
       </set>
       <set comment="band 10">
        <r>  0.0000  0.0148  0.0592  0.0148  0.0067  0.0017  0.8860  0.0017  0.0000 </r>
       </set>
       <set comment="band 11">
        <r>  0.4662  0.0997  0.0997  0.0997  0.0034  0.0034  0.0000  0.0034  0.0000 </r>
       </set>
       <set comment="band 12">
        <r>  0.0407  0.0168  0.0168  0.0168  0.2458  0.2458  0.0000  0.2458  0.0000 </r>
       </set>
      </set>
      <set comment="kpoint 26">
       <set comment="band 1">
        <r>  0.0014  0.0000  0.0000  0.0316  0.0000  0.0000  0.2177  0.0000  0.6532 </r>
       </set>
       <set comment="band 2">
        <r>  0.0000  0.0000  0.0000  0.0000  0.0000  0.0000  0.6772  0.0000  0.2257 </r>
       </set>
       <set comment="band 3">
        <r>  0.0000  0.0135  0.0135  0.0000  0.4774  0.0000  0.0000  0.4774  0.0000 </r>
       </set>
       <set comment="band 4">
        <r>  0.0000  0.0135  0.0135  0.0000  0.4774  0.0000  0.0000  0.4774  0.0000 </r>
       </set>
       <set comment="band 5">
        <r>  0.0000  0.0000  0.0000  0.0000  0.0000  0.9874  0.0000  0.0000  0.0000 </r>
       </set>
       <set comment="band 6">
        <r>  0.0835  0.0000  0.0000  0.6734  0.0000  0.0000  0.0331  0.0000  0.0992 </r>
       </set>
       <set comment="band 7">
        <r>  0.0000  0.3976  0.3976  0.0000  0.0346  0.0000  0.0000  0.0346  0.0000 </r>
       </set>
       <set comment="band 8">
        <r>  0.0000  0.3976  0.3976  0.0000  0.0346  0.0000  0.0000  0.0346  0.0000 </r>
       </set>
       <set comment="band 9">
        <r>  0.0000  0.0000  0.0000  0.0000  0.0000  0.0000  0.8435  0.0000  0.2812 </r>
       </set>
       <set comment="band 10">
        <r>  0.0469  0.0000  0.0000  0.0260  0.0000  0.0000  0.2401  0.0000  0.7203 </r>
       </set>
       <set comment="band 11">
        <r>  0.6322  0.0000  0.0000  0.1172  0.0000  0.0000  0.0088  0.0000  0.0265 </r>
       </set>
       <set comment="band 12">
        <r>  0.0000  0.0000  0.0000  0.0000  0.0000  0.2979  0.0000  0.0000  0.0000 </r>
       </set>
      </set>
     </set>
    </set>
   </array>
  </projected>
 </calculation>
 <structure name="finalpos" >
  <crystal>
   <varray name="basis" >
    <v>      -1.35000000       1.35000000       1.35000000 </v>
    <v>       1.35000000      -1.35000000       1.35000000 </v>
    <v>       1.35000000       1.35000000      -1.35000000 </v>
   </varray>
   <i name="volume">      9.84150000 </i>
   <varray name="rec_basis" >
    <v>       0.00000000       0.37037037       0.37037037 </v>
    <v>       0.37037037       0.00000000       0.37037037 </v>
    <v>       0.37037037       0.37037037       0.00000000 </v>
   </varray>
  </crystal>
  <varray name="positions" >
   <v>       0.00000000       0.00000000       0.00000000 </v>
  </varray>
 </structure>
</modeling>
