Fe BCC                                  
   3.00000000000000     
    -0.500000    0.500000    0.500000
     0.500000   -0.500000    0.500000
     0.500000    0.500000   -0.500000
   Fe
     1
Direct
  0.000000  0.000000  0.000000
 
   36   36   36
 0.11510347021E+03 0.11273180693E+03 0.10592819852E+03 0.95546976641E+02 0.82779036824E+02
 0.68900487763E+02 0.55064114718E+02 0.42184995762E+02 0.30916537573E+02 0.21672508452E+02
 0.14645846743E+02 0.98033833856E+01 0.68736333420E+01 0.53651627735E+01 0.46428808028E+01
 0.41595158406E+01 0.38229346403E+01 0.36291967655E+01 0.35664650195E+01 0.36291967655E+01
 0.38229346403E+01 0.41595158406E+01 0.46428808028E+01 0.53651627735E+01 0.68736333420E+01
 0.98033833856E+01 0.14645846743E+02 0.21672508452E+02 0.30916537573E+02 0.42184995762E+02
 0.55064114718E+02 0.68900487763E+02 0.82779036824E+02 0.95546976641E+02 0.10592819852E+03
 0.11273180693E+03 0.11273180693E+03 0.11194697365E+03 0.10663898315E+03 0.97487573562E+02
 0.85580261702E+02 0.72170261227E+02 0.58449781194E+02 0.45404381874E+02 0.33762634837E+02
 0.24007633160E+02 0.16399690561E+02 0.10978447683E+02 0.75498400511E+01 0.56912239513E+01
 0.48077113149E+01 0.42816902162E+01 0.39007096946E+01 0.36641229064E+01 0.35604481391E+01
 0.35810000090E+01 0.37276958181E+01 0.40114957902E+01 0.44415041038E+01 0.50350537525E+01
 0.61713943718E+01 0.84946444535E+01 0.12552640927E+02 0.18695316433E+02 0.27037716708E+02
 0.37465157280E+02 0.49643980045E+02 0.63011358701E+02 0.76751423021E+02 0.89799032897E+02
 0.10092032101E+03 0.10888986684E+03 0.10592819852E+03 0.10663898315E+03 0.10295992510E+03
 0.95369388550E+02 0.84796836370E+02 0.72407913973E+02 0.59376607223E+02 0.46717502892E+02
 0.35208536728E+02 0.25385408665E+02 0.17561843524E+02 0.11837706129E+02 0.80891185380E+01
 0.59660694222E+01 0.49315500015E+01 0.43674970731E+01 0.39538247417E+01 0.36820875289E+01
 0.35421057696E+01 0.35227438096E+01 0.36221254924E+01 0.38490953163E+01 0.42159212311E+01
 0.47235156120E+01 0.55359755649E+01 0.72336907174E+01 0.10399373151E+02 0.15454439205E+02
 0.22600176216E+02 0.31808709070E+02 0.42833768133E+02 0.55210045250E+02 0.68235204970E+02
 0.80963201912E+02 0.92255409095E+02 0.10092032101E+03 0.95546976641E+02 0.97487573562E+02
 0.95369388550E+02 0.89472440448E+02 0.80537870595E+02 0.69592345954E+02 0.57735567447E+02
 0.45963568375E+02 0.35069622078E+02 0.25619020375E+02 0.17961344259E+02 0.12241286940E+02
 0.83934041189E+01 0.61369716466E+01 0.50019938756E+01 0.44090337098E+01 0.39762381758E+01
 0.36795968606E+01 0.35107107766E+01 0.34567609282E+01 0.35122607836E+01 0.36829745336E+01
 0.39820242202E+01 0.44181540616E+01 0.50159346000E+01 0.61600907678E+01 0.84357189543E+01
 0.12319170272E+02 0.18095497358E+02 0.25829399871E+02 0.35368222253E+02 0.46347126385E+02
 0.58180832974E+02 0.70056190355E+02 0.80963201912E+02 0.89799032897E+02 0.82779036824E+02
 0.85580261702E+02 0.84796836370E+02 0.80537870595E+02 0.73352677622E+02 0.64098955432E+02
 0.53757901968E+02 0.43262090072E+02 0.33383323800E+02 0.24689532477E+02 0.17545869079E+02
 0.12124657637E+02 0.84043514261E+01 0.61648520644E+01 0.50046369182E+01 0.44021869078E+01
 0.39641494809E+01 0.36541316399E+01 0.34654977604E+01 0.33844711432E+01 0.34024536077E+01
 0.35216291281E+01 0.37538842993E+01 0.41129800553E+01 0.46005482230E+01 0.53415954382E+01
 0.68357679965E+01 0.95876581737E+01 0.13954095763E+02 0.20092858728E+02 0.27950342857E+02
 0.37265212870E+02 0.47568349472E+02 0.58180832974E+02 0.68235204970E+02 0.76751423021E+02
 0.68900487763E+02 0.72170261227E+02 0.72407913973E+02 0.69592345954E+02 0.64098955432E+02
 0.56609039302E+02 0.47958731859E+02 0.38982333252E+02 0.30396952246E+02 0.22746375304E+02
 0.16390621558E+02 0.11512308235E+02 0.81184195034E+01 0.60377331309E+01 0.49327379076E+01
 0.43470621185E+01 0.39166882917E+01 0.36048180359E+01 0.34061843988E+01 0.33066768827E+01
 0.32953168803E+01 0.33707290758E+01 0.35420871027E+01 0.38245954363E+01 0.42293108921E+01
 0.47609771744E+01 0.56702219447E+01 0.74446128900E+01 0.10489439142E+02 0.15047033042E+02
 0.21164652839E+02 0.28688380216E+02 0.37265212870E+02 0.46347126385E+02 0.55210045250E+02
 0.63011358701E+02 0.55064114718E+02 0.58449781194E+02 0.59376607223E+02 0.57735567447E+02
 0.53757901968E+02 0.47958731859E+02 0.41020349311E+02 0.33657654772E+02 0.26508144449E+02
 0.20068919731E+02 0.14676544477E+02 0.10508492845E+02 0.75860961641E+01 0.57745070740E+01
 0.47921088758E+01 0.42476971500E+01 0.38360826572E+01 0.35328243150E+01 0.33334560253E+01
 0.32240529509E+01 0.31921223394E+01 0.32332062481E+01 0.33530615708E+01 0.35655987339E+01
 0.38863603400E+01 0.43216140133E+01 0.48991437511E+01 0.59412065449E+01 0.78670356868E+01
 0.10982958713E+02 0.15430493420E+02 0.21164652839E+02 0.27950342857E+02 0.35368222253E+02
 0.42833768133E+02 0.49643980045E+02 0.42184995762E+02 0.45404381874E+02 0.46717502892E+02
 0.45963568375E+02 0.43262090072E+02 0.38982333252E+02 0.33657654772E+02 0.27875564771E+02
 0.22179095219E+02 0.17002814690E+02 0.12646023950E+02 0.92691780770E+01 0.68966010678E+01
 0.54185779946E+01 0.45999273156E+01 0.41112826756E+01 0.37273389402E+01 0.34413993130E+01
 0.32492668719E+01 0.31376454362E+01 0.30934387444E+01 0.31099015705E+01 0.31893871488E+01
 0.33428927332E+01 0.35863196629E+01 0.39332170421E+01 0.43845955332E+01 0.49960943592E+01
 0.60946245547E+01 0.80179758985E+01 0.10982958713E+02 0.15047033042E+02 0.20092858728E+02
 0.25829399871E+02 0.31808709070E+02 0.37465157280E+02 0.30916537573E+02 0.33762634837E+02
 0.35208536728E+02 0.35069622078E+02 0.33383323800E+02 0.30396952246E+02 0.26508144449E+02
 0.22179095219E+02 0.17852686159E+02 0.13892192181E+02 0.10551087462E+02 0.79651712899E+01
 0.61540207572E+01 0.50243402051E+01 0.43784315128E+01 0.39471650481E+01 0.35975672711E+01
 0.33355590954E+01 0.31568660721E+01 0.30492102135E+01 0.29997654417E+01 0.30004555307E+01
 0.30507692256E+01 0.31582234050E+01 0.33364923362E+01 0.36010124994E+01 0.39620562716E+01
 0.44163947802E+01 0.50312359186E+01 0.60946245547E+01 0.78670356868E+01 0.10489439142E+02
 0.13954095763E+02 0.18095497358E+02 0.22600176216E+02 0.27037716708E+02 0.21672508452E+02
 0.24007633160E+02 0.25385408665E+02 0.25619020375E+02 0.24689532477E+02 0.22746375304E+02
 0.20068919731E+02 0.17002814690E+02 0.13892192181E+02 0.11026319337E+02 0.86090027960E+01
 0.67475945767E+01 0.54526007845E+01 0.46412687682E+01 0.41459992916E+01 0.37658303937E+01
 0.34551104859E+01 0.32214958450E+01 0.30605303400E+01 0.29612864168E+01 0.29119675574E+01
 0.29041360974E+01 0.29352534778E+01 0.30095679485E+01 0.31373782179E+01 0.33325922100E+01
 0.36084682894E+01 0.39717437841E+01 0.44163947802E+01 0.49960943592E+01 0.59412065449E+01
 0.74446128900E+01 0.95876581737E+01 0.12319170272E+02 0.15454439205E+02 0.18695316433E+02
 0.14645846743E+02 0.16399690561E+02 0.17561843524E+02 0.17961344259E+02 0.17545869079E+02
 0.16390621558E+02 0.14676544477E+02 0.12646023950E+02 0.10551087462E+02 0.86090027960E+01
 0.69737448495E+01 0.57232922247E+01 0.48572898678E+01 0.43000125409E+01 0.39096153655E+01
 0.35779487601E+01 0.33086083807E+01 0.31058209901E+01 0.29650578374E+01 0.28769879043E+01
 0.28314173008E+01 0.28204032637E+01 0.28403110085E+01 0.28927914378E+01 0.29846692623E+01
 0.31267135595E+01 0.33312335150E+01 0.36084682894E+01 0.39620562716E+01 0.43845955332E+01
 0.48991437511E+01 0.56702219447E+01 0.68357679965E+01 0.84357189543E+01 0.10399373151E+02
 0.12552640927E+02 0.98033833856E+01 0.10978447683E+02 0.11837706129E+02 0.12241286940E+02
 0.12124657637E+02 0.11512308235E+02 0.10508492845E+02 0.92691780770E+01 0.79651712899E+01
 0.67475945767E+01 0.57232922247E+01 0.49419145705E+01 0.43920209065E+01 0.40029632679E+01
 0.36754461257E+01 0.33934856666E+01 0.31660993714E+01 0.29947714739E+01 0.28751349096E+01
 0.27995804964E+01 0.27598514317E+01 0.27491442392E+01 0.27635917989E+01 0.28031089023E+01
 0.28715667222E+01 0.29762689666E+01 0.31267135595E+01 0.33325922100E+01 0.36010124994E+01
 0.39332170421E+01 0.43216140133E+01 0.47609771744E+01 0.53415954382E+01 0.61600907678E+01
 0.72336907174E+01 0.84946444535E+01 0.68736333420E+01 0.75498400511E+01 0.80891185380E+01
 0.83934041189E+01 0.84043514261E+01 0.81184195034E+01 0.75860961641E+01 0.68966010678E+01
 0.61540207572E+01 0.54526007845E+01 0.48572898678E+01 0.43920209065E+01 0.40350482111E+01
 0.37282790358E+01 0.34537691137E+01 0.32209025752E+01 0.30342546262E+01 0.28935115099E+01
 0.27947189998E+01 0.27319750633E+01 0.26990419159E+01 0.26906295106E+01 0.27033176841E+01
 0.27361380652E+01 0.27908045662E+01 0.28715667222E+01 0.29846692623E+01 0.31373782179E+01
 0.33364923362E+01 0.35863196629E+01 0.38863603400E+01 0.42293108921E+01 0.46005482230E+01
 0.50159346000E+01 0.55359755649E+01 0.61713943718E+01 0.53651627735E+01 0.56912239513E+01
 0.59660694222E+01 0.61369716466E+01 0.61648520644E+01 0.60377331309E+01 0.57745070740E+01
 0.54185779946E+01 0.50243402051E+01 0.46412687682E+01 0.43000125409E+01 0.40029632679E+01
 0.37282790358E+01 0.34753639477E+01 0.32529776926E+01 0.30665320373E+01 0.29178460113E+01
 0.28056501191E+01 0.27265791794E+01 0.26762910037E+01 0.26504287480E+01 0.26453153273E+01
 0.26584034720E+01 0.26885473806E+01 0.27361380652E+01 0.28031089023E+01 0.28927914378E+01
 0.30095679485E+01 0.31582234050E+01 0.33428927332E+01 0.35655987339E+01 0.38245954363E+01
 0.41129800553E+01 0.44181540616E+01 0.47235156120E+01 0.50350537525E+01 0.46428808028E+01
 0.48077113149E+01 0.49315500015E+01 0.50019938756E+01 0.50046369182E+01 0.49327379076E+01
 0.47921088758E+01 0.45999273156E+01 0.43784315128E+01 0.41459992916E+01 0.39096153655E+01
 0.36754461257E+01 0.34537691137E+01 0.32529776926E+01 0.30788371775E+01 0.29342545937E+01
 0.28195385683E+01 0.27330606751E+01 0.26720984997E+01 0.26336224423E+01 0.26148671376E+01
 0.26136431837E+01 0.26284383487E+01 0.26584034720E+01 0.27033176841E+01 0.27635917989E+01
 0.28403110085E+01 0.29352534778E+01 0.30507692256E+01 0.31893871488E+01 0.33530615708E+01
 0.35420871027E+01 0.37538842993E+01 0.39820242202E+01 0.42159212311E+01 0.44415041038E+01
 0.41595158406E+01 0.42816902162E+01 0.43674970731E+01 0.44090337098E+01 0.44021869078E+01
 0.43470621185E+01 0.42476971500E+01 0.41112826756E+01 0.39471650481E+01 0.37658303937E+01
 0.35779487601E+01 0.33934856666E+01 0.32209025752E+01 0.30665320373E+01 0.29342545937E+01
 0.28255698199E+01 0.27400482304E+01 0.26760312021E+01 0.26313784426E+01 0.26040758688E+01
 0.25925912599E+01 0.25959577204E+01 0.26136431837E+01 0.26453153273E+01 0.26906295106E+01
 0.27491442392E+01 0.28204032637E+01 0.29041360974E+01 0.30004555307E+01 0.31099015705E+01
 0.32332062481E+01 0.33707290758E+01 0.35216291281E+01 0.36829745336E+01 0.38490953163E+01
 0.40114957902E+01 0.38229346403E+01 0.39007096946E+01 0.39538247417E+01 0.39762381758E+01
 0.39641494809E+01 0.39166882917E+01 0.38360826572E+01 0.37273389402E+01 0.35975672711E+01
 0.34551104859E+01 0.33086083807E+01 0.31660993714E+01 0.30342546262E+01 0.29178460113E+01
 0.28195385683E+01 0.27400482304E+01 0.26786208840E+01 0.26337014586E+01 0.26036115438E+01
 0.25870644404E+01 0.25834102941E+01 0.25925912599E+01 0.26148671376E+01 0.26504287480E+01
 0.26990419159E+01 0.27598514317E+01 0.28314173008E+01 0.29119675574E+01 0.29997654417E+01
 0.30934387444E+01 0.31921223394E+01 0.32953168803E+01 0.34024536077E+01 0.35122607836E+01
 0.36221254924E+01 0.37276958181E+01 0.36291967655E+01 0.36641229064E+01 0.36820875289E+01
 0.36795968606E+01 0.36541316399E+01 0.36048180359E+01 0.35328243150E+01 0.34413993130E+01
 0.33355590954E+01 0.32214958450E+01 0.31058209901E+01 0.29947714739E+01 0.28935115099E+01
 0.28056501191E+01 0.27330606751E+01 0.26760312021E+01 0.26337014586E+01 0.26046716937E+01
 0.25876207136E+01 0.25817681681E+01 0.25870644404E+01 0.26040758688E+01 0.26336224423E+01
 0.26762910037E+01 0.27319750633E+01 0.27995804964E+01 0.28769879043E+01 0.29612864168E+01
 0.30492102135E+01 0.31376454362E+01 0.32240529509E+01 0.33066768827E+01 0.33844711432E+01
 0.34567609282E+01 0.35227438096E+01 0.35810000090E+01 0.35664650195E+01 0.35604481391E+01
 0.35421057696E+01 0.35107107766E+01 0.34654977604E+01 0.34061843988E+01 0.33334560253E+01
 0.32492668719E+01 0.31568660721E+01 0.30605303400E+01 0.29650578374E+01 0.28751349096E+01
 0.27947189998E+01 0.27265791794E+01 0.26720984997E+01 0.26313784426E+01 0.26036115438E+01
 0.25876207136E+01 0.25824175076E+01 0.25876207136E+01 0.26036115438E+01 0.26313784426E+01
 0.26720984997E+01 0.27265791794E+01 0.27947189998E+01 0.28751349096E+01 0.29650578374E+01
 0.30605303400E+01 0.31568660721E+01 0.32492668719E+01 0.33334560253E+01 0.34061843988E+01
 0.34654977604E+01 0.35107107766E+01 0.35421057696E+01 0.35604481391E+01 0.36291967655E+01
 0.35810000090E+01 0.35227438096E+01 0.34567609282E+01 0.33844711432E+01 0.33066768827E+01
 0.32240529509E+01 0.31376454362E+01 0.30492102135E+01 0.29612864168E+01 0.28769879043E+01
 0.27995804964E+01 0.27319750633E+01 0.26762910037E+01 0.26336224423E+01 0.26040758688E+01
 0.25870644404E+01 0.25817681681E+01 0.25876207136E+01 0.26046716937E+01 0.26337014586E+01
 0.26760312021E+01 0.27330606751E+01 0.28056501191E+01 0.28935115099E+01 0.29947714739E+01
 0.31058209901E+01 0.32214958450E+01 0.33355590954E+01 0.34413993130E+01 0.35328243150E+01
 0.36048180359E+01 0.36541316399E+01 0.36795968606E+01 0.36820875289E+01 0.36641229064E+01
 0.38229346403E+01 0.37276958181E+01 0.36221254924E+01 0.35122607836E+01 0.34024536077E+01
 0.32953168803E+01 0.31921223394E+01 0.30934387444E+01 0.29997654417E+01 0.29119675574E+01
 0.28314173008E+01 0.27598514317E+01 0.26990419159E+01 0.26504287480E+01 0.26148671376E+01
 0.25925912599E+01 0.25834102941E+01 0.25870644404E+01 0.26036115438E+01 0.26337014586E+01
 0.26786208840E+01 0.27400482304E+01 0.28195385683E+01 0.29178460113E+01 0.30342546262E+01
 0.31660993714E+01 0.33086083807E+01 0.34551104859E+01 0.35975672711E+01 0.37273389402E+01
 0.38360826572E+01 0.39166882917E+01 0.39641494809E+01 0.39762381758E+01 0.39538247417E+01
 0.39007096946E+01 0.41595158406E+01 0.40114957902E+01 0.38490953163E+01 0.36829745336E+01
 0.35216291281E+01 0.33707290758E+01 0.32332062481E+01 0.31099015705E+01 0.30004555307E+01
 0.29041360974E+01 0.28204032637E+01 0.27491442392E+01 0.26906295106E+01 0.26453153273E+01
 0.26136431837E+01 0.25959577204E+01 0.25925912599E+01 0.26040758688E+01 0.26313784426E+01
 0.26760312021E+01 0.27400482304E+01 0.28255698199E+01 0.29342545937E+01 0.30665320373E+01
 0.32209025752E+01 0.33934856666E+01 0.35779487601E+01 0.37658303937E+01 0.39471650481E+01
 0.41112826756E+01 0.42476971500E+01 0.43470621185E+01 0.44021869078E+01 0.44090337098E+01
 0.43674970731E+01 0.42816902162E+01 0.46428808028E+01 0.44415041038E+01 0.42159212311E+01
 0.39820242202E+01 0.37538842993E+01 0.35420871027E+01 0.33530615708E+01 0.31893871488E+01
 0.30507692256E+01 0.29352534778E+01 0.28403110085E+01 0.27635917989E+01 0.27033176841E+01
 0.26584034720E+01 0.26284383487E+01 0.26136431837E+01 0.26148671376E+01 0.26336224423E+01
 0.26720984997E+01 0.27330606751E+01 0.28195385683E+01 0.29342545937E+01 0.30788371775E+01
 0.32529776926E+01 0.34537691137E+01 0.36754461257E+01 0.39096153655E+01 0.41459992916E+01
 0.43784315128E+01 0.45999273156E+01 0.47921088758E+01 0.49327379076E+01 0.50046369182E+01
 0.50019938756E+01 0.49315500015E+01 0.48077113149E+01 0.53651627735E+01 0.50350537525E+01
 0.47235156120E+01 0.44181540616E+01 0.41129800553E+01 0.38245954363E+01 0.35655987339E+01
 0.33428927332E+01 0.31582234050E+01 0.30095679485E+01 0.28927914378E+01 0.28031089023E+01
 0.27361380652E+01 0.26885473806E+01 0.26584034720E+01 0.26453153273E+01 0.26504287480E+01
 0.26762910037E+01 0.27265791794E+01 0.28056501191E+01 0.29178460113E+01 0.30665320373E+01
 0.32529776926E+01 0.34753639477E+01 0.37282790358E+01 0.40029632679E+01 0.43000125409E+01
 0.46412687682E+01 0.50243402051E+01 0.54185779946E+01 0.57745070740E+01 0.60377331309E+01
 0.61648520644E+01 0.61369716466E+01 0.59660694222E+01 0.56912239513E+01 0.68736333420E+01
 0.61713943718E+01 0.55359755649E+01 0.50159346000E+01 0.46005482230E+01 0.42293108921E+01
 0.38863603400E+01 0.35863196629E+01 0.33364923362E+01 0.31373782179E+01 0.29846692623E+01
 0.28715667222E+01 0.27908045662E+01 0.27361380652E+01 0.27033176841E+01 0.26906295106E+01
 0.26990419159E+01 0.27319750633E+01 0.27947189998E+01 0.28935115099E+01 0.30342546262E+01
 0.32209025752E+01 0.34537691137E+01 0.37282790358E+01 0.40350482111E+01 0.43920209065E+01
 0.48572898678E+01 0.54526007845E+01 0.61540207572E+01 0.68966010678E+01 0.75860961641E+01
 0.81184195034E+01 0.84043514261E+01 0.83934041189E+01 0.80891185380E+01 0.75498400511E+01
 0.98033833856E+01 0.84946444535E+01 0.72336907174E+01 0.61600907678E+01 0.53415954382E+01
 0.47609771744E+01 0.43216140133E+01 0.39332170421E+01 0.36010124994E+01 0.33325922100E+01
 0.31267135595E+01 0.29762689666E+01 0.28715667222E+01 0.28031089023E+01 0.27635917989E+01
 0.27491442392E+01 0.27598514317E+01 0.27995804964E+01 0.28751349096E+01 0.29947714739E+01
 0.31660993714E+01 0.33934856666E+01 0.36754461257E+01 0.40029632679E+01 0.43920209065E+01
 0.49419145705E+01 0.57232922247E+01 0.67475945767E+01 0.79651712899E+01 0.92691780770E+01
 0.10508492845E+02 0.11512308235E+02 0.12124657637E+02 0.12241286940E+02 0.11837706129E+02
 0.10978447683E+02 0.14645846743E+02 0.12552640927E+02 0.10399373151E+02 0.84357189543E+01
 0.68357679965E+01 0.56702219447E+01 0.48991437511E+01 0.43845955332E+01 0.39620562716E+01
 0.36084682894E+01 0.33312335150E+01 0.31267135595E+01 0.29846692623E+01 0.28927914378E+01
 0.28403110085E+01 0.28204032637E+01 0.28314173008E+01 0.28769879043E+01 0.29650578374E+01
 0.31058209901E+01 0.33086083807E+01 0.35779487601E+01 0.39096153655E+01 0.43000125409E+01
 0.48572898678E+01 0.57232922247E+01 0.69737448495E+01 0.86090027960E+01 0.10551087462E+02
 0.12646023950E+02 0.14676544477E+02 0.16390621558E+02 0.17545869079E+02 0.17961344259E+02
 0.17561843524E+02 0.16399690561E+02 0.21672508452E+02 0.18695316433E+02 0.15454439205E+02
 0.12319170272E+02 0.95876581737E+01 0.74446128900E+01 0.59412065449E+01 0.49960943592E+01
 0.44163947802E+01 0.39717437841E+01 0.36084682894E+01 0.33325922100E+01 0.31373782179E+01
 0.30095679485E+01 0.29352534778E+01 0.29041360974E+01 0.29119675574E+01 0.29612864168E+01
 0.30605303400E+01 0.32214958450E+01 0.34551104859E+01 0.37658303937E+01 0.41459992916E+01
 0.46412687682E+01 0.54526007845E+01 0.67475945767E+01 0.86090027960E+01 0.11026319337E+02
 0.13892192181E+02 0.17002814690E+02 0.20068919731E+02 0.22746375304E+02 0.24689532477E+02
 0.25619020375E+02 0.25385408665E+02 0.24007633160E+02 0.30916537573E+02 0.27037716708E+02
 0.22600176216E+02 0.18095497358E+02 0.13954095763E+02 0.10489439142E+02 0.78670356868E+01
 0.60946245547E+01 0.50312359186E+01 0.44163947802E+01 0.39620562716E+01 0.36010124994E+01
 0.33364923362E+01 0.31582234050E+01 0.30507692256E+01 0.30004555307E+01 0.29997654417E+01
 0.30492102135E+01 0.31568660721E+01 0.33355590954E+01 0.35975672711E+01 0.39471650481E+01
 0.43784315128E+01 0.50243402051E+01 0.61540207572E+01 0.79651712899E+01 0.10551087462E+02
 0.13892192181E+02 0.17852686159E+02 0.22179095219E+02 0.26508144449E+02 0.30396952246E+02
 0.33383323800E+02 0.35069622078E+02 0.35208536728E+02 0.33762634837E+02 0.42184995762E+02
 0.37465157280E+02 0.31808709070E+02 0.25829399871E+02 0.20092858728E+02 0.15047033042E+02
 0.10982958713E+02 0.80179758985E+01 0.60946245547E+01 0.49960943592E+01 0.43845955332E+01
 0.39332170421E+01 0.35863196629E+01 0.33428927332E+01 0.31893871488E+01 0.31099015705E+01
 0.30934387444E+01 0.31376454362E+01 0.32492668719E+01 0.34413993130E+01 0.37273389402E+01
 0.41112826756E+01 0.45999273156E+01 0.54185779946E+01 0.68966010678E+01 0.92691780770E+01
 0.12646023950E+02 0.17002814690E+02 0.22179095219E+02 0.27875564771E+02 0.33657654772E+02
 0.38982333252E+02 0.43262090072E+02 0.45963568375E+02 0.46717502892E+02 0.45404381874E+02
 0.55064114718E+02 0.49643980045E+02 0.42833768133E+02 0.35368222253E+02 0.27950342857E+02
 0.21164652839E+02 0.15430493420E+02 0.10982958713E+02 0.78670356868E+01 0.59412065449E+01
 0.48991437511E+01 0.43216140133E+01 0.38863603400E+01 0.35655987339E+01 0.33530615708E+01
 0.32332062481E+01 0.31921223394E+01 0.32240529509E+01 0.33334560253E+01 0.35328243150E+01
 0.38360826572E+01 0.42476971500E+01 0.47921088758E+01 0.57745070740E+01 0.75860961641E+01
 0.10508492845E+02 0.14676544477E+02 0.20068919731E+02 0.26508144449E+02 0.33657654772E+02
 0.41020349311E+02 0.47958731859E+02 0.53757901968E+02 0.57735567447E+02 0.59376607223E+02
 0.58449781194E+02 0.68900487763E+02 0.63011358701E+02 0.55210045250E+02 0.46347126385E+02
 0.37265212870E+02 0.28688380216E+02 0.21164652839E+02 0.15047033042E+02 0.10489439142E+02
 0.74446128900E+01 0.56702219447E+01 0.47609771744E+01 0.42293108921E+01 0.38245954363E+01
 0.35420871027E+01 0.33707290758E+01 0.32953168803E+01 0.33066768827E+01 0.34061843988E+01
 0.36048180359E+01 0.39166882917E+01 0.43470621185E+01 0.49327379076E+01 0.60377331309E+01
 0.81184195034E+01 0.11512308235E+02 0.16390621558E+02 0.22746375304E+02 0.30396952246E+02
 0.38982333252E+02 0.47958731859E+02 0.56609039302E+02 0.64098955432E+02 0.69592345954E+02
 0.72407913973E+02 0.72170261227E+02 0.82779036824E+02 0.76751423021E+02 0.68235204970E+02
 0.58180832974E+02 0.47568349472E+02 0.37265212870E+02 0.27950342857E+02 0.20092858728E+02
 0.13954095763E+02 0.95876581737E+01 0.68357679965E+01 0.53415954382E+01 0.46005482230E+01
 0.41129800553E+01 0.37538842993E+01 0.35216291281E+01 0.34024536077E+01 0.33844711432E+01
 0.34654977604E+01 0.36541316399E+01 0.39641494809E+01 0.44021869078E+01 0.50046369182E+01
 0.61648520644E+01 0.84043514261E+01 0.12124657637E+02 0.17545869079E+02 0.24689532477E+02
 0.33383323800E+02 0.43262090072E+02 0.53757901968E+02 0.64098955432E+02 0.73352677622E+02
 0.80537870595E+02 0.84796836370E+02 0.85580261702E+02 0.95546976641E+02 0.89799032897E+02
 0.80963201912E+02 0.70056190355E+02 0.58180832974E+02 0.46347126385E+02 0.35368222253E+02
 0.25829399871E+02 0.18095497358E+02 0.12319170272E+02 0.84357189543E+01 0.61600907678E+01
 0.50159346000E+01 0.44181540616E+01 0.39820242202E+01 0.36829745336E+01 0.35122607836E+01
 0.34567609282E+01 0.35107107766E+01 0.36795968606E+01 0.39762381758E+01 0.44090337098E+01
 0.50019938756E+01 0.61369716466E+01 0.83934041189E+01 0.12241286940E+02 0.17961344259E+02
 0.25619020375E+02 0.35069622078E+02 0.45963568375E+02 0.57735567447E+02 0.69592345954E+02
 0.80537870595E+02 0.89472440448E+02 0.95369388550E+02 0.97487573562E+02 0.10592819852E+03
 0.10092032101E+03 0.92255409095E+02 0.80963201912E+02 0.68235204970E+02 0.55210045250E+02
 0.42833768133E+02 0.31808709070E+02 0.22600176216E+02 0.15454439205E+02 0.10399373151E+02
 0.72336907174E+01 0.55359755649E+01 0.47235156120E+01 0.42159212311E+01 0.38490953163E+01
 0.36221254924E+01 0.35227438096E+01 0.35421057696E+01 0.36820875289E+01 0.39538247417E+01
 0.43674970731E+01 0.49315500015E+01 0.59660694222E+01 0.80891185380E+01 0.11837706129E+02
 0.17561843524E+02 0.25385408665E+02 0.35208536728E+02 0.46717502892E+02 0.59376607223E+02
 0.72407913973E+02 0.84796836370E+02 0.95369388550E+02 0.10295992510E+03 0.10663898315E+03
 0.11273180693E+03 0.10888986684E+03 0.10092032101E+03 0.89799032897E+02 0.76751423021E+02
 0.63011358701E+02 0.49643980045E+02 0.37465157280E+02 0.27037716708E+02 0.18695316433E+02
 0.12552640927E+02 0.84946444535E+01 0.61713943718E+01 0.50350537525E+01 0.44415041038E+01
 0.40114957902E+01 0.37276958181E+01 0.35810000090E+01 0.35604481391E+01 0.36641229064E+01
 0.39007096946E+01 0.42816902162E+01 0.48077113149E+01 0.56912239513E+01 0.75498400511E+01
 0.10978447683E+02 0.16399690561E+02 0.24007633160E+02 0.33762634837E+02 0.45404381874E+02
 0.58449781194E+02 0.72170261227E+02 0.85580261702E+02 0.97487573562E+02 0.10663898315E+03
 0.11194697365E+03 0.11273180693E+03 0.11194697365E+03 0.10663898315E+03 0.97487573562E+02
 0.85580261702E+02 0.72170261227E+02 0.58449781194E+02 0.45404381874E+02 0.33762634837E+02
 0.24007633160E+02 0.16399690561E+02 0.10978447683E+02 0.75498400511E+01 0.56912239513E+01
 0.48077113149E+01 0.42816902162E+01 0.39007096946E+01 0.36641229064E+01 0.35604481391E+01
 0.35810000090E+01 0.37276958181E+01 0.40114957902E+01 0.44415041038E+01 0.50350537525E+01
 0.61713943718E+01 0.84946444535E+01 0.12552640927E+02 0.18695316433E+02 0.27037716708E+02
 0.37465157280E+02 0.49643980045E+02 0.63011358701E+02 0.76751423021E+02 0.89799032897E+02
 0.10092032101E+03 0.10888986684E+03 0.11194697365E+03 0.11273180690E+03 0.10888986677E+03
 0.10092032091E+03 0.89799032774E+02 0.76751422880E+02 0.63011358553E+02 0.49643979900E+02
 0.37465157148E+02 0.27037716598E+02 0.18695316349E+02 0.12552640868E+02 0.84946444169E+01
 0.61713943513E+01 0.50350537423E+01 0.44415040992E+01 0.40114957883E+01 0.37276958174E+01
 0.35810000090E+01 0.35604481394E+01 0.36641229069E+01 0.39007096960E+01 0.42816902208E+01
 0.48077113273E+01 0.56912239781E+01 0.75498400995E+01 0.10978447758E+02 0.16399690666E+02
 0.24007633291E+02 0.33762634987E+02 0.45404382030E+02 0.58449781344E+02 0.72170261358E+02
 0.85580261806E+02 0.97487573633E+02 0.10663898318E+03 0.10663898315E+03 0.10888986677E+03
 0.10663898309E+03 0.10018149264E+03 0.90327674577E+02 0.78208384999E+02 0.65037832281E+02
 0.51916028829E+02 0.39719005341E+02 0.29073316726E+02 0.20373586782E+02 0.13797795232E+02
 0.93018032268E+01 0.66099168798E+01 0.52365409824E+01 0.45636092306E+01 0.40970045259E+01
 0.37738359648E+01 0.35884308021E+01 0.35284926771E+01 0.35884308031E+01 0.37738359665E+01
 0.40970045294E+01 0.45636092397E+01 0.52365410048E+01 0.66099169265E+01 0.93018033097E+01
 0.13797795360E+02 0.20373586959E+02 0.29073316945E+02 0.39719005589E+02 0.51916029086E+02
 0.65037832527E+02 0.78208385214E+02 0.90327674747E+02 0.10018149276E+03 0.97487573562E+02
 0.10092032091E+03 0.10018149264E+03 0.95369388483E+02 0.87100101777E+02 0.76356860719E+02
 0.64273922477E+02 0.51933704002E+02 0.40234792074E+02 0.29843116520E+02 0.21197082755E+02
 0.14523196595E+02 0.98360302634E+01 0.69289472711E+01 0.53853110399E+01 0.46379728811E+01
 0.41491081701E+01 0.37973515441E+01 0.35806385293E+01 0.34861973217E+01 0.35052145712E+01
 0.36396673906E+01 0.39009682210E+01 0.43004035112E+01 0.48413438926E+01 0.57887689748E+01
 0.77354705275E+01 0.11210968759E+02 0.16567795139E+02 0.23938800790E+02 0.33235548858E+02
 0.44156782418E+02 0.56182965351E+02 0.68561476003E+02 0.80316821206E+02 0.90327674709E+02
 0.85580261702E+02 0.89799032774E+02 0.90327674577E+02 0.87100101777E+02 0.80537870542E+02
 0.71446389160E+02 0.60832192449E+02 0.49709757475E+02 0.38958195379E+02 0.29252409051E+02
 0.21052907466E+02 0.14617242716E+02 0.10003670667E+02 0.70644879798E+01 0.54513267782E+01
 0.46596550054E+01 0.41620926408E+01 0.37941410087E+01 0.35556500710E+01 0.34340126254E+01
 0.34178513538E+01 0.35054174704E+01 0.37057919027E+01 0.40329315436E+01 0.44925826183E+01
 0.51435367060E+01 0.64346708365E+01 0.89111403232E+01 0.12988059863E+02 0.18885895376E+02
 0.26611140052E+02 0.35960240514E+02 0.46521400205E+02 0.57667571578E+02 0.68561475962E+02
 0.78208385138E+02 0.72170261227E+02 0.76751422880E+02 0.78208384999E+02 0.76356860719E+02
 0.71446389160E+02 0.64098955412E+02 0.55165059295E+02 0.45551805916E+02 0.36079920304E+02
 0.27401614453E+02 0.19975705627E+02 0.14071934577E+02 0.97759110038E+01 0.69857999849E+01
 0.54151933806E+01 0.46261311670E+01 0.41335641027E+01 0.37620367050E+01 0.35122358312E+01
 0.33720932308E+01 0.33284370839E+01 0.33760948003E+01 0.35208959596E+01 0.37767298136E+01
 0.41564833624E+01 0.46604176496E+01 0.54681180737E+01 0.70765225367E+01 0.99384691755E+01
 0.14351777884E+02 0.20418866770E+02 0.28038280015E+02 0.36907099719E+02 0.46521400164E+02
 0.56182965271E+02 0.65037832416E+02 0.58449781194E+02 0.63011358553E+02 0.65037832281E+02
 0.64273922477E+02 0.60832192449E+02 0.55165059295E+02 0.47958731885E+02 0.39989076006E+02
 0.31988658368E+02 0.24559258681E+02 0.18135559559E+02 0.12981460423E+02 0.91941933467E+01
 0.67039572234E+01 0.52766186233E+01 0.45386563785E+01 0.40647409283E+01 0.37013197713E+01
 0.34504538293E+01 0.33007721532E+01 0.32381089990E+01 0.32545106768E+01 0.33522655014E+01
 0.35431653095E+01 0.38429074642E+01 0.42605171318E+01 0.48077870315E+01 0.57677577441E+01
 0.75928907565E+01 0.10636564995E+02 0.15089545345E+02 0.20953950212E+02 0.28038279980E+02
 0.35960240438E+02 0.44156782307E+02 0.51916028949E+02 0.45404381874E+02 0.49643979900E+02
 0.51916028829E+02 0.51933704002E+02 0.49709757475E+02 0.45551805916E+02 0.39989076006E+02
 0.33657654837E+02 0.27183950226E+02 0.21099037367E+02 0.15795441120E+02 0.11516262888E+02
 0.83570795742E+01 0.62675624594E+01 0.50551086003E+01 0.44045411278E+01 0.39601631643E+01
 0.36148112666E+01 0.33719760240E+01 0.32210284983E+01 0.31475884120E+01 0.31417878870E+01
 0.32026532529E+01 0.33387707642E+01 0.35652885719E+01 0.38969903383E+01 0.43377471544E+01
 0.49249984110E+01 0.59804967799E+01 0.78801402327E+01 0.10883441624E+02 0.15089545320E+02
 0.20418866711E+02 0.26611139955E+02 0.33235548729E+02 0.39719005439E+02 0.33762634837E+02
 0.37465157148E+02 0.39719005341E+02 0.40234792074E+02 0.38958195379E+02 0.36079920304E+02
 0.31988658368E+02 0.27183950226E+02 0.22179095297E+02 0.17422700809E+02 0.13253099081E+02
 0.98820763063E+01 0.73939511904E+01 0.57480262130E+01 0.47833518852E+01 0.42352163576E+01
 0.38269904119E+01 0.35075591813E+01 0.32801125303E+01 0.31347946443E+01 0.30577328022E+01
 0.30381108488E+01 0.30723815589E+01 0.31656782797E+01 0.33305454904E+01 0.35828233766E+01
 0.39345541760E+01 0.43847135744E+01 0.49911699612E+01 0.60574805170E+01 0.78801402201E+01
 0.10636564959E+02 0.14351777817E+02 0.18885895275E+02 0.23938800659E+02 0.29073316797E+02
 0.24007633160E+02 0.27037716598E+02 0.29073316726E+02 0.29843116520E+02 0.29252409051E+02
 0.27401614453E+02 0.24559258681E+02 0.21099037367E+02 0.17422700809E+02 0.13892192239E+02