   1   1   1   0
  0.1350000E+02  0.2598076E-09  0.2598076E-09  0.2598076E-09  0.5000000E-15
  1.000000000000000E-004
  CAR 
 Fe BCC                                  
     41.78560759     -5.06393916  301      4.25739777      1.00000000
     -5.064  0.0000E+00  0.0000E+00  0.0000E+00  0.0000E+00
     -4.908  0.0000E+00  0.0000E+00  0.0000E+00  0.0000E+00
     -4.752  0.0000E+00  0.0000E+00  0.0000E+00  0.0000E+00
     -4.595  0.0000E+00  0.0000E+00  0.0000E+00  0.0000E+00
     -4.439  0.0000E+00  0.0000E+00  0.0000E+00  0.0000E+00
     -4.283  0.0000E+00  0.0000E+00  0.0000E+00  0.0000E+00
     -4.127  0.0000E+00  0.0000E+00  0.0000E+00  0.0000E+00
     -3.971  0.0000E+00  0.0000E+00  0.0000E+00  0.0000E+00
     -3.815  0.0000E+00  0.0000E+00  0.0000E+00  0.0000E+00
     -3.658  0.0000E+00  0.0000E+00  0.0000E+00  0.0000E+00
     -3.502  0.0000E+00  0.0000E+00  0.0000E+00  0.0000E+00
     -3.346  0.0000E+00  0.0000E+00  0.0000E+00  0.0000E+00
     -3.190  0.0000E+00  0.0000E+00  0.0000E+00  0.0000E+00
     -3.034  0.0000E+00  0.0000E+00  0.0000E+00  0.0000E+00
     -2.878  0.1381E-01  0.0000E+00  0.1352E-02  0.0000E+00
     -2.721  0.2111E-01  0.1737E-01  0.4095E-02  0.2604E-02
     -2.565  0.2718E-01  0.2374E-01  0.7882E-02  0.5830E-02
     -2.409  0.3199E-01  0.2886E-01  0.1252E-01  0.9954E-02
     -2.253  0.4051E-01  0.3466E-01  0.1815E-01  0.1483E-01
     -2.097  0.4779E-01  0.4225E-01  0.2507E-01  0.2087E-01
     -1.941  0.5305E-01  0.4779E-01  0.3297E-01  0.2792E-01
     -1.784  0.5427E-01  0.5128E-01  0.4128E-01  0.3569E-01
     -1.628  0.6029E-01  0.5130E-01  0.5022E-01  0.4340E-01
     -1.472  0.6686E-01  0.5574E-01  0.6014E-01  0.5176E-01
     -1.316  0.7397E-01  0.6044E-01  0.7113E-01  0.6083E-01
     -1.160  0.8162E-01  0.6540E-01  0.8327E-01  0.7065E-01
     -1.004  0.8981E-01  0.7062E-01  0.9665E-01  0.8126E-01
     -0.847  0.1019E+00  0.7610E-01  0.1114E+00  0.9272E-01
     -0.691  0.1189E+00  0.8075E-01  0.1287E+00  0.1049E+00
     -0.535  0.1370E+00  0.8722E-01  0.1487E+00  0.1180E+00
     -0.379  0.1586E+00  0.9333E-01  0.1716E+00  0.1321E+00
     -0.223  0.1935E+00  0.9842E-01  0.1989E+00  0.1471E+00
     -0.067  0.2398E+00  0.1040E+00  0.2326E+00  0.1629E+00
      0.090  0.2965E+00  0.1109E+00  0.2744E+00  0.1797E+00
      0.246  0.5464E+00  0.1198E+00  0.3474E+00  0.1977E+00
      0.402  0.7997E+00  0.1295E+00  0.4479E+00  0.2171E+00
      0.558  0.1033E+01  0.1403E+00  0.5928E+00  0.2382E+00
      0.714  0.1248E+01  0.1521E+00  0.7854E+00  0.2610E+00
      0.870  0.7578E+00  0.1648E+00  0.9516E+00  0.2857E+00
      1.027  0.5092E+00  0.1856E+00  0.1051E+01  0.3131E+00
      1.183  0.4920E+00  0.2214E+00  0.1116E+01  0.3446E+00
      1.339  0.2281E+01  0.2680E+00  0.1331E+01  0.3827E+00
      1.495  0.1756E+01  0.3725E+00  0.1666E+01  0.4301E+00
      1.651  0.9447E+00  0.3782E+00  0.1862E+01  0.4887E+00
      1.807  0.1170E+01  0.3841E+00  0.2021E+01  0.5481E+00
      1.963  0.2114E+01  0.3867E+00  0.2269E+01  0.6084E+00
      2.120  0.1557E+01  0.4369E+00  0.2629E+01  0.6699E+00
      2.276  0.6451E+00  0.5158E+00  0.2762E+01  0.7458E+00
      2.432  0.5596E+00  0.7450E+00  0.2854E+01  0.8449E+00
      2.588  0.6451E+00  0.5389E+00  0.2944E+01  0.9492E+00
      2.744  0.1001E+01  0.2546E+00  0.3075E+01  0.1022E+01
      2.900  0.2058E+01  0.1841E+00  0.3305E+01  0.1058E+01
      3.057  0.3061E+01  0.2713E+00  0.3726E+01  0.1092E+01
      3.213  0.2953E+01  0.1284E+01  0.4194E+01  0.1194E+01
      3.369  0.1590E+01  0.1515E+01  0.4535E+01  0.1415E+01
      3.525  0.1092E+01  0.1893E+01  0.4741E+01  0.1701E+01
      3.681  0.1026E+01  0.1307E+01  0.4906E+01  0.1932E+01
      3.837  0.1529E+01  0.1316E+01  0.5091E+01  0.2134E+01
      3.994  0.2651E+00  0.1605E+01  0.5210E+01  0.2375E+01
      4.150  0.1678E+00  0.1446E+01  0.5238E+01  0.2607E+01
      4.306  0.1658E+00  0.1022E+01  0.5264E+01  0.2796E+01
      4.462  0.1701E+00  0.1701E+00  0.5290E+01  0.2878E+01
      4.618  0.1873E+00  0.1722E+00  0.5317E+01  0.2905E+01
      4.774  0.1804E+00  0.1765E+00  0.5347E+01  0.2933E+01
      4.931  0.1723E+00  0.2239E+00  0.5374E+01  0.2962E+01
      5.087  0.1669E+00  0.3947E+00  0.5401E+01  0.3014E+01
      5.243  0.1672E+00  0.5670E+00  0.5427E+01  0.3088E+01
      5.399  0.1675E+00  0.9032E+00  0.5453E+01  0.3200E+01
      5.555  0.1676E+00  0.1214E+01  0.5479E+01  0.3368E+01
      5.711  0.1675E+00  0.1803E+01  0.5505E+01  0.3604E+01
      5.868  0.1672E+00  0.1978E+01  0.5531E+01  0.3916E+01
      6.024  0.1665E+00  0.1435E+01  0.5557E+01  0.4169E+01
      6.180  0.1649E+00  0.2951E+01  0.5583E+01  0.4437E+01
      6.336  0.1619E+00  0.1719E+01  0.5609E+01  0.4879E+01
      6.492  0.1644E+00  0.1533E+01  0.5634E+01  0.5129E+01
      6.648  0.1610E+00  0.3323E+00  0.5660E+01  0.5244E+01
      6.805  0.1554E+00  0.3495E+00  0.5684E+01  0.5299E+01
      6.961  0.1469E+00  0.3101E+00  0.5711E+01  0.5351E+01
      7.117  0.1410E+00  0.2627E+00  0.5733E+01  0.5395E+01
      7.273  0.1352E+00  0.2558E+00  0.5755E+01  0.5436E+01
      7.429  0.1295E+00  0.2502E+00  0.5775E+01  0.5475E+01
      7.585  0.1238E+00  0.2460E+00  0.5795E+01  0.5514E+01
      7.742  0.1182E+00  0.2392E+00  0.5814E+01  0.5552E+01
      7.898  0.1127E+00  0.2280E+00  0.5832E+01  0.5589E+01
      8.054  0.1051E+00  0.2213E+00  0.5849E+01  0.5624E+01
      8.210  0.9824E-01  0.2026E+00  0.5865E+01  0.5657E+01
      8.366  0.9144E-01  0.1936E+00  0.5880E+01  0.5688E+01
      8.522  0.8474E-01  0.1949E+00  0.5894E+01  0.5718E+01
      8.679  0.8719E-01  0.1711E+00  0.5907E+01  0.5747E+01
      8.835  0.8020E-01  0.1616E+00  0.5920E+01  0.5773E+01
      8.991  0.7131E-01  0.1527E+00  0.5932E+01  0.5798E+01
      9.147  0.5055E-01  0.1442E+00  0.5942E+01  0.5821E+01
      9.303  0.4657E-01  0.1362E+00  0.5950E+01  0.5843E+01
      9.459  0.4282E-01  0.1255E+00  0.5957E+01  0.5863E+01
      9.616  0.3898E-01  0.1230E+00  0.5964E+01  0.5882E+01
      9.772  0.3028E-01  0.1120E+00  0.5970E+01  0.5900E+01
      9.928  0.2386E-01  0.9915E-01  0.5974E+01  0.5917E+01
     10.084  0.1974E-01  0.8428E-01  0.5977E+01  0.5931E+01
     10.240  0.2773E-01  0.6178E-01  0.5981E+01  0.5942E+01
     10.396  0.5361E-01  0.5615E-01  0.5987E+01  0.5952E+01
     10.553  0.8276E-01  0.5088E-01  0.5997E+01  0.5960E+01
     10.709  0.1171E+00  0.4463E-01  0.6013E+01  0.5969E+01
     10.865  0.1622E+00  0.3357E-01  0.6034E+01  0.5975E+01
     11.021  0.2200E+00  0.2553E-01  0.6065E+01  0.5980E+01
     11.177  0.2351E+00  0.2051E-01  0.6100E+01  0.5983E+01
     11.333  0.2579E+00  0.1876E-01  0.6140E+01  0.5986E+01
     11.490  0.2691E+00  0.2260E-01  0.6181E+01  0.5989E+01
     11.646  0.2734E+00  0.3262E-01  0.6224E+01  0.5993E+01
     11.802  0.2280E+00  0.8416E-01  0.6261E+01  0.6003E+01
     11.958  0.1889E+00  0.1363E+00  0.6295E+01  0.6021E+01
     12.114  0.1857E+00  0.2180E+00  0.6324E+01  0.6049E+01
     12.270  0.1830E+00  0.2730E+00  0.6353E+01  0.6088E+01
     12.427  0.1808E+00  0.2968E+00  0.6381E+01  0.6133E+01
     12.583  0.1792E+00  0.3145E+00  0.6409E+01  0.6181E+01
     12.739  0.1821E+00  0.3039E+00  0.6438E+01  0.6230E+01
     12.895  0.1974E+00  0.2597E+00  0.6467E+01  0.6274E+01
     13.051  0.1932E+00  0.2221E+00  0.6497E+01  0.6310E+01
     13.207  0.1907E+00  0.2166E+00  0.6527E+01  0.6345E+01
     13.364  0.1900E+00  0.2182E+00  0.6557E+01  0.6379E+01
     13.520  0.1808E+00  0.2202E+00  0.6588E+01  0.6413E+01
     13.676  0.1857E+00  0.2318E+00  0.6617E+01  0.6449E+01
     13.832  0.1915E+00  0.1958E+00  0.6646E+01  0.6485E+01
     13.988  0.1979E+00  0.1970E+00  0.6676E+01  0.6516E+01
     14.144  0.2159E+00  0.1991E+00  0.6710E+01  0.6547E+01
     14.301  0.2180E+00  0.2017E+00  0.6743E+01  0.6578E+01
     14.457  0.2204E+00  0.2049E+00  0.6778E+01  0.6610E+01
     14.613  0.2317E+00  0.2107E+00  0.6814E+01  0.6642E+01
     14.769  0.2349E+00  0.2175E+00  0.6851E+01  0.6676E+01
     14.925  0.2391E+00  0.2349E+00  0.6888E+01  0.6713E+01
     15.081  0.2443E+00  0.2370E+00  0.6925E+01  0.6749E+01
     15.238  0.2411E+00  0.2472E+00  0.6963E+01  0.6788E+01
     15.394  0.2068E+00  0.2503E+00  0.6997E+01  0.6827E+01
     15.550  0.2038E+00  0.2523E+00  0.7029E+01  0.6866E+01
     15.706  0.2010E+00  0.2746E+00  0.7060E+01  0.6907E+01
     15.862  0.1983E+00  0.2366E+00  0.7091E+01  0.6945E+01
     16.018  0.1958E+00  0.2190E+00  0.7122E+01  0.6981E+01
     16.175  0.1943E+00  0.2159E+00  0.7153E+01  0.7015E+01
     16.331  0.1923E+00  0.2129E+00  0.7183E+01  0.7048E+01
     16.487  0.1948E+00  0.2099E+00  0.7213E+01  0.7081E+01
     16.643  0.1858E+00  0.2073E+00  0.7243E+01  0.7114E+01
     16.799  0.1833E+00  0.2048E+00  0.7272E+01  0.7146E+01
     16.955  0.1823E+00  0.2037E+00  0.7300E+01  0.7178E+01
     17.112  0.1803E+00  0.2017E+00  0.7329E+01  0.7210E+01
     17.268  0.1777E+00  0.2020E+00  0.7357E+01  0.7242E+01
     17.424  0.1758E+00  0.1950E+00  0.7384E+01  0.7273E+01
     17.580  0.1740E+00  0.1938E+00  0.7412E+01  0.7303E+01
     17.736  0.1721E+00  0.1916E+00  0.7439E+01  0.7333E+01
     17.892  0.1703E+00  0.1891E+00  0.7465E+01  0.7363E+01
     18.049  0.1687E+00  0.1874E+00  0.7492E+01  0.7392E+01
     18.205  0.1675E+00  0.1857E+00  0.7518E+01  0.7421E+01
     18.361  0.1723E+00  0.1839E+00  0.7545E+01  0.7450E+01
     18.517  0.1726E+00  0.1823E+00  0.7572E+01  0.7479E+01
     18.673  0.1751E+00  0.1809E+00  0.7599E+01  0.7507E+01
     18.829  0.1797E+00  0.1796E+00  0.7626E+01  0.7535E+01
     18.985  0.1872E+00  0.1778E+00  0.7655E+01  0.7563E+01
     19.142  0.1983E+00  0.1763E+00  0.7685E+01  0.7591E+01
     19.298  0.2195E+00  0.1856E+00  0.7719E+01  0.7620E+01
     19.454  0.2188E+00  0.1923E+00  0.7755E+01  0.7649E+01
     19.610  0.2275E+00  0.2034E+00  0.7790E+01  0.7680E+01
     19.766  0.2365E+00  0.2153E+00  0.7826E+01  0.7713E+01
     19.922  0.2456E+00  0.3249E+00  0.7864E+01  0.7749E+01
     20.079  0.2544E+00  0.2412E+00  0.7903E+01  0.7789E+01
     20.235  0.2645E+00  0.2510E+00  0.7943E+01  0.7827E+01
     20.391  0.2762E+00  0.2604E+00  0.7986E+01  0.7867E+01
     20.547  0.2878E+00  0.2701E+00  0.8030E+01  0.7908E+01
     20.703  0.2994E+00  0.2807E+00  0.8076E+01  0.7951E+01
     20.859  0.3142E+00  0.2899E+00  0.8123E+01  0.7996E+01
     21.016  0.3392E+00  0.3005E+00  0.8174E+01  0.8042E+01
     21.172  0.3538E+00  0.3001E+00  0.8228E+01  0.8089E+01
     21.328  0.3336E+00  0.3152E+00  0.8281E+01  0.8137E+01
     21.484  0.3297E+00  0.3294E+00  0.8333E+01  0.8187E+01
     21.640  0.3278E+00  0.3523E+00  0.8384E+01  0.8241E+01
     21.796  0.3263E+00  0.3425E+00  0.8435E+01  0.8296E+01
     21.953  0.3171E+00  0.3403E+00  0.8485E+01  0.8349E+01
     22.109  0.3125E+00  0.3373E+00  0.8535E+01  0.8402E+01
     22.265  0.3133E+00  0.3332E+00  0.8583E+01  0.8455E+01
     22.421  0.3044E+00  0.3216E+00  0.8631E+01  0.8506E+01
     22.577  0.2996E+00  0.3199E+00  0.8679E+01  0.8556E+01
     22.733  0.2990E+00  0.3138E+00  0.8725E+01  0.8606E+01
     22.890  0.2767E+00  0.3028E+00  0.8770E+01  0.8654E+01
     23.046  0.2535E+00  0.2915E+00  0.8812E+01  0.8700E+01
     23.202  0.2274E+00  0.2767E+00  0.8849E+01  0.8745E+01
     23.358  0.1985E+00  0.2640E+00  0.8883E+01  0.8787E+01
     23.514  0.1706E+00  0.2400E+00  0.8911E+01  0.8826E+01
     23.670  0.1598E+00  0.2079E+00  0.8937E+01  0.8862E+01
     23.827  0.1604E+00  0.1845E+00  0.8962E+01  0.8892E+01
     23.983  0.1633E+00  0.1729E+00  0.8987E+01  0.8920E+01
     24.139  0.1672E+00  0.1697E+00  0.9013E+01  0.8946E+01
     24.295  0.1717E+00  0.1715E+00  0.9039E+01  0.8973E+01
     24.451  0.1632E+00  0.1733E+00  0.9065E+01  0.9000E+01
     24.607  0.1569E+00  0.1697E+00  0.9090E+01  0.9027E+01
     24.764  0.1567E+00  0.1644E+00  0.9114E+01  0.9053E+01
     24.920  0.1689E+00  0.1635E+00  0.9139E+01  0.9079E+01
     25.076  0.1664E+00  0.1629E+00  0.9165E+01  0.9104E+01
     25.232  0.1608E+00  0.1625E+00  0.9191E+01  0.9130E+01
     25.388  0.1566E+00  0.1738E+00  0.9216E+01  0.9156E+01
     25.544  0.1593E+00  0.1709E+00  0.9240E+01  0.9183E+01
     25.701  0.1633E+00  0.1623E+00  0.9265E+01  0.9209E+01
     25.857  0.1691E+00  0.1610E+00  0.9291E+01  0.9234E+01
     26.013  0.1736E+00  0.1668E+00  0.9319E+01  0.9260E+01
     26.169  0.1818E+00  0.1732E+00  0.9346E+01  0.9286E+01
     26.325  0.1925E+00  0.1804E+00  0.9376E+01  0.9314E+01
     26.481  0.3449E+00  0.1882E+00  0.9420E+01  0.9343E+01
     26.638  0.3426E+00  0.1966E+00  0.9474E+01  0.9373E+01
     26.794  0.3010E+00  0.2712E+00  0.9525E+01  0.9409E+01
     26.950  0.2381E+00  0.4298E+00  0.9567E+01  0.9467E+01
     27.106  0.2141E+00  0.2718E+00  0.9603E+01  0.9525E+01
     27.262  0.2019E+00  0.2556E+00  0.9635E+01  0.9566E+01
     27.418  0.1894E+00  0.2396E+00  0.9666E+01  0.9604E+01
     27.575  0.1771E+00  0.2223E+00  0.9694E+01  0.9641E+01
     27.731  0.1735E+00  0.1980E+00  0.9722E+01  0.9673E+01
     27.887  0.1738E+00  0.1904E+00  0.9749E+01  0.9704E+01
     28.043  0.1738E+00  0.1935E+00  0.9776E+01  0.9733E+01
     28.199  0.1738E+00  0.2055E+00  0.9803E+01  0.9764E+01
     28.355  0.1735E+00  0.2146E+00  0.9830E+01  0.9798E+01
     28.512  0.2178E+00  0.2087E+00  0.9879E+01  0.9831E+01
     28.668  0.2744E+00  0.2013E+00  0.9917E+01  0.9863E+01
     28.824  0.2829E+00  0.1926E+00  0.9961E+01  0.9894E+01
     28.980  0.2805E+00  0.1831E+00  0.1000E+02  0.9923E+01
     29.136  0.2828E+00  0.2538E+00  0.1005E+02  0.9957E+01
     29.292  0.3033E+00  0.2681E+00  0.1009E+02  0.9998E+01
     29.449  0.3231E+00  0.2773E+00  0.1014E+02  0.1004E+02
     29.605  0.3423E+00  0.3013E+00  0.1020E+02  0.1009E+02
     29.761  0.3528E+00  0.3236E+00  0.1025E+02  0.1014E+02
     29.917  0.3567E+00  0.3437E+00  0.1031E+02  0.1019E+02
     30.073  0.3545E+00  0.3622E+00  0.1036E+02  0.1024E+02
     30.229  0.3924E+00  0.3644E+00  0.1042E+02  0.1030E+02
     30.386  0.3608E+00  0.3650E+00  0.1048E+02  0.1036E+02
     30.542  0.3442E+00  0.3677E+00  0.1053E+02  0.1041E+02
     30.698  0.3162E+00  0.3640E+00  0.1059E+02  0.1047E+02
     30.854  0.2705E+00  0.3530E+00  0.1063E+02  0.1053E+02
     31.010  0.2542E+00  0.3175E+00  0.1067E+02  0.1058E+02
     31.166  0.2420E+00  0.2808E+00  0.1071E+02  0.1063E+02
     31.323  0.2350E+00  0.2723E+00  0.1075E+02  0.1067E+02
     31.479  0.2330E+00  0.2620E+00  0.1079E+02  0.1071E+02
     31.635  0.2261E+00  0.2488E+00  0.1082E+02  0.1075E+02
     31.791  0.2344E+00  0.2441E+00  0.1086E+02  0.1079E+02
     31.947  0.2438E+00  0.2533E+00  0.1090E+02  0.1083E+02
     32.103  0.2559E+00  0.2307E+00  0.1093E+02  0.1086E+02
     32.260  0.2679E+00  0.2314E+00  0.1098E+02  0.1090E+02
     32.416  0.2799E+00  0.2454E+00  0.1102E+02  0.1094E+02
     32.572  0.2926E+00  0.2602E+00  0.1106E+02  0.1098E+02
     32.728  0.3158E+00  0.2762E+00  0.1111E+02  0.1102E+02
     32.884  0.3412E+00  0.2925E+00  0.1116E+02  0.1106E+02
     33.040  0.3742E+00  0.3064E+00  0.1122E+02  0.1111E+02
     33.197  0.3733E+00  0.3207E+00  0.1128E+02  0.1116E+02
     33.353  0.3299E+00  0.4102E+00  0.1133E+02  0.1122E+02
     33.509  0.2801E+00  0.3654E+00  0.1138E+02  0.1128E+02
     33.665  0.2537E+00  0.3291E+00  0.1142E+02  0.1133E+02
     33.821  0.2452E+00  0.2892E+00  0.1146E+02  0.1138E+02
     33.977  0.2371E+00  0.2568E+00  0.1150E+02  0.1142E+02
     34.134  0.2292E+00  0.2493E+00  0.1153E+02  0.1146E+02
     34.290  0.2154E+00  0.2352E+00  0.1157E+02  0.1150E+02
     34.446  0.2086E+00  0.2271E+00  0.1160E+02  0.1154E+02
     34.602  0.2004E+00  0.2190E+00  0.1163E+02  0.1157E+02
     34.758  0.1927E+00  0.2109E+00  0.1166E+02  0.1161E+02
     34.914  0.1854E+00  0.2026E+00  0.1169E+02  0.1164E+02
     35.071  0.1786E+00  0.1944E+00  0.1172E+02  0.1167E+02
     35.227  0.1872E+00  0.1836E+00  0.1175E+02  0.1170E+02
     35.383  0.1885E+00  0.1846E+00  0.1178E+02  0.1173E+02
     35.539  0.1786E+00  0.1891E+00  0.1181E+02  0.1176E+02
     35.695  0.1654E+00  0.1888E+00  0.1184E+02  0.1179E+02
     35.851  0.1269E+00  0.1835E+00  0.1186E+02  0.1182E+02
     36.007  0.9757E-01  0.1200E+00  0.1188E+02  0.1185E+02
     36.164  0.7794E-01  0.1135E+00  0.1189E+02  0.1186E+02
     36.320  0.6987E-01  0.9356E-01  0.1190E+02  0.1188E+02
     36.476  0.6344E-01  0.7502E-01  0.1191E+02  0.1189E+02
     36.632  0.5864E-01  0.6665E-01  0.1192E+02  0.1190E+02
     36.788  0.5469E-01  0.6221E-01  0.1193E+02  0.1191E+02
     36.944  0.5092E-01  0.5821E-01  0.1194E+02  0.1192E+02
     37.101  0.4735E-01  0.5436E-01  0.1195E+02  0.1193E+02
     37.257  0.4396E-01  0.5068E-01  0.1195E+02  0.1194E+02
     37.413  0.4076E-01  0.4716E-01  0.1196E+02  0.1195E+02
     37.569  0.3775E-01  0.4379E-01  0.1197E+02  0.1196E+02
     37.725  0.3493E-01  0.4059E-01  0.1197E+02  0.1196E+02
     37.881  0.3230E-01  0.3755E-01  0.1198E+02  0.1197E+02
     38.038  0.2985E-01  0.3466E-01  0.1198E+02  0.1197E+02
     38.194  0.2760E-01  0.3194E-01  0.1199E+02  0.1198E+02
     38.350  0.2982E-01  0.2454E-01  0.1199E+02  0.1199E+02
     38.506  0.4623E-02  0.2272E-01  0.1200E+02  0.1199E+02
     38.662  0.4175E-02  0.2206E-01  0.1200E+02  0.1199E+02
     38.818  0.3744E-02  0.8989E-02  0.1200E+02  0.1200E+02
     38.975  0.3331E-02  0.4175E-02  0.1200E+02  0.1200E+02
     39.131  0.2935E-02  0.3714E-02  0.1200E+02  0.1200E+02
     39.287  0.2557E-02  0.3275E-02  0.1200E+02  0.1200E+02
     39.443  0.0000E+00  0.2856E-02  0.1200E+02  0.1200E+02
     39.599  0.0000E+00  0.2457E-02  0.1200E+02  0.1200E+02
     39.755  0.0000E+00  0.0000E+00  0.1200E+02  0.1200E+02
     39.912  0.0000E+00  0.0000E+00  0.1200E+02  0.1200E+02
     40.068  0.0000E+00  0.0000E+00  0.1200E+02  0.1200E+02
     40.224  0.0000E+00  0.0000E+00  0.1200E+02  0.1200E+02
     40.380  0.0000E+00  0.0000E+00  0.1200E+02  0.1200E+02
     40.536  0.0000E+00  0.0000E+00  0.1200E+02  0.1200E+02
     40.692  0.0000E+00  0.0000E+00  0.1200E+02  0.1200E+02
     40.849  0.0000E+00  0.0000E+00  0.1200E+02  0.1200E+02
     41.005  0.0000E+00  0.0000E+00  0.1200E+02  0.1200E+02
     41.161  0.0000E+00  0.0000E+00  0.1200E+02  0.1200E+02
     41.317  0.0000E+00  0.0000E+00  0.1200E+02  0.1200E+02
     41.473  0.0000E+00  0.0000E+00  0.1200E+02  0.1200E+02
     41.629  0.0000E+00  0.0000E+00  0.1200E+02  0.1200E+02
     41.786  0.0000E+00  0.0000E+00  0.1200E+02  0.1200E+02
     41.78560759     -5.06393916  301      4.25739777      1.00000000
     -5.064  0.0000E+00  0.0000E+00  0.0000E+00  0.0000E+00  0.0000E+00  0.0000E+00  0.0000E+00  0.0000E+00  0.0000E+00  0.0000E+00  0.0000E+00  0.0000E+00  0.0000E+00  0.0000E+00  0.0000E+00  0.0000E+00  0.0000E+00  0.0000E+00
     -4.908  0.0000E+00  0.0000E+00  0.0000E+00  0.0000E+00  0.0000E+00  0.0000E+00  0.0000E+00  0.0000E+00  0.0000E+00  0.0000E+00  0.0000E+00  0.0000E+00  0.0000E+00  0.0000E+00  0.0000E+00  0.0000E+00  0.0000E+00  0.0000E+00
     -4.752  0.0000E+00  0.0000E+00  0.0000E+00  0.0000E+00  0.0000E+00  0.0000E+00  0.0000E+00  0.0000E+00  0.0000E+00  0.0000E+00  0.0000E+00  0.0000E+00  0.0000E+00  0.0000E+00  0.0000E+00  0.0000E+00  0.0000E+00  0.0000E+00
     -4.595  0.0000E+00  0.0000E+00  0.0000E+00  0.0000E+00  0.0000E+00  0.0000E+00  0.0000E+00  0.0000E+00  0.0000E+00  0.0000E+00  0.0000E+00  0.0000E+00  0.0000E+00  0.0000E+00  0.0000E+00  0.0000E+00  0.0000E+00  0.0000E+00
     -4.439  0.0000E+00  0.0000E+00  0.0000E+00  0.0000E+00  0.0000E+00  0.0000E+00  0.0000E+00  0.0000E+00  0.0000E+00  0.0000E+00  0.0000E+00  0.0000E+00  0.0000E+00  0.0000E+00  0.0000E+00  0.0000E+00  0.0000E+00  0.0000E+00
     -4.283  0.0000E+00  0.0000E+00  0.0000E+00  0.0000E+00  0.0000E+00  0.0000E+00  0.0000E+00  0.0000E+00  0.0000E+00  0.0000E+00  0.0000E+00  0.0000E+00  0.0000E+00  0.0000E+00  0.0000E+00  0.0000E+00  0.0000E+00  0.0000E+00
     -4.127  0.0000E+00  0.0000E+00  0.0000E+00  0.0000E+00  0.0000E+00  0.0000E+00  0.0000E+00  0.0000E+00  0.0000E+00  0.0000E+00  0.0000E+00  0.0000E+00  0.0000E+00  0.0000E+00  0.0000E+00  0.0000E+00  0.0000E+00  0.0000E+00
     -3.971  0.0000E+00  0.0000E+00  0.0000E+00  0.0000E+00  0.0000E+00  0.0000E+00  0.0000E+00  0.0000E+00  0.0000E+00  0.0000E+00  0.0000E+00  0.0000E+00  0.0000E+00  0.0000E+00  0.0000E+00  0.0000E+00  0.0000E+00  0.0000E+00
     -3.815  0.0000E+00  0.0000E+00  0.0000E+00  0.0000E+00  0.0000E+00  0.0000E+00  0.0000E+00  0.0000E+00  0.0000E+00  0.0000E+00  0.0000E+00  0.0000E+00  0.0000E+00  0.0000E+00  0.0000E+00  0.0000E+00  0.0000E+00  0.0000E+00
     -3.658  0.0000E+00  0.0000E+00  0.0000E+00  0.0000E+00  0.0000E+00  0.0000E+00  0.0000E+00  0.0000E+00  0.0000E+00  0.0000E+00  0.0000E+00  0.0000E+00  0.0000E+00  0.0000E+00  0.0000E+00  0.0000E+00  0.0000E+00  0.0000E+00
     -3.502  0.0000E+00  0.0000E+00  0.0000E+00  0.0000E+00  0.0000E+00  0.0000E+00  0.0000E+00  0.0000E+00  0.0000E+00  0.0000E+00  0.0000E+00  0.0000E+00  0.0000E+00  0.0000E+00  0.0000E+00  0.0000E+00  0.0000E+00  0.0000E+00
     -3.346  0.0000E+00  0.0000E+00  0.0000E+00  0.0000E+00  0.0000E+00  0.0000E+00  0.0000E+00  0.0000E+00  0.0000E+00  0.0000E+00  0.0000E+00  0.0000E+00  0.0000E+00  0.0000E+00  0.0000E+00  0.0000E+00  0.0000E+00  0.0000E+00
     -3.190  0.0000E+00  0.0000E+00  0.0000E+00  0.0000E+00  0.0000E+00  0.0000E+00  0.0000E+00  0.0000E+00  0.0000E+00  0.0000E+00  0.0000E+00  0.0000E+00  0.0000E+00  0.0000E+00  0.0000E+00  0.0000E+00  0.0000E+00  0.0000E+00
     -3.034  0.0000E+00  0.0000E+00  0.0000E+00  0.0000E+00  0.0000E+00  0.0000E+00  0.0000E+00  0.0000E+00  0.0000E+00  0.0000E+00  0.0000E+00  0.0000E+00  0.0000E+00  0.0000E+00  0.0000E+00  0.0000E+00  0.0000E+00  0.0000E+00
     -2.878  0.7885E-02  0.0000E+00  0.7195E-04  0.0000E+00  0.4857E-04  0.0000E+00  0.3024E-03  0.0000E+00  0.2500E-04  0.0000E+00  0.6663E-05  0.0000E+00  0.9124E-05  0.0000E+00  0.6343E-05  0.0000E+00  0.1067E-04  0.0000E+00
     -2.721  0.1186E-01  0.9695E-02  0.1576E-03  0.1160E-03  0.9798E-04  0.7474E-04  0.5447E-03  0.4180E-03  0.6158E-04  0.2160E-04  0.1855E-04  0.6449E-05  0.2340E-04  0.7882E-05  0.1405E-04  0.5706E-05  0.2764E-04  0.9751E-05
     -2.565  0.1505E-01  0.1307E-01  0.2453E-03  0.2021E-03  0.1381E-03  0.1188E-03  0.8141E-03  0.6667E-03  0.1077E-03  0.4181E-04  0.3565E-04  0.1311E-04  0.4357E-04  0.1613E-04  0.2213E-04  0.9752E-05  0.5413E-04  0.2035E-04
     -2.409  0.1744E-01  0.1567E-01  0.3353E-03  0.2904E-03  0.1690E-03  0.1540E-03  0.1111E-02  0.9405E-03  0.1633E-03  0.6626E-04  0.5798E-04  0.2161E-04  0.6965E-04  0.2704E-04  0.3059E-04  0.1374E-04  0.9014E-04  0.3519E-04
     -2.253  0.2168E-01  0.1853E-01  0.5085E-03  0.4121E-03  0.2605E-03  0.2048E-03  0.1555E-02  0.1291E-02  0.2603E-03  0.9995E-04  0.1267E-03  0.3735E-04  0.1131E-03  0.4215E-04  0.5357E-04  0.1977E-04  0.1488E-03  0.5615E-04
     -2.097  0.2506E-01  0.2222E-01  0.6989E-03  0.5958E-03  0.3801E-03  0.3115E-03  0.1972E-02  0.1712E-02  0.3895E-03  0.1499E-03  0.2442E-03  0.7500E-04  0.1723E-03  0.6340E-04  0.9467E-04  0.3401E-04  0.2276E-03  0.8622E-04
     -1.941  0.2715E-01  0.2469E-01  0.8947E-03  0.7846E-03  0.5193E-03  0.4371E-03  0.2340E-02  0.2084E-02  0.5475E-03  0.2081E-03  0.4068E-03  0.1293E-03  0.2461E-03  0.8824E-04  0.1529E-03  0.5466E-04  0.3251E-03  0.1225E-03
     -1.784  0.2646E-01  0.2592E-01  0.1069E-02  0.9788E-03  0.6906E-03  0.5817E-03  0.2726E-02  0.2406E-02  0.8114E-03  0.2744E-03  0.6393E-03  0.2001E-03  0.4053E-03  0.1167E-03  0.2622E-03  0.8172E-04  0.5588E-03  0.1651E-03
     -1.628  0.2855E-01  0.2495E-01  0.1245E-02  0.1133E-02  0.8286E-03  0.7415E-03  0.3195E-02  0.2762E-02  0.1200E-02  0.3812E-03  0.8256E-03  0.2842E-03  0.6269E-03  0.1779E-03  0.3670E-03  0.1274E-03  0.7680E-03  0.2685E-03
     -1.472  0.3076E-01  0.2657E-01  0.1427E-02  0.1304E-02  0.9719E-03  0.8716E-03  0.3716E-02  0.3191E-02  0.1662E-02  0.5155E-03  0.1045E-02  0.3522E-03  0.8969E-03  0.2457E-03  0.4950E-03  0.1676E-03  0.1012E-02  0.3507E-03
     -1.316  0.3308E-01  0.2825E-01  0.1615E-02  0.1481E-02  0.1120E-02  0.1006E-02  0.4289E-02  0.3661E-02  0.2199E-02  0.6699E-03  0.1297E-02  0.4288E-03  0.1215E-02  0.3247E-03  0.6463E-03  0.2145E-03  0.1291E-02  0.4439E-03
     -1.160  0.3552E-01  0.2999E-01  0.1809E-02  0.1663E-02  0.1274E-02  0.1144E-02  0.4914E-02  0.4172E-02  0.2810E-02  0.8445E-03  0.1582E-02  0.5142E-03  0.1582E-02  0.4149E-03  0.8208E-03  0.2681E-03  0.1605E-02  0.5479E-03
     -1.004  0.3808E-01  0.3179E-01  0.2009E-02  0.1851E-02  0.1433E-02  0.1287E-02  0.5591E-02  0.4724E-02  0.3496E-02  0.1039E-02  0.1900E-02  0.6081E-03  0.1998E-02  0.5164E-03  0.1018E-02  0.3283E-03  0.1954E-02  0.6628E-03
     -0.847  0.4082E-01  0.3366E-01  0.2326E-02  0.2044E-02  0.1765E-02  0.1434E-02  0.6443E-02  0.5317E-02  0.4773E-02  0.1254E-02  0.3030E-02  0.7108E-03  0.2881E-02  0.6291E-03  0.1606E-02  0.3952E-03  0.2548E-02  0.7886E-03
     -0.691  0.4444E-01  0.3460E-01  0.2709E-02  0.2246E-02  0.2177E-02  0.1651E-02  0.7580E-02  0.5932E-02  0.6743E-02  0.1578E-02  0.4749E-02  0.9573E-03  0.4352E-02  0.8146E-03  0.2325E-02  0.5461E-03  0.3596E-02  0.9505E-03
     -0.535  0.4736E-01  0.3605E-01  0.3012E-02  0.2525E-02  0.2552E-02  0.1941E-02  0.8855E-02  0.6653E-02  0.9218E-02  0.2026E-02  0.6783E-02  0.1341E-02  0.6345E-02  0.1085E-02  0.3161E-02  0.7120E-03  0.5039E-02  0.1203E-02
     -0.379  0.5006E-01  0.3712E-01  0.3210E-02  0.2774E-02  0.2823E-02  0.2228E-02  0.1031E-01  0.7396E-02  0.1315E-01  0.2526E-02  0.9257E-02  0.1777E-02  0.9462E-02  0.1411E-02  0.4099E-02  0.8907E-03  0.6971E-02  0.1530E-02
     -0.223  0.5533E-01  0.3755E-01  0.3530E-02  0.2945E-02  0.3129E-02  0.2471E-02  0.1216E-01  0.8107E-02  0.2020E-01  0.3098E-02  0.1300E-01  0.2246E-02  0.1470E-01  0.1805E-02  0.5142E-02  0.1079E-02  0.9459E-02  0.1924E-02
     -0.067  0.6171E-01  0.3809E-01  0.3868E-02  0.3100E-02  0.3464E-02  0.2691E-02  0.1427E-01  0.8825E-02  0.3053E-01  0.3818E-02  0.1817E-01  0.2749E-02  0.2240E-01  0.2284E-02  0.6357E-02  0.1276E-02  0.1255E-01  0.2355E-02
      0.090  0.6903E-01  0.3911E-01  0.4216E-02  0.3285E-02  0.3834E-02  0.2916E-02  0.1663E-01  0.9599E-02  0.4390E-01  0.4713E-02  0.2469E-01  0.3305E-02  0.3245E-01  0.2854E-02  0.7755E-02  0.1479E-02  0.1625E-01  0.2820E-02
      0.246  0.9284E-01  0.4066E-01  0.4894E-02  0.3500E-02  0.5314E-02  0.3139E-02  0.2163E-01  0.1047E-01  0.1042E+00  0.5925E-02  0.7111E-01  0.3954E-02  0.8112E-01  0.3596E-02  0.1186E-01  0.1689E-02  0.3323E-01  0.3329E-02
      0.402  0.9781E-01  0.4235E-01  0.5342E-02  0.3720E-02  0.6794E-02  0.3368E-02  0.3050E-01  0.1140E-01  0.1271E+00  0.7368E-02  0.9292E-01  0.4698E-02  0.1627E+00  0.4477E-02  0.2249E-01  0.1917E-02  0.9535E-01  0.3887E-02
      0.558  0.8778E-01  0.4417E-01  0.5375E-02  0.3946E-02  0.6795E-02  0.3603E-02  0.3693E-01  0.1240E-01  0.1456E+00  0.9042E-02  0.1039E+00  0.5537E-02  0.2713E+00  0.5496E-02  0.3682E-01  0.2163E-02  0.1535E+00  0.4493E-02
      0.714  0.7228E-01  0.4612E-01  0.6611E-02  0.4176E-02  0.6545E-02  0.3845E-02  0.4297E-01  0.1346E-01  0.1507E+00  0.1095E-01  0.1061E+00  0.6469E-02  0.3934E+00  0.6654E-02  0.5484E-01  0.2429E-02  0.2086E+00  0.5148E-02
      0.870  0.3592E-01  0.4820E-01  0.5578E-02  0.4412E-02  0.4096E-02  0.4093E-02  0.1939E-01  0.1459E-01  0.9797E-01  0.1308E-01  0.1268E+00  0.7495E-02  0.1398E+00  0.7952E-02  0.6995E-01  0.2714E-02  0.1469E+00  0.5853E-02
      1.027  0.1512E-01  0.4964E-01  0.4970E-02  0.4671E-02  0.2096E-02  0.4552E-02  0.1178E-01  0.1653E-01  0.4721E-01  0.1612E-01  0.9734E-01  0.1059E-01  0.6934E-01  0.1042E-01  0.5111E-01  0.3531E-02  0.1410E+00  0.8106E-02
      1.183  0.4032E-02  0.5401E-01  0.7866E-02  0.5193E-02  0.2614E-02  0.5325E-02  0.1082E-01  0.1863E-01  0.2333E-01  0.2165E-01  0.7351E-01  0.1650E-01  0.9026E-01  0.1447E-01  0.4213E-01  0.4522E-02  0.1738E+00  0.1093E-01
      1.339  0.1616E-02  0.5942E-01  0.2720E-01  0.5699E-02  0.2132E-01  0.6091E-02  0.1640E-01  0.2096E-01  0.4337E+00  0.2970E-01  0.3079E+00  0.2466E-01  0.2231E+00  0.2022E-01  0.7577E+00  0.5619E-02  0.2725E+00  0.1450E-01
      1.495  0.3876E-02  0.7292E-01  0.1943E-01  0.6031E-02  0.1101E-01  0.6513E-02  0.1334E-01  0.2544E-01  0.1958E+00  0.5468E-01  0.3050E+00  0.3899E-01  0.2007E+00  0.3583E-01  0.5749E+00  0.6972E-02  0.2684E+00  0.2043E-01
      1.651  0.7495E-02  0.6817E-01  0.1224E-01  0.5650E-02  0.1271E-01  0.6565E-02  0.5765E-02  0.2592E-01  0.2071E+00  0.5567E-01  0.1379E+00  0.4207E-01  0.1131E+00  0.3979E-01  0.2788E+00  0.8425E-02  0.8274E-01  0.2245E-01
      1.807  0.1308E-01  0.6429E-01  0.2267E-01  0.5392E-02  0.2427E-01  0.6603E-02  0.1482E-01  0.2669E-01  0.2661E+00  0.5677E-01  0.2434E+00  0.4386E-01  0.8890E-01  0.4328E-01  0.2582E+00  0.1019E-01  0.1196E+00  0.2425E-01
      1.963  0.2508E-01  0.5980E-01  0.3906E-01  0.5094E-02  0.3210E-01  0.6507E-02  0.3528E-01  0.2732E-01  0.5138E+00  0.5612E-01  0.4834E+00  0.4572E-01  0.1232E+00  0.4604E-01  0.4211E+00  0.1213E-01  0.2379E+00  0.2672E-01
      2.120  0.2149E-01  0.5779E-01  0.3526E-01  0.4887E-02  0.2725E-01  0.6522E-02  0.2575E-01  0.3185E-01  0.2869E+00  0.6336E-01  0.3166E+00  0.4657E-01  0.7929E-01  0.6186E-01  0.3760E+00  0.1471E-01  0.2347E+00  0.3864E-01
      2.276  0.1034E-01  0.5186E-01  0.1631E-01  0.5571E-02  0.1253E-01  0.7354E-02  0.1032E-01  0.3698E-01  0.9206E-01  0.6081E-01  0.1453E+00  0.6493E-01  0.3517E-01  0.7961E-01  0.1366E+00  0.2381E-01  0.1227E+00  0.6161E-01
      2.432  0.6758E-02  0.4458E-01  0.1140E-01  0.6681E-02  0.8398E-02  0.7090E-02  0.7119E-02  0.4296E-01  0.8139E-01  0.6185E-01  0.1346E+00  0.6443E-01  0.3649E-01  0.1583E+00  0.1246E+00  0.2675E-01  0.1017E+00  0.1664E+00
      2.588  0.4687E-02  0.2980E-01  0.8748E-02  0.6585E-02  0.6637E-02  0.6328E-02  0.5018E-02  0.2597E-01  0.1132E+00  0.5364E-01  0.1611E+00  0.5735E-01  0.5466E-01  0.1376E+00  0.1562E+00  0.2593E-01  0.9240E-01  0.8104E-01
      2.744  0.3513E-02  0.8334E-02  0.8350E-02  0.4329E-02  0.4647E-02  0.2626E-02  0.4161E-02  0.8833E-02  0.2714E+00  0.1368E-01  0.1361E+00  0.4257E-01  0.2206E+00  0.6994E-01  0.1579E+00  0.1208E-01  0.1447E+00  0.4220E-01