    1    1    1    2
  0.1350000E+02  0.2598076E-09  0.2598076E-09  0.2598076E-09  0.5000000E-15
  1.000000000000000E-004
  CAR 
 Fe BCC                                  
      8     26     12
 
  0.6250000E-01  0.6250000E-01  0.6250000E-01  0.1562500E-01
    1       -2.389015     -2.307512   1.000000   1.000000
    2        1.931342      4.214529   1.000000   0.856052
    3        1.931342      4.214529   1.000000   0.718644
    4        2.545024      4.937861   1.000000   0.000000
    5        3.020367      5.946149   1.000000   0.000000
    6        3.020367      5.946149   1.001677   0.000000
    7       23.734995     23.857705   0.000000   0.000000
    8       23.734995     23.857705   0.000000   0.000000
    9       26.167032     27.056017   0.000000   0.000000
   10       28.384889     27.947053   0.000000   0.000000
   11       31.891536     32.281262   0.000000   0.000000
   12       31.891536     32.281262   0.000000   0.000000
 
  0.1875000E+00  0.6250000E-01  0.6250000E-01  0.4687500E-01
    1       -0.952262     -0.780113   1.000000   1.000000
    2        1.622283      3.809318   1.000000   1.009488
    3        1.799828      3.923827   1.000000   1.054537
    4        2.966726      5.782929   1.000000   0.000000
    5        3.107809      5.828758   1.000000   0.000000
    6        3.344091      6.069584   1.012914   0.000000
    7       18.382687     18.958138   0.000000   0.000000
    8       21.483757     21.729809   0.000000   0.000000
    9       22.820205     23.561670   0.000000   0.000000
   10       28.391553     28.243684   0.000000   0.000000
   11       31.219592     31.764851   0.000000   0.000000
   12       32.714941     32.918994   0.000000   0.000000
 
  0.3125000E+00  0.6250000E-01  0.6250000E-01  0.4687500E-01
    1        0.160823      1.062182   1.000000   1.000000
    2        1.354096      3.458107   1.000000   1.000000
    3        2.464134      3.865823   1.000000   1.030085
    4        3.067245      5.900962   1.000000   0.000000
    5        3.176439      6.178925   1.000000   0.000000
    6        4.547241      6.816680   0.169828   0.000000
    7       13.183655     14.159539   0.000000   0.000000
    8       19.944420     20.180870   0.000000   0.000000
    9       20.803332     21.454912   0.000000   0.000000
   10       27.659959     27.776084   0.000000   0.000000
   11       30.561644     31.093229   0.000000   0.000000
   12       35.729802     35.916595   0.000000   0.000000
 
  0.4375000E+00  0.6250000E-01  0.6250000E-01  0.2343750E-01
    1        0.248473      1.729723   1.000000   1.000000
    2        1.250617      3.323369   1.000000   1.000000
    3        3.112383      4.389693   1.000000   0.657546
    4        3.204093      5.955075   1.000000   0.000000
    5        3.269261      6.226084   1.000000   0.000000
    6        5.973373      7.513082  -0.011045   0.000000
    7       10.165421     11.648656   0.000000   0.000000
    8       19.394017     19.610550   0.000000   0.000000
    9       20.053801     20.656527   0.000000   0.000000
   10       27.378636     27.570769   0.000000   0.000000
   11       30.419668     30.973043   0.000000   0.000000
   12       36.123135     36.021169   0.000000   0.000000
 
 -0.6250000E-01  0.6250000E-01  0.6250000E-01  0.1171875E-01
    1       -2.934414     -2.859949   1.000000   1.000000
    2        2.082018      4.409139   1.000000   0.044174
    3        2.082018      4.409140   1.000000  -0.067002
    4        2.148636      4.499669   1.000000   0.000000
    5        2.967033      5.878480   1.000000   0.000000
    6        3.112375      6.078784   1.000000   0.000000
    7       25.867759     25.621457   0.000000   0.000000
    8       26.958400     26.806045   0.000000   0.000000
    9       26.958402     26.806045   0.000000   0.000000
   10       29.057489     29.444400   0.000000   0.000000
   11       30.619912     31.351502   0.000000   0.000000
   12       30.619912     31.351504   0.000000   0.000000
 
  0.1875000E+00  0.1875000E+00  0.6250000E-01  0.4687500E-01
    1        0.397099      0.917536   1.000000   1.000000
    2        1.426608      3.448787   1.000000   1.000000
    3        1.569552      3.539576   1.000000   1.002206
    4        3.025016      5.890728   1.000000   0.000000
    5        3.200222      6.173351   1.000000   0.000000
    6        4.695753      6.961447   0.151332   0.000000
    7       16.144407     16.808866   0.000000   0.000000
    8       16.619028     17.280945   0.000000   0.000000
    9       20.179450     20.726151   0.000000   0.000000
   10       30.124609     29.970249   0.000000   0.000000
   11       32.957325     33.239915   0.000000   0.000000
   12       35.121946     35.368470   0.000000   0.000000
 
  0.3125000E+00  0.1875000E+00  0.6250000E-01  0.9375000E-01
    1        0.747633      2.213439   1.000000   1.000000
    2        1.289954      3.250175   1.000000   1.000000
    3        2.110240      3.586855   1.000000   1.012144
    4        3.127976      6.001498   1.000000   0.000000
    5        3.273714      6.229961   1.000000   0.000000
    6        6.955918      8.543408  -0.010430   0.000000
    7       11.648811     12.724067   0.000000   0.000000
    8       15.276808     15.936653   0.000000   0.000000
    9       19.082350     19.598076   0.000000   0.000000
   10       30.294092     30.290640   0.000000   0.000000
   11       34.166852     34.217167   0.000000   0.000000
   12       35.540615     35.894059   0.000000   0.000000
 
 -0.1875000E+00  0.1875000E+00  0.6250000E-01  0.4687500E-01
    1       -1.873912     -1.775285   1.000000   1.000000
    2        1.882299      4.147501   1.000000   0.967541
    3        2.043084      4.297265   1.000000   0.497760
    4        2.626867      5.043495   1.000000   0.000000
    5        2.784138      5.595182   1.000000   0.000000
    6        3.183931      6.161467   1.004327   0.000000
    7       21.159197     21.550955   0.000000   0.000000
    8       24.516078     24.555588   0.000000   0.000000
    9       24.900498     25.333269   0.000000   0.000000
   10       28.501012     28.913255   0.000000   0.000000
   11       28.598316     29.059554   0.000000   0.000000
   12       30.114015     30.382135   0.000000   0.000000
 
  0.3125000E+00  0.3125000E+00  0.6250000E-01  0.1562500E-01
    1        0.999320      2.831745   1.000000   1.000000
    2        1.593892      3.253625   1.000000   1.000000
    3        1.593893      3.253625   1.000000   1.000561
    4        3.233274      6.142848   1.000000   0.000000
    5        3.233275      6.142849   1.000000   0.000000
    6       10.200015     11.272046   0.000000   0.000000
    7       10.200017     11.272046   0.000000   0.000000
    8       12.035011     13.016314   0.000000   0.000000
    9       18.655429     19.196468   0.000000   0.000000
   10       32.567463     32.502966   0.000000   0.000000
   11       32.567466     32.502967   0.000000   0.000000
   12       38.205604     38.978712   0.000000   0.000000
 
 -0.3125000E+00  0.3125000E+00  0.6250000E-01  0.4687500E-01
    1       -0.347971      0.064633   1.000000   1.000000
    2        1.581517      3.760947   1.000000   1.006681
    3        2.137211      3.998347   1.000000   1.034799
    4        2.929378      5.644366   1.000000   0.000000
    5        3.333190      5.952889   1.000000   0.000000
    6        3.406805      6.248237   0.954422   0.000000
    7       15.591522     16.382738   0.000000   0.000000
    8       22.341592     22.374890   0.000000   0.000000
    9       22.665303     23.301076   0.000000   0.000000
   10       27.044555     27.465242   0.000000   0.000000
   11       28.571972     29.033208   0.000000   0.000000
   12       31.462643     31.676044   0.000000   0.000000
 
 -0.1875000E+00  0.3125000E+00  0.6250000E-01  0.4687500E-01
    1       -0.552606     -0.316014   1.000000   1.000000
    2        1.748687      3.949920   1.000000   1.008698
    3        1.883020      4.043345   1.000000   1.033151
    4        2.682232      5.372366   1.000000   0.000000
    5        3.196558      5.733322   1.000000   0.000000
    6        3.488178      6.331502   0.952646   0.000000
    7       18.552041     19.106992   0.000000   0.000000
    8       19.158148     19.750113   0.000000   0.000000
    9       25.353937     25.783780   0.000000   0.000000
   10       25.630789     25.813510   0.000000   0.000000
   11       28.909567     29.277780   0.000000   0.000000
   12       33.219624     33.458880   0.000000   0.000000
 
 -0.4375000E+00  0.4375000E+00  0.6250000E-01  0.4687500E-01
    1        0.143053      1.476641   1.000000   1.000000
    2        1.375917      3.500129   1.000000   1.000000
    3        2.743568      4.296255   1.000000   0.739466
    4        3.051240      5.809092   1.000000   0.000000
    5        4.028660      6.517132   1.000000   0.000000
    6        4.714807      6.700867   0.034317   0.000000
    7       11.062384     12.361841   0.000000   0.000000
    8       21.128138     21.126079   0.000000   0.000000
    9       21.180965     21.773100   0.000000   0.000000
   10       26.387296     26.862498   0.000000   0.000000
   11       28.680653     29.215252   0.000000   0.000000
   12       33.313968     33.349919   0.000000   0.000000
 
 -0.3125000E+00  0.4375000E+00  0.6250000E-01  0.9375000E-01
    1        0.455404      1.435816   1.000000   1.000000
    2        1.508273      3.546409   1.000000   1.000825
    3        1.974738      3.855300   1.000000   1.048504
    4        2.905856      5.573749   1.000000   0.000000
    5        3.501538      6.261382   1.000000   0.000000
    6        4.993533      7.110755   0.016882   0.000000
    7       13.559779     14.479978   0.000000   0.000000
    8       17.218729     17.819920   0.000000   0.000000
    9       23.365260     23.669394   0.000000   0.000000
   10       26.335268     26.649748   0.000000   0.000000
   11       29.616940     29.901902   0.000000   0.000000
   12       33.571780     33.930948   0.000000   0.000000
 
 -0.4375000E+00 -0.4375000E+00  0.6250000E-01  0.4687500E-01
    1        0.519742      2.102880   1.000000   1.000000
    2        1.487136      3.581024   1.000000   1.000000
    3        2.132727      3.792899   1.000000   1.057108
    4        2.982260      5.694442   1.000000   0.000000
    5        3.779047      6.448919   1.000000   0.000000
    6        6.955745      8.265655  -0.004946   0.000000
    7       10.301439     11.697111   0.000000   0.000000
    8       16.596241     17.183200   0.000000   0.000000
    9       22.643715     22.908495   0.000000   0.000000
   10       26.543341     26.954932   0.000000   0.000000
   11       30.851363     30.856060   0.000000   0.000000
   12       32.860677     33.344596   0.000000   0.000000
 
 -0.3125000E+00 -0.4375000E+00  0.6250000E-01  0.4687500E-01
    1        1.057964      2.672823   1.000000   1.000000
    2        1.298223      3.184986   1.000000   1.000000
    3        1.711160      3.603433   1.000000   1.024177
    4        3.133171      5.810784   1.000000   0.000000
    5        3.481659      6.195049   1.000000   0.000000
    6        7.921774      9.322338  -0.002159   0.000000
    7       11.948922     12.929418   0.000000   0.000000
    8       12.860908     13.733255   0.000000   0.000000
    9       23.561278     24.004864   0.000000   0.000000
   10       26.955119     27.063201   0.000000   0.000000
   11       28.875741     29.018191   0.000000   0.000000
   12       34.365027     35.211567   0.000000   0.000000
 
  0.1875000E+00  0.1875000E+00  0.1875000E+00  0.1562500E-01
    1        1.279713      2.407096   1.000000   1.000000
    2        1.279713      3.173641   1.000000   1.000000
    3        1.407032      3.173641   1.000000   1.000669
    4        3.186112      6.172261   1.000000   0.000000
    5        3.186112      6.172261   1.000000   0.000000
    6        6.869767      8.604428  -0.012311   0.000000
    7       14.634236     15.349645   0.000000   0.000000
    8       14.634236     15.349645   0.000000   0.000000
    9       15.266585     15.976183   0.000000   0.000000
   10       34.616572     34.192276   0.000000   0.000000
   11       36.625689     36.700326   0.000000   0.000000
   12       36.625689     36.700326   0.000000   0.000000
 
  0.3125000E+00  0.1875000E+00  0.1875000E+00  0.2343750E-01
    1        1.189655      2.842742   1.000000   1.000000
    2        1.247353      3.093322   1.000000   1.000000
    3        1.781270      3.324861   1.000000   1.001039
    4        3.210599      6.198024   1.000000   0.000000
    5        3.222173      6.251823   1.000000   0.000000
    6        9.568203     10.666387   0.000000   0.000000
    7       11.012130     12.113452   0.000000   0.000000
    8       14.118623     14.848441   0.000000   0.000000
    9       14.538244     15.233588   0.000000   0.000000
   10       35.385595     35.164972   0.000000   0.000000
   11       38.332470     38.300964   0.000000   0.000000
   12       38.375170     38.616986   0.000000   0.000000
 
 -0.1875000E+00  0.1875000E+00  0.1875000E+00  0.1171875E-01
    1       -0.928326     -0.767690   1.000000   1.000000
    2        2.209008      4.479566   1.000000   0.553041
    3        2.211099      4.479566   1.000000   0.025997
    4        2.211099      4.831833   1.000000   0.000000
    5        2.639535      5.070484   1.000000   0.000000
    6        3.459782      6.393155   0.998055   0.000000
    7       21.639069     21.817018   0.000000   0.000000
    8       21.851617     22.459447   0.000000   0.000000
    9       21.851621     22.459448   0.000000   0.000000
   10       23.652209     24.037364   0.000000   0.000000
   11       32.501563     32.694981   0.000000   0.000000
   12       32.501564     32.694982   0.000000   0.000000
 
 -0.3125000E+00  0.3125000E+00  0.1875000E+00  0.4687500E-01
    1        0.297436      0.880228   1.000000   1.000000
    2        1.626748      3.870669   1.000000   1.005581
    3        2.108017      4.342624   1.000000   0.378111
    4        2.625314      5.041644   1.000000   0.000000
    5        3.319712      5.849052   1.000000   0.000000
    6        4.198084      6.688122   0.413049   0.000000
    7       16.395251     17.126850   0.000000   0.000000
    8       19.440659     20.075918   0.000000   0.000000
    9       20.940810     21.276247   0.000000   0.000000
   10       24.315936     24.697285   0.000000   0.000000
   11       31.550697     31.954866   0.000000   0.000000
   12       33.073444     33.376796   0.000000   0.000000
 
 -0.4375000E+00  0.4375000E+00  0.1875000E+00  0.4687500E-01
    1        0.611211      2.142190   1.000000   1.000000
    2        1.581523      3.425350   1.000000   1.000000
    3        1.957263      4.153567   1.000000   0.773319
    4        2.788462      5.312126   1.000000   0.000000
    5        3.967200      6.627026   1.000000   0.000000
    6        6.506060      7.946283  -0.021083   0.000000
    7       11.617589     12.727645   0.000000   0.000000
    8       18.001131     18.579330   0.000000   0.000000
    9       20.154375     20.521920   0.000000   0.000000
   10       26.837531     27.068822   0.000000   0.000000
   11       30.696506     31.131119   0.000000   0.000000
   12       31.052503     31.588290   0.000000   0.000000
 
 -0.3125000E+00  0.4375000E+00  0.1875000E+00  0.4687500E-01
    1        0.863433      2.163431   1.000000   1.000000
    2        1.144825      3.268911   1.000000   1.000843
    3        2.177752      4.386962   1.000000   0.330634
    4        2.927138      5.365214   1.000000   0.000000
    5        3.646141      6.252432   1.000000   0.000000
    6        6.315925      7.949811  -0.032011   0.000000
    7       14.503372     15.312713   0.000000   0.000000
    8       14.884143     15.590949   0.000000   0.000000
    9       22.275766     22.624901   0.000000   0.000000
   10       23.348116     23.761981   0.000000   0.000000
   11       30.284532     30.732163   0.000000   0.000000
   12       32.572205     33.203706   0.000000   0.000000
 
 -0.4375000E+00 -0.4375000E+00  0.1875000E+00  0.4687500E-01
    1        0.852705      2.738525   1.000000   1.000000
    2        1.152936      3.009605   1.000000   1.000000
    3        2.024097      4.158216   1.000000   0.633922
    4        3.164333      5.656528   1.000000   0.000000
    5        3.825225      6.447385   1.000000   0.000000
    6        9.133214     10.156221  -0.000022   0.000000
    7       10.863581     11.971024   0.000000   0.000000
    8       14.062875     14.778898   0.000000   0.000000
    9       22.207528     22.573821   0.000000   0.000000
   10       25.258071     25.446918   0.000000   0.000000
   11       27.558186     28.279992   0.000000   0.000000
   12       31.730282     32.322390   0.000000   0.000000
 
 -0.3125000E+00  0.3125000E+00  0.3125000E+00  0.1171875E-01
    1        0.693855      1.906499   1.000000   1.000000
    2        1.116113      3.366984   1.000000   1.005005
    3        2.816304      5.126845   1.000000  -0.103428
    4        2.816305      5.126846   1.000000   0.000000
    5        3.346906      5.899696   1.000000   0.000000
    6        5.748579      7.463307  -0.052657   0.000000
    7       16.821926     17.415657   0.000000   0.000000
    8       16.821929     17.415659   0.000000   0.000000
    9       19.286397     19.880221   0.000000   0.000000
   10       20.693384     21.234389   0.000000   0.000000
   11       31.123388     31.774759   0.000000   0.000000
   12       36.170861     36.588668   0.000000   0.000000
 
 -0.4375000E+00  0.4375000E+00  0.3125000E+00  0.4687500E-01
    1        0.650401      2.465983   1.000000   1.000000
    2        0.757575      2.793992   1.000000   1.000000
    3        2.921434      5.278674   1.000000  -0.114352
    4        3.139968      5.511879   1.000000   0.000000
    5        3.882228      6.525753   1.000000   0.000000
    6        8.605619      9.606685  -0.000742   0.000000
    7       12.846290     13.589262   0.000000   0.000000
    8       15.243058     15.732800   0.000000   0.000000
    9       19.272696     19.924224   0.000000   0.000000
   10       21.866863     22.335897   0.000000   0.000000
   11       26.620219     27.434911   0.000000   0.000000
   12       35.681520     36.047101   0.000000   0.000000
 
 -0.4375000E+00 -0.4375000E+00  0.3125000E+00  0.1562500E-01
    1        0.547079      2.526808   1.000000   1.000000
    2        0.547079      2.526808   1.000000   1.000000
    3        3.004889      5.334484   1.000000  -0.063046
    4        3.767799      6.352585   1.000000   0.000000
    5        3.767799      6.352586   1.000000   0.000000
    6       11.744305     12.409902   0.000000   0.000000
    7       11.744308     12.409904   0.000000   0.000000
    8       12.581091     13.200120   0.000000   0.000000
    9       20.735100     21.233033   0.000000   0.000000
   10       20.735101     21.233034   0.000000   0.000000
   11       23.947483     24.979579   0.000000   0.000000
   12       36.142448     36.492570   0.000000   0.000000
 
 -0.4375000E+00  0.4375000E+00  0.4375000E+00  0.1171875E-01
    1        0.342863      2.296855   1.000000   1.000000
    2        0.346197      2.371083   1.000000   1.000000
    3        3.737128      6.306852   1.000000  -0.000494
    4        3.737128      6.306853   1.000000   0.000000
    5        3.855012      6.500002   1.000000   0.000000
    6       11.197631     11.714601   0.000000   0.000000
    7       13.519617     13.830477   0.000000   0.000000
    8       13.519621     13.830479   0.000000   0.000000
    9       18.345364     19.183409   0.000000   0.000000
   10       19.323866     20.040715   0.000000   0.000000
   11       22.571886     23.605485   0.000000   0.000000
   12       39.426977     39.656083   0.000000   0.000000
