PROCAR lm decomposed
# of k-points:   26         # of bands:  12         # of ions:   1

 k-point    1 :    0.06250000 0.06250000 0.06250000     weight = 0.01562500

band   1 # energy   -2.38901507 # occ.  1.00000000
 
ion      s     py     pz     px    dxy    dyz    dz2    dxz    dx2    tot
  1  0.553  0.016  0.016  0.016  0.002  0.002  0.000  0.002  0.000  0.607
 
band   2 # energy    1.93134225 # occ.  1.00000000
 
ion      s     py     pz     px    dxy    dyz    dz2    dxz    dx2    tot
  1  0.000  0.000  0.001  0.001  0.497  0.426  0.017  0.005  0.004  0.952
 
band   3 # energy    1.93134225 # occ.  1.00000000
 
ion      s     py     pz     px    dxy    dyz    dz2    dxz    dx2    tot
  1  0.000  0.001  0.000  0.000  0.122  0.192  0.004  0.614  0.017  0.952
 
band   4 # energy    2.54502392 # occ.  1.00000000
 
ion      s     py     pz     px    dxy    dyz    dz2    dxz    dx2    tot
  1  0.002  0.002  0.002  0.002  0.318  0.318  0.000  0.318  0.000  0.962
 
band   5 # energy    3.02036688 # occ.  1.00000000
 
ion      s     py     pz     px    dxy    dyz    dz2    dxz    dx2    tot
  1  0.000  0.000  0.000  0.000  0.013  0.000  0.763  0.011  0.179  0.966
 
band   6 # energy    3.02036688 # occ.  1.00167688
 
ion      s     py     pz     px    dxy    dyz    dz2    dxz    dx2    tot
  1  0.000  0.000  0.000  0.000  0.003  0.016  0.179  0.005  0.763  0.966
 
band   7 # energy   23.73499521 # occ.  0.00000000
 
ion      s     py     pz     px    dxy    dyz    dz2    dxz    dx2    tot
  1  0.000  0.040  0.083  0.009  0.145  0.015  0.129  0.070  0.007  0.498
 
band   8 # energy   23.73499521 # occ.  0.00000000
 
ion      s     py     pz     px    dxy    dyz    dz2    dxz    dx2    tot
  1  0.000  0.048  0.005  0.079  0.008  0.138  0.007  0.084  0.129  0.498
 
band   9 # energy   26.16703209 # occ.  0.00000000
 
ion      s     py     pz     px    dxy    dyz    dz2    dxz    dx2    tot
  1  0.082  0.171  0.171  0.171  0.098  0.098  0.000  0.098  0.000  0.890
 
band  10 # energy   28.38488888 # occ.  0.00000000
 
ion      s     py     pz     px    dxy    dyz    dz2    dxz    dx2    tot
  1  0.000  0.000  0.000  0.000  0.000  0.000  0.000  0.000  0.000  0.000
 
band  11 # energy   31.89153566 # occ.  0.00000000
 
ion      s     py     pz     px    dxy    dyz    dz2    dxz    dx2    tot
  1  0.000  0.195  0.011  0.239  0.000  0.007  0.000  0.005  0.000  0.458
 
band  12 # energy   31.89153568 # occ.  0.00000000
 
ion      s     py     pz     px    dxy    dyz    dz2    dxz    dx2    tot
  1  0.000  0.102  0.285  0.058  0.008  0.002  0.000  0.003  0.000  0.458
 

 k-point    2 :    0.18750000 0.06250000 0.06250000     weight = 0.04687500

band   1 # energy   -0.95226203 # occ.  1.00000000
 
ion      s     py     pz     px    dxy    dyz    dz2    dxz    dx2    tot
  1  0.436  0.049  0.049  0.014  0.007  0.058  0.003  0.007  0.009  0.631
 
band   2 # energy    1.62228338 # occ.  1.00000000
 
ion      s     py     pz     px    dxy    dyz    dz2    dxz    dx2    tot
  1  0.000  0.002  0.002  0.000  0.457  0.000  0.017  0.457  0.006  0.940
 
band   3 # energy    1.79982822 # occ.  1.00000000
 
ion      s     py     pz     px    dxy    dyz    dz2    dxz    dx2    tot
  1  0.010  0.013  0.013  0.002  0.093  0.550  0.036  0.093  0.108  0.916
 
band   4 # energy    2.96672635 # occ.  1.00000000
 
ion      s     py     pz     px    dxy    dyz    dz2    dxz    dx2    tot
  1  0.001  0.000  0.000  0.000  0.014  0.143  0.199  0.014  0.597  0.968
 
band   5 # energy    3.10780858 # occ.  1.00000000
 
ion      s     py     pz     px    dxy    dyz    dz2    dxz    dx2    tot
  1  0.000  0.000  0.000  0.000  0.013  0.000  0.710  0.013  0.237  0.972
 
band   6 # energy    3.34409150 # occ.  1.01291384
 
ion      s     py     pz     px    dxy    dyz    dz2    dxz    dx2    tot
  1  0.013  0.009  0.009  0.007  0.368  0.183  0.000  0.368  0.000  0.957
 
band   7 # energy   18.38268749 # occ.  0.00000000
 
ion      s     py     pz     px    dxy    dyz    dz2    dxz    dx2    tot
  1  0.071  0.123  0.123  0.016  0.005  0.236  0.023  0.005  0.070  0.674
 
band   8 # energy   21.48375687 # occ.  0.00000000
 
ion      s     py     pz     px    dxy    dyz    dz2    dxz    dx2    tot
  1  0.000  0.107  0.107  0.000  0.128  0.000  0.055  0.128  0.018  0.542
 
band   9 # energy   22.82020521 # occ.  0.00000000
 
ion      s     py     pz     px    dxy    dyz    dz2    dxz    dx2    tot
  1  0.116  0.044  0.044  0.388  0.078  0.000  0.009  0.078  0.026  0.782
 
band  10 # energy   28.39155294 # occ.  0.00000000
 
ion      s     py     pz     px    dxy    dyz    dz2    dxz    dx2    tot
  1  0.000  0.006  0.006  0.000  0.158  0.000  0.017  0.158  0.006  0.351
 
band  11 # energy   31.21959156 # occ.  0.00000000
 
ion      s     py     pz     px    dxy    dyz    dz2    dxz    dx2    tot
  1  0.039  0.053  0.053  0.161  0.039  0.026  0.089  0.039  0.266  0.765
 
band  12 # energy   32.71494122 # occ.  0.00000000
 
ion      s     py     pz     px    dxy    dyz    dz2    dxz    dx2    tot
  1  0.000  0.123  0.123  0.000  0.095  0.000  0.012  0.095  0.004  0.452
 

 k-point    3 :    0.31250000 0.06250000 0.06250000     weight = 0.04687500

band   1 # energy    0.16082292 # occ.  1.00000000
 
ion      s     py     pz     px    dxy    dyz    dz2    dxz    dx2    tot
  1  0.180  0.020  0.020  0.012  0.001  0.390  0.039  0.001  0.118  0.780
 
band   2 # energy    1.35409591 # occ.  1.00000000
 
ion      s     py     pz     px    dxy    dyz    dz2    dxz    dx2    tot
  1  0.000  0.002  0.002  0.000  0.460  0.000  0.006  0.460  0.002  0.931
 
band   3 # energy    2.46413425 # occ.  1.00000000
 
ion      s     py     pz     px    dxy    dyz    dz2    dxz    dx2    tot
  1  0.068  0.083  0.083  0.000  0.180  0.083  0.032  0.180  0.097  0.807
 
band   4 # energy    3.06724482 # occ.  1.00000000
 
ion      s     py     pz     px    dxy    dyz    dz2    dxz    dx2    tot
  1  0.002  0.002  0.002  0.000  0.018  0.283  0.162  0.018  0.486  0.973
 
band   5 # energy    3.17643854 # occ.  1.00000000
 
ion      s     py     pz     px    dxy    dyz    dz2    dxz    dx2    tot
  1  0.000  0.000  0.000  0.000  0.004  0.000  0.727  0.004  0.242  0.977
 
band   6 # energy    4.54724095 # occ.  0.16982773
 
ion      s     py     pz     px    dxy    dyz    dz2    dxz    dx2    tot
  1  0.056  0.054  0.054  0.007  0.290  0.128  0.001  0.290  0.004  0.884
 
band   7 # energy   13.18365494 # occ.  0.00000000
 
ion      s     py     pz     px    dxy    dyz    dz2    dxz    dx2    tot
  1  0.219  0.103  0.103  0.009  0.004  0.235  0.016  0.004  0.048  0.741
 
band   8 # energy   19.94441980 # occ.  0.00000000
 
ion      s     py     pz     px    dxy    dyz    dz2    dxz    dx2    tot
  1  0.000  0.128  0.128  0.000  0.121  0.000  0.015  0.121  0.005  0.519
 
band   9 # energy   20.80333195 # occ.  0.00000000
 
ion      s     py     pz     px    dxy    dyz    dz2    dxz    dx2    tot
  1  0.114  0.007  0.007  0.500  0.026  0.014  0.010  0.026  0.030  0.733
 
band  10 # energy   27.65995923 # occ.  0.00000000
 
ion      s     py     pz     px    dxy    dyz    dz2    dxz    dx2    tot
  1  0.000  0.010  0.010  0.000  0.293  0.000  0.005  0.293  0.002  0.614
 
band  11 # energy   30.56164371 # occ.  0.00000000
 
ion      s     py     pz     px    dxy    dyz    dz2    dxz    dx2    tot
  1  0.103  0.019  0.019  0.130  0.010  0.002  0.123  0.010  0.370  0.788
 
band  12 # energy   35.72980208 # occ.  0.00000000
 
ion      s     py     pz     px    dxy    dyz    dz2    dxz    dx2    tot
  1  0.000  0.107  0.107  0.000  0.043  0.000  0.131  0.043  0.044  0.474
 

 k-point    4 :    0.43750000 0.06250000 0.06250000     weight = 0.02343750

band   1 # energy    0.24847290 # occ.  1.00000000
 
ion      s     py     pz     px    dxy    dyz    dz2    dxz    dx2    tot
  1  0.097  0.000  0.000  0.011  0.000  0.489  0.060  0.000  0.180  0.837
 
band   2 # energy    1.25061682 # occ.  1.00000000
 
ion      s     py     pz     px    dxy    dyz    dz2    dxz    dx2    tot
  1  0.000  0.003  0.003  0.000  0.462  0.000  0.000  0.462  0.000  0.928
 
band   3 # energy    3.11238262 # occ.  1.00000000
 
ion      s     py     pz     px    dxy    dyz    dz2    dxz    dx2    tot
  1  0.008  0.000  0.000  0.000  0.000  0.284  0.170  0.000  0.511  0.974
 
band   4 # energy    3.20409304 # occ.  1.00000000
 
ion      s     py     pz     px    dxy    dyz    dz2    dxz    dx2    tot
  1  0.000  0.000  0.000  0.000  0.000  0.000  0.735  0.000  0.245  0.980
 
band   5 # energy    3.26926077 # occ.  1.00000000
 
ion      s     py     pz     px    dxy    dyz    dz2    dxz    dx2    tot
  1  0.000  0.083  0.083  0.000  0.345  0.000  0.000  0.345  0.000  0.856
 
band   6 # energy    5.97337277 # occ. -0.01104526
 
ion      s     py     pz     px    dxy    dyz    dz2    dxz    dx2    tot
  1  0.000  0.198  0.198  0.000  0.156  0.000  0.000  0.156  0.000  0.708
 
band   7 # energy   10.16542113 # occ.  0.00000000
 
ion      s     py     pz     px    dxy    dyz    dz2    dxz    dx2    tot
  1  0.415  0.000  0.000  0.013  0.000  0.324  0.018  0.000  0.053  0.822
 
band   8 # energy   19.39401692 # occ.  0.00000000
 
ion      s     py     pz     px    dxy    dyz    dz2    dxz    dx2    tot
  1  0.000  0.135  0.135  0.000  0.117  0.000  0.000  0.117  0.000  0.504
 
band   9 # energy   20.05380060 # occ.  0.00000000
 
ion      s     py     pz     px    dxy    dyz    dz2    dxz    dx2    tot
  1  0.112  0.000  0.000  0.541  0.000  0.022  0.009  0.000  0.028  0.711
 
band  10 # energy   27.37863598 # occ.  0.00000000
 
ion      s     py     pz     px    dxy    dyz    dz2    dxz    dx2    tot
  1  0.000  0.011  0.011  0.000  0.332  0.000  0.000  0.332  0.000  0.685
 
band  11 # energy   30.41966767 # occ.  0.00000000
 
ion      s     py     pz     px    dxy    dyz    dz2    dxz    dx2    tot
  1  0.136  0.000  0.000  0.120  0.000  0.017  0.137  0.000  0.411  0.821
 
band  12 # energy   36.12313480 # occ.  0.00000000
 
ion      s     py     pz     px    dxy    dyz    dz2    dxz    dx2    tot
  1  0.000  0.033  0.033  0.000  0.005  0.000  0.000  0.005  0.000  0.076
 

 k-point    5 :   -0.06250000 0.06250000 0.06250000     weight = 0.01171875

band   1 # energy   -2.93441430 # occ.  1.00000000
 
ion      s     py     pz     px    dxy    dyz    dz2    dxz    dx2    tot
  1  0.587  0.000  0.000  0.017  0.000  0.000  0.000  0.000  0.000  0.605
 
band   2 # energy    2.08201753 # occ.  1.00000000
 
ion      s     py     pz     px    dxy    dyz    dz2    dxz    dx2    tot
  1  0.000  0.001  0.001  0.000  0.479  0.000  0.000  0.479  0.000  0.959
 
band   3 # energy    2.08201801 # occ.  1.00000000
 
ion      s     py     pz     px    dxy    dyz    dz2    dxz    dx2    tot
  1  0.000  0.001  0.001  0.000  0.479  0.000  0.000  0.479  0.000  0.959
 
band   4 # energy    2.14863644 # occ.  1.00000000
 
ion      s     py     pz     px    dxy    dyz    dz2    dxz    dx2    tot
  1  0.000  0.000  0.000  0.000  0.000  0.961  0.000  0.000  0.000  0.961
 
band   5 # energy    2.96703274 # occ.  1.00000000
 
ion      s     py     pz     px    dxy    dyz    dz2    dxz    dx2    tot
  1  0.000  0.000  0.000  0.000  0.000  0.000  0.722  0.000  0.241  0.962
 
band   6 # energy    3.11237477 # occ.  1.00000000
 
ion      s     py     pz     px    dxy    dyz    dz2    dxz    dx2    tot
  1  0.000  0.000  0.000  0.000  0.000  0.000  0.242  0.000  0.727  0.970
 
band   7 # energy   25.86775870 # occ.  0.00000000
 
ion      s     py     pz     px    dxy    dyz    dz2    dxz    dx2    tot
  1  0.000  0.000  0.000  0.000  0.000  0.000  0.166  0.000  0.055  0.221
 
band   8 # energy   26.95839969 # occ.  0.00000000
 
ion      s     py     pz     px    dxy    dyz    dz2    dxz    dx2    tot
  1  0.000  0.029  0.029  0.000  0.137  0.000  0.000  0.137  0.000  0.332
 
band   9 # energy   26.95840229 # occ.  0.00000000
 
ion      s     py     pz     px    dxy    dyz    dz2    dxz    dx2    tot
  1  0.000  0.029  0.029  0.000  0.137  0.000  0.000  0.137  0.000  0.332
 
band  10 # energy   29.05748939 # occ.  0.00000000
 
ion      s     py     pz     px    dxy    dyz    dz2    dxz    dx2    tot
  1  0.026  0.000  0.000  0.384  0.000  0.000  0.044  0.000  0.132  0.585
 
band  11 # energy   30.61991179 # occ.  0.00000000
 
ion      s     py     pz     px    dxy    dyz    dz2    dxz    dx2    tot
  1  0.000  0.239  0.239  0.000  0.117  0.000  0.000  0.117  0.000  0.711
 
band  12 # energy   30.61991201 # occ.  0.00000000
 
ion      s     py     pz     px    dxy    dyz    dz2    dxz    dx2    tot
  1  0.000  0.239  0.239  0.000  0.117  0.000  0.000  0.117  0.000  0.711
 

 k-point    6 :    0.18750000 0.18750000 0.06250000     weight = 0.04687500

band   1 # energy    0.39709921 # occ.  1.00000000
 
ion      s     py     pz     px    dxy    dyz    dz2    dxz    dx2    tot
  1  0.248  0.033  0.055  0.033  0.000  0.153  0.042  0.153  0.000  0.719
 
band   2 # energy    1.42660809 # occ.  1.00000000
 
ion      s     py     pz     px    dxy    dyz    dz2    dxz    dx2    tot
  1  0.000  0.014  0.000  0.014  0.000  0.346  0.000  0.346  0.188  0.907
 
band   3 # energy    1.56955238 # occ.  1.00000000
 
ion      s     py     pz     px    dxy    dyz    dz2    dxz    dx2    tot
  1  0.024  0.003  0.043  0.003  0.664  0.076  0.007  0.076  0.000  0.895
 
band   4 # energy    3.02501591 # occ.  1.00000000
 
ion      s     py     pz     px    dxy    dyz    dz2    dxz    dx2    tot
  1  0.000  0.000  0.000  0.000  0.000  0.105  0.000  0.105  0.761  0.971
 
band   5 # energy    3.20022223 # occ.  1.00000000
 
ion      s     py     pz     px    dxy    dyz    dz2    dxz    dx2    tot
  1  0.004  0.000  0.000  0.000  0.000  0.033  0.906  0.033  0.000  0.977
 
band   6 # energy    4.69575270 # occ.  0.15133249
 
ion      s     py     pz     px    dxy    dyz    dz2    dxz    dx2    tot
  1  0.069  0.023  0.045  0.023  0.287  0.216  0.019  0.216  0.000  0.899
 
band   7 # energy   16.14440677 # occ.  0.00000000
 
ion      s     py     pz     px    dxy    dyz    dz2    dxz    dx2    tot
  1  0.000  0.155  0.000  0.155  0.000  0.137  0.000  0.137  0.093  0.677
 
band   8 # energy   16.61902832 # occ.  0.00000000
 
ion      s     py     pz     px    dxy    dyz    dz2    dxz    dx2    tot
  1  0.234  0.024  0.231  0.024  0.046  0.066  0.009  0.066  0.000  0.700
 
band   9 # energy   20.17944979 # occ.  0.00000000
 
ion      s     py     pz     px    dxy    dyz    dz2    dxz    dx2    tot
  1  0.105  0.178  0.019  0.178  0.147  0.011  0.025  0.011  0.000  0.674
 
band  10 # energy   30.12460869 # occ.  0.00000000
 
ion      s     py     pz     px    dxy    dyz    dz2    dxz    dx2    tot
  1  0.000  0.016  0.000  0.016  0.000  0.071  0.000  0.071  0.147  0.322
 
band  11 # energy   32.95732456 # occ.  0.00000000
 
ion      s     py     pz     px    dxy    dyz    dz2    dxz    dx2    tot
  1  0.025  0.029  0.046  0.029  0.295  0.137  0.017  0.137  0.000  0.716
 
band  12 # energy   35.12194562 # occ.  0.00000000
 
ion      s     py     pz     px    dxy    dyz    dz2    dxz    dx2    tot
  1  0.000  0.098  0.000  0.098  0.000  0.004  0.000  0.004  0.334  0.539
 

 k-point    7 :    0.31250000 0.18750000 0.06250000     weight = 0.09375000

band   1 # energy    0.74763290 # occ.  1.00000000
 
ion      s     py     pz     px    dxy    dyz    dz2    dxz    dx2    tot
  1  0.070  0.001  0.005  0.031  0.030  0.525  0.054  0.043  0.092  0.852
 
band   2 # energy    1.28995403 # occ.  1.00000000
 
ion      s     py     pz     px    dxy    dyz    dz2    dxz    dx2    tot
  1  0.000  0.014  0.007  0.008  0.319  0.027  0.001  0.462  0.069  0.908
 
band   3 # energy    2.11024038 # occ.  1.00000000
 
ion      s     py     pz     px    dxy    dyz    dz2    dxz    dx2    tot
  1  0.016  0.056  0.078  0.000  0.383  0.009  0.085  0.157  0.062  0.846
 
band   4 # energy    3.12797576 # occ.  1.00000000
 
ion      s     py     pz     px    dxy    dyz    dz2    dxz    dx2    tot
  1  0.002  0.001  0.000  0.001  0.000  0.207  0.056  0.045  0.662  0.975
 
band   5 # energy    3.27371363 # occ.  1.00000000
 
ion      s     py     pz     px    dxy    dyz    dz2    dxz    dx2    tot
  1  0.003  0.003  0.004  0.000  0.059  0.012  0.755  0.083  0.057  0.976
 
band   6 # energy    6.95591818 # occ. -0.01043041
 
ion      s     py     pz     px    dxy    dyz    dz2    dxz    dx2    tot
  1  0.084  0.099  0.150  0.017  0.160  0.083  0.029  0.151  0.000  0.773
 
band   7 # energy   11.64881136 # occ.  0.00000000
 
ion      s     py     pz     px    dxy    dyz    dz2    dxz    dx2    tot
  1  0.254  0.108  0.034  0.049  0.015  0.226  0.003  0.014  0.045  0.748
 
band   8 # energy   15.27680797 # occ.  0.00000000
 
ion      s     py     pz     px    dxy    dyz    dz2    dxz    dx2    tot
  1  0.168  0.044  0.084  0.171  0.062  0.007  0.001  0.124  0.025  0.685
 
band   9 # energy   19.08234969 # occ.  0.00000000
 
ion      s     py     pz     px    dxy    dyz    dz2    dxz    dx2    tot
  1  0.099  0.110  0.063  0.201  0.098  0.034  0.006  0.045  0.002  0.660
 
band  10 # energy   30.29409192 # occ.  0.00000000
 
ion      s     py     pz     px    dxy    dyz    dz2    dxz    dx2    tot
  1  0.010  0.000  0.003  0.033  0.110  0.003  0.014  0.168  0.135  0.475
 
band  11 # energy   34.16685185 # occ.  0.00000000
 
ion      s     py     pz     px    dxy    dyz    dz2    dxz    dx2    tot
  1  0.003  0.073  0.000  0.001  0.138  0.052  0.066  0.014  0.124  0.471
 
band  12 # energy   35.54061533 # occ.  0.00000000
 
ion      s     py     pz     px    dxy    dyz    dz2    dxz    dx2    tot
  1  0.046  0.004  0.004  0.118  0.047  0.005  0.210  0.034  0.214  0.684
 

 k-point    8 :   -0.18750000 0.18750000 0.06250000     weight = 0.04687500

band   1 # energy   -1.87391200 # occ.  1.00000000
 
ion      s     py     pz     px    dxy    dyz    dz2    dxz    dx2    tot
  1  0.515  0.014  0.000  0.061  0.011  0.000  0.005  0.000  0.004  0.611
 
band   2 # energy    1.88229941 # occ.  1.00000000
 
ion      s     py     pz     px    dxy    dyz    dz2    dxz    dx2    tot
  1  0.000  0.000  0.002  0.000  0.000  0.370  0.000  0.580  0.000  0.951
 
band   3 # energy    2.04308366 # occ.  1.00000000
 
ion      s     py     pz     px    dxy    dyz    dz2    dxz    dx2    tot
  1  0.004  0.009  0.000  0.005  0.816  0.000  0.095  0.000  0.010  0.939
 
band   4 # energy    2.62686734 # occ.  1.00000000
 
ion      s     py     pz     px    dxy    dyz    dz2    dxz    dx2    tot
  1  0.000  0.000  0.004  0.000  0.000  0.590  0.000  0.370  0.000  0.965
 
band   5 # energy    2.78413839 # occ.  1.00000000
 
ion      s     py     pz     px    dxy    dyz    dz2    dxz    dx2    tot
  1  0.000  0.000  0.000  0.000  0.111  0.000  0.667  0.000  0.178  0.956
 
band   6 # energy    3.18393093 # occ.  1.00432685
 
ion      s     py     pz     px    dxy    dyz    dz2    dxz    dx2    tot
  1  0.004  0.000  0.000  0.001  0.004  0.000  0.186  0.000  0.778  0.972
 
band   7 # energy   21.15919652 # occ.  0.00000000
 
ion      s     py     pz     px    dxy    dyz    dz2    dxz    dx2    tot
  1  0.035  0.142  0.000  0.071  0.236  0.000  0.131  0.000  0.009  0.625
 
band   8 # energy   24.51607828 # occ.  0.00000000
 
ion      s     py     pz     px    dxy    dyz    dz2    dxz    dx2    tot
  1  0.030  0.003  0.000  0.160  0.024  0.000  0.054  0.000  0.112  0.382
 
band   9 # energy   24.90049803 # occ.  0.00000000
 
ion      s     py     pz     px    dxy    dyz    dz2    dxz    dx2    tot
  1  0.000  0.000  0.282  0.000  0.000  0.007  0.000  0.461  0.000  0.751
 
band  10 # energy   28.50101211 # occ.  0.00000000
 
ion      s     py     pz     px    dxy    dyz    dz2    dxz    dx2    tot
  1  0.000  0.295  0.000  0.066  0.149  0.000  0.126  0.000  0.000  0.637
 
band  11 # energy   28.59831578 # occ.  0.00000000
 
ion      s     py     pz     px    dxy    dyz    dz2    dxz    dx2    tot
  1  0.000  0.000  0.282  0.000  0.000  0.401  0.000  0.005  0.000  0.688
 
band  12 # energy   30.11401491 # occ.  0.00000000
 
ion      s     py     pz     px    dxy    dyz    dz2    dxz    dx2    tot
  1  0.094  0.077  0.000  0.127  0.016  0.000  0.061  0.000  0.013  0.387
 

 k-point    9 :    0.31250000 0.31250000 0.06250000     weight = 0.01562500

band   1 # energy    0.99931960 # occ.  1.00000000
 
ion      s     py     pz     px    dxy    dyz    dz2    dxz    dx2    tot
  1  0.031  0.005  0.005  0.005  0.285  0.285  0.000  0.285  0.000  0.898
 
band   2 # energy    1.59389152 # occ.  1.00000000
 
ion      s     py     pz     px    dxy    dyz    dz2    dxz    dx2    tot
  1  0.000  0.016  0.064  0.016  0.370  0.093  0.215  0.093  0.000  0.866
 
band   3 # energy    1.59389259 # occ.  1.00000000
 
ion      s     py     pz     px    dxy    dyz    dz2    dxz    dx2    tot
  1  0.000  0.048  0.000  0.048  0.000  0.278  0.000  0.278  0.215  0.866
 
band   4 # energy    3.23327423 # occ.  1.00000000
 
ion      s     py     pz     px    dxy    dyz    dz2    dxz    dx2    tot
  1  0.000  0.002  0.000  0.002  0.000  0.121  0.000  0.121  0.731  0.977
 
band   5 # energy    3.23327470 # occ.  1.00000000
 
ion      s     py     pz     px    dxy    dyz    dz2    dxz    dx2    tot
  1  0.000  0.001  0.003  0.001  0.161  0.040  0.731  0.040  0.000  0.977
 
band   6 # energy   10.20001531 # occ.  0.00000000
 
ion      s     py     pz     px    dxy    dyz    dz2    dxz    dx2    tot
  1  0.000  0.064  0.258  0.064  0.186  0.046  0.049  0.046  0.000  0.714
 
band   7 # energy   10.20001724 # occ.  0.00000000
 
ion      s     py     pz     px    dxy    dyz    dz2    dxz    dx2    tot
  1  0.000  0.193  0.000  0.193  0.000  0.139  0.000  0.139  0.049  0.714
 
band   8 # energy   12.03501113 # occ.  0.00000000
 
ion      s     py     pz     px    dxy    dyz    dz2    dxz    dx2    tot
  1  0.580  0.001  0.001  0.001  0.060  0.060  0.000  0.060  0.000  0.762
 
band   9 # energy   18.65542882 # occ.  0.00000000
 
ion      s     py     pz     px    dxy    dyz    dz2    dxz    dx2    tot
  1  0.103  0.121  0.121  0.121  0.069  0.069  0.000  0.069  0.000  0.673
 
band  10 # energy   32.56746287 # occ.  0.00000000
 
ion      s     py     pz     px    dxy    dyz    dz2    dxz    dx2    tot
  1  0.000  0.008  0.033  0.008  0.045  0.011  0.257  0.011  0.000  0.375
 
band  11 # energy   32.56746562 # occ.  0.00000000
 
ion      s     py     pz     px    dxy    dyz    dz2    dxz    dx2    tot
  1  0.000  0.025  0.000  0.025  0.000  0.034  0.000  0.034  0.257  0.375
 
band  12 # energy   38.20560413 # occ.  0.00000000
 
ion      s     py     pz     px    dxy    dyz    dz2    dxz    dx2    tot
  1  0.041  0.066  0.066  0.066  0.291  0.291  0.000  0.291  0.000  1.113
 

 k-point   10 :   -0.31250000 0.31250000 0.06250000     weight = 0.04687500

band   1 # energy   -0.34797102 # occ.  1.00000000
 
ion      s     py     pz     px    dxy    dyz    dz2    dxz    dx2    tot
  1  0.319  0.023  0.000  0.073  0.182  0.000  0.081  0.000  0.010  0.689
 
band   2 # energy    1.58151690 # occ.  1.00000000
 
ion      s     py     pz     px    dxy    dyz    dz2    dxz    dx2    tot
  1  0.000  0.000  0.002  0.000  0.000  0.425  0.000  0.513  0.000  0.940
 
band   3 # energy    2.13721108 # occ.  1.00000000
 
ion      s     py     pz     px    dxy    dyz    dz2    dxz    dx2    tot
  1  0.049  0.045  0.000  0.050  0.273  0.000  0.276  0.000  0.156  0.850
 
band   4 # energy    2.92937758 # occ.  1.00000000
 
ion      s     py     pz     px    dxy    dyz    dz2    dxz    dx2    tot
  1  0.001  0.007  0.000  0.008  0.443  0.000  0.489  0.000  0.013  0.960
 
band   5 # energy    3.33319009 # occ.  1.00000000
 
ion      s     py     pz     px    dxy    dyz    dz2    dxz    dx2    tot
  1  0.030  0.008  0.000  0.015  0.012  0.000  0.093  0.000  0.794  0.952
 
band   6 # energy    3.40680513 # occ.  0.95442177
 
ion      s     py     pz     px    dxy    dyz    dz2    dxz    dx2    tot
  1  0.000  0.000  0.006  0.000  0.000  0.535  0.000  0.434  0.000  0.975
 
band   7 # energy   15.59152176 # occ.  0.00000000
 
ion      s     py     pz     px    dxy    dyz    dz2    dxz    dx2    tot
  1  0.143  0.165  0.000  0.093  0.231  0.000  0.080  0.000  0.005  0.719
 
band   8 # energy   22.34159239 # occ.  0.00000000
 
ion      s     py     pz     px    dxy    dyz    dz2    dxz    dx2    tot
  1  0.031  0.063  0.000  0.153  0.001  0.000  0.062  0.000  0.050  0.359
 
band   9 # energy   22.66530255 # occ.  0.00000000
 
ion      s     py     pz     px    dxy    dyz    dz2    dxz    dx2    tot
  1  0.000  0.000  0.489  0.000  0.000  0.006  0.000  0.300  0.000  0.795
 
band  10 # energy   27.04455470 # occ.  0.00000000
 
ion      s     py     pz     px    dxy    dyz    dz2    dxz    dx2    tot
  1  0.000  0.000  0.150  0.000  0.000  0.479  0.000  0.174  0.000  0.803
 
band  11 # energy   28.57197232 # occ.  0.00000000
 
ion      s     py     pz     px    dxy    dyz    dz2    dxz    dx2    tot
  1  0.085  0.216  0.000  0.001  0.002  0.000  0.378  0.000  0.002  0.684
 
band  12 # energy   31.46264346 # occ.  0.00000000
 
ion      s     py     pz     px    dxy    dyz    dz2    dxz    dx2    tot
  1  0.099  0.028  0.000  0.070  0.176  0.000  0.011  0.000  0.104  0.488
 

 k-point   11 :   -0.18750000 0.31250000 0.06250000     weight = 0.04687500

band   1 # energy   -0.55260626 # occ.  1.00000000
 
ion      s     py     pz     px    dxy    dyz    dz2    dxz    dx2    tot
  1  0.385  0.010  0.010  0.107  0.035  0.000  0.015  0.035  0.045  0.644
 
band   2 # energy    1.74868660 # occ.  1.00000000
 
ion      s     py     pz     px    dxy    dyz    dz2    dxz    dx2    tot
  1  0.000  0.007  0.007  0.000  0.288  0.000  0.246  0.288  0.082  0.919
 
band   3 # energy    1.88301998 # occ.  1.00000000
 
ion      s     py     pz     px    dxy    dyz    dz2    dxz    dx2    tot
  1  0.008  0.003  0.003  0.014  0.217  0.469  0.000  0.217  0.000  0.931
 
band   4 # energy    2.68223198 # occ.  1.00000000
 
ion      s     py     pz     px    dxy    dyz    dz2    dxz    dx2    tot
  1  0.000  0.001  0.001  0.000  0.175  0.000  0.452  0.175  0.151  0.956
 
band   5 # energy    3.19655850 # occ.  1.00000000
 
ion      s     py     pz     px    dxy    dyz    dz2    dxz    dx2    tot
  1  0.000  0.002  0.002  0.001  0.158  0.329  0.081  0.158  0.242  0.973
 
band   6 # energy    3.48817782 # occ.  0.95264557
 
ion      s     py     pz     px    dxy    dyz    dz2    dxz    dx2    tot
  1  0.041  0.005  0.005  0.018  0.059  0.164  0.149  0.059  0.448  0.947
 
band   7 # energy   18.55204146 # occ.  0.00000000
 
ion      s     py     pz     px    dxy    dyz    dz2    dxz    dx2    tot
  1  0.000  0.131  0.131  0.000  0.114  0.000  0.134  0.114  0.045  0.668
 
band   8 # energy   19.15814781 # occ.  0.00000000
 
ion      s     py     pz     px    dxy    dyz    dz2    dxz    dx2    tot
  1  0.153  0.074  0.074  0.170  0.107  0.011  0.001  0.107  0.002  0.697
 
band   9 # energy   25.35393684 # occ.  0.00000000
 
ion      s     py     pz     px    dxy    dyz    dz2    dxz    dx2    tot
  1  0.000  0.212  0.212  0.078  0.008  0.074  0.002  0.008  0.007  0.601
 
band  10 # energy   25.63078878 # occ.  0.00000000
 
ion      s     py     pz     px    dxy    dyz    dz2    dxz    dx2    tot
  1  0.000  0.057  0.057  0.000  0.092  0.000  0.182  0.092  0.061  0.542
 
band  11 # energy   28.90956721 # occ.  0.00000000
 
ion      s     py     pz     px    dxy    dyz    dz2    dxz    dx2    tot
  1  0.102  0.000  0.000  0.065  0.114  0.270  0.011  0.114  0.034  0.712
 
band  12 # energy   33.21962426 # occ.  0.00000000
 
ion      s     py     pz     px    dxy    dyz    dz2    dxz    dx2    tot
  1  0.000  0.138  0.138  0.000  0.014  0.000  0.072  0.014  0.024  0.400
 

 k-point   12 :   -0.43750000 0.43750000 0.06250000     weight = 0.04687500

band   1 # energy    0.14305274 # occ.  1.00000000
 
ion      s     py     pz     px    dxy    dyz    dz2    dxz    dx2    tot
  1  0.120  0.000  0.000  0.012  0.428  0.000  0.259  0.000  0.001  0.822
 
band   2 # energy    1.37591663 # occ.  1.00000000
 
ion      s     py     pz     px    dxy    dyz    dz2    dxz    dx2    tot
  1  0.000  0.000  0.002  0.000  0.000  0.453  0.000  0.479  0.000  0.934
 
band   3 # energy    2.74356810 # occ.  1.00000000
 
ion      s     py     pz     px    dxy    dyz    dz2    dxz    dx2    tot
  1  0.013  0.035  0.000  0.038  0.007  0.000  0.120  0.000  0.688  0.900
 
band   4 # energy    3.05124028 # occ.  1.00000000
 
ion      s     py     pz     px    dxy    dyz    dz2    dxz    dx2    tot
  1  0.006  0.004  0.000  0.003  0.319  0.000  0.529  0.000  0.108  0.968
 
band   5 # energy    4.02866030 # occ.  1.00000000
 
ion      s     py     pz     px    dxy    dyz    dz2    dxz    dx2    tot
  1  0.000  0.000  0.001  0.000  0.000  0.509  0.000  0.477  0.000  0.988
 
band   6 # energy    4.71480694 # occ.  0.03431705
 
ion      s     py     pz     px    dxy    dyz    dz2    dxz    dx2    tot
  1  0.062  0.168  0.000  0.205  0.072  0.000  0.011  0.000  0.183  0.701
 
band   7 # energy   11.06238410 # occ.  0.00000000
 
ion      s     py     pz     px    dxy    dyz    dz2    dxz    dx2    tot
  1  0.333  0.080  0.000  0.026  0.277  0.000  0.073  0.000  0.003  0.791
 
band   8 # energy   21.12813826 # occ.  0.00000000
 
ion      s     py     pz     px    dxy    dyz    dz2    dxz    dx2    tot
  1  0.028  0.108  0.000  0.134  0.000  0.000  0.060  0.000  0.006  0.335
 
band   9 # energy   21.18096482 # occ.  0.00000000
 
ion      s     py     pz     px    dxy    dyz    dz2    dxz    dx2    tot
  1  0.000  0.000  0.592  0.000  0.000  0.030  0.000  0.122  0.000  0.744
 
band  10 # energy   26.38729571 # occ.  0.00000000
 
ion      s     py     pz     px    dxy    dyz    dz2    dxz    dx2    tot
  1  0.000  0.000  0.100  0.000  0.000  0.446  0.000  0.347  0.000  0.893
 
band  11 # energy   28.68065296 # occ.  0.00000000
 
ion      s     py     pz     px    dxy    dyz    dz2    dxz    dx2    tot