<?xml version="1.0" encoding="ISO-8859-1"?>
<modeling>
 <generator>
  <i name="program" type="string">vasp </i>
  <i name="version" type="string">5.4.1  </i>
  <i name="subversion" type="string">24Jun15 (build Jul 19 2016 16:50:41) complex                          parallel </i>
  <i name="platform" type="string">IFC91_ompi </i>
  <i name="date" type="string">2019 10 17 </i>
  <i name="time" type="string">11:27:45 </i>
 </generator>
 <incar>
  <i type="string" name="SYSTEM"> Fe BCC</i>
  <i type="string" name="PREC">accurate</i>
  <i type="int" name="ISPIN">     2</i>
  <i name="EDIFF">      0.00000100</i>
  <i name="ENMAX">    400.00000000</i>
  <v name="MAGMOM">      4.00000000</v>
  <i type="int" name="ISMEAR">    -5</i>
  <i type="logical" name="LORBIT"> F  </i>
  <v type="int" name="KPOINT_BSE">    -1     0     0     0</v>
 </incar>
 <kpoints>
  <generation param="Monkhorst-Pack">
   <v type="int" name="divisions">       8        8        8 </v>
   <v name="usershift">      0.00000000       0.00000000       0.00000000 </v>
   <v name="genvec1">      0.12500000       0.00000000       0.00000000 </v>
   <v name="genvec2">      0.00000000       0.12500000       0.00000000 </v>
   <v name="genvec3">      0.00000000       0.00000000       0.12500000 </v>
   <v name="shift">      0.50000000       0.50000000       0.50000000 </v>
  </generation>
  <varray name="kpointlist" >
   <v>       0.06250000       0.06250000       0.06250000 </v>
   <v>       0.18750000       0.06250000       0.06250000 </v>
   <v>       0.31250000       0.06250000       0.06250000 </v>
   <v>       0.43750000       0.06250000       0.06250000 </v>
   <v>      -0.06250000       0.06250000       0.06250000 </v>
   <v>       0.18750000       0.18750000       0.06250000 </v>
   <v>       0.31250000       0.18750000       0.06250000 </v>
   <v>      -0.18750000       0.18750000       0.06250000 </v>
   <v>       0.31250000       0.31250000       0.06250000 </v>
   <v>      -0.31250000       0.31250000       0.06250000 </v>
   <v>      -0.18750000       0.31250000       0.06250000 </v>
   <v>      -0.43750000       0.43750000       0.06250000 </v>
   <v>      -0.31250000       0.43750000       0.06250000 </v>
   <v>      -0.43750000      -0.43750000       0.06250000 </v>
   <v>      -0.31250000      -0.43750000       0.06250000 </v>
   <v>       0.18750000       0.18750000       0.18750000 </v>
   <v>       0.31250000       0.18750000       0.18750000 </v>
   <v>      -0.18750000       0.18750000       0.18750000 </v>
   <v>      -0.31250000       0.31250000       0.18750000 </v>
   <v>      -0.43750000       0.43750000       0.18750000 </v>
   <v>      -0.31250000       0.43750000       0.18750000 </v>
   <v>      -0.43750000      -0.43750000       0.18750000 </v>
   <v>      -0.31250000       0.31250000       0.31250000 </v>
   <v>      -0.43750000       0.43750000       0.31250000 </v>
   <v>      -0.43750000      -0.43750000       0.31250000 </v>
   <v>      -0.43750000       0.43750000       0.43750000 </v>
  </varray>
  <varray name="weights" >
   <v>       0.01562500 </v>
   <v>       0.04687500 </v>
   <v>       0.04687500 </v>
   <v>       0.02343750 </v>
   <v>       0.01171875 </v>
   <v>       0.04687500 </v>
   <v>       0.09375000 </v>
   <v>       0.04687500 </v>
   <v>       0.01562500 </v>
   <v>       0.04687500 </v>
   <v>       0.04687500 </v>
   <v>       0.04687500 </v>
   <v>       0.09375000 </v>
   <v>       0.04687500 </v>
   <v>       0.04687500 </v>
   <v>       0.01562500 </v>
   <v>       0.02343750 </v>
   <v>       0.01171875 </v>
   <v>       0.04687500 </v>
   <v>       0.04687500 </v>
   <v>       0.04687500 </v>
   <v>       0.04687500 </v>
   <v>       0.01171875 </v>
   <v>       0.04687500 </v>
   <v>       0.01562500 </v>
   <v>       0.01171875 </v>
  </varray>
  <varray name="tetrahedronlist"  type="int" >
   <v type="int" >        4        1        2        2        6 </v>
   <v type="int" >        8        2        2        6        6 </v>
   <v type="int" >        4        2        6        6       16 </v>
   <v type="int" >        4        2        3        6        7 </v>
   <v type="int" >        4        2        6        6        7 </v>
   <v type="int" >       12        6        6        7       16 </v>
   <v type="int" >        8        3        6        7        7 </v>
   <v type="int" >        8        6        7        7       17 </v>
   <v type="int" >        8        6        7       16       17 </v>
   <v type="int" >        4        3        4        7        7 </v>
   <v type="int" >        4        3        7        7        7 </v>
   <v type="int" >       16        7        7        7       17 </v>
   <v type="int" >        8        4        7        7        7 </v>
   <v type="int" >        4        7        7        7       16 </v>
   <v type="int" >       20        7        7       16       17 </v>
   <v type="int" >        4        3        4        6        7 </v>
   <v type="int" >        4        4        6        7        7 </v>
   <v type="int" >       16        6        7        7       16 </v>
   <v type="int" >        8        3        6        6        7 </v>
   <v type="int" >        4        6        6        6        7 </v>
   <v type="int" >        4        2        2        3        6 </v>
   <v type="int" >        8        2        3        6        6 </v>
   <v type="int" >        4        2        6        6        6 </v>
   <v type="int" >        4        2        2        2        6 </v>
   <v type="int" >        8        2        2        6       11 </v>
   <v type="int" >        4        2        6        6       11 </v>
   <v type="int" >       16        1        2        2        8 </v>
   <v type="int" >        4        2        2        2        8 </v>
   <v type="int" >       12        2        2        8       11 </v>
   <v type="int" >       16        1        2        8        8 </v>
   <v type="int" >        4        2        8        8       18 </v>
   <v type="int" >        4        2        8       11       18 </v>
   <v type="int" >       20        1        5        8        8 </v>
   <v type="int" >        4        1        8        8        8 </v>
   <v type="int" >        4        8        8        8       18 </v>
   <v type="int" >        8        5        8        8        8 </v>
   <v type="int" >        4        8        8        8       11 </v>
   <v type="int" >        4        8        8       11       18 </v>
   <v type="int" >        8        1        2        5        8 </v>
   <v type="int" >        8        2        5        8        8 </v>
   <v type="int" >        8        2        8        8       11 </v>
   <v type="int" >        4        2        2        6        8 </v>
   <v type="int" >        4        2        6        8       11 </v>
   <v type="int" >        4        6        7        9       16 </v>
   <v type="int" >       16        7        9       16       17 </v>
   <v type="int" >       12        9       16       17       17 </v>
   <v type="int" >       20        7        7        9       17 </v>
   <v type="int" >       12        7        9       17       17 </v>
   <v type="int" >        8        7        7       17       17 </v>
   <v type="int" >       12        3        6        7       16 </v>
   <v type="int" >        8        3        7        7       16 </v>
   <v type="int" >        8        3        6        6       16 </v>
   <v type="int" >        4        3        6       13       16 </v>
   <v type="int" >        4        3        7       13       16 </v>
   <v type="int" >        4        2        6        6       10 </v>
   <v type="int" >        4        3        6        6       10 </v>
   <v type="int" >        8        3        6       10       13 </v>
   <v type="int" >       12        2        6       10       11 </v>
   <v type="int" >        4        6       10       11       19 </v>
   <v type="int" >        4        6       10       13       19 </v>
   <v type="int" >        4        2        8       11       11 </v>
   <v type="int" >        4        2       10       11       11 </v>
   <v type="int" >        4       10       11       11       19 </v>
   <v type="int" >        8        8       11       11       18 </v>
   <v type="int" >        8       11       11       18       19 </v>
   <v type="int" >        4       11       11       19       19 </v>
   <v type="int" >        4        8        8       10       18 </v>
   <v type="int" >       12        8       10       11       18 </v>
   <v type="int" >       12       10       11       18       19 </v>
   <v type="int" >        4       10       11       13       18 </v>
   <v type="int" >        4       10       13       18       19 </v>
   <v type="int" >        4        2        3        8       11 </v>
   <v type="int" >        4        3        8       10       11 </v>
   <v type="int" >        8        3       10       11       13 </v>
   <v type="int" >       16        2        3        6       11 </v>
   <v type="int" >        4        3        6        7       11 </v>
   <v type="int" >        4        3        7       11       13 </v>
   <v type="int" >        4        4        7        9       17 </v>
   <v type="int" >        8        4        7        7       17 </v>
   <v type="int" >        4        4        7       14       17 </v>
   <v type="int" >        4        3        7        7       12 </v>
   <v type="int" >        8        4        7        7       12 </v>
   <v type="int" >        8        4        7       12       14 </v>
   <v type="int" >        8        3        7       12       13 </v>
   <v type="int" >        4        7       12       13       20 </v>
   <v type="int" >        4        7       12       14       20 </v>
   <v type="int" >        4        3       10       13       13 </v>
   <v type="int" >        4        3       12       13       13 </v>
   <v type="int" >        4       12       13       13       20 </v>
   <v type="int" >        8       10       13       13       19 </v>
   <v type="int" >       12       13       13       19       21 </v>
   <v type="int" >        4       13       13       20       21 </v>
   <v type="int" >        8       10       11       13       19 </v>
   <v type="int" >        8       11       13       19       19 </v>
   <v type="int" >        4       13       19       19       20 </v>
   <v type="int" >        8       13       19       20       21 </v>
   <v type="int" >        4       10       11       12       19 </v>
   <v type="int" >        4       11       12       13       19 </v>
   <v type="int" >        8       12       13       19       20 </v>
   <v type="int" >        8       10       12       13       19 </v>
   <v type="int" >        4       12       13       14       19 </v>
   <v type="int" >        4       12       14       19       20 </v>
   <v type="int" >        4        3        4       10       13 </v>
   <v type="int" >        4        4       10       12       13 </v>
   <v type="int" >       12        4       12       13       14 </v>
   <v type="int" >       12        3        4        7       13 </v>
   <v type="int" >        8        4        7        7       13 </v>
   <v type="int" >       12        4        7       13       14 </v>
   <v type="int" >        4        4       12       14       14 </v>
   <v type="int" >        4       12       14       14       20 </v>
   <v type="int" >        4       14       14       20       22 </v>
   <v type="int" >        4       12       13       15       20 </v>
   <v type="int" >        4       12       14       15       20 </v>
   <v type="int" >        8       14       15       20       22 </v>
   <v type="int" >       12       13       15       20       21 </v>
   <v type="int" >       12       15       20       21       22 </v>
   <v type="int" >        4       15       20       22       22 </v>
   <v type="int" >        4       13       13       14       21 </v>
   <v type="int" >       12       13       14       15       21 </v>
   <v type="int" >       16       14       15       21       22 </v>
   <v type="int" >        8       13       14       20       21 </v>
   <v type="int" >        4       14       20       20       21 </v>
   <v type="int" >       12       14       20       21       22 </v>
   <v type="int" >        4       12       12       13       20 </v>
   <v type="int" >        8       12       13       14       20 </v>
   <v type="int" >        8       12       14       20       20 </v>
   <v type="int" >        8       12       12       14       20 </v>
   <v type="int" >        4       12       13       20       20 </v>
   <v type="int" >       16        3        4       12       14 </v>
   <v type="int" >        8        3       12       12       14 </v>
   <v type="int" >        8        3       12       13       14 </v>
   <v type="int" >       16        3        4        7       14 </v>
   <v type="int" >        4        3        6        7       14 </v>
   <v type="int" >        4        3        6       13       14 </v>
   <v type="int" >        8       14       15       15       22 </v>
   <v type="int" >        8       15       15       22       22 </v>
   <v type="int" >        8       15       21       22       22 </v>
   <v type="int" >       12       13       14       15       22 </v>
   <v type="int" >        4       13       15       15       22 </v>
   <v type="int" >        8       13       15       21       22 </v>
   <v type="int" >       12       13       14       20       22 </v>
   <v type="int" >        4       13       19       20       22 </v>
   <v type="int" >        4       13       19       21       22 </v>
   <v type="int" >        4       10       12       14       20 </v>
   <v type="int" >        4       10       13       14       20 </v>
   <v type="int" >        8       10       13       19       20 </v>
   <v type="int" >        8       10       12       13       20 </v>
   <v type="int" >        4       10       11       13       20 </v>
   <v type="int" >        4       10       11       19       20 </v>
   <v type="int" >        4        2        3       12       13 </v>
   <v type="int" >        4        2       10       12       13 </v>
   <v type="int" >        8        2       10       11       13 </v>
   <v type="int" >       12        2        3        6       13 </v>
   <v type="int" >        4        2        2        6       13 </v>
   <v type="int" >        4        2        2       11       13 </v>
   <v type="int" >        4       11       13       15       21 </v>
   <v type="int" >        8       11       13       19       21 </v>
   <v type="int" >        4       11       18       19       21 </v>
   <v type="int" >        4        8       10       13       19 </v>
   <v type="int" >        4        8       11       13       19 </v>
   <v type="int" >        8        8       11       18       19 </v>
   <v type="int" >        8        8       10       11       19 </v>
   <v type="int" >        4        8        8       11       19 </v>
   <v type="int" >        4        8        8       18       19 </v>
   <v type="int" >        4        1        2       10       11 </v>
   <v type="int" >        4        1        8       10       11 </v>
   <v type="int" >        8        1        8        8       11 </v>
   <v type="int" >        8        1        2        2       11 </v>
   <v type="int" >       12        1        2        8       11 </v>
   <v type="int" >        4        5        8       11       18 </v>
   <v type="int" >        4        5        8        8       18 </v>
   <v type="int" >        4        1        5        8       18 </v>
   <v type="int" >        4        5        5        8        8 </v>
   <v type="int" >       12        1        5        5        8 </v>
   <v type="int" >        6        1        1        5        5 </v>
   <v type="int" >        8        1        1        5        8 </v>
   <v type="int" >        4        1        1        2        8 </v>
   <v type="int" >        4        2        3        6       16 </v>
   <v type="int" >        4        3        7       16       17 </v>
   <v type="int" >       12        7       16       17       17 </v>
   <v type="int" >        8        7       17       17       17 </v>
   <v type="int" >       12        7        7        9       16 </v>
   <v type="int" >        4        6        6        7        7 </v>
   <v type="int" >       16        3        6        7       13 </v>
   <v type="int" >       12        6        7        7       13 </v>
   <v type="int" >        4        3        6        6       11 </v>
   <v type="int" >       12        3        6       11       13 </v>
   <v type="int" >       12        2        3       10       11 </v>
   <v type="int" >        4        3       10       11       19 </v>
   <v type="int" >        4        3       11       13       19 </v>
   <v type="int" >        4        2        8       10       18 </v>
   <v type="int" >        4        2       10       11       18 </v>
   <v type="int" >        4       10       18       19       19 </v>
   <v type="int" >        4        8        8       11       11 </v>
   <v type="int" >        4        8       10       11       11 </v>
   <v type="int" >        4       10       11       11       13 </v>
   <v type="int" >        4       11       11       13       19 </v>
   <v type="int" >        4        2        6        8       10 </v>
   <v type="int" >        4        6        8       10       11 </v>
   <v type="int" >       12        6       10       11       13 </v>
   <v type="int" >        8        2        3        6       10 </v>
   <v type="int" >        4        3        6        7       10 </v>
   <v type="int" >        4        6        7       10       13 </v>
   <v type="int" >        4       16       17       17       17 </v>
   <v type="int" >        4       17       17       17       17 </v>
   <v type="int" >        4        9       17       17       17 </v>
   <v type="int" >        8        7        7       15       17 </v>
   <v type="int" >        8        7        9       15       17 </v>
   <v type="int" >        4        6        7       13       16 </v>
   <v type="int" >        4        7        7       13       16 </v>
   <v type="int" >       12        7        7       13       15 </v>
   <v type="int" >        8        6        7       13       13 </v>
   <v type="int" >        4        7       13       13       21 </v>
   <v type="int" >        4        7       13       15       21 </v>
   <v type="int" >        4        6       11       13       19 </v>
   <v type="int" >        4        6       13       13       19 </v>
   <v type="int" >        4       13       19       19       23 </v>
   <v type="int" >        4       13       19       21       23 </v>
   <v type="int" >        4       11       18       19       19 </v>
   <v type="int" >        4       11       19       19       19 </v>
   <v type="int" >        4       19       19       19       23 </v>
   <v type="int" >        4       18       19       19       19 </v>
   <v type="int" >        4       19       19       19       21 </v>
   <v type="int" >        4       19       19       21       23 </v>
   <v type="int" >        4       11       13       18       19 </v>
   <v type="int" >        4       13       18       19       19 </v>
   <v type="int" >        8       13       19       19       21 </v>
   <v type="int" >       12       11       13       13       19 </v>
   <v type="int" >        4       13       13       15       19 </v>
   <v type="int" >        4       13       15       19       21 </v>
   <v type="int" >        4        6        7       11       13 </v>
   <v type="int" >        4        7       11       13       13 </v>
   <v type="int" >        8        7       13       13       15 </v>
   <v type="int" >        4        7        7        9       13 </v>
   <v type="int" >        4        7        9       13       15 </v>
   <v type="int" >        4        7        9       14       17 </v>
   <v type="int" >       12        7        9       14       15 </v>
   <v type="int" >        4        9       14       15       22 </v>
   <v type="int" >        4        7       13       15       20 </v>
   <v type="int" >        4        7       14       15       20 </v>
   <v type="int" >        4       15       20       21       24 </v>
   <v type="int" >        4       15       20       22       24 </v>
   <v type="int" >        4       13       19       21       21 </v>
   <v type="int" >        4       13       20       21       21 </v>
   <v type="int" >        4       20       21       21       24 </v>
   <v type="int" >        8       19       21       21       23 </v>
   <v type="int" >        8       21       21       23       24 </v>
   <v type="int" >        4       21       21       24       24 </v>
   <v type="int" >        4       19       19       20       23 </v>
   <v type="int" >       12       19       20       21       23 </v>
   <v type="int" >       12       20       21       23       24 </v>
   <v type="int" >        4       20       21       22       23 </v>
   <v type="int" >        4       20       22       23       24 </v>
   <v type="int" >        4       13       14       19       21 </v>
   <v type="int" >        4       14       19       20       21 </v>
   <v type="int" >        4       14       15       15       21 </v>
   <v type="int" >       16        7       13       14       15 </v>
   <v type="int" >        8        7       14       15       15 </v>
   <v type="int" >       16        7        7        9       15 </v>
   <v type="int" >        4        7        7       15       15 </v>
   <v type="int" >        4       14       20       22       22 </v>
   <v type="int" >        8       20       22       22       24 </v>
   <v type="int" >       16       22       22       24       25 </v>
   <v type="int" >       16       20       21       22       24 </v>
   <v type="int" >        8       21       22       24       24 </v>
   <v type="int" >        4       22       24       24       24 </v>
   <v type="int" >       16       22       24       24       25 </v>
   <v type="int" >        4       20       20       21       24 </v>
   <v type="int" >       12       20       22       24       24 </v>
   <v type="int" >        8       20       20       22       24 </v>
   <v type="int" >        4       20       21       24       24 </v>
   <v type="int" >        4       13       20       20       22 </v>
   <v type="int" >        8       13       20       21       22 </v>
   <v type="int" >        4       13       13       15       22 </v>
   <v type="int" >        4       13       13       21       22 </v>
   <v type="int" >        4        6        7       14       15 </v>
   <v type="int" >        4        6       13       14       15 </v>
   <v type="int" >        4        6       13       13       15 </v>
   <v type="int" >        4        6        7        7       15 </v>
   <v type="int" >        4        3        6        7       15 </v>
   <v type="int" >        4        3        6       13       15 </v>
   <v type="int" >        8       21       22       22       25 </v>
   <v type="int" >       12       21       22       24       25 </v>
   <v type="int" >        4       21       23       24       25 </v>
   <v type="int" >        4       19       20       22       24 </v>
   <v type="int" >        4       19       21       22       24 </v>
   <v type="int" >        8       19       21       23       24 </v>
   <v type="int" >        8       19       20       21       24 </v>
   <v type="int" >        4       19       19       21       24 </v>
   <v type="int" >        4       19       19       23       24 </v>
   <v type="int" >        4       11       13       20       21 </v>
   <v type="int" >        4       11       19       20       21 </v>
   <v type="int" >        4       11       19       19       21 </v>
   <v type="int" >        4       11       13       13       21 </v>
   <v type="int" >        4       10       11       13       21 </v>
   <v type="int" >        4       10       11       19       21 </v>
   <v type="int" >        4        2        6       13       13 </v>
   <v type="int" >        4        2       11       13       13 </v>
   <v type="int" >       12        2        3       10       13 </v>
   <v type="int" >        4        2       10       10       13 </v>
   <v type="int" >        4       18       19       21       23 </v>
   <v type="int" >        4       18       19       19       23 </v>
   <v type="int" >        4       11       18       19       23 </v>
   <v type="int" >        4        8       11       19       19 </v>
   <v type="int" >        4        8       18       19       19 </v>
   <v type="int" >        4        2        8       10       19 </v>
   <v type="int" >        4        2        8       11       19 </v>
   <v type="int" >       16        2        8       10       11 </v>
   <v type="int" >        4        8        8       10       11 </v>
   <v type="int" >       12        2        8        8       10 </v>
   <v type="int" >        8        2        8       10       10 </v>
   <v type="int" >        4        8       10       10       11 </v>
   <v type="int" >        4        1        8       11       18 </v>
   <v type="int" >        4        2        8        8        8 </v>
   <v type="int" >        8        2        2        8       10 </v>
   <v type="int" >        4        2        2        3       10 </v>
   <v type="int" >        4        3        4        7       17 </v>
   <v type="int" >        4        4        7       16       17 </v>
   <v type="int" >        4        7        7        7        9 </v>
   <v type="int" >        4        4        7        7       14 </v>
   <v type="int" >        4        7        7        7       14 </v>
   <v type="int" >       12        3        4       12       13 </v>
   <v type="int" >        4        4       12       13       20 </v>
   <v type="int" >        4        4       13       14       20 </v>
   <v type="int" >        4        3       10       12       19 </v>
   <v type="int" >        4        3       12       13       19 </v>
   <v type="int" >        4       12       13       19       21 </v>
   <v type="int" >        4       12       19       20       21 </v>
   <v type="int" >        4       10       13       19       19 </v>
   <v type="int" >        8       13       13       19       20 </v>
   <v type="int" >        4       10       11       13       13 </v>
   <v type="int" >        4       10       12       13       13 </v>
   <v type="int" >        4       12       13       13       14 </v>
   <v type="int" >        4       13       13       14       20 </v>
   <v type="int" >        4        3        7       10       12 </v>
   <v type="int" >        4        7       10       12       13 </v>
   <v type="int" >        8        7       12       13       14 </v>
   <v type="int" >        8        3        4        7       12 </v>
   <v type="int" >        4        7        7       12       14 </v>
   <v type="int" >        4        7        9       15       16 </v>
   <v type="int" >       12        7        9       15       15 </v>
   <v type="int" >        8        7        7       14       15 </v>
   <v type="int" >        4        7       14       15       22 </v>
   <v type="int" >        4        7       15       15       22 </v>
   <v type="int" >        4        7       13       14       21 </v>
   <v type="int" >        4        7       14       15       21 </v>
   <v type="int" >        4       14       20       21       24 </v>
   <v type="int" >        4       14       21       22       24 </v>
   <v type="int" >        4       13       19       20       23 </v>
   <v type="int" >        4       13       20       21       23 </v>
   <v type="int" >        4       20       23       24       24 </v>
   <v type="int" >        4       19       19       21       21 </v>
   <v type="int" >        4       19       20       21       21 </v>
   <v type="int" >        4       20       21       21       22 </v>
   <v type="int" >        4       21       21       22       24 </v>
   <v type="int" >        4       13       15       19       20 </v>
   <v type="int" >        4       15       19       20       21 </v>
   <v type="int" >        8       13       14       15       20 </v>
   <v type="int" >        4       14       15       15       20 </v>
   <v type="int" >        4       15       15       20       22 </v>
   <v type="int" >        4        7        9       13       14 </v>
   <v type="int" >        4        9       13       14       15 </v>
   <v type="int" >        8        9       14       15       15 </v>
   <v type="int" >        8        7        7        9       14 </v>
   <v type="int" >        4        9       15       15       22 </v>
   <v type="int" >        4       15       22       22       25 </v>
   <v type="int" >        4       15       21       22       24 </v>
   <v type="int" >        4       15       22       22       24 </v>
   <v type="int" >        8       22       24       24       26 </v>
   <v type="int" >        8       22       24       25       26 </v>
   <v type="int" >        4       21       23       24       24 </v>
   <v type="int" >        4       21       24       24       24 </v>
   <v type="int" >        8       24       24       24       26 </v>
   <v type="int" >        4       23       24       24       24 </v>
   <v type="int" >        4       24       24       24       25 </v>
   <v type="int" >       20       24       24       25       26 </v>
   <v type="int" >        4       21       22       23       24 </v>
   <v type="int" >        4       22       23       24       24 </v>
   <v type="int" >       12       21       22       22       24 </v>
   <v type="int" >        4       22       22       22       24 </v>
   <v type="int" >        4       15       15       21       22 </v>
   <v type="int" >        4       15       22       22       22 </v>
   <v type="int" >        4       15       15       15       22 </v>
   <v type="int" >        4       14       15       22       22 </v>
   <v type="int" >        4        7       15       15       15 </v>
   <v type="int" >        4        4        7        7       15 </v>
   <v type="int" >        4        4        7       14       15 </v>
   <v type="int" >        4       22       24       25       25 </v>
   <v type="int" >        8       24       25       25       26 </v>
   <v type="int" >        6       25       25       26       26 </v>
   <v type="int" >       12       24       25       26       26 </v>
   <v type="int" >        4       24       24       26       26 </v>
   <v type="int" >        8       21       24       24       25 </v>
   <v type="int" >        4       20       21       22       25 </v>
   <v type="int" >        4       20       21       24       25 </v>
   <v type="int" >        4       13       15       22       22 </v>
   <v type="int" >        4       13       21       22       22 </v>
   <v type="int" >        4       12       13       14       22 </v>
   <v type="int" >        4       12       13       20       22 </v>
   <v type="int" >        4        3        7       14       15 </v>
   <v type="int" >        4        3       13       14       15 </v>
   <v type="int" >        4       23       24       25       26 </v>
   <v type="int" >        4       23       24       24       26 </v>
   <v type="int" >        4       21       23       24       26 </v>
   <v type="int" >        4       19       21       24       24 </v>
   <v type="int" >        4       19       23       24       24 </v>
   <v type="int" >        4       13       19       20       24 </v>
   <v type="int" >        4       13       19       21       24 </v>
   <v type="int" >        4       10       13       20       21 </v>
   <v type="int" >        4       10       19       20       21 </v>
   <v type="int" >        4        3       10       12       20 </v>
   <v type="int" >        4        3       10       13       20 </v>
   <v type="int" >        8        3       10       12       13 </v>
   <v type="int" >        4       10       10       12       13 </v>
   <v type="int" >        8        3       10       10       12 </v>
   <v type="int" >        8        3       10       12       12 </v>
   <v type="int" >        4       10       12       12       13 </v>
   <v type="int" >        4       11       19       21       23 </v>
   <v type="int" >        4        6       11       13       21 </v>
   <v type="int" >        4        2       10       13       19 </v>
   <v type="int" >        4        2       11       13       19 </v>
   <v type="int" >        8        2        6       11       13 </v>
   <v type="int" >        4        2        6        6       13 </v>
   <v type="int" >        4        3       10       10       11 </v>
   <v type="int" >        4        3       11       13       13 </v>
   <v type="int" >        4        2        2        6       10 </v>
   <v type="int" >        4        6       10       12       13 </v>
   <v type="int" >        4        3        6       10       12 </v>
   <v type="int" >        4        2        3        3       10 </v>
   <v type="int" >        4        3        3       10       12 </v>
   <v type="int" >        4        3        3        4       12 </v>
   <v type="int" >        4        3        4        7       16 </v>
   <v type="int" >        4        6        7        7        7 </v>
   <v type="int" >        4        6        6        7       13 </v>
   <v type="int" >        8        3        7        7       14 </v>
   <v type="int" >        8        3        7       13       14 </v>
   <v type="int" >        4        3       12       14       20 </v>
   <v type="int" >        4        3       13       14       20 </v>
   <v type="int" >        4        4       12       12       20 </v>
   <v type="int" >        4        4       12       14       20 </v>
   <v type="int" >        4       12       14       20       22 </v>
   <v type="int" >        4       12       20       20       22 </v>
   <v type="int" >        4       12       13       14       21 </v>
   <v type="int" >        4       12       14       20       21 </v>
   <v type="int" >        4       14       21       22       22 </v>
   <v type="int" >        4       13       13       15       20 </v>
   <v type="int" >        4       14       15       20       20 </v>
   <v type="int" >        4       15       20       20       22 </v>
   <v type="int" >        4       12       13       14       14 </v>
   <v type="int" >        4       13       14       14       20 </v>
   <v type="int" >        2       14       14       20       20 </v>
   <v type="int" >        2       12       12       14       14 </v>
   <v type="int" >        8        4        7       12       12 </v>
   <v type="int" >        4        7       12       12       14 </v>
   <v type="int" >        4        3        6        7       12 </v>
   <v type="int" >        4        6        7       12       13 </v>
   <v type="int" >        4        6        7       15       16 </v>
   <v type="int" >        8        6        7       13       15 </v>
   <v type="int" >        4        6       13       15       21 </v>
   <v type="int" >        4        7       13       14       22 </v>
   <v type="int" >        4        7       13       15       22 </v>
   <v type="int" >        4       13       20       22       24 </v>
   <v type="int" >        4       13       21       22       24 </v>
   <v type="int" >        4       14       20       20       24 </v>
   <v type="int" >        4       14       20       22       24 </v>
   <v type="int" >        4       20       22       24       25 </v>
   <v type="int" >        4       20       24       24       25 </v>
   <v type="int" >        6       22       22       24       24 </v>
   <v type="int" >        4       20       21       22       22 </v>
   <v type="int" >        2       20       20       22       22 </v>
   <v type="int" >        4        7        7       13       14 </v>
   <v type="int" >        4        3        7       13       13 </v>
   <v type="int" >        4       15       21       22       25 </v>
   <v type="int" >        4       21       24       25       26 </v>
   <v type="int" >        4       24       26       26       26 </v>
   <v type="int" >        6       24       24       25       25 </v>
   <v type="int" >        4        4        7       13       15 </v>
   <v type="int" >        4        4       13       14       15 </v>
   <v type="int" >        8        4       12       12       13 </v>
   <v type="int" >        4       25       26       26       26 </v>
   <v type="int" >        2       26       26       26       26 </v>
   <v type="int" >        4        4       12       12       14 </v>
   <v type="int" >        4       12       12       12       14 </v>
   <v type="int" >        8        4       12       12       12 </v>
   <v type="int" >        4        3        4        4       12 </v>
   <v type="int" >        4        4        4       12       12 </v>
   <v type="int" >        4        1        5        8       11 </v>
   <v type="int" >        4        1        2        6       11 </v>
   <v type="int" >        4        2        8       10       13 </v>
   <v type="int" >        4        2        8       11       13 </v>
   <v type="int" >        4        2        3        7       13 </v>
   <v type="int" >        4        2        6        7       13 </v>
   <v type="int" >        4        3       10       12       14 </v>
   <v type="int" >        4        3       10       13       14 </v>
   <v type="int" >        4        3        4        6       13 </v>
   <v type="int" >        4        4        6        7       13 </v>
   <v type="int" >        4        3       10       11       12 </v>
   <v type="int" >        4        3       11       12       13 </v>
   <v type="int" >        4        2        2        3       11 </v>
   <v type="int" >        6        2        2        8        8 </v>
   <v type="int" >        6        1        1        8        8 </v>
   <v type="int" >        4        5        5        5        8 </v>
   <v type="int" >        4        6       11       13       15 </v>
   <v type="int" >        4        6        7        9       15 </v>
   <v type="int" >        4        7       13       15       15 </v>
   <v type="int" >        4        7        7        7       15 </v>
   <v type="int" >        4        7       13       13       14 </v>
   <v type="int" >        4        3        7        7       13 </v>
   <v type="int" >        4        6       10       13       13 </v>
   <v type="int" >        4        2        6       10       10 </v>
   <v type="int" >        4        3        6       10       10 </v>
   <v type="int" >        4        2        2       10       11 </v>
   <v type="int" >        2        2        2       10       10 </v>
   <v type="int" >        4        1        8        8       10 </v>
   <v type="int" >        4        1        2        8       10 </v>
   <v type="int" >        4        2        3        8       10 </v>
   <v type="int" >        4        3        8       10       10 </v>
   <v type="int" >        4        4        7        9       14 </v>
   <v type="int" >        4        7       12       13       15 </v>
   <v type="int" >        4        7       12       14       15 </v>
   <v type="int" >        4        3        7       12       12 </v>
   <v type="int" >        4        3        3       10       13 </v>
   <v type="int" >        4        3        3       12       13 </v>
   <v type="int" >        2        3        3       12       12 </v>
   <v type="int" >        2        3        3       10       10 </v>
   <v type="int" >        4        2       10       10       12 </v>
   <v type="int" >        4        2        3       10       12 </v>
   <v type="int" >        4        3        4       10       12 </v>
   <v type="int" >        4        4       10       12       12 </v>
   <v type="int" >        4        4        4       12       14 </v>
   <v type="int" >        4        3       12       12       12 </v>
   <v type="int" >        4        3        4       12       12 </v>
   <v type="int" >        4        1        5        5        5 </v>
   <v type="int" >        2        5        5        5        5 </v>
  </varray>
  <i name="volumeweight">      0.00032552 </i>
 </kpoints>
 <parameters>
  <separator name="general" >
   <i type="string" name="SYSTEM">Fe BCC</i>
   <i type="logical" name="LCOMPAT"> F  </i>
  </separator>
  <separator name="electronic" >
   <i type="string" name="PREC">accura</i>
   <i name="ENMAX">    400.00000000</i>
   <i name="ENAUG">    511.36800000</i>
   <i name="EDIFF">      0.00000100</i>
   <i type="int" name="IALGO">    38</i>
   <i type="int" name="IWAVPR">    10</i>
   <i type="int" name="NBANDS">    12</i>
   <i name="NELECT">      8.00000000</i>
   <i type="int" name="TURBO">     0</i>
   <i type="int" name="IRESTART">     0</i>
   <i type="int" name="NREBOOT">     0</i>
   <i type="int" name="NMIN">     0</i>
   <i name="EREF">      0.00000000</i>
   <separator name="electronic smearing" >
    <i type="int" name="ISMEAR">    -5</i>
    <i name="SIGMA">      0.20000000</i>
    <i name="KSPACING">      0.50000000</i>
    <i type="logical" name="KGAMMA"> T  </i>
   </separator>
   <separator name="electronic projectors" >
    <i type="logical" name="LREAL"> F  </i>
    <v name="ROPT">      0.00000000</v>
    <i type="int" name="LMAXPAW">  -100</i>
    <i type="int" name="LMAXMIX">     2</i>
    <i type="logical" name="NLSPLINE"> F  </i>
   </separator>
   <separator name="electronic startup" >
    <i type="int" name="ISTART">     0</i>
    <i type="int" name="ICHARG">     2</i>
    <i type="int" name="INIWAV">     1</i>
   </separator>
   <separator name="electronic spin" >
    <i type="int" name="ISPIN">     2</i>
    <i type="logical" name="LNONCOLLINEAR"> F  </i>
    <v name="MAGMOM">      4.00000000</v>
    <i name="NUPDOWN">     -1.00000000</i>
    <i type="logical" name="LSORBIT"> F  </i>
    <v name="SAXIS">      0.00000000      0.00000000      1.00000000</v>
    <i type="logical" name="LSPIRAL"> F  </i>
    <v name="QSPIRAL">      0.00000000      0.00000000      0.00000000</v>
    <i type="logical" name="LZEROZ"> F  </i>
   </separator>
   <separator name="electronic exchange-correlation" >
    <i type="logical" name="LASPH"> F  </i>
    <i type="logical" name="LMETAGGA"> F  </i>
   </separator>
   <separator name="electronic convergence" >
    <i type="int" name="NELM">    60</i>
    <i type="int" name="NELMDL">    -5</i>
    <i type="int" name="NELMIN">     2</i>
    <i name="ENINI">    400.00000000</i>
    <separator name="electronic convergence detail" >
     <i type="logical" name="LDIAG"> T  </i>
     <i type="logical" name="LSUBROT"> F  </i>
     <i name="WEIMIN">      0.00000000</i>
     <i name="EBREAK">      0.00000002</i>
     <i name="DEPER">      0.30000000</i>
     <i type="int" name="NRMM">     4</i>
     <i name="TIME">      0.40000000</i>
    </separator>
   </separator>
   <separator name="electronic mixer" >
    <i name="AMIX">      0.40000000</i>
    <i name="BMIX">      1.00000000</i>
    <i name="AMIN">      0.10000000</i>
    <i name="AMIX_MAG">      1.60000000</i>
    <i name="BMIX_MAG">      1.00000000</i>
    <separator name="electronic mixer details" >
     <i type="int" name="IMIX">     4</i>
     <i type="logical" name="MIXFIRST"> F  </i>
     <i type="int" name="MAXMIX">   -45</i>
     <i name="WC">    100.00000000</i>
     <i type="int" name="INIMIX">     1</i>
     <i type="int" name="MIXPRE">     1</i>
     <i type="int" name="MREMOVE">     5</i>
    </separator>
   </separator>
   <separator name="electronic dipolcorrection" >
    <i type="logical" name="LDIPOL"> F  </i>
    <i type="logical" name="LMONO"> F  </i>
    <i type="int" name="IDIPOL">     0</i>
    <i name="EPSILON">      1.00000000</i>
    <v name="DIPOL">   -100.00000000   -100.00000000   -100.00000000</v>
    <i name="EFIELD">      0.00000000</i>
   </separator>
  </separator>
  <separator name="grids" >
   <i type="int" name="NGX">    18</i>
   <i type="int" name="NGY">    18</i>
   <i type="int" name="NGZ">    18</i>
   <i type="int" name="NGXF">    36</i>
   <i type="int" name="NGYF">    36</i>
   <i type="int" name="NGZF">    36</i>
   <i type="logical" name="ADDGRID"> F  </i>
  </separator>
  <separator name="ionic" >
   <i type="int" name="NSW">     0</i>
   <i type="int" name="IBRION">    -1</i>
   <i type="int" name="ISIF">     2</i>
   <i name="PSTRESS">      0.00000000</i>
   <i name="EDIFFG">      0.00001000</i>
   <i type="int" name="NFREE">     0</i>
   <i name="POTIM">      0.50000000</i>
   <i name="SMASS">     -3.00000000</i>
   <i name="SCALEE">      1.00000000</i>
  </separator>
  <separator name="ionic md" >
   <i name="TEBEG">      0.00010000</i>
   <i name="TEEND">      0.00010000</i>
   <i type="int" name="NBLOCK">     1</i>
   <i type="int" name="KBLOCK">     1</i>
   <i type="int" name="NPACO">   256</i>
   <i name="APACO">     16.00000000</i>
  </separator>
  <separator name="symmetry" >
   <i type="int" name="ISYM">     2</i>
   <i name="SYMPREC">      0.00001000</i>
  </separator>
  <separator name="dos" >
   <i type="logical" name="LORBIT"> F  </i>
   <v name="RWIGS">     -1.00000000</v>
   <i type="int" name="NEDOS">   301</i>
   <i name="EMIN">     10.00000000</i>
   <i name="EMAX">    -10.00000000</i>
   <i name="EFERMI">      0.00000000</i>
  </separator>
  <separator name="writing" >
   <i type="int" name="NWRITE">     2</i>
   <i type="logical" name="LWAVE"> T  </i>
   <i type="logical" name="LCHARG"> T  </i>
   <i type="logical" name="LPARD"> F  </i>
   <i type="logical" name="LVTOT"> F  </i>
   <i type="logical" name="LVHAR"> F  </i>
   <i type="logical" name="LELF"> F  </i>
   <i type="logical" name="LOPTICS"> F  </i>
   <v name="STM">      0.00000000      0.00000000      0.00000000      0.00000000      0.00000000      0.00000000      0.00000000</v>
  </separator>
  <separator name="performance" >
   <i type="int" name="NPAR">     4</i>
   <i type="int" name="NSIM">     4</i>
   <i type="int" name="NBLK">    -1</i>
   <i type="logical" name="LPLANE"> T  </i>
   <i type="logical" name="LSCALAPACK"> F  </i>
   <i type="logical" name="LSCAAWARE"> F  </i>
   <i type="logical" name="LSCALU"> F  </i>
   <i type="logical" name="LASYNC"> F  </i>
   <i type="logical" name="LORBITALREAL"> F  </i>
  </separator>
  <separator name="miscellaneous" >
   <i type="int" name="IDIOT">     3</i>
   <i type="logical" name="LMUSIC"> F  </i>
   <v name="POMASS">     55.84700000</v>
   <v name="DARWINR">      0.00000000</v>
   <v name="DARWINV">      1.00000000</v>
   <i type="logical" name="LCORR"> T  </i>
  </separator>
  <i type="logical" name="GGA_COMPAT"> T  </i>
  <i type="logical" name="LBERRY"> F  </i>
  <i type="int" name="ICORELEVEL">     0</i>
  <i type="logical" name="LDAU"> F  </i>
  <i type="int" name="I_CONSTRAINED_M">     0</i>
  <separator name="electronic exchange-correlation" >
   <i type="string" name="GGA">--</i>
   <i type="int" name="VOSKOWN">     0</i>
   <i type="logical" name="LHFCALC"> F  </i>
   <i type="string" name="PRECFOCK"></i>
   <i type="logical" name="LSYMGRAD"> F  </i>
   <i type="logical" name="LHFONE"> F  </i>
   <i type="logical" name="LRHFCALC"> F  </i>
   <i type="logical" name="LTHOMAS"> F  </i>
   <i type="logical" name="LMODELHF"> F  </i>
   <i name="ENCUT4O">     -1.00000000</i>
   <i type="int" name="EXXOEP">     0</i>
   <i type="int" name="FOURORBIT">     0</i>
   <i name="AEXX">      0.00000000</i>
   <i name="HFALPHA">      0.00000000</i>
   <i name="MCALPHA">      0.00000000</i>
   <i name="ALDAX">      1.00000000</i>
   <i name="AGGAX">      1.00000000</i>
   <i name="ALDAC">      1.00000000</i>
   <i name="AGGAC">      1.00000000</i>
   <i type="int" name="NKREDX">     1</i>
   <i type="int" name="NKREDY">     1</i>
   <i type="int" name="NKREDZ">     1</i>
   <i type="logical" name="SHIFTRED"> F  </i>
   <i type="logical" name="ODDONLY"> F  </i>
   <i type="logical" name="EVENONLY"> F  </i>
   <i type="int" name="LMAXFOCK">     0</i>
   <i type="int" name="NMAXFOCKAE">     0</i>
   <i type="logical" name="LFOCKAEDFT"> F  </i>
   <i name="HFSCREEN">      0.00000000</i>
   <i name="HFSCREENC">      0.00000000</i>
   <i type="int" name="NBANDSGWLOW">     0</i>
  </separator>
  <separator name="vdW DFT" >
   <i type="logical" name="LUSE_VDW"> F  </i>
   <i name="Zab_VDW">     -0.84910000</i>
   <i name="PARAM1">      0.12340000</i>
   <i name="PARAM2">      1.00000000</i>
   <i name="PARAM3">      0.00000000</i>
  </separator>
  <separator name="model GW" >
   <i type="int" name="MODEL_GW">     0</i>
   <i name="MODEL_EPS0">      8.10000000</i>
   <i name="MODEL_ALPHA">      1.00000000</i>
  </separator>
  <separator name="linear response parameters" >
   <i type="logical" name="LEPSILON"> F  </i>
   <i type="logical" name="LRPA"> F  </i>
   <i type="logical" name="LNABLA"> F  </i>
   <i type="logical" name="LVEL"> F  </i>
   <i type="int" name="KINTER">     0</i>
   <i name="CSHIFT">      0.10000000</i>
   <i name="OMEGAMAX">     -1.00000000</i>
   <i name="DEG_THRESHOLD">      0.00200000</i>
  </separator>
  <separator name="orbital magnetization" >
   <i type="logical" name="NUCIND"> F  </i>
   <v name="MAGPOS">      0.00000000      0.00000000      0.00000000</v>
   <i type="logical" name="LNICSALL"> T  </i>
   <i type="logical" name="ORBITALMAG"> F  </i>
   <i type="logical" name="LMAGBLOCH"> F  </i>
   <i type="logical" name="LCHIMAG"> F  </i>
   <i type="logical" name="LGAUGE"> T  </i>
   <i type="int" name="MAGATOM">     0</i>
   <v name="MAGDIPOL">      0.00000000      0.00000000      0.00000000</v>
   <v name="AVECCONST">      0.00000000      0.00000000      0.00000000</v>
  </separator>
  <separator name="response functions" >
   <i type="logical" name="LADDER"> F  </i>
   <i type="logical" name="LFXC"> F  </i>
   <i type="logical" name="LHARTREE"> T  </i>
   <i type="int" name="IBSE">     0</i>
   <v type="int" name="KPOINT">    -1     0     0     0</v>
   <i type="logical" name="LTCTE"> F  </i>
   <i type="logical" name="LTETE"> F  </i>
   <i type="logical" name="LTRIPLET"> F  </i>
   <i type="logical" name="LFXCEPS"> F  </i>
   <i type="logical" name="LFXHEG"> F  </i>
   <i type="int" name="NATURALO">     0</i>
   <i type="logical" name="L2ORDER"> F  </i>
   <i type="logical" name="LUSEW"> F  </i>
   <i name="ENCUTGW">     -2.00000000</i>
   <i name="ENCUTGWSOFT">     -2.00000000</i>
   <i name="ENCUTLF">     -1.00000000</i>
   <i type="int" name="LMAXMP2">    -1</i>
   <i name="SCISSOR">      0.00000000</i>
   <i type="int" name="NOMEGA">     0</i>
   <i type="int" name="NOMEGAR">     0</i>
   <i type="int" name="NBANDSGW">    -1</i>
   <i type="int" name="NBANDSO">    -1</i>
   <i type="int" name="NBANDSV">    -1</i>
   <i type="int" name="NELM">     1</i>
   <i type="int" name="NELMHF">     1</i>
   <i type="int" name="DIM">     3</i>
   <i type="int" name="ANTIRES">     0</i>
   <i name="OMEGAMAX">    -30.00000000</i>
   <i name="OMEGAMIN">    -30.00000000</i>
   <i name="OMEGATL">   -200.00000000</i>
   <i type="int" name="OMEGAGRID">     0</i>
   <i name="CSHIFT">     -0.10000000</i>
   <i type="logical" name="SELFENERGY"> F  </i>
   <i type="logical" name="LSPECTRAL"> F  </i>
   <i type="logical" name="LSPECTRALGW"> F  </i>
   <i type="logical" name="LSINGLES"> F  </i>
   <i type="logical" name="LFERMIGW"> F  </i>
   <i type="logical" name="ODDONLYGW"> F  </i>
   <i type="logical" name="EVENONLYGW"> F  </i>
   <i type="int" name="NKREDLFX">     1</i>
   <i type="int" name="NKREDLFY">     1</i>
   <i type="int" name="NKREDLFZ">     1</i>
   <i type="int" name="MAXMEM">  1800</i>
   <i type="int" name="TELESCOPE">     0</i>
   <i type="int" name="TAUPAR">     1</i>
   <i type="int" name="OMEGAPAR">    -1</i>
   <i name="LAMBDA">      1.00000000</i>
  </separator>
  <separator name="External order field" >
   <i name="OFIELD_KAPPA">      0.00000000</i>
   <v name="OFIELD_K">      0.00000000      0.00000000      0.00000000</v>
   <i name="OFIELD_Q6_NEAR">      0.00000000</i>
   <i name="OFIELD_Q6_FAR">      0.00000000</i>
   <i name="OFIELD_A">      0.00000000</i>
  </separator>
 </parameters>
 <atominfo>
  <atoms>       1 </atoms>
  <types>       1 </types>
  <array name="atoms" >
   <dimension dim="1">ion</dimension>
   <field type="string">element</field>
   <field type="int">atomtype</field>
   <set>
    <rc><c>Fe</c><c>   1</c></rc>
   </set>
  </array>
  <array name="atomtypes" >
   <dimension dim="1">type</dimension>
   <field type="int">atomspertype</field>
   <field type="string">element</field>
   <field>mass</field>
   <field>valence</field>
   <field type="string">pseudopotential</field>
   <set>
    <rc><c>   1</c><c>Fe</c><c>     55.84700000</c><c>      8.00000000</c><c>  PAW_PBE Fe 06Sep2000                  </c></rc>
   </set>
  </array>
 </atominfo>
 <structure name="initialpos" >
  <crystal>
   <varray name="basis" >
    <v>      -1.50000000       1.50000000       1.50000000 </v>
    <v>       1.50000000      -1.50000000       1.50000000 </v>
    <v>       1.50000000       1.50000000      -1.50000000 </v>
   </varray>
   <i name="volume">     13.50000000 </i>
   <varray name="rec_basis" >
    <v>       0.00000000       0.33333333       0.33333333 </v>
    <v>       0.33333333       0.00000000       0.33333333 </v>
    <v>       0.33333333       0.33333333       0.00000000 </v>
   </varray>
  </crystal>
  <varray name="positions" >
   <v>       0.00000000       0.00000000       0.00000000 </v>
  </varray>
 </structure>
 <calculation>
  <scstep>
   <time name="dav">    3.41    2.39</time>
   <time name="total">    3.52    2.46</time>
   <energy>
    <i name="alphaZ">     51.19538963 </i>
    <i name="ewald">   -558.97799591 </i>
    <i name="hartreedc">   -124.96240214 </i>
    <i name="XCdc">      5.51202287 </i>
    <i name="pawpsdc">    552.89180568 </i>
    <i name="pawaedc">   -560.64780826 </i>
    <i name="eentropy">      0.00000000 </i>
    <i name="bandstr">     57.92686018 </i>
    <i name="atom">    594.30652615 </i>
    <i name="e_fr_energy">     17.24439819 </i>
    <i name="e_wo_entrp">     17.24439819 </i>
    <i name="e_0_energy">     17.24439819 </i>
   </energy>
  </scstep>
  <scstep>
   <time name="dav">    3.32    2.04</time>
   <time name="total">    3.41    2.10</time>
   <energy>
    <i name="e_fr_energy">     -8.05862004 </i>
    <i name="e_wo_entrp">     -8.05862004 </i>
    <i name="e_0_energy">     -8.05862004 </i>
   </energy>
  </scstep>
  <scstep>
   <time name="dav">    4.16    2.61</time>
   <time name="total">    4.26    2.67</time>
   <energy>
    <i name="e_fr_energy">     -8.69558564 </i>
    <i name="e_wo_entrp">     -8.69558564 </i>
    <i name="e_0_energy">     -8.69558564 </i>
   </energy>
  </scstep>
  <scstep>
   <time name="dav">    4.04    2.61</time>
   <time name="total">    4.15    2.67</time>
   <energy>
    <i name="e_fr_energy">     -8.69799491 </i>
    <i name="e_wo_entrp">     -8.69799491 </i>
    <i name="e_0_energy">     -8.69799491 </i>
   </energy>
  </scstep>
  <scstep>
   <time name="dav">    3.47    2.34</time>
   <time name="total">    3.90    2.67</time>
   <energy>
    <i name="e_fr_energy">     -8.69801171 </i>
    <i name="e_wo_entrp">     -8.69801171 </i>
    <i name="e_0_energy">     -8.69801171 </i>
   </energy>
  </scstep>
  <scstep>
   <time name="dav">    4.91    2.96</time>
   <time name="total">    5.12    3.09</time>
   <energy>
    <i name="e_fr_energy">     -8.24158876 </i>
    <i name="e_wo_entrp">     -8.24158876 </i>
    <i name="e_0_energy">     -8.24158876 </i>
   </energy>
  </scstep>
  <scstep>
   <time name="dav">    4.42    2.70</time>
   <time name="total">    4.66    2.84</time>
   <energy>
    <i name="e_fr_energy">     -8.09411748 </i>
    <i name="e_wo_entrp">     -8.09411748 </i>
    <i name="e_0_energy">     -8.09411748 </i>
   </energy>
  </scstep>
  <scstep>
   <time name="dav">    4.87    3.00</time>
   <time name="total">    5.09    3.14</time>
   <energy>
    <i name="e_fr_energy">     -8.09027643 </i>
    <i name="e_wo_entrp">     -8.09027643 </i>
    <i name="e_0_energy">     -8.09027643 </i>
   </energy>
  </scstep>
  <scstep>
   <time name="dav">    4.82    3.01</time>
   <time name="total">    5.05    3.15</time>
   <energy>
    <i name="e_fr_energy">     -8.08579953 </i>
    <i name="e_wo_entrp">     -8.08579953 </i>
    <i name="e_0_energy">     -8.08579953 </i>
   </energy>
  </scstep>
  <scstep>
   <time name="dav">    5.38    3.28</time>
   <time name="total">    5.61    3.42</time>
   <energy>
    <i name="e_fr_energy">     -8.08558997 </i>
    <i name="e_wo_entrp">     -8.08558997 </i>
    <i name="e_0_energy">     -8.08558997 </i>
   </energy>
  </scstep>
  <scstep>
   <time name="dav">    5.68    3.45</time>
   <time name="total">    5.90    3.59</time>
   <energy>
    <i name="e_fr_energy">     -8.08555991 </i>
    <i name="e_wo_entrp">     -8.08555991 </i>
    <i name="e_0_energy">     -8.08555991 </i>
   </energy>
  </scstep>
  <scstep>
   <time name="dav">    4.74    3.02</time>
   <time name="total">    5.00    3.18</time>
   <energy>
    <i name="e_fr_energy">     -8.08558616 </i>
    <i name="e_wo_entrp">     -8.08558616 </i>
    <i name="e_0_energy">     -8.08558616 </i>
   </energy>
  </scstep>
  <scstep>
   <time name="dav">    4.33    2.60</time>
   <time name="total">    4.67    2.81</time>
   <energy>
    <i name="e_fr_energy">     -8.08560870 </i>
    <i name="e_wo_entrp">     -8.08560870 </i>
    <i name="e_0_energy">     -8.08560870 </i>
   </energy>
  </scstep>
  <scstep>
   <time name="dav">    3.50    2.08</time>
   <time name="total">    3.72    2.21</time>
   <energy>
    <i name="e_fr_energy">     -8.08561370 </i>
    <i name="e_wo_entrp">     -8.08561370 </i>
    <i name="e_0_energy">     -8.08561370 </i>
   </energy>
  </scstep>
  <scstep>
   <time name="dav">    2.27    1.42</time>
   <time name="total">    2.53    1.58</time>
   <energy>
    <i name="e_fr_energy">     -8.08561532 </i>
    <i name="e_wo_entrp">     -8.08561532 </i>
    <i name="e_0_energy">     -8.08561532 </i>
   </energy>
  </scstep>
  <scstep>
   <time name="dav">    2.89    1.69</time>
   <time name="total">    3.16    1.86</time>
   <energy>
    <i name="e_fr_energy">     -8.08561397 </i>
    <i name="e_wo_entrp">     -8.08561397 </i>
    <i name="e_0_energy">     -8.08561397 </i>
   </energy>
  </scstep>
  <scstep>
   <time name="dav">    2.66    1.56</time>
   <time name="total">    2.83    1.66</time>
   <energy>
    <i name="alphaZ">     51.19538963 </i>
    <i name="ewald">   -558.97799591 </i>
    <i name="hartreedc">   -108.76990766 </i>
    <i name="XCdc">      4.25655984 </i>
    <i name="pawpsdc">    658.89827078 </i>
    <i name="pawaedc">   -667.63291008 </i>
    <i name="eentropy">      0.00000000 </i>
    <i name="bandstr">     18.63845351 </i>
    <i name="atom">    594.30652615 </i>
    <i name="e_fr_energy">     -8.08561374 </i>
    <i name="e_wo_entrp">     -8.08561374 </i>
    <i name="e_0_energy">     -8.08561374 </i>
   </energy>
  </scstep>
  <structure>
   <crystal>
    <varray name="basis" >
     <v>      -1.50000000       1.50000000       1.50000000 </v>
     <v>       1.50000000      -1.50000000       1.50000000 </v>
     <v>       1.50000000       1.50000000      -1.50000000 </v>
    </varray>
    <i name="volume">     13.50000000 </i>
    <varray name="rec_basis" >
     <v>       0.00000000       0.33333333       0.33333333 </v>
     <v>       0.33333333       0.00000000       0.33333333 </v>
     <v>       0.33333333       0.33333333       0.00000000 </v>
    </varray>
   </crystal>
   <varray name="positions" >
    <v>       0.00000000       0.00000000       0.00000000 </v>
   </varray>
  </structure>
  <varray name="forces" >
   <v>      -0.00000000       0.00000000       0.00000000 </v>
  </varray>
  <varray name="stress" >
   <v>    -203.48213143       0.00000000      -0.00000000 </v>
   <v>      -0.00000000    -203.48213143       0.00000000 </v>
   <v>       0.00000000      -0.00000000    -203.48213143 </v>
  </varray>
  <energy>
   <i name="e_fr_energy">     -8.08561374 </i>
   <i name="e_wo_entrp">     -8.08561374 </i>
   <i name="e_0_energy">      0.00000000 </i>
  </energy>
  <time name="totalsc">   73.24   45.60</time>
  <eigenvalues>
   <array>
    <dimension dim="1">band</dimension>
    <dimension dim="2">kpoint</dimension>
    <dimension dim="3">spin</dimension>
    <field>eigene</field>
    <field>occ</field>
    <set>
     <set comment="spin 1">
      <set comment="kpoint 1">
       <r>   -2.3890    1.0000 </r>
       <r>    1.9313    1.0000 </r>
       <r>    1.9313    1.0000 </r>
       <r>    2.5450    1.0000 </r>
       <r>    3.0204    1.0000 </r>
       <r>    3.0204    1.0017 </r>
       <r>   23.7350    0.0000 </r>
       <r>   23.7350    0.0000 </r>
       <r>   26.1670    0.0000 </r>
       <r>   28.3849    0.0000 </r>
       <r>   31.8915    0.0000 </r>
       <r>   31.8915    0.0000 </r>
      </set>
      <set comment="kpoint 2">
       <r>   -0.9523    1.0000 </r>
       <r>    1.6223    1.0000 </r>
       <r>    1.7998    1.0000 </r>
       <r>    2.9667    1.0000 </r>
       <r>    3.1078    1.0000 </r>
       <r>    3.3441    1.0129 </r>
       <r>   18.3827    0.0000 </r>
       <r>   21.4838    0.0000 </r>
       <r>   22.8202    0.0000 </r>
       <r>   28.3916    0.0000 </r>
       <r>   31.2196    0.0000 </r>
       <r>   32.7149    0.0000 </r>
      </set>
      <set comment="kpoint 3">
       <r>    0.1608    1.0000 </r>
       <r>    1.3541    1.0000 </r>
       <r>    2.4641    1.0000 </r>
       <r>    3.0672    1.0000 </r>
       <r>    3.1764    1.0000 </r>
       <r>    4.5472    0.1698 </r>
       <r>   13.1837    0.0000 </r>
       <r>   19.9444    0.0000 </r>
       <r>   20.8033    0.0000 </r>
       <r>   27.6600    0.0000 </r>
       <r>   30.5616    0.0000 </r>
       <r>   35.7298    0.0000 </r>
      </set>
      <set comment="kpoint 4">
       <r>    0.2485    1.0000 </r>
       <r>    1.2506    1.0000 </r>
       <r>    3.1124    1.0000 </r>
       <r>    3.2041    1.0000 </r>
       <r>    3.2693    1.0000 </r>
       <r>    5.9734   -0.0110 </r>
       <r>   10.1654    0.0000 </r>
       <r>   19.3940    0.0000 </r>
       <r>   20.0538    0.0000 </r>
       <r>   27.3786    0.0000 </r>
       <r>   30.4197    0.0000 </r>
       <r>   36.1231    0.0000 </r>
      </set>
      <set comment="kpoint 5">
       <r>   -2.9344    1.0000 </r>
       <r>    2.0820    1.0000 </r>
       <r>    2.0820    1.0000 </r>
       <r>    2.1486    1.0000 </r>
       <r>    2.9670    1.0000 </r>
       <r>    3.1124    1.0000 </r>
       <r>   25.8678    0.0000 </r>
       <r>   26.9584    0.0000 </r>
       <r>   26.9584    0.0000 </r>
       <r>   29.0575    0.0000 </r>
       <r>   30.6199    0.0000 </r>
       <r>   30.6199    0.0000 </r>
      </set>
      <set comment="kpoint 6">
       <r>    0.3971    1.0000 </r>
       <r>    1.4266    1.0000 </r>
       <r>    1.5696    1.0000 </r>
       <r>    3.0250    1.0000 </r>
       <r>    3.2002    1.0000 </r>
       <r>    4.6958    0.1513 </r>
       <r>   16.1444    0.0000 </r>
       <r>   16.6190    0.0000 </r>
       <r>   20.1794    0.0000 </r>
       <r>   30.1246    0.0000 </r>
       <r>   32.9573    0.0000 </r>
       <r>   35.1219    0.0000 </r>
      </set>
      <set comment="kpoint 7">
       <r>    0.7476    1.0000 </r>
       <r>    1.2900    1.0000 </r>
       <r>    2.1102    1.0000 </r>
       <r>    3.1280    1.0000 </r>
       <r>    3.2737    1.0000 </r>
       <r>    6.9559   -0.0104 </r>
       <r>   11.6488    0.0000 </r>
       <r>   15.2768    0.0000 </r>
       <r>   19.0823    0.0000 </r>
       <r>   30.2941    0.0000 </r>
       <r>   34.1669    0.0000 </r>
       <r>   35.5406    0.0000 </r>
      </set>
      <set comment="kpoint 8">
       <r>   -1.8739    1.0000 </r>
       <r>    1.8823    1.0000 </r>
       <r>    2.0431    1.0000 </r>
       <r>    2.6269    1.0000 </r>
       <r>    2.7841    1.0000 </r>
       <r>    3.1839    1.0043 </r>
       <r>   21.1592    0.0000 </r>
       <r>   24.5161    0.0000 </r>
       <r>   24.9005    0.0000 </r>
       <r>   28.5010    0.0000 </r>
       <r>   28.5983    0.0000 </r>
       <r>   30.1140    0.0000 </r>
      </set>
      <set comment="kpoint 9">
       <r>    0.9993    1.0000 </r>
       <r>    1.5939    1.0000 </r>
       <r>    1.5939    1.0000 </r>
       <r>    3.2333    1.0000 </r>
       <r>    3.2333    1.0000 </r>
       <r>   10.2000    0.0000 </r>
       <r>   10.2000    0.0000 </r>
       <r>   12.0350    0.0000 </r>
       <r>   18.6554    0.0000 </r>
       <r>   32.5675    0.0000 </r>
       <r>   32.5675    0.0000 </r>
       <r>   38.2056    0.0000 </r>
      </set>
      <set comment="kpoint 10">
       <r>   -0.3480    1.0000 </r>
       <r>    1.5815    1.0000 </r>
       <r>    2.1372    1.0000 </r>
       <r>    2.9294    1.0000 </r>
       <r>    3.3332    1.0000 </r>
       <r>    3.4068    0.9544 </r>
       <r>   15.5915    0.0000 </r>
       <r>   22.3416    0.0000 </r>
       <r>   22.6653    0.0000 </r>
       <r>   27.0446    0.0000 </r>
       <r>   28.5720    0.0000 </r>
       <r>   31.4626    0.0000 </r>
      </set>
      <set comment="kpoint 11">
       <r>   -0.5526    1.0000 </r>
       <r>    1.7487    1.0000 </r>
       <r>    1.8830    1.0000 </r>
       <r>    2.6822    1.0000 </r>
       <r>    3.1966    1.0000 </r>
       <r>    3.4882    0.9526 </r>
       <r>   18.5520    0.0000 </r>
       <r>   19.1581    0.0000 </r>
       <r>   25.3539    0.0000 </r>
       <r>   25.6308    0.0000 </r>
       <r>   28.9096    0.0000 </r>
       <r>   33.2196    0.0000 </r>
      </set>
      <set comment="kpoint 12">
       <r>    0.1431    1.0000 </r>
       <r>    1.3759    1.0000 </r>
       <r>    2.7436    1.0000 </r>
       <r>    3.0512    1.0000 </r>
       <r>    4.0287    1.0000 </r>
       <r>    4.7148    0.0343 </r>
       <r>   11.0624    0.0000 </r>
       <r>   21.1281    0.0000 </r>
       <r>   21.1810    0.0000 </r>
       <r>   26.3873    0.0000 </r>
       <r>   28.6807    0.0000 </r>
       <r>   33.3140    0.0000 </r>
      </set>
      <set comment="kpoint 13">
       <r>    0.4554    1.0000 </r>
       <r>    1.5083    1.0000 </r>
       <r>    1.9747    1.0000 </r>
       <r>    2.9059    1.0000 </r>
       <r>    3.5015    1.0000 </r>
       <r>    4.9935    0.0169 </r>
       <r>   13.5598    0.0000 </r>
       <r>   17.2187    0.0000 </r>
       <r>   23.3653    0.0000 </r>
       <r>   26.3353    0.0000 </r>
       <r>   29.6169    0.0000 </r>
       <r>   33.5718    0.0000 </r>
      </set>
      <set comment="kpoint 14">
       <r>    0.5197    1.0000 </r>
       <r>    1.4871    1.0000 </r>
       <r>    2.1327    1.0000 </r>
       <r>    2.9823    1.0000 </r>
       <r>    3.7790    1.0000 </r>
       <r>    6.9557   -0.0049 </r>
       <r>   10.3014    0.0000 </r>
       <r>   16.5962    0.0000 </r>
       <r>   22.6437    0.0000 </r>
       <r>   26.5433    0.0000 </r>
       <r>   30.8514    0.0000 </r>
       <r>   32.8607    0.0000 </r>
      </set>
      <set comment="kpoint 15">
       <r>    1.0580    1.0000 </r>
       <r>    1.2982    1.0000 </r>
       <r>    1.7112    1.0000 </r>
       <r>    3.1332    1.0000 </r>
       <r>    3.4817    1.0000 </r>
       <r>    7.9218   -0.0022 </r>
       <r>   11.9489    0.0000 </r>
       <r>   12.8609    0.0000 </r>
       <r>   23.5613    0.0000 </r>
       <r>   26.9551    0.0000 </r>
       <r>   28.8757    0.0000 </r>
       <r>   34.3650    0.0000 </r>
      </set>
      <set comment="kpoint 16">
       <r>    1.2797    1.0000 </r>
       <r>    1.2797    1.0000 </r>
       <r>    1.4070    1.0000 </r>
       <r>    3.1861    1.0000 </r>
       <r>    3.1861    1.0000 </r>
       <r>    6.8698   -0.0123 </r>
       <r>   14.6342    0.0000 </r>
       <r>   14.6342    0.0000 </r>
       <r>   15.2666    0.0000 </r>
       <r>   34.6166    0.0000 </r>
       <r>   36.6257    0.0000 </r>
       <r>   36.6257    0.0000 </r>
      </set>
      <set comment="kpoint 17">
       <r>    1.1897    1.0000 </r>
       <r>    1.2474    1.0000 </r>
       <r>    1.7813    1.0000 </r>
       <r>    3.2106    1.0000 </r>
       <r>    3.2222    1.0000 </r>
       <r>    9.5682    0.0000 </r>
       <r>   11.0121    0.0000 </r>
       <r>   14.1186    0.0000 </r>
       <r>   14.5382    0.0000 </r>
       <r>   35.3856    0.0000 </r>
       <r>   38.3325    0.0000 </r>
       <r>   38.3752    0.0000 </r>
      </set>
      <set comment="kpoint 18">
       <r>   -0.9283    1.0000 </r>
       <r>    2.2090    1.0000 </r>
       <r>    2.2111    1.0000 </r>
       <r>    2.2111    1.0000 </r>
       <r>    2.6395    1.0000 </r>
       <r>    3.4598    0.9981 </r>
       <r>   21.6391    0.0000 </r>
       <r>   21.8516    0.0000 </r>
       <r>   21.8516    0.0000 </r>
       <r>   23.6522    0.0000 </r>
       <r>   32.5016    0.0000 </r>
       <r>   32.5016    0.0000 </r>
      </set>
      <set comment="kpoint 19">
       <r>    0.2974    1.0000 </r>
       <r>    1.6267    1.0000 </r>
       <r>    2.1080    1.0000 </r>
       <r>    2.6253    1.0000 </r>
       <r>    3.3197    1.0000 </r>
       <r>    4.1981    0.4130 </r>
       <r>   16.3953    0.0000 </r>
       <r>   19.4407    0.0000 </r>
       <r>   20.9408    0.0000 </r>
       <r>   24.3159    0.0000 </r>
       <r>   31.5507    0.0000 </r>
       <r>   33.0734    0.0000 </r>
      </set>
      <set comment="kpoint 20">
       <r>    0.6112    1.0000 </r>
       <r>    1.5815    1.0000 </r>
       <r>    1.9573    1.0000 </r>
       <r>    2.7885    1.0000 </r>
       <r>    3.9672    1.0000 </r>
       <r>    6.5061   -0.0211 </r>
       <r>   11.6176    0.0000 </r>
       <r>   18.0011    0.0000 </r>
       <r>   20.1544    0.0000 </r>
       <r>   26.8375    0.0000 </r>
       <r>   30.6965    0.0000 </r>
       <r>   31.0525    0.0000 </r>
      </set>
      <set comment="kpoint 21">
       <r>    0.8634    1.0000 </r>
       <r>    1.1448    1.0000 </r>
       <r>    2.1778    1.0000 </r>
       <r>    2.9271    1.0000 </r>
       <r>    3.6461    1.0000 </r>
       <r>    6.3159   -0.0320 </r>
       <r>   14.5034    0.0000 </r>
       <r>   14.8841    0.0000 </r>
       <r>   22.2758    0.0000 </r>
       <r>   23.3481    0.0000 </r>
       <r>   30.2845    0.0000 </r>
       <r>   32.5722    0.0000 </r>
      </set>
      <set comment="kpoint 22">
       <r>    0.8527    1.0000 </r>
       <r>    1.1529    1.0000 </r>
       <r>    2.0241    1.0000 </r>
       <r>    3.1643    1.0000 </r>
       <r>    3.8252    1.0000 </r>
       <r>    9.1332   -0.0000 </r>
       <r>   10.8636    0.0000 </r>
       <r>   14.0629    0.0000 </r>
       <r>   22.2075    0.0000 </r>
       <r>   25.2581    0.0000 </r>
       <r>   27.5582    0.0000 </r>
       <r>   31.7303    0.0000 </r>
      </set>
      <set comment="kpoint 23">
       <r>    0.6939    1.0000 </r>
       <r>    1.1161    1.0000 </r>
       <r>    2.8163    1.0000 </r>
       <r>    2.8163    1.0000 </r>
       <r>    3.3469    1.0000 </r>
       <r>    5.7486   -0.0527 </r>
       <r>   16.8219    0.0000 </r>
       <r>   16.8219    0.0000 </r>
       <r>   19.2864    0.0000 </r>
       <r>   20.6934    0.0000 </r>
       <r>   31.1234    0.0000 </r>
       <r>   36.1709    0.0000 </r>
      </set>
      <set comment="kpoint 24">
       <r>    0.6504    1.0000 </r>
       <r>    0.7576    1.0000 </r>
       <r>    2.9214    1.0000 </r>
       <r>    3.1400    1.0000 </r>
       <r>    3.8822    1.0000 </r>
       <r>    8.6056   -0.0007 </r>
       <r>   12.8463    0.0000 </r>
       <r>   15.2431    0.0000 </r>
       <r>   19.2727    0.0000 </r>
       <r>   21.8669    0.0000 </r>
       <r>   26.6202    0.0000 </r>
       <r>   35.6815    0.0000 </r>
      </set>
      <set comment="kpoint 25">
       <r>    0.5471    1.0000 </r>
       <r>    0.5471    1.0000 </r>
       <r>    3.0049    1.0000 </r>
       <r>    3.7678    1.0000 </r>
       <r>    3.7678    1.0000 </r>
       <r>   11.7443    0.0000 </r>
       <r>   11.7443    0.0000 </r>
       <r>   12.5811    0.0000 </r>
       <r>   20.7351    0.0000 </r>
       <r>   20.7351    0.0000 </r>
       <r>   23.9475    0.0000 </r>
       <r>   36.1424    0.0000 </r>
      </set>
      <set comment="kpoint 26">
       <r>    0.3429    1.0000 </r>
       <r>    0.3462    1.0000 </r>
       <r>    3.7371    1.0000 </r>
       <r>    3.7371    1.0000 </r>
       <r>    3.8550    1.0000 </r>
       <r>   11.1976    0.0000 </r>
       <r>   13.5196    0.0000 </r>
       <r>   13.5196    0.0000 </r>
       <r>   18.3454    0.0000 </r>
       <r>   19.3239    0.0000 </r>
       <r>   22.5719    0.0000 </r>
       <r>   39.4270    0.0000 </r>
      </set>
     </set>
     <set comment="spin 2">
      <set comment="kpoint 1">
       <r>   -2.3075    1.0000 </r>
       <r>    4.2145    0.8561 </r>
       <r>    4.2145    0.7186 </r>
       <r>    4.9379    0.0000 </r>
       <r>    5.9461    0.0000 </r>
       <r>    5.9461    0.0000 </r>
       <r>   23.8577    0.0000 </r>
       <r>   23.8577    0.0000 </r>
       <r>   27.0560    0.0000 </r>
       <r>   27.9471    0.0000 </r>
       <r>   32.2813    0.0000 </r>
       <r>   32.2813    0.0000 </r>
      </set>
      <set comment="kpoint 2">
       <r>   -0.7801    1.0000 </r>
       <r>    3.8093    1.0095 </r>
       <r>    3.9238    1.0545 </r>
       <r>    5.7829    0.0000 </r>
       <r>    5.8288    0.0000 </r>
       <r>    6.0696    0.0000 </r>
       <r>   18.9581    0.0000 </r>
       <r>   21.7298    0.0000 </r>
       <r>   23.5617    0.0000 </r>
       <r>   28.2437    0.0000 </r>
       <r>   31.7649    0.0000 </r>
       <r>   32.9190    0.0000 </r>
      </set>
      <set comment="kpoint 3">
       <r>    1.0622    1.0000 </r>
       <r>    3.4581    1.0000 </r>
       <r>    3.8658    1.0301 </r>
       <r>    5.9010    0.0000 </r>
       <r>    6.1789    0.0000 </r>
       <r>    6.8167    0.0000 </r>
       <r>   14.1595    0.0000 </r>
       <r>   20.1809    0.0000 </r>
       <r>   21.4549    0.0000 </r>
       <r>   27.7761    0.0000 </r>
       <r>   31.0932    0.0000 </r>
       <r>   35.9166    0.0000 </r>
      </set>
      <set comment="kpoint 4">
       <r>    1.7297    1.0000 </r>
       <r>    3.3234    1.0000 </r>
       <r>    4.3897    0.6575 </r>
       <r>    5.9551    0.0000 </r>
       <r>    6.2261    0.0000 </r>
       <r>    7.5131    0.0000 </r>
       <r>   11.6487    0.0000 </r>
       <r>   19.6105    0.0000 </r>
       <r>   20.6565    0.0000 </r>
       <r>   27.5708    0.0000 </r>
       <r>   30.9730    0.0000 </r>
       <r>   36.0212    0.0000 </r>
      </set>
      <set comment="kpoint 5">
       <r>   -2.8599    1.0000 </r>
       <r>    4.4091    0.0442 </r>
       <r>    4.4091   -0.0670 </r>
       <r>    4.4997    0.0000 </r>
       <r>    5.8785    0.0000 </r>
       <r>    6.0788    0.0000 </r>
       <r>   25.6215    0.0000 </r>
       <r>   26.8060    0.0000 </r>
       <r>   26.8060    0.0000 </r>
       <r>   29.4444    0.0000 </r>
       <r>   31.3515    0.0000 </r>
       <r>   31.3515    0.0000 </r>
      </set>
      <set comment="kpoint 6">
       <r>    0.9175    1.0000 </r>
       <r>    3.4488    1.0000 </r>
       <r>    3.5396    1.0022 </r>
       <r>    5.8907    0.0000 </r>
       <r>    6.1734    0.0000 </r>
       <r>    6.9614    0.0000 </r>
       <r>   16.8089    0.0000 </r>
       <r>   17.2809    0.0000 </r>
       <r>   20.7262    0.0000 </r>
       <r>   29.9702    0.0000 </r>
       <r>   33.2399    0.0000 </r>
       <r>   35.3685    0.0000 </r>
      </set>
      <set comment="kpoint 7">
       <r>    2.2134    1.0000 </r>
       <r>    3.2502    1.0000 </r>
       <r>    3.5869    1.0121 </r>
       <r>    6.0015    0.0000 </r>
       <r>    6.2300    0.0000 </r>
       <r>    8.5434    0.0000 </r>
       <r>   12.7241    0.0000 </r>
       <r>   15.9367    0.0000 </r>
       <r>   19.5981    0.0000 </r>
       <r>   30.2906    0.0000 </r>
       <r>   34.2172    0.0000 </r>
       <r>   35.8941    0.0000 </r>
      </set>
      <set comment="kpoint 8">
       <r>   -1.7753    1.0000 </r>
       <r>    4.1475    0.9675 </r>
       <r>    4.2973    0.4978 </r>
       <r>    5.0435    0.0000 </r>
       <r>    5.5952    0.0000 </r>
       <r>    6.1615    0.0000 </r>
       <r>   21.5510    0.0000 </r>
       <r>   24.5556    0.0000 </r>
       <r>   25.3333    0.0000 </r>
       <r>   28.9133    0.0000 </r>
       <r>   29.0596    0.0000 </r>
       <r>   30.3821    0.0000 </r>
      </set>
      <set comment="kpoint 9">
       <r>    2.8317    1.0000 </r>
       <r>    3.2536    1.0000 </r>
       <r>    3.2536    1.0006 </r>
       <r>    6.1428    0.0000 </r>
       <r>    6.1428    0.0000 </r>
       <r>   11.2720    0.0000 </r>
       <r>   11.2720    0.0000 </r>
       <r>   13.0163    0.0000 </r>
       <r>   19.1965    0.0000 </r>
       <r>   32.5030    0.0000 </r>
       <r>   32.5030    0.0000 </r>
       <r>   38.9787    0.0000 </r>
      </set>
      <set comment="kpoint 10">
       <r>    0.0646    1.0000 </r>
       <r>    3.7609    1.0067 </r>
       <r>    3.9983    1.0348 </r>
       <r>    5.6444    0.0000 </r>
       <r>    5.9529    0.0000 </r>
       <r>    6.2482    0.0000 </r>
       <r>   16.3827    0.0000 </r>
       <r>   22.3749    0.0000 </r>
       <r>   23.3011    0.0000 </r>
       <r>   27.4652    0.0000 </r>
       <r>   29.0332    0.0000 </r>
       <r>   31.6760    0.0000 </r>
      </set>
      <set comment="kpoint 11">
       <r>   -0.3160    1.0000 </r>
       <r>    3.9499    1.0087 </r>
       <r>    4.0433    1.0332 </r>
       <r>    5.3724    0.0000 </r>
       <r>    5.7333    0.0000 </r>
       <r>    6.3315    0.0000 </r>
       <r>   19.1070    0.0000 </r>
       <r>   19.7501    0.0000 </r>
       <r>   25.7838    0.0000 </r>
       <r>   25.8135    0.0000 </r>
       <r>   29.2778    0.0000 </r>
       <r>   33.4589    0.0000 </r>
      </set>
      <set comment="kpoint 12">
       <r>    1.4766    1.0000 </r>
       <r>    3.5001    1.0000 </r>
       <r>    4.2963    0.7395 </r>
       <r>    5.8091    0.0000 </r>
       <r>    6.5171    0.0000 </r>
       <r>    6.7009    0.0000 </r>
       <r>   12.3618    0.0000 </r>
       <r>   21.1261    0.0000 </r>
       <r>   21.7731    0.0000 </r>
       <r>   26.8625    0.0000 </r>
       <r>   29.2153    0.0000 </r>
       <r>   33.3499    0.0000 </r>
      </set>
      <set comment="kpoint 13">
       <r>    1.4358    1.0000 </r>
       <r>    3.5464    1.0008 </r>
       <r>    3.8553    1.0485 </r>
       <r>    5.5737    0.0000 </r>
       <r>    6.2614    0.0000 </r>
       <r>    7.1108    0.0000 </r>
       <r>   14.4800    0.0000 </r>
       <r>   17.8199    0.0000 </r>
       <r>   23.6694    0.0000 </r>
       <r>   26.6497    0.0000 </r>
       <r>   29.9019    0.0000 </r>
       <r>   33.9309    0.0000 </r>
      </set>
      <set comment="kpoint 14">
       <r>    2.1029    1.0000 </r>
       <r>    3.5810    1.0000 </r>
       <r>    3.7929    1.0571 </r>
       <r>    5.6944    0.0000 </r>
       <r>    6.4489    0.0000 </r>
[...]
       </set>
       <set comment="band 5">
        <r>  0.0057  0.0009  0.0009  0.0075  0.0875  0.3160  0.1167  0.0875  0.3502 </r>
       </set>
       <set comment="band 6">
        <r>  0.0573  0.0326  0.0326  0.1635  0.0984  0.1433  0.0509  0.0984  0.1527 </r>
       </set>
       <set comment="band 7">
        <r>  0.0000  0.1697  0.1697  0.0000  0.1233  0.0000  0.1261  0.1233  0.0420 </r>
       </set>
       <set comment="band 8">
        <r>  0.4304  0.0388  0.0388  0.0267  0.0640  0.0793  0.0016  0.0640  0.0048 </r>
       </set>
       <set comment="band 9">
        <r>  0.0201  0.1709  0.1709  0.0911  0.0414  0.0685  0.0002  0.0414  0.0007 </r>
       </set>
       <set comment="band 10">
        <r>  0.0000  0.0427  0.0427  0.0000  0.0356  0.0000  0.2448  0.0356  0.0816 </r>
       </set>
       <set comment="band 11">
        <r>  0.0303  0.0130  0.0130  0.0216  0.0200  0.1076  0.0731  0.0200  0.2194 </r>
       </set>
       <set comment="band 12">
        <r>  0.1263  0.0379  0.0379  0.1786  0.1686  0.1577  0.0154  0.1686  0.0462 </r>
       </set>
      </set>
      <set comment="kpoint 16">
       <set comment="band 1">
        <r>  0.1402  0.0705  0.0705  0.0705  0.1169  0.1169  0.0000  0.1169  0.0000 </r>
       </set>
       <set comment="band 2">
        <r>  0.0000  0.0234  0.0019  0.0343  0.0243  0.4417  0.0020  0.3011  0.0399 </r>
       </set>
       <set comment="band 3">
        <r>  0.0000  0.0164  0.0379  0.0054  0.4871  0.0697  0.0399  0.2102  0.0020 </r>
       </set>
       <set comment="band 4">
        <r>  0.0000  0.0000  0.0000  0.0000  0.0325  0.0141  0.7996  0.0097  0.1227 </r>
       </set>
       <set comment="band 5">
        <r>  0.0000  0.0000  0.0000  0.0000  0.0050  0.0234  0.1227  0.0278  0.7996 </r>
       </set>
       <set comment="band 6">
        <r>  0.0640  0.0426  0.0426  0.0426  0.2287  0.2287  0.0000  0.2287  0.0000 </r>
       </set>
       <set comment="band 7">
        <r>  0.0000  0.0338  0.0994  0.1636  0.1169  0.1925  0.0163  0.0398  0.0162 </r>
       </set>
       <set comment="band 8">
        <r>  0.0000  0.1641  0.0985  0.0343  0.1159  0.0403  0.0162  0.1930  0.0163 </r>
       </set>
       <set comment="band 9">
        <r>  0.5285  0.0704  0.0704  0.0704  0.0006  0.0006  0.0000  0.0006  0.0000 </r>
       </set>
       <set comment="band 10">
        <r>  0.0000  0.0000  0.0000  0.0000  0.0000  0.0000  0.0000  0.0000  0.0000 </r>
       </set>
       <set comment="band 11">
        <r>  0.0000  0.0022  0.0009  0.0041  0.0517  0.2427  0.0127  0.1298  0.0569 </r>
       </set>
       <set comment="band 12">
        <r>  0.0000  0.0026  0.0039  0.0007  0.2311  0.0401  0.0569  0.1530  0.0127 </r>
       </set>
      </set>
      <set comment="kpoint 17">
       <set comment="band 1">
        <r>  0.0313  0.0000  0.0000  0.1004  0.0000  0.6433  0.0112  0.0000  0.0337 </r>
       </set>
       <set comment="band 2">
        <r>  0.0000  0.0337  0.0337  0.0000  0.3988  0.0000  0.0000  0.3988  0.0000 </r>
       </set>
       <set comment="band 3">
        <r>  0.0000  0.0951  0.0951  0.0000  0.2995  0.0000  0.0000  0.2995  0.0000 </r>
       </set>
       <set comment="band 4">
        <r>  0.0003  0.0000  0.0000  0.0002  0.0000  0.0648  0.2287  0.0000  0.6862 </r>
       </set>
       <set comment="band 5">
        <r>  0.0000  0.0000  0.0000  0.0000  0.0000  0.0000  0.7366  0.0000  0.2455 </r>
       </set>
       <set comment="band 6">
        <r>  0.0000  0.1453  0.1453  0.0000  0.2376  0.0000  0.0000  0.2376  0.0000 </r>
       </set>
       <set comment="band 7">
        <r>  0.2679  0.0000  0.0000  0.1292  0.0000  0.3579  0.0058  0.0000  0.0174 </r>
       </set>
       <set comment="band 8">
        <r>  0.0000  0.1502  0.1502  0.0000  0.1894  0.0000  0.0000  0.1894  0.0000 </r>
       </set>
       <set comment="band 9">
        <r>  0.4487  0.0000  0.0000  0.2074  0.0000  0.0610  0.0021  0.0000  0.0062 </r>
       </set>
       <set comment="band 10">
        <r>  0.0000  0.0000  0.0000  0.0000  0.1012  0.0000  0.0000  0.1012  0.0000 </r>
       </set>
       <set comment="band 11">
        <r>  0.0000  0.0250  0.0250  0.0000  0.0461  0.0000  0.0000  0.0461  0.0000 </r>
       </set>
       <set comment="band 12">
        <r>  0.0122  0.0000  0.0000  0.0992  0.0000  0.0720  0.0959  0.0000  0.2875 </r>
       </set>
      </set>
      <set comment="kpoint 18">
       <set comment="band 1">
        <r>  0.4373  0.0000  0.0000  0.1312  0.0000  0.0000  0.0080  0.0000  0.0240 </r>
       </set>
       <set comment="band 2">
        <r>  0.0000  0.0090  0.0090  0.0000  0.4608  0.0000  0.0000  0.4608  0.0000 </r>
       </set>
       <set comment="band 3">
        <r>  0.0000  0.0090  0.0090  0.0000  0.4608  0.0000  0.0000  0.4608  0.0000 </r>
       </set>
       <set comment="band 4">
        <r>  0.0000  0.0000  0.0000  0.0000  0.0000  0.0000  0.6740  0.0000  0.2247 </r>
       </set>
       <set comment="band 5">
        <r>  0.0000  0.0000  0.0000  0.0000  0.0000  0.9638  0.0000  0.0000  0.0000 </r>
       </set>
       <set comment="band 6">
        <r>  0.0196  0.0000  0.0000  0.0043  0.0000  0.0000  0.2376  0.0000  0.7129 </r>
       </set>
       <set comment="band 7">
        <r>  0.0000  0.0000  0.0000  0.0000  0.0000  0.0000  0.3481  0.0000  0.1160 </r>
       </set>
       <set comment="band 8">
        <r>  0.0000  0.1787  0.1787  0.0000  0.2052  0.0000  0.0000  0.2052  0.0000 </r>
       </set>
       <set comment="band 9">
        <r>  0.0000  0.1787  0.1787  0.0000  0.2052  0.0000  0.0000  0.2052  0.0000 </r>
       </set>
       <set comment="band 10">
        <r>  0.1766  0.0000  0.0000  0.2888  0.0000  0.0000  0.0000  0.0000  0.0000 </r>
       </set>
       <set comment="band 11">
        <r>  0.0000  0.1517  0.1517  0.0000  0.0117  0.0000  0.0000  0.0117  0.0000 </r>
       </set>
       <set comment="band 12">
        <r>  0.0000  0.1517  0.1517  0.0000  0.0117  0.0000  0.0000  0.0117  0.0000 </r>
       </set>
      </set>
      <set comment="kpoint 19">
       <set comment="band 1">
        <r>  0.2871  0.0073  0.0000  0.1763  0.0349  0.0000  0.0464  0.0000  0.0791 </r>
       </set>
       <set comment="band 2">
        <r>  0.0007  0.0236  0.0000  0.0075  0.2290  0.0000  0.3979  0.0000  0.1990 </r>
       </set>
       <set comment="band 3">
        <r>  0.0000  0.0000  0.0185  0.0000  0.0000  0.2647  0.0000  0.6495  0.0000 </r>
       </set>
       <set comment="band 4">
        <r>  0.0000  0.0164  0.0000  0.0052  0.6177  0.0000  0.2734  0.0000  0.0191 </r>
       </set>
       <set comment="band 5">
        <r>  0.0000  0.0000  0.0066  0.0000  0.0000  0.7015  0.0000  0.2626  0.0000 </r>
       </set>
       <set comment="band 6">
        <r>  0.0648  0.0048  0.0000  0.0314  0.0087  0.0000  0.1771  0.0000  0.6594 </r>
       </set>
       <set comment="band 7">
        <r>  0.0956  0.2484  0.0000  0.0352  0.2224  0.0000  0.0823  0.0000  0.0389 </r>
       </set>
       <set comment="band 8">
        <r>  0.0000  0.0000  0.4577  0.0000  0.0000  0.0075  0.0000  0.3019  0.0000 </r>
       </set>
       <set comment="band 9">
        <r>  0.0981  0.0000  0.0000  0.0770  0.0116  0.0000  0.2849  0.0000  0.0355 </r>
       </set>
       <set comment="band 10">
        <r>  0.0666  0.1941  0.0000  0.0716  0.0865  0.0000  0.0398  0.0000  0.0996 </r>
       </set>
       <set comment="band 11">
        <r>  0.0000  0.0000  0.1626  0.0000  0.0000  0.4427  0.0000  0.1246  0.0000 </r>
       </set>
       <set comment="band 12">
        <r>  0.0677  0.1604  0.0000  0.0113  0.0952  0.0000  0.1275  0.0000  0.0709 </r>
       </set>
      </set>
      <set comment="kpoint 20">
       <set comment="band 1">
        <r>  0.1143  0.0001  0.0000  0.0846  0.2314  0.0000  0.2759  0.0000  0.0470 </r>
       </set>
       <set comment="band 2">
        <r>  0.0016  0.0806  0.0000  0.0678  0.0498  0.0000  0.1182  0.0000  0.4516 </r>
       </set>
       <set comment="band 3">
        <r>  0.0000  0.0000  0.0183  0.0000  0.0000  0.4033  0.0000  0.5054  0.0000 </r>
       </set>
       <set comment="band 4">
        <r>  0.0168  0.0081  0.0000  0.0005  0.4790  0.0000  0.4284  0.0000  0.0032 </r>
       </set>
       <set comment="band 5">
        <r>  0.0000  0.0000  0.0019  0.0000  0.0000  0.5580  0.0000  0.4274  0.0000 </r>
       </set>
       <set comment="band 6">
        <r>  0.0601  0.0758  0.0000  0.1561  0.0455  0.0000  0.0359  0.0000  0.4631 </r>
       </set>
       <set comment="band 7">
        <r>  0.2514  0.1611  0.0000  0.0033  0.2677  0.0000  0.0848  0.0000  0.0272 </r>
       </set>
       <set comment="band 8">
        <r>  0.0000  0.0000  0.5254  0.0000  0.0000  0.0496  0.0000  0.1599  0.0000 </r>
       </set>
       <set comment="band 9">
        <r>  0.1127  0.0250  0.0000  0.0549  0.0028  0.0000  0.3063  0.0000  0.0038 </r>
       </set>
       <set comment="band 10">
        <r>  0.0140  0.1623  0.0000  0.0030  0.0211  0.0000  0.0358  0.0000  0.2805 </r>
       </set>
       <set comment="band 11">
        <r>  0.0000  0.0000  0.1389  0.0000  0.0000  0.3882  0.0000  0.2627  0.0000 </r>
       </set>
       <set comment="band 12">
        <r>  0.0007  0.1293  0.0000  0.2256  0.0031  0.0000  0.2596  0.0000  0.0967 </r>
       </set>
      </set>
      <set comment="kpoint 21">
       <set comment="band 1">
        <r>  0.1185  0.0046  0.0046  0.1556  0.0402  0.0000  0.0850  0.0402  0.2549 </r>
       </set>
       <set comment="band 2">
        <r>  0.0000  0.0166  0.0166  0.0000  0.0663  0.0000  0.4985  0.0663  0.1662 </r>
       </set>
       <set comment="band 3">
        <r>  0.0060  0.0126  0.0126  0.0069  0.2488  0.3141  0.0161  0.2488  0.0484 </r>
       </set>
       <set comment="band 4">
        <r>  0.0000  0.0118  0.0118  0.0000  0.3741  0.0000  0.1293  0.3741  0.0431 </r>
       </set>
       <set comment="band 5">
        <r>  0.0110  0.0002  0.0002  0.0044  0.1102  0.6030  0.0335  0.1102  0.1004 </r>
       </set>
       <set comment="band 6">
        <r>  0.1098  0.0133  0.0133  0.1354  0.0525  0.0476  0.1096  0.0525  0.3288 </r>
       </set>
       <set comment="band 7">
        <r>  0.0000  0.1869  0.1869  0.0000  0.0936  0.0000  0.1363  0.0936  0.0454 </r>
       </set>
       <set comment="band 8">
        <r>  0.2305  0.1279  0.1279  0.0310  0.0844  0.0228  0.0035  0.0844  0.0104 </r>
       </set>
       <set comment="band 9">
        <r>  0.0000  0.0554  0.0554  0.0000  0.0312  0.0000  0.3172  0.0312  0.1057 </r>
       </set>
       <set comment="band 10">
        <r>  0.1033  0.1170  0.1170  0.0444  0.0094  0.0014  0.0357  0.0094  0.1072 </r>
       </set>
       <set comment="band 11">
        <r>  0.0002  0.0606  0.0606  0.1432  0.0359  0.1523  0.0519  0.0359  0.1557 </r>
       </set>
       <set comment="band 12">
        <r>  0.1630  0.0004  0.0004  0.1464  0.0985  0.1730  0.0253  0.0985  0.0758 </r>
       </set>
      </set>
      <set comment="kpoint 22">
       <set comment="band 1">
        <r>  0.0276  0.0199  0.0172  0.0199  0.1620  0.0000  0.5522  0.0000  0.0000 </r>
       </set>
       <set comment="band 2">
        <r>  0.0000  0.0619  0.0000  0.0619  0.0000  0.0182  0.0000  0.0182  0.6117 </r>
       </set>
       <set comment="band 3">
        <r>  0.0288  0.0007  0.0177  0.0007  0.1470  0.3314  0.0488  0.3314  0.0000 </r>
       </set>
       <set comment="band 4">
        <r>  0.0087  0.0050  0.0092  0.0050  0.4934  0.1109  0.2065  0.1109  0.0000 </r>
       </set>
       <set comment="band 5">
        <r>  0.0000  0.0075  0.0000  0.0075  0.0000  0.4338  0.0000  0.4338  0.0938 </r>
       </set>
       <set comment="band 6">
        <r>  0.0000  0.1925  0.0000  0.1925  0.0000  0.0476  0.0000  0.0476  0.2892 </r>
       </set>
       <set comment="band 7">
        <r>  0.2600  0.0726  0.0276  0.0726  0.2417  0.0006  0.1175  0.0006  0.0000 </r>
       </set>
       <set comment="band 8">
        <r>  0.1496  0.0038  0.3324  0.0038  0.0006  0.0788  0.0748  0.0788  0.0000 </r>
       </set>
       <set comment="band 9">
        <r>  0.0369  0.0042  0.1423  0.0042  0.0085  0.0099  0.3588  0.0099  0.0000 </r>
       </set>
       <set comment="band 10">
        <r>  0.0000  0.0452  0.0000  0.0452  0.0000  0.0038  0.0000  0.0038  0.4307 </r>
       </set>
       <set comment="band 11">
        <r>  0.0603  0.2194  0.0732  0.2194  0.0012  0.0182  0.0936  0.0182  0.0000 </r>
       </set>
       <set comment="band 12">
        <r>  0.1950  0.0094  0.0123  0.0094  0.1554  0.2193  0.0027  0.2193  0.0000 </r>
       </set>
      </set>
      <set comment="kpoint 23">
       <set comment="band 1">
        <r>  0.1294  0.0000  0.0000  0.1766  0.0000  0.0000  0.0946  0.0000  0.2838 </r>
       </set>
       <set comment="band 2">
        <r>  0.0000  0.0000  0.0000  0.0000  0.0000  0.0000  0.6291  0.0000  0.2097 </r>
       </set>
       <set comment="band 3">
        <r>  0.0000  0.0190  0.0190  0.0000  0.4483  0.0000  0.0000  0.4483  0.0000 </r>
       </set>
       <set comment="band 4">
        <r>  0.0000  0.0190  0.0190  0.0000  0.4483  0.0000  0.0000  0.4483  0.0000 </r>
       </set>
       <set comment="band 5">
        <r>  0.0000  0.0000  0.0000  0.0000  0.0000  0.9733  0.0000  0.0000  0.0000 </r>
       </set>
       <set comment="band 6">
        <r>  0.1527  0.0000  0.0000  0.1221  0.0000  0.0000  0.1481  0.0000  0.4442 </r>
       </set>
       <set comment="band 7">
        <r>  0.0000  0.2540  0.2540  0.0000  0.1153  0.0000  0.0000  0.1153  0.0000 </r>
       </set>
       <set comment="band 8">
        <r>  0.0000  0.2540  0.2540  0.0000  0.1153  0.0000  0.0000  0.1153  0.0000 </r>
       </set>
       <set comment="band 9">
        <r>  0.0000  0.0000  0.0000  0.0000  0.0000  0.0000  0.4787  0.0000  0.1596 </r>
       </set>
       <set comment="band 10">
        <r>  0.3128  0.0000  0.0000  0.0861  0.0000  0.0000  0.0393  0.0000  0.1178 </r>
       </set>
       <set comment="band 11">
        <r>  0.1148  0.0000  0.0000  0.2921  0.0000  0.0000  0.0842  0.0000  0.2526 </r>
       </set>
       <set comment="band 12">
        <r>  0.0000  0.0000  0.0000  0.0000  0.0000  0.7992  0.0000  0.0000  0.0000 </r>
       </set>
      </set>
      <set comment="kpoint 24">
       <set comment="band 1">
        <r>  0.0228  0.0020  0.0000  0.0850  0.0182  0.0000  0.2740  0.0000  0.3658 </r>
       </set>
       <set comment="band 2">
        <r>  0.0002  0.0198  0.0000  0.0028  0.0180  0.0000  0.4536  0.0000  0.3179 </r>
       </set>
       <set comment="band 3">
        <r>  0.0000  0.0000  0.0310  0.0000  0.0000  0.3241  0.0000  0.5856  0.0000 </r>
       </set>
       <set comment="band 4">
        <r>  0.0175  0.0261  0.0000  0.0048  0.8192  0.0000  0.0656  0.0000  0.0022 </r>
       </set>
       <set comment="band 5">
        <r>  0.0000  0.0000  0.0018  0.0000  0.0000  0.6446  0.0000  0.3383  0.0000 </r>
       </set>
       <set comment="band 6">
        <r>  0.1223  0.0300  0.0000  0.2889  0.0339  0.0000  0.0504  0.0000  0.2389 </r>
       </set>
       <set comment="band 7">
        <r>  0.1206  0.3705  0.0000  0.0003  0.1482  0.0000  0.0461  0.0000  0.0476 </r>
       </set>
       <set comment="band 8">
        <r>  0.0000  0.0000  0.5553  0.0000  0.0000  0.0242  0.0000  0.1219  0.0000 </r>
       </set>
       <set comment="band 9">
        <r>  0.0965  0.0007  0.0000  0.0068  0.0038  0.0000  0.5344  0.0000  0.0110 </r>
       </set>
       <set comment="band 10">
        <r>  0.0979  0.1094  0.0000  0.0005  0.0085  0.0000  0.0019  0.0000  0.3927 </r>
       </set>
       <set comment="band 11">
        <r>  0.2544  0.0507  0.0000  0.2662  0.0102  0.0000  0.0733  0.0000  0.1028 </r>
       </set>
       <set comment="band 12">
        <r>  0.0000  0.0000  0.0742  0.0000  0.0000  0.3874  0.0000  0.2030  0.0000 </r>
       </set>
      </set>
      <set comment="kpoint 25">
       <set comment="band 1">
        <r>  0.0000  0.0163  0.0000  0.0163  0.0000  0.0042  0.0000  0.0042  0.7592 </r>
       </set>
       <set comment="band 2">
        <r>  0.0000  0.0054  0.0218  0.0054  0.0056  0.0014  0.7592  0.0014  0.0000 </r>
       </set>
       <set comment="band 3">
        <r>  0.0161  0.0106  0.0106  0.0106  0.2949  0.2949  0.0000  0.2949  0.0000 </r>
       </set>
       <set comment="band 4">
        <r>  0.0000  0.0026  0.0104  0.0026  0.6254  0.1564  0.0190  0.1564  0.0000 </r>
       </set>
       <set comment="band 5">
        <r>  0.0000  0.0078  0.0000  0.0078  0.0000  0.4691  0.0000  0.4691  0.0190 </r>
       </set>
       <set comment="band 6">
        <r>  0.0000  0.2469  0.0000  0.2469  0.0000  0.0263  0.0000  0.0263  0.1651 </r>
       </set>
       <set comment="band 7">
        <r>  0.0000  0.0823  0.3291  0.0823  0.0350  0.0088  0.1651  0.0088  0.0000 </r>
       </set>
       <set comment="band 8">
        <r>  0.2567  0.1050  0.1050  0.1050  0.0461  0.0461  0.0000  0.0461  0.0000 </r>
       </set>
       <set comment="band 9">
        <r>  0.0000  0.0388  0.0000  0.0388  0.0000  0.0026  0.0000  0.0026  0.5638 </r>
       </set>
       <set comment="band 10">
        <r>  0.0000  0.0129  0.0518  0.0129  0.0035  0.0009  0.5638  0.0009  0.0000 </r>
       </set>
       <set comment="band 11">
        <r>  0.4795  0.0967  0.0967  0.0967  0.0033  0.0033  0.0000  0.0033  0.0000 </r>
       </set>
       <set comment="band 12">
        <r>  0.0336  0.0208  0.0208  0.0208  0.1691  0.1691  0.0000  0.1691  0.0000 </r>
       </set>
      </set>
      <set comment="kpoint 26">
       <set comment="band 1">
        <r>  0.0014  0.0000  0.0000  0.0223  0.0000  0.0000  0.1936  0.0000  0.5807 </r>
       </set>
       <set comment="band 2">
        <r>  0.0000  0.0000  0.0000  0.0000  0.0000  0.0000  0.6073  0.0000  0.2024 </r>
       </set>
       <set comment="band 3">
        <r>  0.0000  0.0083  0.0083  0.0000  0.4771  0.0000  0.0000  0.4771  0.0000 </r>
       </set>
       <set comment="band 4">
        <r>  0.0000  0.0083  0.0083  0.0000  0.4771  0.0000  0.0000  0.4771  0.0000 </r>
       </set>
       <set comment="band 5">
        <r>  0.0000  0.0000  0.0000  0.0000  0.0000  0.9852  0.0000  0.0000  0.0000 </r>
       </set>
       <set comment="band 6">
        <r>  0.0832  0.0000  0.0000  0.4792  0.0000  0.0000  0.0294  0.0000  0.0883 </r>
       </set>
       <set comment="band 7">
        <r>  0.0000  0.3024  0.3024  0.0000  0.0245  0.0000  0.0000  0.0245  0.0000 </r>
       </set>
       <set comment="band 8">
        <r>  0.0000  0.3024  0.3024  0.0000  0.0245  0.0000  0.0000  0.0245  0.0000 </r>
       </set>
       <set comment="band 9">
        <r>  0.0000  0.0000  0.0000  0.0000  0.0000  0.0000  0.5457  0.0000  0.1819 </r>
       </set>
       <set comment="band 10">
        <r>  0.0989  0.0000  0.0000  0.0114  0.0000  0.0000  0.1454  0.0000  0.4362 </r>
       </set>
       <set comment="band 11">
        <r>  0.5988  0.0000  0.0000  0.1260  0.0000  0.0000  0.0137  0.0000  0.0411 </r>
       </set>
       <set comment="band 12">
        <r>  0.0000  0.0000  0.0000  0.0000  0.0000  0.2361  0.0000  0.0000  0.0000 </r>
       </set>
      </set>
     </set>
    </set>
   </array>
  </projected>
 </calculation>
 <structure name="finalpos" >
  <crystal>
   <varray name="basis" >
    <v>      -1.50000000       1.50000000       1.50000000 </v>
    <v>       1.50000000      -1.50000000       1.50000000 </v>
    <v>       1.50000000       1.50000000      -1.50000000 </v>
   </varray>
   <i name="volume">     13.50000000 </i>
   <varray name="rec_basis" >
    <v>       0.00000000       0.33333333       0.33333333 </v>
    <v>       0.33333333       0.00000000       0.33333333 </v>
    <v>       0.33333333       0.33333333       0.00000000 </v>
   </varray>
  </crystal>
  <varray name="positions" >
   <v>       0.00000000       0.00000000       0.00000000 </v>
  </varray>
 </structure>
</modeling>
