Si beta-tin                             
   2.65000000000000     
     1.004642    0.000000    0.000000
    -0.502321    0.870045   -0.000000
    -0.000000    0.000000    1.617934
    S
     2
Direct
  0.000000  0.000000  0.000000
  0.333333  0.666667  0.500000
 
   36   36   60
 -4.4418     -4.0287     -2.8406     -1.0238      1.2026      3.5809      5.8565      7.8161      9.3147      10.287    
  10.746      10.767      10.470      9.9999      9.4997      9.0556      8.7079      8.4866      8.4107      8.4866    
  8.7079      9.0556      9.4997      9.9999      10.470      10.767      10.746      10.287      9.3147      7.8161    
  5.8565      3.5809      1.2026     -1.0238     -2.8406     -4.0287     -4.0287     -4.0287     -3.2266     -1.7223    
 0.29961      2.5981      4.9149      7.0150      8.7200      9.9266      10.611      10.819      10.652      10.244    
  9.7413      9.2635      8.8638      8.5768      8.4269      8.4269      8.5768      8.8638      9.2635      9.7413    
  10.244      10.652      10.819      10.611      9.9266      8.7200      7.0151      4.9149      2.5981     0.29961    
 -1.7223     -3.2266     -2.8406     -3.2298     -2.8406     -1.7223     -.15416E-01  2.0700      4.2888      6.3997    
  8.2024      9.5622      10.421      10.794      10.756      10.426      9.9431      9.4424      9.0003      8.6550    
  8.4356      8.3604      8.4356      8.6550      9.0003      9.4424      9.9431      10.426      10.756      10.794    
  10.421      9.5622      8.2024      6.3997      4.2888      2.0700     -.15416E-01 -1.7223     -1.0238     -1.7313    
 -1.7313     -1.0238     0.29961      2.0700      4.0693      6.0656      7.8507      9.2685      10.232      10.726    
  10.800      10.549      10.100      9.5896      9.1150      8.7203      8.4380      8.2908      8.2908      8.4380    
  8.7203      9.1150      9.5896      10.100      10.549      10.800      10.726      10.232      9.2685      7.8507    
  6.0656      4.0693      2.0700     0.29961      1.2026     0.28329     -.37551E-01 0.28329      1.2026      2.5981    
  4.2888      6.0656      7.7262      9.1051      10.095      10.654      10.806      10.622      10.213      9.7047    
  9.2073      8.7729      8.4359      8.2226      8.1496      8.2226      8.4359      8.7729      9.2073      9.7047    
  10.213      10.622      10.806      10.654      10.095      9.1051      7.7262      6.0656      4.2888      2.5981    
  3.5809      2.5743      2.0331      2.0331      2.5743      3.5809      4.9149      6.3997      7.8507      9.1051    
  10.045      10.610      10.798      10.660      10.286      9.7885      9.2775      8.8135      8.4315      8.1599    
  8.0189      8.0189      8.1599      8.4315      8.8135      9.2775      9.7885      10.286      10.660      10.798    
  10.610      10.045      9.1051      7.8507      6.3997      4.9149      5.8565      4.8846      4.2378      4.0110    
  4.2378      4.8846      5.8565      7.0151      8.2024      9.2685      10.095      10.610      10.793      10.675    
  10.327      9.8426      9.3266      8.8431      8.4265      8.1062      7.9046      7.8358      7.9046      8.1062    
  8.4265      8.8431      9.3266      9.8426      10.327      10.675      10.793      10.610      10.095      9.2685    
  8.2024      7.0151      7.8161      6.9798      6.3373      5.9884      5.9884      6.3373      6.9798      7.8161    
  8.7200      9.5622      10.232      10.654      10.798      10.675      10.339      9.8689      9.3555      8.8623    
  8.4223      8.0642      7.8115      7.6809      7.6809      7.8115      8.0642      8.4223      8.8623      9.3555    
  9.8689      10.339      10.675      10.798      10.654      10.232      9.5622      8.7200      9.3147      8.6817    
  8.1319      7.7587      7.6266      7.7587      8.1319      8.6817      9.3147      9.9266      10.421      10.726    
  10.806      10.660      10.327      9.8689      9.3651      8.8718      8.4195      8.0355      7.7430      7.5601    
  7.4979      7.5601      7.7430      8.0355      8.4195      8.8718      9.3651      9.8689      10.327      10.660    
  10.806      10.726      10.421      9.9266      10.287      9.8868      9.4870      9.1665      8.9887      8.9887    
  9.1665      9.4870      9.8868      10.287      10.611      10.794      10.800      10.622      10.286      9.8426    
  9.3555      8.8718      8.4186      8.0209      7.7012      7.4774      7.3623      7.3623      7.4774      7.7012    
  8.0209      8.4186      8.8718      9.3555      9.8426      10.286      10.622      10.800      10.794      10.611    
  10.746      10.571      10.344      10.124      9.9672      9.9103      9.9672      10.124      10.344      10.571    
  10.746      10.819      10.756      10.549      10.213      9.7885      9.3266      8.8623      8.4195      8.0209    
  7.6871      7.4355      7.2790      7.2260      7.2790      7.4355      7.6871      8.0209      8.4195      8.8623    
  9.3266      9.7885      10.213      10.549      10.756      10.819      10.767      10.779      10.716      10.616    
  10.520      10.462      10.462      10.520      10.616      10.716      10.779      10.767      10.652      10.426    
  10.100      9.7047      9.2775      8.8431      8.4223      8.0355      7.7012      7.4355      7.2510      7.1565    
  7.1565      7.2510      7.4355      7.7012      8.0355      8.4223      8.8431      9.2775      9.7047      10.100    
  10.426      10.652      10.470      10.612      10.678      10.688      10.667      10.642      10.631      10.642    
  10.667      10.688      10.678      10.612      10.470      10.244      9.9431      9.5896      9.2073      8.8135    
  8.4265      8.0642      7.7430      7.4774      7.2790      7.1565      7.1150      7.1565      7.2790      7.4774    
  7.7430      8.0642      8.4265      8.8135      9.2073      9.5896      9.9431      10.244      9.9999      10.204    
  10.348      10.436      10.481      10.498      10.503      10.503      10.498      10.481      10.436      10.348    
  10.204      9.9998      9.7413      9.4424      9.1150      8.7729      8.4315      8.1062      7.8115      7.5601    
  7.3623      7.2260      7.1565      7.1565      7.2260      7.3623      7.5601      7.8115      8.1062      8.4315    
  8.7729      9.1150      9.4424      9.7413      9.4997      9.7015      9.8648      9.9868      10.069      10.119    
  10.145      10.153      10.145      10.119      10.069      9.9868      9.8648      9.7014      9.4997      9.2635    
  9.0003      8.7203      8.4359      8.1599      7.9046      7.6809      7.4979      7.3623      7.2790      7.2510    
  7.2790      7.3623      7.4979      7.6809      7.9046      8.1599      8.4359      8.7203      9.0003      9.2635    
  9.0556      9.2236      9.3639      9.4753      9.5590      9.6176      9.6539      9.6710      9.6710      9.6539    
  9.6176      9.5590      9.4753      9.3639      9.2236      9.0556      8.8638      8.6550      8.4380      8.2226    
  8.0189      7.8358      7.6809      7.5601      7.4774      7.4355      7.4355      7.4774      7.5601      7.6809    
  7.8358      8.0189      8.2226      8.4380      8.6550      8.8638      8.7079      8.8238      8.9215      8.9999    
  9.0597      9.1028      9.1315      9.1478      9.1530      9.1478      9.1315      9.1028      9.0597      8.9999    
  8.9215      8.8238      8.7079      8.5768      8.4356      8.2908      8.1496      8.0189      7.9046      7.8115    
  7.7430      7.7012      7.6871      7.7012      7.7430      7.8115      7.9046      8.0189      8.1496      8.2908    
  8.4356      8.5768      8.4866      8.5367      8.5759      8.6045      8.6238      8.6358      8.6428      8.6464    
  8.6479      8.6479      8.6464      8.6428      8.6358      8.6238      8.6045      8.5759      8.5367      8.4866    
  8.4269      8.3604      8.2908      8.2226      8.1599      8.1062      8.0642      8.0355      8.0209      8.0209    
  8.0355      8.0642      8.1062      8.1599      8.2226      8.2908      8.3604      8.4269      8.4107      8.3868    
  8.3563      8.3216      8.2856      8.2515      8.2222      8.1999      8.1860      8.1813      8.1860      8.1999    
  8.2222      8.2515      8.2856      8.3216      8.3563      8.3868      8.4107      8.4269      8.4356      8.4380    
  8.4359      8.4315      8.4265      8.4223      8.4195      8.4186      8.4195      8.4223      8.4265      8.4315    
  8.4359      8.4380      8.4356      8.4269      8.4866      8.3868      8.2811      8.1742      8.0715      7.9783    
  7.8990      7.8370      7.7946      7.7732      7.7732      7.7946      7.8370      7.8990      7.9783      8.0715    
  8.1742      8.2811      8.3868      8.4866      8.5768      8.6550      8.7203      8.7729      8.8135      8.8431    
  8.8623      8.8718      8.8718      8.8623      8.8431      8.8135      8.7729      8.7203      8.6550      8.5768    
  8.7079      8.5367      8.3563      8.1742      7.9983      7.8365      7.6957      7.5812      7.4971      7.4458    
  7.4286      7.4458      7.4971      7.5812      7.6957      7.8365      7.9983      8.1742      8.3563      8.5367    
  8.7079      8.8638      9.0003      9.1150      9.2073      9.2775      9.3266      9.3555      9.3651      9.3555    
  9.3266      9.2775      9.2073      9.1150      9.0003      8.8638      9.0556      8.8238      8.5759      8.3216    
  8.0715      7.8365      7.6263      7.4491      7.3112      7.2171      7.1694      7.1694      7.2171      7.3112    
  7.4491      7.6263      7.8365      8.0715      8.3216      8.5759      8.8238      9.0556      9.2635      9.4424    
  9.5896      9.7047      9.7885      9.8426      9.8689      9.8689      9.8426      9.7885      9.7047      9.5896    
  9.4424      9.2635      9.4997      9.2236      8.9215      8.6045      8.2856      7.9783      7.6957      7.4491    
  7.2480      7.0996      7.0086      6.9779      7.0086      7.0996      7.2480      7.4491      7.6957      7.9783    
  8.2856      8.6045      8.9215      9.2236      9.4997      9.7413      9.9431      10.100      10.213      10.286    
  10.327      10.339      10.327      10.286      10.213      10.100      9.9431      9.7413      9.9999      9.7015    
  9.3639      8.9999      8.6238      8.2515      7.8990      7.5812      7.3112      7.0996      6.9541      6.8800    
  6.8800      6.9541      7.0996      7.3112      7.5812      7.8990      8.2515      8.6238      8.9999      9.3639    
  9.7014      9.9998      10.244      10.426      10.549      10.622      10.660      10.675      10.675      10.660    
  10.622      10.549      10.426      10.244      10.470      10.204      9.8648      9.4753      9.0597      8.6358    
  8.2222      7.8370      7.4971      7.2171      7.0086      6.8800      6.8366      6.8800      7.0086      7.2171    
  7.4971      7.8370      8.2222      8.6358      9.0597      9.4753      9.8648      10.204      10.470      10.652    
  10.756      10.800      10.806      10.798      10.793      10.798      10.806      10.800      10.756      10.652    
  10.767      10.612      10.348      9.9868      9.5590      9.1028      8.6428      8.1999      7.7946      7.4458    
  7.1694      6.9779      6.8800      6.8800      6.9779      7.1694      7.4458      7.7946      8.1999      8.6428    
  9.1028      9.5590      9.9868      10.348      10.612      10.767      10.819      10.794      10.726      10.654    
  10.610      10.610      10.654      10.726      10.794      10.819      10.746      10.779      10.678      10.436    
  10.069      9.6176      9.1315      8.6464      8.1860      7.7732      7.4286      7.1694      7.0086      6.9541    
  7.0086      7.1694      7.4286      7.7732      8.1860      8.6464      9.1315      9.6176      10.069      10.436    
  10.678      10.779      10.746      10.611      10.421      10.232      10.095      10.045      10.095      10.232    
  10.421      10.611      10.287      10.571      10.716      10.688      10.481      10.119      9.6539      9.1478    
  8.6479      8.1813      7.7732      7.4458      7.2171      7.0996      7.0996      7.2171      7.4458      7.7732    
  8.1813      8.6479      9.1478      9.6539      10.119      10.481      10.688      10.716      10.571      10.287    
  9.9266      9.5622      9.2685      9.1051      9.1051      9.2685      9.5622      9.9266      9.3147      9.8868    
  10.344      10.616      10.667      10.498      10.145      9.6710      9.1530      8.6479      8.1860      7.7946    
  7.4971      7.3112      7.2480      7.3112      7.4971      7.7946      8.1860      8.6479      9.1530      9.6710    
  10.145      10.498      10.667      10.616      10.344      9.8868      9.3147      8.7200      8.2024      7.8507    
  7.7262      7.8507      8.2024      8.7200      7.8161      8.6817      9.4870      10.124      10.520      10.642    
  10.503      10.153      9.6710      9.1478      8.6464      8.1999      7.8370      7.5812      7.4491      7.4491    
  7.5812      7.8370      8.1999      8.6464      9.1478      9.6710      10.153      10.503      10.642      10.520    
  10.124      9.4870      8.6817      7.8161      7.0151      6.3997      6.0656      6.0656      6.3997      7.0150    
  5.8565      6.9798      8.1319      9.1665      9.9672      10.462      10.631      10.503      10.145      9.6539    
  9.1315      8.6428      8.2222      7.8990      7.6957      7.6263      7.6957      7.8990      8.2222      8.6428    
  9.1315      9.6539      10.145      10.503      10.631      10.462      9.9672      9.1665      8.1319      6.9798    
  5.8565      4.9149      4.2888      4.0693      4.2888      4.9149      3.5809      4.8846      6.3373      7.7587    
  8.9887      9.9103      10.462      10.642      10.498      10.119      9.6176      9.1028      8.6358      8.2515    
  7.9783      7.8365      7.8365      7.9783      8.2515      8.6358      9.1028      9.6176      10.119      10.498    
  10.642      10.462      9.9103      8.9887      7.7587      6.3373      4.8846      3.5809      2.5981      2.0700    
  2.0700      2.5981      1.2026      2.5743      4.2378      5.9884      7.6266      8.9887      9.9672      10.520    
  10.667      10.481      10.069      9.5590      9.0597      8.6238      8.2856      8.0715      7.9983      8.0715    
  8.2856      8.6238      9.0597      9.5590      10.069      10.481      10.667      10.520      9.9672      8.9887    
  7.6266      5.9884      4.2378      2.5743      1.2026     0.29961     -.15416E-01 0.29961     -1.0238     0.28329    
  2.0331      4.0110      5.9884      7.7587      9.1665      10.124      10.616      10.688      10.436      9.9868    
  9.4753      8.9999      8.6045      8.3216      8.1742      8.1742      8.3216      8.6045      8.9999      9.4753    
  9.9868      10.436      10.688      10.616      10.124      9.1665      7.7587      5.9884      4.0110      2.0331    
 0.28329     -1.0238     -1.7223     -1.7223     -2.8406     -1.7313     -.37550E-01  2.0331      4.2378      6.3373    
  8.1319      9.4870      10.344      10.716      10.678      10.348      9.8648      9.3639      8.9215      8.5759    
  8.3563      8.2811      8.3563      8.5759      8.9215      9.3639      9.8648      10.348      10.678      10.716    
  10.344      9.4870      8.1319      6.3373      4.2378      2.0331     -.37551E-01 -1.7313     -2.8406     -3.2266    
 -4.0287     -3.2298     -1.7313     0.28329      2.5743      4.8846      6.9798      8.6817      9.8868      10.571    
  10.779      10.612      10.204      9.7015      9.2236      8.8238      8.5367      8.3868      8.3868      8.5367    
  8.8238      9.2236      9.7015      10.204      10.612      10.779      10.571      9.8868      8.6817      6.9798    
  4.8846      2.5743     0.28329     -1.7313     -3.2298     -4.0287     -4.0395     -3.6351     -2.4725     -.69554    
  1.4804      3.8026      6.0210      7.9270      9.3788      10.314      10.744      10.745      10.437      9.9627    
  9.4622      9.0186      8.6716      8.4509      8.3752      8.4509      8.6716      9.0186      9.4622      9.9627    
  10.437      10.745      10.744      10.314      9.3788      7.9270      6.0210      3.8026      1.4804     -.69554    
 -2.4725     -3.6351     -3.6351     -3.6351     -2.8504     -1.3790     0.59736      2.8422      5.1023      7.1471    
  8.8021      9.9667      10.618      10.803      10.622      10.206      9.7016      9.2241      8.8251      8.5387    
  8.3893      8.3893      8.5387      8.8251      9.2241      9.7016      10.206      10.622      10.803      10.618    
  9.9667      8.8021      7.1471      5.1023      2.8422     0.59736     -1.3790     -2.8504     -2.4725     -2.8532    
 -2.4725     -1.3790     0.28920      2.3260      4.4908      6.5473      8.2990      9.6147      10.438      10.784    
  10.729      10.389      9.9017      9.4010      8.9595      8.6149      8.3961      8.3211      8.3961      8.6149    
  8.9595      9.4010      9.9017      10.389      10.729      10.784      10.438      9.6147      8.2990      6.5473    
  4.4908      2.3260     0.28920     -1.3790     -.69554     -1.3870     -1.3870     -.69554     0.59736      2.3260    
  4.2764      6.2214      7.9568      9.3301      10.257      10.722      10.775      10.512      10.058      9.5465    
  9.0725      8.6786      8.3969      8.2503      8.2503      8.3969      8.6786      9.0725      9.5465      10.058    
  10.512      10.775      10.722      10.257      9.3301      7.9568      6.2214      4.2764      2.3260     0.59736    
  1.4804     0.58288     0.26957     0.58288      1.4804      2.8422      4.4908      6.2214      7.8356      9.1715    
  10.124      10.654      10.784      10.587      10.171      9.6604      9.1634      8.7298      8.3937      8.1810    
  8.1083      8.1810      8.3937      8.7298      9.1634      9.6604      10.171      10.587      10.784      10.654    
  10.124      9.1715      7.8356      6.2214      4.4908      2.8422      3.8026      2.8211      2.2933      2.2933    
  2.8211      3.8026      5.1023      6.5473      7.9568      9.1715      10.076      10.612      10.778      10.626    
  10.244      9.7434      9.2326      8.7694      8.3884      8.1176      7.9771      7.9771      8.1176      8.3884    
  8.7694      9.2326      9.7434      10.244      10.626      10.778      10.612      10.076      9.1715      7.9568    
  6.5473      5.1023      6.0210      5.0752      4.4455      4.2246      4.4455      5.0752      6.0210      7.1471    
  8.2990      9.3301      10.124      10.612      10.774      10.642      10.284      9.7970      9.2809      8.7982    
  8.3828      8.0635      7.8626      7.7941      7.8626      8.0635      8.3828      8.7982      9.2809      9.7970    
  10.284      10.642      10.774      10.612      10.124      9.3301      8.2990      7.1471      7.9270      7.1157    
  6.4917      6.1526      6.1526      6.4917      7.1157      7.9270      8.8021      9.6147      10.257      10.654    
  10.778      10.642      10.297      9.8232      9.3095      8.8170      8.3781      8.0212      7.7695      7.6394    
  7.6394      7.7695      8.0212      8.3781      8.8170      9.3095      9.8232      10.297      10.642      10.778    
  10.654      10.257      9.6147      8.8021      9.3788      8.7679      8.2362      7.8748      7.7468      7.8748    
  8.2362      8.7679      9.3788      9.9667      10.438      10.722      10.784      10.626      10.284      9.8232    
  9.3189      8.8263      8.3751      7.9923      7.7010      7.5189      7.4569      7.5189      7.7010      7.9923    
  8.3751      8.8263      9.3190      9.8232      10.284      10.626      10.784      10.722      10.438      9.9667    
  10.314      9.9313      9.5476      9.2392      9.0678      9.0678      9.2392      9.5476      9.9313      10.314    
  10.618      10.784      10.775      10.587      10.244      9.7970      9.3095      8.8263      8.3740      7.9777    
  7.6592      7.4364      7.3218      7.3218      7.4364      7.6592      7.9777      8.3740      8.8263      9.3095    
  9.7970      10.244      10.587      10.775      10.784      10.618      10.744      10.582      10.369      10.161    
  10.011      9.9562      10.011      10.161      10.369      10.582      10.744      10.803      10.729      10.512    
  10.171      9.7434      9.2809      8.8170      8.3751      7.9777      7.6452      7.3946      7.2389      7.1861    
  7.2389      7.3946      7.6452      7.9777      8.3751      8.8170      9.2809      9.7434      10.171      10.512    
  10.729      10.803      10.745      10.767      10.715      10.624      10.535      10.481      10.481      10.535    
  10.624      10.715      10.767      10.745      10.622      10.389      10.058      9.6604      9.2326      8.7982    
  8.3781      7.9923      7.6592      7.3946      7.2110      7.1169      7.1169      7.2110      7.3946      7.6592    
  7.9923      8.3781      8.7982      9.2326      9.6604      10.058      10.389      10.622      10.437      10.586    
  10.659      10.676      10.661      10.640      10.630      10.640      10.661      10.676      10.659      10.586    
  10.437      10.206      9.9017      9.5465      9.1634      8.7694      8.3828      8.0212      7.7010      7.4364    
  7.2389      7.1169      7.0757      7.1169      7.2389      7.4364      7.7010      8.0212      8.3828      8.7694    
  9.1634      9.5465      9.9017      10.206      9.9627      10.171      10.319      10.412      10.461      10.482    
  10.488      10.488      10.482      10.461      10.412      10.319      10.171      9.9627      9.7016      9.4010    
  9.0725      8.7299      8.3884      8.0635      7.7695      7.5189      7.3218      7.1861      7.1169      7.1169    
  7.1861      7.3218      7.5189      7.7695      8.0635      8.3884      8.7298      9.0725      9.4010      9.7016    
  9.4622      9.6662      9.8323      9.9574      10.043      10.096      10.123      10.132      10.123      10.096    
  10.043      9.9574      9.8323      9.6662      9.4622      9.2241      8.9595      8.6786      8.3937      8.1176    
  7.8626      7.6394      7.4569      7.3218      7.2389      7.2110      7.2389      7.3218      7.4569      7.6394    
  7.8626      8.1176      8.3937      8.6786      8.9595      9.2241      9.0186      9.1887      9.3313      9.4451    
  9.5310      9.5915      9.6293      9.6473      9.6473      9.6293      9.5915      9.5310      9.4451      9.3313    
  9.1887      9.0186      8.8251      8.6149      8.3969      8.1810      7.9771      7.7941      7.6394      7.5189    
  7.4364      7.3946      7.3946      7.4364      7.5189      7.6394      7.7941      7.9771      8.1810      8.3969    
  8.6149      8.8251      8.6716      8.7896      8.8895      8.9702      9.0323      9.0774      9.1076      9.1248    
  9.1304      9.1248      9.1076      9.0774      9.0323      8.9702      8.8895      8.7896      8.6716      8.5387    
  8.3961      8.2503      8.1083      7.9771      7.8626      7.7695      7.7010      7.6592      7.6452      7.6592    
  7.7010      7.7695      7.8626      7.9771      8.1083      8.2503      8.3961      8.5387      8.4509      8.5031    
  8.5447      8.5757      8.5973      8.6114      8.6201      8.6249      8.6271      8.6271      8.6249      8.6201    
  8.6114      8.5973      8.5757      8.5447      8.5031      8.4509      8.3893      8.3211      8.2503      8.1810    
  8.1176      8.0635      8.0212      7.9923      7.9777      7.9777      7.9923      8.0212      8.0635      8.1176    
  8.1810      8.2503      8.3211      8.3893      8.3752      8.3537      8.3257      8.2935      8.2600      8.2282    
  8.2009      8.1801      8.1671      8.1627      8.1671      8.1801      8.2009      8.2282      8.2600      8.2935    
  8.3257      8.3537      8.3752      8.3893      8.3961      8.3969      8.3937      8.3884      8.3828      8.3781    
  8.3751      8.3740      8.3751      8.3781      8.3828      8.3884      8.3937      8.3969      8.3961      8.3893    
  8.4509      8.3537      8.2507      8.1466      8.0467      7.9560      7.8789      7.8187      7.7776      7.7568    
  7.7568      7.7776      7.8187      7.8789      7.9560      8.0467      8.1466      8.2507      8.3537      8.4509    
  8.5387      8.6149      8.6786      8.7299      8.7694      8.7982      8.8170      8.8263      8.8263      8.8170    
  8.7982      8.7694      8.7298      8.6786      8.6149      8.5387      8.6716      8.5031      8.3257      8.1466    
  7.9737      7.8148      7.6765      7.5642      7.4817      7.4313      7.4144      7.4313      7.4817      7.5642    
  7.6765      7.8148      7.9737      8.1466      8.3257      8.5031      8.6716      8.8251      8.9595      9.0725    
  9.1634      9.2326      9.2809      9.3095      9.3189      9.3095      9.2809      9.2326      9.1634      9.0725    
  8.9595      8.8251      9.0186      8.7896      8.5447      8.2935      8.0467      7.8148      7.6074      7.4327    
  7.2968      7.2040      7.1570      7.1570      7.2040      7.2968      7.4327      7.6074      7.8148      8.0467    
  8.2935      8.5447      8.7896      9.0186      9.2241      9.4010      9.5465      9.6604      9.7434      9.7970    
  9.8232      9.8232      9.7970      9.7434      9.6604      9.5465      9.4010      9.2241      9.4622      9.1887    
  8.8895      8.5757      8.2600      7.9560      7.6765      7.4327      7.2339      7.0872      6.9973      6.9671    
  6.9973      7.0872      7.2339      7.4327      7.6765      7.9560      8.2600      8.5757      8.8895      9.1887    
  9.4622      9.7016      9.9017      10.058      10.171      10.244      10.284      10.297      10.284      10.244    
  10.171      10.058      9.9017      9.7016      9.9627      9.6662      9.3313      8.9702      8.5973      8.2282    
  7.8789      7.5642      7.2968      7.0872      6.9432      6.8699      6.8699      6.9432      7.0872      7.2968    
  7.5642      7.8789      8.2282      8.5973      8.9702      9.3313      9.6662      9.9627      10.206      10.389    
  10.512      10.587      10.626      10.642      10.642      10.626      10.587      10.512      10.389      10.206    
  10.437      10.171      9.8323      9.4451      9.0323      8.6114      8.2009      7.8187      7.4817      7.2040    
  6.9973      6.8699      6.8269      6.8699      6.9973      7.2040      7.4817      7.8187      8.2009      8.6114    
  9.0323      9.4451      9.8323      10.171      10.437      10.622      10.729      10.775      10.784      10.778    
  10.774      10.778      10.784      10.775      10.729      10.622      10.745      10.586      10.319      9.9574    
  9.5310      9.0774      8.6201      8.1801      7.7776      7.4313      7.1570      6.9671      6.8699      6.8699    
  6.9671      7.1570      7.4313      7.7776      8.1801      8.6201      9.0774      9.5310      9.9574      10.319    
  10.586      10.745      10.803      10.784      10.722      10.654      10.612      10.612      10.654      10.722    
  10.784      10.803      10.744      10.767      10.659      10.412      10.043      9.5915      9.1076      8.6249    
  8.1671      7.7568      7.4144      7.1570      6.9973      6.9432      6.9973      7.1570      7.4144      7.7568    
  8.1671      8.6249      9.1076      9.5915      10.043      10.412      10.659      10.767      10.744      10.618    
  10.438      10.257      10.124      10.076      10.124      10.257      10.438      10.618      10.314      10.582    
  10.715      10.676      10.461      10.096      9.6293      9.1248      8.6271      8.1627      7.7568      7.4313    
  7.2040      7.0872      7.0872      7.2040      7.4313      7.7568      8.1627      8.6271      9.1248      9.6293    
  10.096      10.461      10.676      10.715      10.582      10.314      9.9667      9.6147      9.3301      9.1715    
  9.1715      9.3301      9.6147      9.9667      9.3788      9.9313      10.369      10.624      10.661      10.482    
  10.123      9.6473      9.1304      8.6271      8.1671      7.7776      7.4817      7.2968      7.2339      7.2968    
  7.4817      7.7776      8.1671      8.6271      9.1304      9.6473      10.123      10.482      10.661      10.624    
  10.369      9.9313      9.3788      8.8021      8.2990      7.9568      7.8356      7.9568      8.2990      8.8021    
  7.9270      8.7679      9.5476      10.161      10.535      10.640      10.488      10.132      9.6473      9.1248    
  8.6249      8.1801      7.8187      7.5642      7.4327      7.4327      7.5642      7.8187      8.1801      8.6249    
  9.1248      9.6473      10.132      10.488      10.640      10.535      10.161      9.5476      8.7679      7.9270    
  7.1471      6.5473      6.2214      6.2214      6.5473      7.1471      6.0210      7.1157      8.2362      9.2392    
  10.011      10.481      10.630      10.488      10.123      9.6293      9.1076      8.6201      8.2009      7.8789    
  7.6765      7.6074      7.6765      7.8789      8.2009      8.6201      9.1076      9.6293      10.123      10.488    
  10.630      10.481      10.011      9.2392      8.2362      7.1157      6.0210      5.1023      4.4908      4.2764    
  4.4908      5.1023      3.8026      5.0752      6.4917      7.8748      9.0678      9.9562      10.481      10.640    
  10.482      10.096      9.5915      9.0774      8.6114      8.2282      7.9560      7.8148      7.8148      7.9560    
  8.2282      8.6114      9.0774      9.5915      10.096      10.482      10.640      10.481      9.9562      9.0678    
  7.8748      6.4917      5.0752      3.8026      2.8422      2.3260      2.3260      2.8422      1.4804      2.8211    