Si beta-tin                             
   2.65000000000000     
     1.009188    0.000000    0.000000
    -0.504594    0.873983   -0.000000
    -0.000000    0.000000    1.603390
    S
     2
Direct
  0.000000 -0.000000  0.000000
  0.333333  0.666667  0.500000
 
   36   36   60
 -.44416091662E+01 -.40215182743E+01 -.28146862046E+01 -.97337241945E+00 0.12750974646E+01
 0.36651861002E+01 0.59364316188E+01 0.78732739211E+01 0.93323899176E+01 0.10253474199E+02
 0.10655096802E+02 0.10620309714E+02 0.10276496176E+02 0.97725211105E+01 0.92511729929E+01
 0.87915065300E+01 0.84329933635E+01 0.82054678360E+01 0.81275260881E+01 0.82054678225E+01
 0.84329933525E+01 0.87915065434E+01 0.92511730433E+01 0.97725211897E+01 0.10276496253E+02
 0.10620309745E+02 0.10655096751E+02 0.10253474052E+02 0.93323896950E+01 0.78732736715E+01
 0.59364314017E+01 0.36651859633E+01 0.12750974250E+01 -.97337238107E+00 -.28146861340E+01
 -.40215182225E+01 -.40215182225E+01 -.40215184441E+01 -.32073266534E+01 -.16827823949E+01
 0.36046794766E+00 0.26737068618E+01 0.49919890910E+01 0.70764943044E+01 0.87484697048E+01
 0.99080342482E+01 0.10536870323E+02 0.10688363707E+02 0.10470004687E+02 0.10021769853E+02
 0.94928644876E+01 0.89973953342E+01 0.85847854333E+01 0.82894558335E+01 0.81355855225E+01
 0.81355855090E+01 0.82894558152E+01 0.85847854637E+01 0.89973954648E+01 0.94928647335E+01
 0.10021770176E+02 0.10470005008E+02 0.10688363946E+02 0.10536870436E+02 0.99080342672E+01
 0.87484697282E+01 0.70764944622E+01 0.49919894852E+01 0.26737075127E+01 0.36046876850E+00
 -.16827815799E+01 -.32073260520E+01 -.28146861340E+01 -.32090651319E+01 -.28146868074E+01
 -.16827827546E+01 0.40976642836E-01 0.21398913021E+01 0.43620095860E+01 0.64615230097E+01
 0.82363630101E+01 0.95537154810E+01 0.10359883995E+02 0.10676129310E+02 0.10584807997E+02
 0.10209957932E+02 0.96952293641E+01 0.91748525147E+01 0.87181018112E+01 0.83627355936E+01
 0.81375357748E+01 0.80604431077E+01 0.81375357621E+01 0.83627356109E+01 0.87181019163E+01
 0.91748527412E+01 0.96952296935E+01 0.10209958294E+02 0.10584808303E+02 0.10676129505E+02
 0.10359884100E+02 0.95537156030E+01 0.82363633111E+01 0.64615236366E+01 0.43620105960E+01
 0.21398926131E+01 0.40978035289E-01 -.16827815799E+01 -.97337238107E+00 -.16876704549E+01
 -.16876708267E+01 -.97337340216E+00 0.36046734877E+00 0.21398911188E+01 0.41408466067E+01
 0.61268231357E+01 0.78869075551E+01 0.92656779958E+01 0.10179455023E+02 0.10618322185E+02
 0.10636988974E+02 0.10338537562E+02 0.98542840875E+01 0.93210532402E+01 0.88304702320E+01
 0.84242960997E+01 0.81346315503E+01 0.79840154043E+01 0.79840153986E+01 0.81346315481E+01
 0.84242961351E+01 0.88304703314E+01 0.93210533968E+01 0.98542842544E+01 0.10338537672E+02
 0.10636988981E+02 0.10618322105E+02 0.10179454954E+02 0.92656780972E+01 0.78869079930E+01
 0.61268240078E+01 0.41408478808E+01 0.21398926131E+01 0.36046876850E+00 0.12750974250E+01
 0.35160771441E+00 0.28967287086E-01 0.35160715409E+00 0.12750964596E+01 0.26737063994E+01
 0.43620096079E+01 0.61268233491E+01 0.77629436841E+01 0.91047016647E+01 0.10046910701E+02
 0.10552686285E+02 0.10649530012E+02 0.10417017441E+02 0.99693664761E+01 0.94354129908E+01
 0.89210241429E+01 0.84741215716E+01 0.81286714771E+01 0.79106115271E+01 0.78361002962E+01
 0.79106114801E+01 0.81286714065E+01 0.84741215070E+01 0.89210240952E+01 0.94354129371E+01
 0.99693663654E+01 0.10417017222E+02 0.10649529674E+02 0.10552685883E+02 0.10046910362E+02
 0.91047015512E+01 0.77629439326E+01 0.61268240078E+01 0.43620105960E+01 0.26737075127E+01
 0.36651859633E+01 0.26607653663E+01 0.21198300484E+01 0.21198299215E+01 0.26607650412E+01
 0.36651855840E+01 0.49919892256E+01 0.64615236320E+01 0.78869082889E+01 0.91047020910E+01
 0.99983942322E+01 0.10510879096E+02 0.10645618280E+02 0.10458691466E+02 0.10044664129E+02
 0.95188831204E+01 0.89900266954E+01 0.85127798164E+01 0.81215262686E+01 0.78442542456E+01
 0.77005852777E+01 0.77005852062E+01 0.78442540571E+01 0.81215260273E+01 0.85127795894E+01
 0.89900265148E+01 0.95188829629E+01 0.10044663926E+02 0.10458691139E+02 0.10645617788E+02
 0.10510878470E+02 0.99983935770E+01 0.91047015512E+01 0.78869079930E+01 0.64615236366E+01
 0.49919894852E+01 0.59364314017E+01 0.49755107395E+01 0.43343306233E+01 0.41091977868E+01
 0.43343307948E+01 0.49755111083E+01 0.59364319960E+01 0.70764952778E+01 0.82363642868E+01
 0.92656791140E+01 0.10046911273E+02 0.10510879149E+02 0.10642242556E+02 0.10475875313E+02
 0.10086347916E+02 0.95729628123E+01 0.90383187736E+01 0.85410198548E+01 0.81147541698E+01
 0.77882070107E+01 0.75832091359E+01 0.75133430971E+01 0.75832089246E+01 0.77882066699E+01
 0.81147538254E+01 0.85410196193E+01 0.90383186930E+01 0.95729628429E+01 0.10086347940E+02
 0.10475875187E+02 0.10642242170E+02 0.10510878470E+02 0.10046910362E+02 0.92656780972E+01
 0.82363633111E+01 0.70764944622E+01 0.78732736715E+01 0.70574435497E+01 0.64277251885E+01
 0.60849685853E+01 0.60849688773E+01 0.64277260200E+01 0.70574447938E+01 0.78732751392E+01
 0.87484712008E+01 0.95537168713E+01 0.10179455859E+02 0.10552686348E+02 0.10645617833E+02
 0.10475874922E+02 0.10099580811E+02 0.95993598258E+01 0.90668337956E+01 0.85594923927E+01
 0.81094089708E+01 0.77447576478E+01 0.74883214361E+01 0.73560226284E+01 0.73560225340E+01
 0.74883211933E+01 0.77447573619E+01 0.81094087715E+01 0.85594923825E+01 0.90668340073E+01
 0.95993602032E+01 0.10099581220E+02 0.10475875187E+02 0.10645617788E+02 0.10552685883E+02
 0.10179454954E+02 0.95537156030E+01 0.87484697282E+01 0.93323896950E+01 0.87279096694E+01
 0.81984481389E+01 0.78373556220E+01 0.77092919560E+01 0.78373564536E+01 0.81984495896E+01
 0.87279113808E+01 0.93323912729E+01 0.99080353944E+01 0.10359884615E+02 0.10618322026E+02
 0.10649529158E+02 0.10458690414E+02 0.10086347218E+02 0.95993596270E+01 0.90762562901E+01
 0.85686277165E+01 0.81060555816E+01 0.77152673125E+01 0.74188691870E+01 0.72339492367E+01
 0.71711125918E+01 0.72339492326E+01 0.74188691839E+01 0.77152673290E+01 0.81060556585E+01
 0.85686279140E+01 0.90762566668E+01 0.95993602032E+01 0.10086347940E+02 0.10458691139E+02
 0.10649529674E+02 0.10618322105E+02 0.10359884100E+02 0.99080342672E+01 0.10253474052E+02
 0.98868402249E+01 0.95135796310E+01 0.92112049598E+01 0.90424902476E+01 0.90424906751E+01
 0.92112060884E+01 0.95135810587E+01 0.98868414561E+01 0.10253474683E+02 0.10536870295E+02
 0.10676128693E+02 0.10636987805E+02 0.10417016052E+02 0.10044663045E+02 0.95729623540E+01
 0.90668338284E+01 0.85686278550E+01 0.81049204416E+01 0.77004009087E+01 0.73766144660E+01
 0.71507576923E+01 0.70347743993E+01 0.70347745229E+01 0.71507580046E+01 0.73766148256E+01
 0.77004011751E+01 0.81049205638E+01 0.85686279140E+01 0.90668340073E+01 0.95729628429E+01
 0.10044663926E+02 0.10417017222E+02 0.10636988981E+02 0.10676129505E+02 0.10536870436E+02
 0.10655096751E+02 0.10515573803E+02 0.10318883355E+02 0.10122353986E+02 0.99792280759E+01
 0.99270188873E+01 0.99792285494E+01 0.10122354667E+02 0.10318883834E+02 0.10515573711E+02
 0.10655095936E+02 0.10688362538E+02 0.10584806668E+02 0.10338536255E+02 0.99693655027E+01
 0.95188827509E+01 0.90383189654E+01 0.85594928053E+01 0.81060558948E+01 0.77004010395E+01
 0.73624421606E+01 0.71086498112E+01 0.69513128996E+01 0.68980134451E+01 0.69513132812E+01
 0.71086503795E+01 0.73624426270E+01 0.77004011751E+01 0.81060556585E+01 0.85594923825E+01
 0.90383186930E+01 0.95188829629E+01 0.99693663654E+01 0.10338537672E+02 0.10584808303E+02
 0.10688363946E+02 0.10620309745E+02 0.10667150605E+02 0.10634936628E+02 0.10560002197E+02
 0.10481768675E+02 0.10433274038E+02 0.10433274001E+02 0.10481768500E+02 0.10560001734E+02
 0.10634935738E+02 0.10667149271E+02 0.10620308126E+02 0.10470003417E+02 0.10209957090E+02
 0.98542837035E+01 0.94354131008E+01 0.89900272182E+01 0.85410205192E+01 0.81094094955E+01
 0.77152676253E+01 0.73766146575E+01 0.71086499234E+01 0.69232208736E+01 0.68284436480E+01
 0.68284438333E+01 0.69232213254E+01 0.71086503795E+01 0.73766148256E+01 0.77152673290E+01
 0.81094087715E+01 0.85410196193E+01 0.89900265148E+01 0.94354129371E+01 0.98542842544E+01
 0.10209958294E+02 0.10470005008E+02 0.10276496253E+02 0.10448822348E+02 0.10543530660E+02
 0.10577977637E+02 0.10576538289E+02 0.10563654683E+02 0.10557184852E+02 0.10563654052E+02
 0.10576537125E+02 0.10577976124E+02 0.10543529042E+02 0.10448820897E+02 0.10276495209E+02
 0.10021769705E+02 0.96952298387E+01 0.93210540698E+01 0.89210250960E+01 0.85127806612E+01
 0.81147547271E+01 0.77447579353E+01 0.74188693929E+01 0.71507579329E+01 0.69513130881E+01
 0.68284436847E+01 0.67869505137E+01 0.68284438333E+01 0.69513132812E+01 0.71507580046E+01
 0.74188691839E+01 0.77447573619E+01 0.81147538254E+01 0.85127795894E+01 0.89210240952E+01
 0.93210533968E+01 0.96952296935E+01 0.10021770176E+02 0.97725211897E+01 0.10000467676E+02
 0.10168391314E+02 0.10278763971E+02 0.10342236508E+02 0.10373188924E+02 0.10384781785E+02
 0.10384781325E+02 0.10373187688E+02 0.10342234874E+02 0.10278762423E+02 0.10168390281E+02
 0.10000467404E+02 0.97725216804E+01 0.94928657795E+01 0.91748540245E+01 0.88304715457E+01
 0.84741224523E+01 0.81215266464E+01 0.77882070225E+01 0.74883213910E+01 0.72339493715E+01
 0.70347746449E+01 0.68980135399E+01 0.68284436847E+01 0.68284436480E+01 0.68980134451E+01
 0.70347745229E+01 0.72339492326E+01 0.74883211933E+01 0.77882066699E+01 0.81215260273E+01
 0.84741215070E+01 0.88304703314E+01 0.91748527412E+01 0.94928647335E+01 0.92511730433E+01
 0.94713062406E+01 0.96531071767E+01 0.97934453826E+01 0.98926182117E+01 0.99557514552E+01
 0.99897949997E+01 0.10000422145E+02 0.99897942688E+01 0.99557503171E+01 0.98926171799E+01
 0.97934449485E+01 0.96531076117E+01 0.94713074945E+01 0.92511747771E+01 0.89973971994E+01
 0.87181032263E+01 0.84242968050E+01 0.81286714840E+01 0.78442537905E+01 0.75832086228E+01
 0.73560224188E+01 0.71711127129E+01 0.70347746449E+01 0.69513130881E+01 0.69232208736E+01
 0.69513128996E+01 0.70347743993E+01 0.71711125918E+01 0.73560225340E+01 0.75832089246E+01
 0.78442540571E+01 0.81286714065E+01 0.84242961351E+01 0.87181019163E+01 0.89973954648E+01
 0.87915065434E+01 0.89755163982E+01 0.91320083429E+01 0.92589040859E+01 0.93564585670E+01
 0.94264579827E+01 0.94711216655E+01 0.94926763065E+01 0.94926761459E+01 0.94711213119E+01
 0.94264577584E+01 0.93564588276E+01 0.92589050389E+01 0.91320099280E+01 0.89755182870E+01
 0.87915082604E+01 0.85847865740E+01 0.83627358918E+01 0.81346310682E+01 0.79106105543E+01
 0.77005842495E+01 0.75133424475E+01 0.73560224188E+01 0.72339493715E+01 0.71507579329E+01
 0.71086499234E+01 0.71086498112E+01 0.71507576923E+01 0.72339492367E+01 0.73560226284E+01
 0.75133430971E+01 0.77005852062E+01 0.79106114801E+01 0.81346315481E+01 0.83627356109E+01
 0.85847854637E+01 0.84329933525E+01 0.85626006361E+01 0.86745249606E+01 0.87669662299E+01
 0.88398172680E+01 0.88941108818E+01 0.89313720241E+01 0.89530556842E+01 0.89601656174E+01
 0.89530558658E+01 0.89313724718E+01 0.88941116996E+01 0.88398184855E+01 0.87669677299E+01
 0.86745264724E+01 0.85626018080E+01 0.84329938759E+01 0.82894555487E+01 0.81375347966E+01
 0.79840140323E+01 0.78360989257E+01 0.77005842495E+01 0.75832086228E+01 0.74883213910E+01
 0.74188693929E+01 0.73766146575E+01 0.73624421606E+01 0.73766144660E+01 0.74188691870E+01
 0.74883214361E+01 0.75832091359E+01 0.77005852777E+01 0.78361002962E+01 0.79840153986E+01
 0.81375357621E+01 0.82894558152E+01 0.82054678225E+01 0.82670397720E+01 0.83185522218E+01
 0.83596071039E+01 0.83908866102E+01 0.84136833480E+01 0.84294110551E+01 0.84392490752E+01
 0.84439808197E+01 0.84439810457E+01 0.84392497228E+01 0.84294120312E+01 0.84136844948E+01
 0.83908877141E+01 0.83596079260E+01 0.83185525496E+01 0.82670394807E+01 0.82054669237E+01
 0.81355841639E+01 0.80604415923E+01 0.79840140323E+01 0.79106105543E+01 0.78442537905E+01
 0.77882070225E+01 0.77447579353E+01 0.77152676253E+01 0.77004010395E+01 0.77004009087E+01
 0.77152673125E+01 0.77447576478E+01 0.77882070107E+01 0.78442542456E+01 0.79106115271E+01
 0.79840154043E+01 0.80604431077E+01 0.81355855090E+01 0.81275260881E+01 0.81130468599E+01
 0.80929603076E+01 0.80690839818E+01 0.80438597183E+01 0.80198435409E+01 0.79992434837E+01
 0.79836495835E+01 0.79740044893E+01 0.79707493882E+01 0.79740049319E+01 0.79836503199E+01
 0.79992442612E+01 0.80198440782E+01 0.80438597877E+01 0.80690834747E+01 0.80929592625E+01
 0.81130454489E+01 0.81275245676E+01 0.81355841639E+01 0.81375347966E+01 0.81346310682E+01
 0.81286714840E+01 0.81215266464E+01 0.81147547271E+01 0.81094094955E+01 0.81060558948E+01
 0.81049204416E+01 0.81060555816E+01 0.81094089708E+01 0.81147541698E+01 0.81215262686E+01
 0.81286714771E+01 0.81346315503E+01 0.81375357748E+01 0.81355855225E+01 0.82054678360E+01
 0.81130468617E+01 0.80157329568E+01 0.79180216954E+01 0.78248129173E+01 0.77407730934E+01
 0.76697965414E+01 0.76147096684E+01 0.75772664967E+01 0.75583702000E+01 0.75583703594E+01
 0.75772668789E+01 0.76147100255E+01 0.76697965783E+01 0.77407725930E+01 0.78248118347E+01
 0.79180201849E+01 0.80157313213E+01 0.81130454489E+01 0.82054669237E+01 0.82894555487E+01
 0.83627358918E+01 0.84242968050E+01 0.84741224523E+01 0.85127806612E+01 0.85410205192E+01
 0.85594928053E+01 0.85686278550E+01 0.85686277165E+01 0.85594923927E+01 0.85410198548E+01
 0.85127798164E+01 0.84741215716E+01 0.84242960997E+01 0.83627355936E+01 0.82894558335E+01
 0.84329933635E+01 0.82670397842E+01 0.80929603194E+01 0.79180216991E+01 0.77499673478E+01
 0.75961889167E+01 0.74630300455E+01 0.73553742905E+01 0.72765684146E+01 0.72286220407E+01
 0.72125410999E+01 0.72286222008E+01 0.72765685508E+01 0.73553741303E+01 0.74630293736E+01
 0.75961877027E+01 0.77499657941E+01 0.79180201849E+01 0.80929592625E+01 0.82670394807E+01
 0.84329938759E+01 0.85847865740E+01 0.87181032263E+01 0.88304715457E+01 0.89210250960E+01
 0.89900272182E+01 0.90383189654E+01 0.90668338284E+01 0.90762562901E+01 0.90668337956E+01
 0.90383187736E+01 0.89900266954E+01 0.89210241429E+01 0.88304702320E+01 0.87181018112E+01
 0.85847854333E+01 0.87915065300E+01 0.85626006752E+01 0.83185522696E+01 0.80690840060E+01
 0.78248128770E+01 0.75961888379E+01 0.73925717692E+01 0.72216227011E+01 0.70890704489E+01
 0.69988005357E+01 0.69531339301E+01 0.69531339937E+01 0.69988006395E+01 0.70890703829E+01
 0.72216222619E+01 0.73925708991E+01 0.75961877027E+01 0.78248118347E+01 0.80690834747E+01
 0.83185525496E+01 0.85626018080E+01 0.87915082604E+01 0.89973971994E+01 0.91748540245E+01
 0.93210540698E+01 0.94354131008E+01 0.95188827509E+01 0.95729623540E+01 0.95993596270E+01
 0.95993598258E+01 0.95729628123E+01 0.95188831204E+01 0.94354129908E+01 0.93210532402E+01
 0.91748525147E+01 0.89973953342E+01 0.92511729929E+01 0.89755164808E+01 0.86745250754E+01
 0.83596071769E+01 0.80438596734E+01 0.77407728972E+01 0.74630298019E+01 0.72216225781E+01
 0.70253775149E+01 0.68808487567E+01 0.67924568218E+01 0.67627212668E+01 0.67924568904E+01
 0.68808487973E+01 0.70253774032E+01 0.72216222619E+01 0.74630293736E+01 0.77407725930E+01
 0.80438597877E+01 0.83596079260E+01 0.86745264724E+01 0.89755182870E+01 0.92511747771E+01
 0.94928657795E+01 0.96952298387E+01 0.98542837035E+01 0.99693655027E+01 0.10044663045E+02
 0.10086347218E+02 0.10099580811E+02 0.10086347916E+02 0.10044664129E+02 0.99693664761E+01
 0.98542840875E+01 0.96952293641E+01 0.94928644876E+01 0.97725211105E+01 0.94713063739E+01
 0.91320085388E+01 0.87669663685E+01 0.83908866040E+01 0.80198433241E+01 0.76697961694E+01
 0.73553739798E+01 0.70890703804E+01 0.68808488496E+01 0.67380519068E+01 0.66654736893E+01
 0.66654736707E+01 0.67380518579E+01 0.68808487973E+01 0.70890703829E+01 0.73553741303E+01
 0.76697965783E+01 0.80198440782E+01 0.83908877141E+01 0.87669677299E+01 0.91320099280E+01
 0.94713074945E+01 0.97725216804E+01 0.10021769705E+02 0.10209957090E+02 0.10338536255E+02
 0.10417016052E+02 0.10458690414E+02 0.10475874922E+02 0.10475875313E+02 0.10458691466E+02
 0.10417017441E+02 0.10338537562E+02 0.10209957932E+02 0.10021769853E+02 0.10276496176E+02
 0.10000467854E+02 0.96531074346E+01 0.92589042705E+01 0.88398173131E+01 0.84136832065E+01
 0.79992431571E+01 0.76147093206E+01 0.72765683085E+01 0.69988007614E+01 0.67924571686E+01
 0.66654738811E+01 0.66226166774E+01 0.66654736707E+01 0.67924568904E+01 0.69988006395E+01
 0.72765685508E+01 0.76147100255E+01 0.79992442612E+01 0.84136844948E+01 0.88398184855E+01
 0.92589050389E+01 0.96531076117E+01 0.10000467404E+02 0.10276495209E+02 0.10470003417E+02
 0.10584806668E+02 0.10636987805E+02 0.10649529158E+02 0.10645617833E+02 0.10642242556E+02
 0.10645618280E+02 0.10649530012E+02 0.10636988974E+02 0.10584807997E+02 0.10470004687E+02
 0.10620309714E+02 0.10448822558E+02 0.10168391586E+02 0.97934455523E+01 0.93564586190E+01
 0.88941108483E+01 0.84294109182E+01 0.79836493777E+01 0.75772664134E+01 0.72286222744E+01
 0.69531344213E+01 0.67627217241E+01 0.66654738811E+01 0.66654736893E+01 0.67627212668E+01
 0.69531339937E+01 0.72286222008E+01 0.75772668789E+01 0.79836503199E+01 0.84294120312E+01
 0.88941116996E+01 0.93564588276E+01 0.97934449485E+01 0.10168390281E+02 0.10448820897E+02
 0.10620308126E+02 0.10688362538E+02 0.10676128693E+02 0.10618322026E+02 0.10552686348E+02
 0.10510879149E+02 0.10510879096E+02 0.10552686285E+02 0.10618322185E+02 0.10676129310E+02
 0.10688363707E+02 0.10655096802E+02 0.10667150836E+02 0.10543530893E+02 0.10278764047E+02
 0.98926181761E+01 0.94264579950E+01 0.89313721166E+01 0.84392491424E+01 0.79740045113E+01
 0.75583703271E+01 0.72125414408E+01 0.69531344213E+01 0.67924571686E+01 0.67380519068E+01
 0.67924568218E+01 0.69531339301E+01 0.72125410999E+01 0.75583703594E+01 0.79740049319E+01
 0.84392497228E+01 0.89313724718E+01 0.94264577584E+01 0.98926171799E+01 0.10278762423E+02
 0.10543529042E+02 0.10667149271E+02 0.10655095936E+02 0.10536870295E+02 0.10359884615E+02
 0.10179455859E+02 0.10046911273E+02 0.99983942322E+01 0.10046910701E+02 0.10179455023E+02
 0.10359883995E+02 0.10536870323E+02 0.10253474199E+02 0.10515574061E+02 0.10634936802E+02
 0.10577977564E+02 0.10342236282E+02 0.99557513745E+01 0.94711218935E+01 0.89530560492E+01
 0.84439810336E+01 0.79707493892E+01 0.75583703271E+01 0.72286222744E+01 0.69988007614E+01
 0.68808488496E+01 0.68808487567E+01 0.69988005357E+01 0.72286220407E+01 0.75583702000E+01
 0.79707493882E+01 0.84439810457E+01 0.89530558658E+01 0.94711213119E+01 0.99557503171E+01
 0.10342234874E+02 0.10577976124E+02 0.10634935738E+02 0.10515573711E+02 0.10253474683E+02
 0.99080353944E+01 0.95537168713E+01 0.92656791140E+01 0.91047020910E+01 0.91047016647E+01
 0.92656779958E+01 0.95537154810E+01 0.99080342482E+01 0.93323899176E+01 0.98868405367E+01
 0.10318883506E+02 0.10560001990E+02 0.10576537819E+02 0.10373188598E+02 0.99897951701E+01
 0.94926768708E+01 0.89601660852E+01 0.84439810336E+01 0.79740045113E+01 0.75772664134E+01
 0.72765683085E+01 0.70890703804E+01 0.70253775149E+01 0.70890704489E+01 0.72765684146E+01
 0.75772664967E+01 0.79740044893E+01 0.84439808197E+01 0.89601656174E+01 0.94926761459E+01
 0.99897942688E+01 0.10373187688E+02 0.10576537125E+02 0.10560001734E+02 0.10318883834E+02
 0.98868414561E+01 0.93323912729E+01 0.87484712008E+01 0.82363642868E+01 0.78869082889E+01
 0.77629436841E+01 0.78869075551E+01 0.82363630101E+01 0.87484697048E+01 0.78732739211E+01
 0.87279100744E+01 0.95135798542E+01 0.10122353752E+02 0.10481768010E+02 0.10563654027E+02
 0.10384781686E+02 0.10000422718E+02 0.94926768708E+01 0.89530560492E+01 0.84392491424E+01
 0.79836493777E+01 0.76147093206E+01 0.73553739798E+01 0.72216225781E+01 0.72216227011E+01
 0.73553742905E+01 0.76147096684E+01 0.79836495835E+01 0.84392490752E+01 0.89530556842E+01
 0.94926763065E+01 0.10000422145E+02 0.10384781325E+02 0.10563654052E+02 0.10481768500E+02
 0.10122354667E+02 0.95135810587E+01 0.87279113808E+01 0.78732751392E+01 0.70764952778E+01
 0.64615236320E+01 0.61268233491E+01 0.61268231357E+01 0.64615230097E+01 0.70764943044E+01
 0.59364316188E+01 0.70574440831E+01 0.81984485587E+01 0.92112048745E+01 0.99792273748E+01
 0.10433273092E+02 0.10557184348E+02 0.10384781686E+02 0.99897951701E+01 0.94711218935E+01
 0.89313721166E+01 0.84294109182E+01 0.79992431571E+01 0.76697961694E+01 0.74630298019E+01
 0.73925717692E+01 0.74630300455E+01 0.76697965414E+01 0.79992434837E+01 0.84294110551E+01
 0.89313720241E+01 0.94711216655E+01 0.99897949997E+01 0.10384781785E+02 0.10557184852E+02
 0.10433274001E+02 0.99792285494E+01 0.92112060884E+01 0.81984495896E+01 0.70574447938E+01
 0.59364319960E+01 0.49919892256E+01 0.43620096079E+01 0.41408466067E+01 0.43620095860E+01
 0.49919890910E+01 0.36651861002E+01 0.49755114095E+01 0.64277259052E+01 0.78373558705E+01
 0.90424897370E+01 0.99270178215E+01 0.10433273092E+02 0.10563654027E+02 0.10373188598E+02
 0.99557513745E+01 0.94264579950E+01 0.88941108483E+01 0.84136832065E+01 0.80198433241E+01
 0.77407728972E+01 0.75961888379E+01 0.75961889167E+01 0.77407730934E+01 0.80198435409E+01
 0.84136833480E+01 0.88941108818E+01 0.94264579827E+01 0.99557514552E+01 0.10373188924E+02
 0.10563654683E+02 0.10433274038E+02 0.99270188873E+01 0.90424906751E+01 0.78373564536E+01
 0.64277260200E+01 0.49755111083E+01 0.36651855840E+01 0.26737063994E+01 0.21398911188E+01
 0.21398913021E+01 0.26737068618E+01 0.12750974646E+01 0.26607661375E+01 0.43343316581E+01
 0.60849692842E+01 0.77092918496E+01 0.90424897370E+01 0.99792273748E+01 0.10481768010E+02
 0.10576537819E+02 0.10342236282E+02 0.98926181761E+01 0.93564586190E+01 0.88398173131E+01
 0.83908866040E+01 0.80438596734E+01 0.78248128770E+01 0.77499673478E+01 0.78248129173E+01
 0.80438597183E+01 0.83908866102E+01 0.88398172680E+01 0.93564585670E+01 0.98926182117E+01
 0.10342236508E+02 0.10576538289E+02 0.10481768675E+02 0.99792280759E+01 0.90424902476E+01
 0.77092919560E+01 0.60849688773E+01 0.43343307948E+01 0.26607650412E+01 0.12750964596E+01
 0.36046734877E+00 0.40976642836E-01 0.36046794766E+00 -.97337241945E+00 0.35160850395E+00
 0.21198313096E+01 0.41091989179E+01 0.60849692842E+01 0.78373558705E+01 0.92112048745E+01
 0.10122353752E+02 0.10560001990E+02 0.10577977564E+02 0.10278764047E+02 0.97934455523E+01
 0.92589042705E+01 0.87669663685E+01 0.83596071769E+01 0.80690840060E+01 0.79180216991E+01
 0.79180216954E+01 0.80690839818E+01 0.83596071039E+01 0.87669662299E+01 0.92589040859E+01
 0.97934453826E+01 0.10278763971E+02 0.10577977637E+02 0.10560002197E+02 0.10122353986E+02
 0.92112049598E+01 0.78373556220E+01 0.60849685853E+01 0.41091977868E+01 0.21198299215E+01
 0.35160715409E+00 -.97337340216E+00 -.16827827546E+01 -.16827823949E+01 -.28146862046E+01
 -.16876697624E+01 0.28968577124E-01 0.21198313096E+01 0.43343316581E+01 0.64277259052E+01
 0.81984485587E+01 0.95135798542E+01 0.10318883506E+02 0.10634936802E+02 0.10543530893E+02
 0.10168391586E+02 0.96531074346E+01 0.91320085388E+01 0.86745250754E+01 0.83185522696E+01
 0.80929603194E+01 0.80157329568E+01 0.80929603076E+01 0.83185522218E+01 0.86745249606E+01
 0.91320083429E+01 0.96531071767E+01 0.10168391314E+02 0.10543530660E+02 0.10634936628E+02
 0.10318883355E+02 0.95135796310E+01 0.81984481389E+01 0.64277251885E+01 0.43343306233E+01
 0.21198300484E+01 0.28967287086E-01 -.16876708267E+01 -.28146868074E+01 -.32073266534E+01
 -.40215182743E+01 -.32090646559E+01 -.16876697624E+01 0.35160850395E+00 0.26607661375E+01
 0.49755114095E+01 0.70574440831E+01 0.87279100744E+01 0.98868405367E+01 0.10515574061E+02
 0.10667150836E+02 0.10448822558E+02 0.10000467854E+02 0.94713063739E+01 0.89755164808E+01
 0.85626006752E+01 0.82670397842E+01 0.81130468617E+01 0.81130468599E+01 0.82670397720E+01
 0.85626006361E+01 0.89755163982E+01 0.94713062406E+01 0.10000467676E+02 0.10448822348E+02
 0.10667150605E+02 0.10515573803E+02 0.98868402249E+01 0.87279096694E+01 0.70574435497E+01
 0.49755107395E+01 0.26607653663E+01 0.35160771441E+00 -.16876704549E+01 -.32090651319E+01
 -.40215184441E+01 -.40522639034E+01 -.36406819006E+01 -.24585822846E+01 -.65588491101E+00
 0.15437792159E+01 0.38794766078E+01 0.60955699983E+01 0.79807974163E+01 0.93950500766E+01
 0.10279925862E+02 0.10654659471E+02 0.10601955812E+02 0.10248097218E+02 0.97403319429E+01
 0.92189155382E+01 0.87598489399E+01 0.84020721879E+01 0.81751158902E+01 0.80973854994E+01
 0.81751158730E+01 0.84020721703E+01 0.87598489449E+01 0.92189155793E+01 0.97403320137E+01
 0.10248097289E+02 0.10601955842E+02 0.10654659422E+02 0.10279925721E+02 0.93950498621E+01
 0.79807971750E+01 0.60955697878E+01 0.38794764747E+01 0.15437791775E+01 -.65588487328E+00
 -.24585822156E+01 -.36406818501E+01 -.36406818501E+01 -.36406820652E+01 -.28432885739E+01
 -.13507267540E+01 0.64846103645E+00 0.29098116897E+01 0.51731858298E+01 0.72043718160E+01
 0.88283647705E+01 0.99477921002E+01 0.10545554713E+02 0.10675141018E+02 0.10443278973E+02
 0.99885626413E+01 0.94583472477E+01 0.89632877175E+01 0.85514043569E+01 0.82567679103E+01
 0.81033085459E+01 0.81033085293E+01 0.82567678836E+01 0.85514043751E+01 0.89632878342E+01
 0.94583474806E+01 0.99885629555E+01 0.10443279292E+02 0.10675141259E+02 0.10545554834E+02
 0.99477921285E+01 0.88283648005E+01 0.72043719732E+01 0.51731862138E+01 0.29098123217E+01
 0.64846183329E+00 -.13507259626E+01 -.28432879901E+01 -.24585822158E+01 -.28446702942E+01
 -.24585828705E+01 -.13507271048E+01 0.33562709239E+00 0.23874959566E+01 0.45574590734E+01
 0.66043605067E+01 0.83302043140E+01 0.96051751782E+01 0.10377322270E+02 0.10668484400E+02
 0.10560646347E+02 0.10176763267E+02 0.96589131853E+01 0.91386639242E+01 0.86825854108E+01
 0.83280018522E+01 0.81033974338E+01 0.80265246547E+01 0.81033974151E+01 0.83280018593E+01
 0.86825855042E+01 0.91386641404E+01 0.96589135086E+01 0.10176763630E+02 0.10560646660E+02
 0.10668484606E+02 0.10377322385E+02 0.96051753056E+01 0.83302046103E+01 0.66043611160E+01
 0.45574600533E+01 0.23874972293E+01 0.33562844538E+00 -.13507259627E+01 -.65588487357E+00
 -.13546265542E+01 -.13546269168E+01 -.65588586922E+00 0.64846045032E+00 0.23874957767E+01
 0.43412236331E+01 0.62775840405E+01 0.79898269390E+01 0.93258491428E+01 0.10204155224E+02
 0.10615862264E+02 0.10615720160E+02 0.10306072817E+02 0.98169299524E+01 0.92831748836E+01
 0.87931735375E+01 0.83878372165E+01 0.80989327964E+01 0.79487592191E+01 0.79487592113E+01
 0.80989327891E+01 0.83878372466E+01 0.87931736342E+01 0.92831750426E+01 0.98169301280E+01
 0.10306072942E+02 0.10615720184E+02 0.10615862199E+02 0.10204155161E+02 0.93258492393E+01
 0.79898273587E+01 0.62775848818E+01 0.43412248678E+01 0.23874972294E+01 0.64846183328E+00
 0.15437791775E+01 0.64136113508E+00 0.32600982873E+00 0.64136058626E+00 0.15437782331E+01
 0.29098112359E+01 0.45574590950E+01 0.62775842502E+01 0.78690135326E+01 0.91695210444E+01
 0.10076409709E+02 0.10554217356E+02 0.10630882650E+02 0.10385604737E+02 0.99316003608E+01
 0.93962324756E+01 0.88823088148E+01 0.84362659107E+01 0.80917156244E+01 0.78743153747E+01
 0.78000445496E+01 0.78743153275E+01 0.80917155553E+01 0.84362658508E+01 0.88823087765E+01
 0.93962324365E+01 0.99316002689E+01 0.10385604538E+02 0.10630882329E+02 0.10554216964E+02
 0.10076409371E+02 0.91695209206E+01 0.78690137610E+01 0.62775848818E+01 0.45574600535E+01
 0.29098123220E+01 0.38794764750E+01 0.28994020491E+01 0.23713719089E+01 0.23713717837E+01
 0.28994017285E+01 0.38794761018E+01 0.51731859612E+01 0.66043611171E+01 0.79898276577E+01
 0.91695214604E+01 0.10029570497E+02 0.10514578331E+02 0.10628789130E+02 0.10428254332E+02
 0.10006857336E+02 0.94787736527E+01 0.89502432219E+01 0.84738461852E+01 0.80836011488E+01
 0.78071898129E+01 0.76640100130E+01 0.76640099434E+01 0.78071896303E+01 0.80836009168E+01
 0.84738459697E+01 0.89502430538E+01 0.94787735082E+01 0.10006857145E+02 0.10428254016E+02
 0.10628788647E+02 0.10514577712E+02 0.10029569845E+02 0.91695209206E+01 0.79898273585E+01
 0.66043611159E+01 0.51731862140E+01 0.60955697879E+01 0.51599024787E+01 0.45351566158E+01
 0.43157274558E+01 0.45351567826E+01 0.51599028375E+01 0.60955703663E+01 0.72043727678E+01
 0.83302055621E+01 0.93258502329E+01 0.10076410264E+02 0.10514578379E+02 0.10626062829E+02
 0.10446015602E+02 0.10048631319E+02 0.95323203412E+01 0.89977965860E+01 0.85013072439E+01
 0.80761211229E+01 0.77506067709E+01 0.75463393387E+01 0.74767358483E+01 0.75463391341E+01
 0.77506064408E+01 0.80761207890E+01 0.85013070143E+01 0.89977965047E+01 0.95323203658E+01
 0.10048631335E+02 0.10446015471E+02 0.10626062444E+02 0.10514577712E+02 0.10076409371E+02
 0.93258492392E+01 0.83302046101E+01 0.72043719730E+01 0.79807971749E+01 0.71890166922E+01
 0.65771128210E+01 0.62438408595E+01 0.62438411457E+01 0.65771136348E+01 0.71890179069E+01
 0.79807986035E+01 0.88283662284E+01 0.96051765304E+01 0.10204156032E+02 0.10554217410E+02
 0.10628788692E+02 0.10446015222E+02 0.10061914798E+02 0.95584874563E+01 0.90258797332E+01
 0.85192769808E+01 0.80702989845E+01 0.77068091797E+01 0.74513179275E+01 0.73195452999E+01
 0.73195452093E+01 0.74513176937E+01 0.77068089024E+01 0.80702987864E+01 0.85192769598E+01
 0.90258799223E+01 0.95584878046E+01 0.10061915180E+02 0.10446015471E+02 0.10628788647E+02
 0.10554216964E+02 0.10204155162E+02 0.96051753055E+01 0.88283648003E+01 0.93950498621E+01
 0.88118356592E+01 0.82996919523E+01 0.79499309206E+01 0.78258110889E+01 0.79499317349E+01
 0.82996933700E+01 0.88118373262E+01 0.93950513906E+01 0.99477932092E+01 0.10377322865E+02
 0.10615862101E+02 0.10630881816E+02 0.10428253312E+02 0.10048630647E+02 0.95584872671E+01
 0.90351603364E+01 0.85281663744E+01 0.80666721728E+01 0.76771152822E+01 0.73818281441E+01
 0.71976736641E+01 0.71351093018E+01 0.71976736647E+01 0.73818281466E+01 0.76771152994E+01
 0.80666722396E+01 0.85281665487E+01 0.90351606788E+01 0.95584878046E+01 0.10048631335E+02
 0.10428254016E+02 0.10630882329E+02 0.10615862199E+02 0.10377322385E+02 0.99477921286E+01
 0.10279925721E+02 0.99308298682E+01 0.95730009038E+01 0.92821394429E+01 0.91195802464E+01
 0.91195806639E+01 0.92821405440E+01 0.95730022933E+01 0.99308310599E+01 0.10279926320E+02