   2   2   0   0
  0.1315897E+02  0.2650000E-09  0.2650000E-09  0.4327424E-09  0.5000000E-15
  1.000000000000000E-004
  CAR 
 Si beta-tin                             
     24.32667760     -4.98297849  301     11.49187364      1.00000000
     -4.983  0.0000E+00  0.0000E+00
     -4.885  0.0000E+00  0.0000E+00
     -4.788  0.0000E+00  0.0000E+00
     -4.690  0.0000E+00  0.0000E+00
     -4.592  0.0000E+00  0.0000E+00
     -4.494  0.0000E+00  0.0000E+00
     -4.397  0.0000E+00  0.0000E+00
     -4.299  0.0000E+00  0.0000E+00
     -4.201  0.1305E-16  0.1275E-17
     -4.104  0.2833E-12  0.2768E-13
     -4.006  0.9577E-09  0.9359E-10
     -3.908  0.5107E-06  0.4998E-07
     -3.811  0.4453E-04  0.4401E-05
     -3.713  0.6738E-03  0.7023E-04
     -3.615  0.1906E-02  0.2564E-03
     -3.517  0.1055E-02  0.3595E-03
     -3.420  0.1915E-03  0.3782E-03
     -3.322  0.1060E-02  0.4818E-03
     -3.224  0.3213E-02  0.7957E-03
     -3.127  0.2637E-02  0.1053E-02
     -3.029  0.5745E-03  0.1109E-02
     -2.931  0.2976E-03  0.1138E-02
     -2.834  0.1516E-02  0.1287E-02
     -2.736  0.1650E-02  0.1448E-02
     -2.638  0.7665E-03  0.1523E-02
     -2.541  0.2783E-02  0.1795E-02
     -2.443  0.3607E-02  0.2147E-02
     -2.345  0.1965E-02  0.2339E-02
     -2.247  0.2340E-02  0.2568E-02
     -2.150  0.3480E-02  0.2908E-02
     -2.052  0.5525E-02  0.3447E-02
     -1.954  0.3924E-02  0.3831E-02
     -1.857  0.2098E-02  0.4036E-02
     -1.759  0.1293E-02  0.4162E-02
     -1.661  0.1956E-02  0.4353E-02
     -1.564  0.9729E-03  0.4448E-02
     -1.466  0.1580E-02  0.4603E-02
     -1.368  0.3908E-02  0.4984E-02
     -1.270  0.2968E-02  0.5274E-02
     -1.173  0.3862E-02  0.5652E-02
     -1.075  0.3325E-02  0.5976E-02
     -0.977  0.4918E-02  0.6457E-02
     -0.880  0.5683E-02  0.7012E-02
     -0.782  0.3005E-02  0.7306E-02
     -0.684  0.1540E-02  0.7456E-02
     -0.587  0.1938E-02  0.7645E-02
     -0.489  0.1231E-02  0.7766E-02
     -0.391  0.8657E-03  0.7850E-02
     -0.293  0.3334E-02  0.8176E-02
     -0.196  0.3426E-02  0.8511E-02
     -0.098  0.3413E-02  0.8844E-02
     -0.000  0.5129E-02  0.9345E-02
      0.097  0.8772E-02  0.1020E-01
      0.195  0.9908E-02  0.1117E-01
      0.293  0.3010E-02  0.1146E-01
      0.390  0.8230E-03  0.1154E-01
      0.488  0.4129E-02  0.1195E-01
      0.586  0.5253E-02  0.1246E-01
      0.684  0.1854E-02  0.1264E-01
      0.781  0.3067E-02  0.1294E-01
      0.879  0.3459E-02  0.1328E-01
      0.977  0.2731E-02  0.1355E-01
      1.074  0.4963E-02  0.1403E-01
      1.172  0.7146E-02  0.1473E-01
      1.270  0.8947E-02  0.1560E-01
      1.367  0.6185E-02  0.1621E-01
      1.465  0.3890E-02  0.1659E-01
      1.563  0.1832E-02  0.1677E-01
      1.661  0.1981E-02  0.1696E-01
      1.758  0.1469E-02  0.1710E-01
      1.856  0.5260E-02  0.1762E-01
      1.954  0.7245E-02  0.1833E-01
      2.051  0.2722E-02  0.1859E-01
      2.149  0.2520E-02  0.1884E-01
      2.247  0.4921E-02  0.1932E-01
      2.344  0.9125E-02  0.2021E-01
      2.442  0.6085E-02  0.2080E-01
      2.540  0.2618E-02  0.2106E-01
      2.638  0.2383E-02  0.2129E-01
      2.735  0.3919E-02  0.2168E-01
      2.833  0.2297E-02  0.2190E-01
      2.931  0.5771E-02  0.2246E-01
      3.028  0.1060E-01  0.2350E-01
      3.126  0.6789E-02  0.2416E-01
      3.224  0.5193E-02  0.2467E-01
      3.321  0.4969E-02  0.2516E-01
      3.419  0.7560E-02  0.2589E-01
      3.517  0.5901E-02  0.2647E-01
      3.615  0.2524E-02  0.2672E-01
      3.712  0.2856E-02  0.2700E-01
      3.810  0.3046E-02  0.2729E-01
      3.908  0.1489E-02  0.2744E-01
      4.005  0.4611E-02  0.2789E-01
      4.103  0.1132E-01  0.2900E-01
      4.201  0.1002E-01  0.2997E-01
      4.298  0.7585E-02  0.3072E-01
      4.396  0.1023E-01  0.3172E-01
      4.494  0.1117E-01  0.3281E-01
      4.592  0.6550E-02  0.3345E-01
      4.689  0.2383E-02  0.3368E-01
      4.787  0.3790E-03  0.3372E-01
      4.885  0.1165E-02  0.3383E-01
      4.982  0.2590E-02  0.3408E-01
      5.080  0.5279E-02  0.3460E-01
      5.178  0.9563E-02  0.3553E-01
      5.275  0.6577E-02  0.3618E-01
      5.373  0.2432E-02  0.3641E-01
      5.471  0.8088E-02  0.3720E-01
      5.568  0.1308E-01  0.3848E-01
      5.666  0.8395E-02  0.3930E-01
      5.764  0.5244E-02  0.3981E-01
      5.862  0.3038E-02  0.4011E-01
      5.959  0.2045E-02  0.4031E-01
      6.057  0.1100E-02  0.4042E-01
      6.155  0.4355E-02  0.4084E-01
      6.252  0.9016E-02  0.4172E-01
      6.350  0.7387E-02  0.4245E-01
      6.448  0.5901E-02  0.4302E-01
      6.545  0.7913E-02  0.4380E-01
      6.643  0.8769E-02  0.4465E-01
      6.741  0.7127E-02  0.4535E-01
      6.839  0.6878E-02  0.4602E-01
      6.936  0.4269E-02  0.4644E-01
      7.034  0.3848E-02  0.4681E-01
      7.132  0.5634E-02  0.4736E-01
      7.229  0.7699E-02  0.4812E-01
      7.327  0.8498E-02  0.4895E-01
      7.425  0.7193E-02  0.4965E-01
      7.522  0.3610E-02  0.5000E-01
      7.620  0.3379E-02  0.5033E-01
      7.718  0.7220E-02  0.5104E-01
      7.816  0.1029E-01  0.5204E-01
      7.913  0.1349E-01  0.5336E-01
      8.011  0.1068E-01  0.5440E-01
      8.109  0.3709E-02  0.5477E-01
      8.206  0.2522E-02  0.5501E-01
      8.304  0.8016E-02  0.5580E-01
      8.402  0.9804E-02  0.5675E-01
      8.499  0.7235E-02  0.5746E-01
      8.597  0.3376E-02  0.5779E-01
      8.695  0.4443E-02  0.5822E-01
      8.793  0.1020E-01  0.5922E-01
      8.890  0.1115E-01  0.6031E-01
      8.988  0.4982E-02  0.6080E-01
      9.086  0.4822E-02  0.6127E-01
      9.183  0.7319E-02  0.6198E-01
      9.281  0.7235E-02  0.6269E-01
      9.379  0.9439E-02  0.6361E-01
      9.476  0.1240E-01  0.6482E-01
      9.574  0.1218E-01  0.6601E-01
      9.672  0.8875E-02  0.6688E-01
      9.770  0.6616E-02  0.6753E-01
      9.867  0.8426E-02  0.6835E-01
      9.965  0.1119E-01  0.6944E-01
     10.063  0.8867E-02  0.7031E-01
     10.160  0.6619E-02  0.7096E-01
     10.258  0.5522E-02  0.7149E-01
     10.356  0.2886E-02  0.7178E-01
     10.453  0.1630E-02  0.7194E-01
     10.551  0.5097E-02  0.7243E-01
     10.649  0.1234E-01  0.7364E-01
     10.747  0.1237E-01  0.7485E-01
     10.844  0.7734E-02  0.7560E-01
     10.942  0.8515E-02  0.7644E-01
     11.040  0.5931E-02  0.7702E-01
     11.137  0.5484E-02  0.7755E-01
     11.235  0.9225E-02  0.7845E-01
     11.333  0.6126E-02  0.7905E-01
     11.430  0.4962E-02  0.7954E-01
     11.528  0.7754E-02  0.8029E-01
     11.626  0.6217E-02  0.8090E-01
     11.724  0.5407E-02  0.8143E-01
     11.821  0.9960E-02  0.8240E-01
     11.919  0.1040E-01  0.8342E-01
     12.017  0.4942E-02  0.8390E-01
     12.114  0.8033E-02  0.8469E-01
     12.212  0.1056E-01  0.8572E-01
     12.310  0.6813E-02  0.8638E-01
     12.407  0.2687E-02  0.8665E-01
     12.505  0.2744E-02  0.8691E-01
     12.603  0.8440E-02  0.8774E-01
     12.701  0.1133E-01  0.8884E-01
     12.798  0.1462E-01  0.9027E-01
     12.896  0.1478E-01  0.9172E-01
     12.994  0.1248E-01  0.9294E-01
     13.091  0.9490E-02  0.9386E-01
     13.189  0.8272E-02  0.9467E-01
     13.287  0.5446E-02  0.9520E-01
     13.384  0.6274E-02  0.9582E-01
     13.482  0.7441E-02  0.9654E-01
     13.580  0.6952E-02  0.9722E-01
     13.678  0.1394E-01  0.9858E-01
     13.775  0.1545E-01  0.1001E+00
     13.873  0.1482E-01  0.1015E+00
     13.971  0.8680E-02  0.1024E+00
     14.068  0.7824E-02  0.1032E+00
     14.166  0.9463E-02  0.1041E+00
     14.264  0.3719E-02  0.1044E+00
     14.361  0.1718E-02  0.1046E+00
     14.459  0.1736E-02  0.1048E+00
     14.557  0.1674E-02  0.1049E+00
     14.654  0.7870E-02  0.1057E+00
     14.752  0.1352E-01  0.1070E+00
     14.850  0.1665E-01  0.1087E+00
     14.948  0.1875E-01  0.1105E+00
     15.045  0.1482E-01  0.1119E+00
     15.143  0.1102E-01  0.1130E+00
     15.241  0.7447E-02  0.1137E+00
     15.338  0.7148E-02  0.1144E+00
     15.436  0.7684E-02  0.1152E+00
     15.534  0.5980E-02  0.1158E+00
     15.631  0.1063E-01  0.1168E+00
     15.729  0.1172E-01  0.1180E+00
     15.827  0.6715E-02  0.1186E+00
     15.925  0.7119E-02  0.1193E+00
     16.022  0.8443E-02  0.1201E+00
     16.120  0.7591E-02  0.1209E+00
     16.218  0.9507E-02  0.1218E+00
     16.315  0.9249E-02  0.1227E+00
     16.413  0.8221E-02  0.1235E+00
     16.511  0.7809E-02  0.1243E+00
     16.608  0.5548E-02  0.1248E+00
     16.706  0.6236E-02  0.1254E+00
     16.804  0.8838E-02  0.1263E+00
     16.902  0.1012E-01  0.1273E+00
     16.999  0.1263E-01  0.1285E+00
     17.097  0.1615E-01  0.1301E+00
     17.195  0.1457E-01  0.1315E+00
     17.292  0.8254E-02  0.1323E+00
     17.390  0.3249E-02  0.1326E+00
     17.488  0.4054E-02  0.1330E+00
     17.585  0.8767E-02  0.1339E+00
     17.683  0.1295E-01  0.1352E+00
     17.781  0.8188E-02  0.1360E+00
     17.879  0.6178E-02  0.1366E+00
     17.976  0.9705E-02  0.1375E+00
     18.074  0.9371E-02  0.1384E+00
     18.172  0.4043E-02  0.1388E+00
     18.269  0.9390E-03  0.1389E+00
     18.367  0.3175E-02  0.1392E+00
     18.465  0.8239E-02  0.1400E+00
     18.562  0.9596E-02  0.1410E+00
     18.660  0.1750E-01  0.1427E+00
     18.758  0.2349E-01  0.1450E+00
     18.856  0.1661E-01  0.1466E+00
     18.953  0.4776E-02  0.1471E+00
     19.051  0.3276E-02  0.1474E+00
     19.149  0.5695E-02  0.1479E+00
     19.246  0.4884E-02  0.1484E+00
     19.344  0.3478E-02  0.1487E+00
     19.442  0.1403E-02  0.1489E+00
     19.539  0.1689E-02  0.1491E+00
     19.637  0.6815E-02  0.1497E+00
     19.735  0.1308E-01  0.1510E+00
     19.833  0.1263E-01  0.1522E+00
     19.930  0.8181E-02  0.1530E+00
     20.028  0.6572E-02  0.1537E+00
     20.126  0.8212E-02  0.1545E+00
     20.223  0.6288E-02  0.1551E+00
     20.321  0.6095E-02  0.1557E+00
     20.419  0.2311E-02  0.1559E+00
     20.516  0.1789E-03  0.1559E+00
     20.614  0.1583E-03  0.1559E+00
     20.712  0.1233E-02  0.1561E+00
     20.810  0.2238E-02  0.1563E+00
     20.907  0.3811E-02  0.1567E+00
     21.005  0.5595E-02  0.1572E+00
     21.103  0.1996E-02  0.1574E+00
     21.200  0.4690E-03  0.1574E+00
     21.298  0.2047E-02  0.1576E+00
     21.396  0.3358E-02  0.1580E+00
     21.493  0.1635E-02  0.1581E+00
     21.591  0.3255E-03  0.1582E+00
     21.689  0.1593E-02  0.1583E+00
     21.787  0.3887E-02  0.1587E+00
     21.884  0.2446E-02  0.1589E+00
     21.982  0.2044E-02  0.1591E+00
     22.080  0.1146E-02  0.1592E+00
     22.177  0.1330E-03  0.1593E+00
     22.275  0.2751E-05  0.1593E+00
     22.373  0.3144E-07  0.1593E+00
     22.470  0.5041E-05  0.1593E+00
     22.568  0.1938E-03  0.1593E+00
     22.666  0.1337E-02  0.1594E+00
     22.763  0.1776E-02  0.1596E+00
     22.861  0.5694E-03  0.1596E+00
     22.959  0.1075E-02  0.1597E+00
     23.057  0.1906E-02  0.1599E+00
     23.154  0.6738E-03  0.1600E+00
     23.252  0.4453E-04  0.1600E+00
     23.350  0.5107E-06  0.1600E+00
     23.447  0.9577E-09  0.1600E+00
     23.545  0.2833E-12  0.1600E+00
     23.643  0.1305E-16  0.1600E+00
     23.740  0.0000E+00  0.1600E+00
     23.838  0.0000E+00  0.1600E+00
     23.936  0.0000E+00  0.1600E+00
     24.034  0.0000E+00  0.1600E+00
     24.131  0.0000E+00  0.1600E+00
     24.229  0.0000E+00  0.1600E+00
     24.327  0.0000E+00  0.1600E+00
