    2    2  100    1
  0.1315897E+02  0.2650000E-09  0.2650000E-09  0.4327424E-09  0.5000000E-15
  1.000000000000000E-004
  CAR 
 Si beta-tin                             
      8     36      8
 
  0.8333333E-01  0.8333333E-01  0.8333333E-01  0.1851852E-01
    1       -3.275259   1.000000
    2        3.315612   1.000000
    3        5.890375   1.000000
    4       15.716181   0.000000
    5       16.191238   0.000000
    6       21.378136   0.000000
    7       21.736291   0.000000
    8       21.952211   0.000000
 
  0.2500000E+00  0.8333333E-01  0.8333333E-01  0.3703704E-01
    1       -1.409660   1.000000
    2        5.113875   1.000000
    3        7.638691   1.000000
    4        9.525958   1.000000
    5       13.622612   0.000000
    6       15.717398   0.000000
    7       17.942330   0.000000
    8       19.820219   0.000000
 
  0.4166667E+00  0.8333333E-01  0.8333333E-01  0.3703704E-01
    1        1.875172   1.000000
    2        4.143188   1.000000
    3        8.287858   1.000000
    4       10.172835   1.000000
    5       11.197859   0.999984
    6       12.603214   0.000000
    7       13.129630   0.000000
    8       18.776922   0.000000
 
 -0.4166667E+00  0.8333333E-01  0.8333333E-01  0.3703704E-01
    1        0.067188   1.000000
    2        6.369805   1.000000
    3        6.810245   1.000000
    4        9.072638   1.000000
    5       12.788287   0.000000
    6       13.187192   0.000000
    7       15.393423   0.000000
    8       19.117570   0.000000
 
 -0.2500000E+00  0.8333333E-01  0.8333333E-01  0.3703704E-01
    1       -2.526650   1.000000
    2        4.038848   1.000000
    3        6.599916   1.000000
    4       12.607685   0.000000
    5       14.658249   0.000000
    6       18.627522   0.000000
    7       20.270512   0.000000
    8       20.951877   0.000000
 
 -0.8333333E-01  0.8333333E-01  0.8333333E-01  0.1851852E-01
    1       -3.650721   1.000000
    2        2.952431   1.000000
    3        5.533371   1.000000
    4       17.504226   0.000000
    5       18.658566   0.000000
    6       20.736248   0.000000
    7       22.682763   0.000000
    8       22.994421   0.000000
 
  0.2500000E+00  0.2500000E+00  0.8333333E-01  0.1851852E-01
    1        1.167196   1.000000
    2        7.190292   1.000000
    3        7.823698   1.000000
    4        8.031679   1.000000
    5       10.118541   1.000000
    6       13.595321   0.000000
    7       14.370363   0.000000
    8       16.237175   0.000000
 
  0.4166667E+00  0.2500000E+00  0.8333333E-01  0.3703704E-01
    1        2.963657   1.000000
    2        5.182549   1.000000
    3        7.400616   1.000000
    4        9.361522   1.000000
    5       11.199179   0.999983
    6       12.097596   0.000000
    7       13.399459   0.000000
    8       14.715439   0.000000
 
 -0.4166667E+00  0.2500000E+00  0.8333333E-01  0.3703704E-01
    1       -0.299802   1.000000
    2        6.169972   1.000000
    3        8.282364   1.000000
    4        8.853555   1.000000
    5       10.606502   1.000000
    6       14.652592   0.000000
    7       16.377553   0.000000
    8       17.590100   0.000000
 
 -0.2500000E+00  0.2500000E+00  0.8333333E-01  0.1851852E-01
    1       -2.153566   1.000000
    2        4.398596   1.000000
    3        6.950679   1.000000
    4       10.908355   1.000000
    5       16.107777   0.000000
    6       17.033178   0.000000
    7       18.435661   0.000000
    8       19.311756   0.000000
 
  0.4166667E+00  0.4166667E+00  0.8333333E-01  0.1851852E-01
    1        3.065226   1.000000
    2        3.680089   1.000000
    3        9.313912   1.000000
    4        9.925137   1.000000
    5        9.973998   1.000000
    6       12.228559   0.000000
    7       12.531319   0.000000
    8       16.351476   0.000000
 
 -0.4166667E+00  0.4166667E+00  0.8333333E-01  0.1851852E-01
    1        0.797156   1.000000
    2        5.193061   1.000000
    3        7.273041   1.000000
    4        9.694534   1.000000
    5       11.716851   0.000732
    6       14.062343   0.000000
    7       14.804933   0.000000
    8       17.101756   0.000000
 
  0.8333333E-01  0.8333333E-01  0.2500000E+00  0.1851852E-01
    1       -2.828947   1.000000
    2        1.143077   1.000000
    3        8.846151   1.000000
    4       16.111617   0.000000
    5       16.523457   0.000000
    6       19.584425   0.000000
    7       19.713495   0.000000
    8       20.256261   0.000000
 
  0.2500000E+00  0.8333333E-01  0.2500000E+00  0.3703704E-01
    1       -0.967333   1.000000
    2        2.967056   1.000000
    3        9.829799   1.000000
    4       10.616295   1.000000
    5       13.654889   0.000000
    6       14.119170   0.000000
    7       17.673627   0.000000
    8       20.053658   0.000000
 
  0.4166667E+00  0.8333333E-01  0.2500000E+00  0.3703704E-01
    1        2.310265   1.000000
    2        4.559310   1.000000
    3        6.214811   1.000000
    4        8.394902   1.000000
    5       12.953719   0.000000
    6       13.806344   0.000000
    7       15.617265   0.000000
    8       17.125110   0.000000
 
 -0.4166667E+00  0.8333333E-01  0.2500000E+00  0.3703704E-01
    1        0.506311   1.000000
    2        4.403060   1.000000
    3        7.081746   1.000000
    4       10.681965   1.000000
    5       12.189706   0.000000
    6       13.395441   0.000000
    7       16.870454   0.000000
    8       18.412646   0.000000
 
 -0.2500000E+00  0.8333333E-01  0.2500000E+00  0.3703704E-01
    1       -2.081935   1.000000
    2        1.875411   1.000000
    3        9.529364   1.000000
    4       13.011920   0.000000
    5       15.035486   0.000000
    6       16.705420   0.000000
    7       18.714704   0.000000
    8       20.096587   0.000000
 
 -0.8333333E-01  0.8333333E-01  0.2500000E+00  0.1851852E-01
    1       -3.203591   1.000000
    2        0.775641   1.000000
    3        8.498785   1.000000
    4       17.838802   0.000000
    5       19.039396   0.000000
    6       19.228551   0.000000
    7       21.297916   0.000000
    8       21.748044   0.000000
 
  0.2500000E+00  0.2500000E+00  0.2500000E+00  0.1851852E-01
    1        1.603749   1.000000
    2        5.464583   1.000000
    3        7.877606   1.000000
    4        8.445203   1.000000
    5       11.629947   0.025431
    6       11.794247   0.000010
    7       13.645287   0.000000
    8       18.777751   0.000000
 
  0.4166667E+00  0.2500000E+00  0.2500000E+00  0.3703704E-01
    1        3.395409   1.000000
    2        5.591023   1.000000
    3        7.235772   1.000000
    4        7.895997   1.000000
    5        9.444517   1.000000
    6       11.521122   0.339572
    7       14.977368   0.000000
    8       17.028977   0.000000
 
 -0.4166667E+00  0.2500000E+00  0.2500000E+00  0.3703704E-01
    1        0.140093   1.000000
    2        4.049023   1.000000
    3        8.813030   1.000000
    4       10.950835   1.000000
    5       11.463819   0.654224
    6       12.812459   0.000000
    7       14.876635   0.000000
    8       19.709885   0.000000
 
 -0.2500000E+00  0.2500000E+00  0.2500000E+00  0.1851852E-01
    1       -1.709624   1.000000
    2        2.240224   1.000000
    3        9.848699   1.000000
    4       11.335902   0.986300
    5       15.072450   0.000000
    6       16.495212   0.000000
    7       18.598216   0.000000
    8       19.945896   0.000000
 
  0.4166667E+00  0.4166667E+00  0.2500000E+00  0.1851852E-01
    1        3.498348   1.000000
    2        4.103885   1.000000
    3        7.363548   1.000000
    4        7.941678   1.000000
    5       10.297365   1.000000
    6       13.674522   0.000000
    7       14.950660   0.000000
    8       16.013229   0.000000
 
 -0.4166667E+00  0.4166667E+00  0.2500000E+00  0.1851852E-01
    1        1.234707   1.000000
    2        5.063400   1.000000
    3        5.716627   1.000000
    4        9.407864   1.000000
    5       12.798208   0.000000
    6       15.193667   0.000000
    7       16.739250   0.000000
    8       17.470096   0.000000
 
  0.8333333E-01  0.8333333E-01  0.4166667E+00  0.1851852E-01
    1       -1.939342   1.000000
    2       -0.612429   1.000000
    3       12.143854   0.000000
    4       15.608034   0.000000
    5       16.896495   0.000000
    6       17.670798   0.000000
    7       18.100419   0.000000
    8       18.735636   0.000000
 
  0.2500000E+00  0.8333333E-01  0.4166667E+00  0.3703704E-01
    1       -0.085732   1.000000
    2        1.228941   1.000000
    3       10.707341   1.000000
    4       11.868680   0.000000
    5       13.938629   0.000000
    6       14.804419   0.000000
    7       16.225017   0.000000
    8       17.643803   0.000000
 
  0.4166667E+00  0.8333333E-01  0.4166667E+00  0.3703704E-01
    1        3.175338   1.000000
    2        4.442107   1.000000
    3        5.480165   1.000000
    4        6.726325   1.000000
    5       13.793103   0.000000
    6       14.899729   0.000000
    7       17.075027   0.000000
    8       18.818102   0.000000
 
 -0.4166667E+00  0.8333333E-01  0.4166667E+00  0.3703704E-01
    1        1.381293   1.000000
    2        2.684978   1.000000
    3        7.919146   1.000000
    4        9.165189   1.000000
    5       14.107373   0.000000
    6       14.859722   0.000000
    7       15.923444   0.000000
    8       18.678788   0.000000
 
 -0.2500000E+00  0.8333333E-01  0.4166667E+00  0.3703704E-01
    1       -1.195521   1.000000
    2        0.126566   1.000000
    3       12.722375   0.000000
    4       13.788737   0.000000
    5       15.126519   0.000000
    6       15.606674   0.000000
    7       16.929408   0.000000
    8       17.223846   0.000000
 
 -0.8333333E-01  0.8333333E-01  0.4166667E+00  0.1851852E-01
    1       -2.312395   1.000000
    2       -0.983088   1.000000
    3       11.818727   0.000002
    4       15.422204   0.000000
    5       18.730993   0.000000
    6       19.797501   0.000000
    7       19.865644   0.000000
    8       20.917332   0.000000
 
  0.2500000E+00  0.2500000E+00  0.4166667E+00  0.1851852E-01
    1        2.473231   1.000000
    2        3.767244   1.000000
    3        8.698029   1.000000
    4        9.237476   1.000000
    5       10.017931   1.000000
    6       10.515958   1.000000
    7       16.493663   0.000000
    8       19.619631   0.000000
 
  0.4166667E+00  0.2500000E+00  0.4166667E+00  0.3703704E-01
    1        4.252416   1.000000
    2        5.494042   1.000000
    3        6.535116   1.000000
    4        7.741742   1.000000
    5        8.733013   1.000000
    6        9.947646   1.000000
    7       18.013567   0.000000
    8       19.696393   0.000000
 
 -0.4166667E+00  0.2500000E+00  0.4166667E+00  0.3703704E-01
    1        1.016741   1.000000
    2        2.323457   1.000000
    3        9.649084   1.000000
    4       10.853741   1.000000
    5       11.830738   0.000001
    6       12.925572   0.000000
    7       15.294985   0.000000
    8       18.581278   0.000000
 
 -0.2500000E+00  0.2500000E+00  0.4166667E+00  0.1851852E-01
    1       -0.824825   1.000000
    2        0.494825   1.000000
    3       12.058804   0.000000
    4       12.801860   0.000000
    5       13.845255   0.000000
    6       16.741409   0.000000
    7       17.269027   0.000000
    8       18.424958   0.000000
 
  0.4166667E+00  0.4166667E+00  0.4166667E+00  0.1851852E-01
    1        4.352800   1.000000
    2        4.914877   1.000000
    3        5.721192   1.000000
    4        6.270886   1.000000
    5       11.115674   1.000000
    6       12.316804   0.000000
    7       18.001470   0.000000
    8       18.749934   0.000000
 
 -0.4166667E+00  0.4166667E+00  0.4166667E+00  0.1851852E-01
    1        2.106108   1.000000
    2        3.402228   1.000000
    3        6.510044   1.000000
    4        7.769634   1.000000
    5       15.874170   0.000000
    6       15.970671   0.000000
    7       17.133877   0.000000
    8       17.871626   0.000000
