       N       E                     dE             d eps       ncg     rms          rms(c)
DAV:   1     0.232229925215E+01    0.23223E+01   -0.32571E+03   592   0.713E+02
DAV:   2    -0.963410758460E+01   -0.11956E+02   -0.11639E+02   816   0.723E+01
DAV:   3    -0.983879246282E+01   -0.20468E+00   -0.19616E+00   816   0.970E+00
DAV:   4    -0.983924564877E+01   -0.45319E-03   -0.45318E-03   880   0.467E-01
DAV:   5    -0.983924645673E+01   -0.80796E-06   -0.80824E-06   744   0.120E-02    0.450E+00
DAV:   6    -0.980974574991E+01    0.29501E-01   -0.78768E-03   760   0.564E-01    0.249E+00
DAV:   7    -0.979265429805E+01    0.17091E-01   -0.15245E-02   712   0.783E-01    0.159E-01
DAV:   8    -0.979250207791E+01    0.15222E-03   -0.13447E-04   928   0.105E-01    0.229E-02
DAV:   9    -0.979250263122E+01   -0.55331E-06   -0.18601E-06   480   0.112E-02
   1 F= -.97925026E+01 E0= -.97917001E+01  d E =-.979250E+01
       N       E                     dE             d eps       ncg     rms          rms(c)
DAV:   1    -0.979803902969E+01   -0.55370E-02   -0.97836E-02   848   0.196E+00    0.190E-01
DAV:   2    -0.979724924010E+01    0.78979E-03   -0.17118E-03   656   0.352E-01    0.106E-01
DAV:   3    -0.979684507384E+01    0.40417E-03   -0.98216E-04   872   0.180E-01    0.873E-03
DAV:   4    -0.979684824852E+01   -0.31747E-05   -0.31592E-05   616   0.477E-02
   2 F= -.97968482E+01 E0= -.97950982E+01  d E =-.434562E-02
       N       E                     dE             d eps       ncg     rms          rms(c)
DAV:   1    -0.979553895465E+01    0.13061E-02   -0.83054E-01   872   0.577E+00    0.576E-01
DAV:   2    -0.978873278456E+01    0.68062E-02   -0.14195E-02   656   0.100E+00    0.317E-01
DAV:   3    -0.978534138741E+01    0.33914E-02   -0.80666E-03   840   0.513E-01    0.268E-02
DAV:   4    -0.978536732058E+01   -0.25933E-04   -0.25600E-04   632   0.136E-01    0.214E-02
DAV:   5    -0.978537037955E+01   -0.30590E-05   -0.21573E-06   632   0.142E-02
   3 F= -.97853704E+01 E0= -.97833332E+01  d E =0.713225E-02
       N       E                     dE             d eps       ncg     rms          rms(c)
DAV:   1    -0.980575617065E+01   -0.20389E-01   -0.45661E-01   880   0.421E+00    0.433E-01
DAV:   2    -0.980167319021E+01    0.40830E-02   -0.78340E-03   648   0.746E-01    0.239E-01
DAV:   3    -0.979963696285E+01    0.20362E-02   -0.49429E-03   840   0.404E-01    0.194E-02
DAV:   4    -0.979965400068E+01   -0.17038E-04   -0.16310E-04   624   0.109E-01    0.157E-02
DAV:   5    -0.979965643076E+01   -0.24301E-05   -0.98099E-07   520   0.106E-02
   4 F= -.97996564E+01 E0= -.97977547E+01  d E =-.715380E-02
       N       E                     dE             d eps       ncg     rms          rms(c)
DAV:   1    -0.979988366239E+01   -0.22966E-03   -0.66010E-03   864   0.507E-01    0.509E-02
DAV:   2    -0.979983009231E+01    0.53570E-04   -0.11305E-04   656   0.900E-02    0.279E-02
DAV:   3    -0.979980294109E+01    0.27151E-04   -0.65446E-05   824   0.464E-02    0.226E-03
DAV:   4    -0.979980314884E+01   -0.20775E-06   -0.20959E-06   352   0.125E-02
   5 F= -.97998031E+01 E0= -.97977115E+01  d E =-.730052E-02
       N       E                     dE             d eps       ncg     rms          rms(c)
DAV:   1    -0.979981581044E+01   -0.12869E-04   -0.26077E-04   856   0.100E-01    0.101E-02
DAV:   2    -0.979981360093E+01    0.22095E-05   -0.44678E-06   440   0.181E-02
   6 F= -.97998136E+01 E0= -.97977615E+01  d E =-.731097E-02
