 vasp.5.4.1 24Jun15 (build Jul 19 2016 16:50:41) complex                        
  
 executed on           IFC91_ompi date 2019.10.10  11:14:52
 running on    4 total cores
 distrk:  each k-point on    4 cores,    1 groups
 distr:  one band on NCORES_PER_BAND=   1 cores,    4 groups


--------------------------------------------------------------------------------------------------------


 INCAR:
 POTCAR:    PAW_PBE Si 05Jan2001                  
 POTCAR:    PAW_PBE Si 05Jan2001                  
   VRHFIN = Si: s2p2                                                            
   LEXCH  = PE                                                                  
   EATOM  =   103.0669 eV,    7.5752 Ry                                         
                                                                                
   TITEL  = PAW_PBE Si 05Jan2001                                                
   LULTRA =        F    use ultrasoft PP ?                                      
   IUNSCR =        1    unscreen: 0-lin 1-nonlin 2-no                           
   RPACOR =    1.500    partial core radius                                     
   POMASS =   28.085; ZVAL   =    4.000    mass and valenz                      
   RCORE  =    1.900    outmost cutoff radius                                   
   RWIGS  =    2.480; RWIGS  =    1.312    wigner-seitz radius (au A)           
   ENMAX  =  245.345; ENMIN  =  184.009 eV                                      
   ICORE  =        2    local potential                                         
   LCOR   =        T    correct aug charges                                     
   LPAW   =        T    paw PP                                                  
   EAUG   =  322.069                                                            
   DEXC   =    0.000                                                            
   RMAX   =    1.950    core radius for proj-oper                               
   RAUG   =    1.300    factor for augmentation sphere                          
   RDEP   =    1.993    radius for radial grids                                 
   RDEPT  =    1.837    core radius for aug-charge                              
                                                                                
   Atomic configuration                                                         
    6 entries                                                                   
     n  l   j            E        occ.                                          
     1  0  0.50     -1785.8828   2.0000                                         
     2  0  0.50      -139.4969   2.0000                                         
     2  1  1.50       -95.5546   6.0000                                         
     3  0  0.50       -10.8127   2.0000                                         
     3  1  0.50        -4.0811   2.0000                                         
     3  2  1.50        -4.0817   0.0000                                         
   Description                                                                  
     l       E           TYP  RCUT    TYP  RCUT                                 
     0    -10.8127223     23  1.900                                             
     0     -7.6451159     23  1.900                                             
     1     -4.0811372     23  1.900                                             
     1      2.4879257     23  1.900                                             
     2     -4.0817478      7  1.900                                             
  local pseudopotential read in
  partial core-charges read in
  partial kinetic energy density read in
  atomic valenz-charges read in
  non local Contribution for L=           0  read in
    real space projection operators read in
  non local Contribution for L=           0  read in
    real space projection operators read in
  non local Contribution for L=           1  read in
    real space projection operators read in
  non local Contribution for L=           1  read in
    real space projection operators read in
    PAW grid and wavefunctions read in
 
   number of l-projection  operators is LMAX  =           4
   number of lm-projection operators is LMMAX =           8
 
  PAW_PBE Si 05Jan2001                  :
 energy of atom  1       EATOM= -103.0669
 kinetic energy error for atom=    0.0009 (will be added to EATOM!!)
 
 
 POSCAR: Si HCP                                  
  positions in direct lattice
  No initial velocities read in
 exchange correlation table for  LEXCH =        8
   RHO(1)=    0.500       N(1)  =     2000
   RHO(2)=  100.500       N(2)  =     4000
 


--------------------------------------------------------------------------------------------------------


 ion  position               nearest neighbor table
   1  0.000  0.000  0.000-   2 2.65   2 2.65   2 2.65   2 2.65   2 2.65   2 2.65
   2  0.333  0.667  0.500-   1 2.65   1 2.65   1 2.65   1 2.65   1 2.65   1 2.65
 
  LATTYP: Found a hexagonal cell.
 ALAT       =     2.6500000000
 C/A-ratio  =     1.6329900000
  
  Lattice vectors:
  
 A1 = (   2.6500000000,   0.0000000000,   0.0000000000)
 A2 = (  -1.3250000000,   2.2949673200,   0.0000000000)
 A3 = (   0.0000000000,   0.0000000000,   4.3274235000)


Analysis of symmetry for initial positions (statically):
=====================================================================
 Subroutine PRICEL returns:
 Original cell was already a primitive cell.
 

 Routine SETGRP: Setting up the symmetry group for a 
 hexagonal supercell.


 Subroutine GETGRP returns: Found 24 space group operations
 (whereof 12 operations were pure point group operations)
 out of a pool of 24 trial point group operations.


The static configuration has the point symmetry D_3h.
 The point group associated with its full space group is D_6h.


Analysis of symmetry for dynamics (positions and initial velocities):
=====================================================================
 Subroutine PRICEL returns:
 Original cell was already a primitive cell.
 

 Routine SETGRP: Setting up the symmetry group for a 
 hexagonal supercell.


 Subroutine GETGRP returns: Found 24 space group operations
 (whereof 12 operations were pure point group operations)
 out of a pool of 24 trial point group operations.


The dynamic configuration has the point symmetry D_3h.
 The point group associated with its full space group is D_6h.


 Subroutine INISYM returns: Found 24 space group operations
 (whereof 12 operations are pure point group operations),
 and found     1 'primitive' translations

 
 
 KPOINTS: K-Points                                

Automatic generation of k-mesh.
Space group operators:
 irot       det(A)        alpha          n_x          n_y          n_z        tau_x        tau_y        tau_z
    1     1.000000     0.000000     1.000000     0.000000     0.000000     0.000000     0.000000     0.000000
    2    -1.000000    60.000000     0.000000     0.000000    -1.000000     0.000000     0.000000     0.000000
    3     1.000000   120.000000     0.000000     0.000000    -1.000000     0.000000     0.000000     0.000000
    4    -1.000000   179.999999     0.000000     0.000000     1.000000     0.000000     0.000000     0.000000
    5     1.000000   120.000000     0.000000     0.000000     1.000000     0.000000     0.000000     0.000000
    6    -1.000000    60.000000     0.000000     0.000000     1.000000     0.000000     0.000000     0.000000
    7    -1.000000   180.000000     1.000000     0.000000     0.000000     0.000000     0.000000     0.000000
    8     1.000000   180.000000     0.866025    -0.500000     0.000000     0.000000     0.000000     0.000000
    9    -1.000000   180.000000     0.500000    -0.866025     0.000000     0.000000     0.000000     0.000000
   10     1.000000   180.000000     0.000000     1.000000     0.000000     0.000000     0.000000     0.000000
   11    -1.000000   180.000000    -0.500000    -0.866025     0.000000     0.000000     0.000000     0.000000
   12     1.000000   180.000000     0.866025     0.500000     0.000000     0.000000     0.000000     0.000000
   13    -1.000000     0.000000     1.000000     0.000000     0.000000     0.333333     0.666667     0.500000
   14     1.000000    60.000000     0.000000     0.000000    -1.000000     0.333333     0.666667     0.500000
   15    -1.000000   120.000000     0.000000     0.000000    -1.000000     0.333333     0.666667     0.500000
   16     1.000000   179.999999     0.000000     0.000000     1.000000     0.333333     0.666667     0.500000
   17    -1.000000   120.000000     0.000000     0.000000     1.000000     0.333333     0.666667     0.500000
   18     1.000000    60.000000     0.000000     0.000000     1.000000     0.333333     0.666667     0.500000
   19     1.000000   180.000000     1.000000     0.000000     0.000000     0.333333     0.666667     0.500000
   20    -1.000000   180.000000     0.866025    -0.500000     0.000000     0.333333     0.666667     0.500000
   21     1.000000   180.000000     0.500000    -0.866025     0.000000     0.333333     0.666667     0.500000
   22    -1.000000   180.000000     0.000000     1.000000     0.000000     0.333333     0.666667     0.500000
   23     1.000000   180.000000    -0.500000    -0.866025     0.000000     0.333333     0.666667     0.500000
   24    -1.000000   180.000000     0.866025     0.500000     0.000000     0.333333     0.666667     0.500000
 
 Subroutine IBZKPT returns following result:
 ===========================================
 
 Found     36 irreducible k-points:
 
 Following reciprocal coordinates:
            Coordinates               Weight
  0.083333  0.083333  0.083333     96.000000
  0.250000  0.083333  0.083333    192.000000
  0.416667  0.083333  0.083333    192.000000
 -0.416667  0.083333  0.083333    192.000000
 -0.250000  0.083333  0.083333    192.000000
 -0.083333  0.083333  0.083333     96.000000
  0.250000  0.250000  0.083333     96.000000
  0.416667  0.250000  0.083333    192.000000
 -0.416667  0.250000  0.083333    192.000000
 -0.250000  0.250000  0.083333     96.000000
  0.416667  0.416667  0.083333     96.000000
 -0.416667  0.416667  0.083333     96.000000
  0.083333  0.083333  0.250000     96.000000
  0.250000  0.083333  0.250000    192.000000
  0.416667  0.083333  0.250000    192.000000
 -0.416667  0.083333  0.250000    192.000000
 -0.250000  0.083333  0.250000    192.000000
 -0.083333  0.083333  0.250000     96.000000
  0.250000  0.250000  0.250000     96.000000
  0.416667  0.250000  0.250000    192.000000
 -0.416667  0.250000  0.250000    192.000000
 -0.250000  0.250000  0.250000     96.000000
  0.416667  0.416667  0.250000     96.000000
 -0.416667  0.416667  0.250000     96.000000
  0.083333  0.083333  0.416667     96.000000
  0.250000  0.083333  0.416667    192.000000
  0.416667  0.083333  0.416667    192.000000
 -0.416667  0.083333  0.416667    192.000000
 -0.250000  0.083333  0.416667    192.000000
 -0.083333  0.083333  0.416667     96.000000
  0.250000  0.250000  0.416667     96.000000
  0.416667  0.250000  0.416667    192.000000
 -0.416667  0.250000  0.416667    192.000000
 -0.250000  0.250000  0.416667     96.000000
  0.416667  0.416667  0.416667     96.000000
 -0.416667  0.416667  0.416667     96.000000
 
 Following cartesian coordinates:
            Coordinates               Weight
  0.083333  0.144338  0.051031     96.000000
  0.250000  0.240563  0.051031    192.000000
  0.416667  0.336788  0.051031    192.000000
 -0.416667 -0.144338  0.051031    192.000000
 -0.250000 -0.048113  0.051031    192.000000
 -0.083333  0.048113  0.051031     96.000000
  0.250000  0.433013  0.051031     96.000000
  0.416667  0.529238  0.051031    192.000000
 -0.416667  0.048113  0.051031    192.000000
 -0.250000  0.144338  0.051031     96.000000
  0.416667  0.721688  0.051031     96.000000
 -0.416667  0.240563  0.051031     96.000000
  0.083333  0.144338  0.153093     96.000000
  0.250000  0.240563  0.153093    192.000000
  0.416667  0.336788  0.153093    192.000000
 -0.416667 -0.144338  0.153093    192.000000
 -0.250000 -0.048113  0.153093    192.000000
 -0.083333  0.048113  0.153093     96.000000
  0.250000  0.433013  0.153093     96.000000
  0.416667  0.529238  0.153093    192.000000
 -0.416667  0.048113  0.153093    192.000000
 -0.250000  0.144338  0.153093     96.000000
  0.416667  0.721688  0.153093     96.000000
 -0.416667  0.240563  0.153093     96.000000
  0.083333  0.144338  0.255156     96.000000
  0.250000  0.240563  0.255156    192.000000
  0.416667  0.336788  0.255156    192.000000
 -0.416667 -0.144338  0.255156    192.000000
 -0.250000 -0.048113  0.255156    192.000000
 -0.083333  0.048113  0.255156     96.000000
  0.250000  0.433013  0.255156     96.000000
  0.416667  0.529238  0.255156    192.000000
 -0.416667  0.048113  0.255156    192.000000
 -0.250000  0.144338  0.255156     96.000000
  0.416667  0.721688  0.255156     96.000000
 -0.416667  0.240563  0.255156     96.000000
 


--------------------------------------------------------------------------------------------------------




 Dimension of arrays:
   k-points           NKPTS =     36   k-points in BZ     NKDIM =     36   number of bands    NBANDS=      8
   number of dos      NEDOS =    301   number of ions     NIONS =      2
   non local maximal  LDIM  =      4   non local SUM 2l+1 LMDIM =      8
   total plane-waves  NPLWV =   9720
   max r-space proj   IRMAX =      1   max aug-charges    IRDMAX=  12547
   dimension x,y,z NGX =    18 NGY =   18 NGZ =   30
   dimension x,y,z NGXF=    36 NGYF=   36 NGZF=   60
   support grid    NGXF=    36 NGYF=   36 NGZF=   60
   ions per type =               2
 NGX,Y,Z   is equivalent  to a cutoff of  11.29, 11.29, 11.53 a.u.
 NGXF,Y,Z  is equivalent  to a cutoff of  22.58, 22.58, 23.05 a.u.


 I would recommend the setting:
   dimension x,y,z NGX =    18 NGY =   18 NGZ =   30
 SYSTEM =  Si beta-tin                             
 POSCAR =  Si HCP                                  

 Startparameter for this run:
   NWRITE =      2    write-flag & timer
   PREC   = accura    normal or accurate (medium, high low for compatibility)
   ISTART =      0    job   : 0-new  1-cont  2-samecut
   ICHARG =      2    charge: 1-file 2-atom 10-const
   ISPIN  =      1    spin polarized calculation?
   LNONCOLLINEAR =      F non collinear calculations
   LSORBIT =      F    spin-orbit coupling
   INIWAV =      1    electr: 0-lowe 1-rand  2-diag
   LASPH  =      F    aspherical Exc in radial PAW
   METAGGA=      F    non-selfconsistent MetaGGA calc.

 Electronic Relaxation 1
   ENCUT  =  450.0 eV  33.07 Ry    5.75 a.u.   4.58  4.58  7.49*2*pi/ulx,y,z
   ENINI  =  450.0     initial cutoff
   ENAUG  =  322.1 eV  augmentation charge cutoff
   NELM   =     60;   NELMIN=  2; NELMDL= -5     # of ELM steps 
   EDIFF  = 0.1E-04   stopping-criterion for ELM
   LREAL  =      F    real-space projection
   NLSPLINE    = F    spline interpolate recip. space projectors
   LCOMPAT=      F    compatible to vasp.4.4
   GGA_COMPAT  = T    GGA compatible to vasp.4.4-vasp.4.6
   LMAXPAW     = -100 max onsite density
   LMAXMIX     =    2 max onsite mixed and CHGCAR
   VOSKOWN=      0    Vosko Wilk Nusair interpolation
   ROPT   =    0.00000
 Ionic relaxation
   EDIFFG = -.1E-01   stopping-criterion for IOM
   NSW    =    100    number of steps for IOM
   NBLOCK =      1;   KBLOCK =    100    inner block; outer block 
   IBRION =      2    ionic relax: 0-MD 1-quasi-New 2-CG
   NFREE  =      1    steps in history (QN), initial steepest desc. (CG)
   ISIF   =      4    stress and relaxation
   IWAVPR =     11    prediction:  0-non 1-charg 2-wave 3-comb
   ISYM   =      2    0-nonsym 1-usesym 2-fastsym
   LCORR  =      T    Harris-Foulkes like correction to forces

   POTIM  = 0.5000    time-step for ionic-motion
   TEIN   =    0.0    initial temperature
   TEBEG  =    0.0;   TEEND  =   0.0 temperature during run
   SMASS  =  -3.00    Nose mass-parameter (am)
   estimated Nose-frequenzy (Omega)   =  0.10E-29 period in steps =****** mass=  -0.160E-27a.u.
   SCALEE = 1.0000    scale energy and forces
   NPACO  =    256;   APACO  = 16.0  distance and # of slots for P.C.
   PSTRESS=    0.0 pullay stress

  Mass of Ions in am
   POMASS =  28.09
  Ionic Valenz
   ZVAL   =   4.00
  Atomic Wigner-Seitz radii
   RWIGS  =  -1.00
  virtual crystal weights 
   VCA    =   1.00
   NELECT =       8.0000    total number of electrons
   NUPDOWN=      -1.0000    fix difference up-down

 DOS related values:
   EMIN   =  10.00;   EMAX   =-10.00  energy-range for DOS
   EFERMI =   0.00
   ISMEAR =     0;   SIGMA  =   0.10  broadening in eV -4-tet -1-fermi 0-gaus

 Electronic relaxation 2 (details)
   IALGO  =     38    algorithm
   LDIAG  =      T    sub-space diagonalisation (order eigenvalues)
   LSUBROT=      F    optimize rotation matrix (better conditioning)
   TURBO    =      0    0=normal 1=particle mesh
   IRESTART =      0    0=no restart 2=restart with 2 vectors
   NREBOOT  =      0    no. of reboots
   NMIN     =      0    reboot dimension
   EREF     =   0.00    reference energy to select bands
   IMIX   =      4    mixing-type and parameters
     AMIX     =   0.40;   BMIX     =  1.00
     AMIX_MAG =   1.60;   BMIX_MAG =  1.00
     AMIN     =   0.10
     WC   =   100.;   INIMIX=   1;  MIXPRE=   1;  MAXMIX= -45

 Intra band minimization:
   WEIMIN = 0.0010     energy-eigenvalue tresh-hold
   EBREAK =  0.31E-06  absolut break condition
   DEPER  =   0.30     relativ break condition  

   TIME   =   0.40     timestep for ELM

  volume/ion in A,a.u.               =      13.16        88.80
  Fermi-wavevector in a.u.,A,eV,Ry     =   1.100747  2.080110 16.485421  1.211644
  Thomas-Fermi vector in A             =   2.237163
 
 Write flags
   LWAVE  =      T    write WAVECAR
   LCHARG =      T    write CHGCAR
   LVTOT  =      F    write LOCPOT, total local potential
   LVHAR  =      F    write LOCPOT, Hartree potential only
   LELF   =      F    write electronic localiz. function (ELF)
   LORBIT =      0    0 simple, 1 ext, 2 COOP (PROOUT)


 Dipole corrections
   LMONO  =      F    monopole corrections only (constant potential shift)
   LDIPOL =      F    correct potential (dipole corrections)
   IDIPOL =      0    1-x, 2-y, 3-z, 4-all directions 
   EPSILON=  1.0000000 bulk dielectric constant

 Exchange correlation treatment:
   GGA     =    --    GGA type
   LEXCH   =     8    internal setting for exchange type
   VOSKOWN=      0    Vosko Wilk Nusair interpolation
   LHFCALC =     F    Hartree Fock is set to
   LHFONE  =     F    Hartree Fock one center treatment
   AEXX    =    0.0000 exact exchange contribution

 Linear response parameters
   LEPSILON=     F    determine dielectric tensor
   LRPA    =     F    only Hartree local field effects (RPA)
   LNABLA  =     F    use nabla operator in PAW spheres
   LVEL    =     F    velocity operator in full k-point grid
   LINTERFAST=   F  fast interpolation
   KINTER  =     0    interpolate to denser k-point grid
   CSHIFT  =0.1000    complex shift for real part using Kramers Kronig
   OMEGAMAX=  -1.0    maximum frequency
   DEG_THRESHOLD= 0.2000000E-02 threshold for treating states as degnerate
   RTIME   =    0.100 relaxation time in fs

 Orbital magnetization related:
   ORBITALMAG=     F  switch on orbital magnetization
   LCHIMAG   =     F  perturbation theory with respect to B field
   DQ        =  0.001000  dq finite difference perturbation B field



--------------------------------------------------------------------------------------------------------


 conjugate gradient relaxation of ions
 charge density and potential will be updated during run
 non-spin polarized calculation
 Variant of blocked Davidson
 Davidson routine will perform the subspace rotation
 perform sub-space diagonalisation
    after iterative eigenvector-optimisation
 modified Broyden-mixing scheme, WC =      100.0
 initial mixing is a Kerker type mixing with AMIX =  0.4000 and BMIX =      1.0000
 Hartree-type preconditioning will be used
 using additional bands            4
 reciprocal scheme for non local part
 use partial core corrections
 calculate Harris-corrections to forces 
   (improved forces if not selfconsistent)
 use gradient corrections 
 use of overlap-Matrix (Vanderbilt PP)
 Gauss-broadening in eV      SIGMA  =   0.10


--------------------------------------------------------------------------------------------------------


  energy-cutoff  :      450.00
  volume of cell :       26.32
      direct lattice vectors                 reciprocal lattice vectors
     2.650000000  0.000000000  0.000000000     0.377358491  0.217868026  0.000000000
    -1.325000000  2.294967320  0.000000000     0.000000000  0.435736052  0.000000000
     0.000000000  0.000000000  4.327423500     0.000000000  0.000000000  0.231084385

  length of vectors
     2.650000000  2.650000000  4.327423500     0.435736052  0.435736052  0.231084385


 
 k-points in units of 2pi/SCALE and weight: K-Points                                
   0.08333333  0.14433757  0.05103114       0.019
   0.25000000  0.24056261  0.05103114       0.037
   0.41666667  0.33678766  0.05103114       0.037
  -0.41666667 -0.14433757  0.05103114       0.037
  -0.25000000 -0.04811252  0.05103114       0.037
  -0.08333333  0.04811252  0.05103114       0.019
   0.25000000  0.43301270  0.05103114       0.019
   0.41666667  0.52923775  0.05103114       0.037
  -0.41666667  0.04811252  0.05103114       0.037
  -0.25000000  0.14433757  0.05103114       0.019
   0.41666667  0.72168784  0.05103114       0.019
  -0.41666667  0.24056261  0.05103114       0.019
   0.08333333  0.14433757  0.15309341       0.019
   0.25000000  0.24056261  0.15309341       0.037
   0.41666667  0.33678766  0.15309341       0.037
  -0.41666667 -0.14433757  0.15309341       0.037
  -0.25000000 -0.04811252  0.15309341       0.037
  -0.08333333  0.04811252  0.15309341       0.019
   0.25000000  0.43301270  0.15309341       0.019
   0.41666667  0.52923775  0.15309341       0.037
  -0.41666667  0.04811252  0.15309341       0.037
  -0.25000000  0.14433757  0.15309341       0.019
   0.41666667  0.72168784  0.15309341       0.019
  -0.41666667  0.24056261  0.15309341       0.019
   0.08333333  0.14433757  0.25515568       0.019
   0.25000000  0.24056261  0.25515568       0.037
   0.41666667  0.33678766  0.25515568       0.037
  -0.41666667 -0.14433757  0.25515568       0.037
  -0.25000000 -0.04811252  0.25515568       0.037
  -0.08333333  0.04811252  0.25515568       0.019
   0.25000000  0.43301270  0.25515568       0.019
   0.41666667  0.52923775  0.25515568       0.037
  -0.41666667  0.04811252  0.25515568       0.037
  -0.25000000  0.14433757  0.25515568       0.019
   0.41666667  0.72168784  0.25515568       0.019
  -0.41666667  0.24056261  0.25515568       0.019
 
 k-points in reciprocal lattice and weights: K-Points                                
   0.08333333  0.08333333  0.08333333       0.019
   0.25000000  0.08333333  0.08333333       0.037
   0.41666667  0.08333333  0.08333333       0.037
  -0.41666667  0.08333333  0.08333333       0.037
  -0.25000000  0.08333333  0.08333333       0.037
  -0.08333333  0.08333333  0.08333333       0.019
   0.25000000  0.25000000  0.08333333       0.019
   0.41666667  0.25000000  0.08333333       0.037
  -0.41666667  0.25000000  0.08333333       0.037
  -0.25000000  0.25000000  0.08333333       0.019
   0.41666667  0.41666667  0.08333333       0.019
  -0.41666667  0.41666667  0.08333333       0.019
   0.08333333  0.08333333  0.25000000       0.019
   0.25000000  0.08333333  0.25000000       0.037
   0.41666667  0.08333333  0.25000000       0.037
  -0.41666667  0.08333333  0.25000000       0.037
  -0.25000000  0.08333333  0.25000000       0.037
  -0.08333333  0.08333333  0.25000000       0.019
   0.25000000  0.25000000  0.25000000       0.019
   0.41666667  0.25000000  0.25000000       0.037
  -0.41666667  0.25000000  0.25000000       0.037
  -0.25000000  0.25000000  0.25000000       0.019
   0.41666667  0.41666667  0.25000000       0.019
  -0.41666667  0.41666667  0.25000000       0.019
   0.08333333  0.08333333  0.41666667       0.019
   0.25000000  0.08333333  0.41666667       0.037
   0.41666667  0.08333333  0.41666667       0.037
  -0.41666667  0.08333333  0.41666667       0.037
  -0.25000000  0.08333333  0.41666667       0.037
  -0.08333333  0.08333333  0.41666667       0.019
   0.25000000  0.25000000  0.41666667       0.019
   0.41666667  0.25000000  0.41666667       0.037
  -0.41666667  0.25000000  0.41666667       0.037
  -0.25000000  0.25000000  0.41666667       0.019
   0.41666667  0.41666667  0.41666667       0.019
  -0.41666667  0.41666667  0.41666667       0.019
 
 position of ions in fractional coordinates (direct lattice) 
   0.00000000  0.00000000  0.00000000
   0.33333333  0.66666667  0.50000000
 
 position of ions in cartesian coordinates  (Angst):
   0.00000000  0.00000000  0.00000000
  -0.00000000  1.52997821  2.16371175
 


--------------------------------------------------------------------------------------------------------


 k-point  1 :   0.0833 0.0833 0.0833  plane waves:     575
 k-point  2 :   0.2500 0.0833 0.0833  plane waves:     579
 k-point  3 :   0.4167 0.0833 0.0833  plane waves:     567
 k-point  4 :  -0.4167 0.0833 0.0833  plane waves:     573
 k-point  5 :  -0.2500 0.0833 0.0833  plane waves:     580
 k-point  6 :  -0.0833 0.0833 0.0833  plane waves:     571
 k-point  7 :   0.2500 0.2500 0.0833  plane waves:     566
 k-point  8 :   0.4167 0.2500 0.0833  plane waves:     563
 k-point  9 :  -0.4167 0.2500 0.0833  plane waves:     566
 k-point 10 :  -0.2500 0.2500 0.0833  plane waves:     578
 k-point 11 :   0.4167 0.4167 0.0833  plane waves:     564
 k-point 12 :  -0.4167 0.4167 0.0833  plane waves:     572
 k-point 13 :   0.0833 0.0833 0.2500  plane waves:     576
 k-point 14 :   0.2500 0.0833 0.2500  plane waves:     575
 k-point 15 :   0.4167 0.0833 0.2500  plane waves:     567
 k-point 16 :  -0.4167 0.0833 0.2500  plane waves:     571
 k-point 17 :  -0.2500 0.0833 0.2500  plane waves:     577
 k-point 18 :  -0.0833 0.0833 0.2500  plane waves:     575
 k-point 19 :   0.2500 0.2500 0.2500  plane waves:     567
 k-point 20 :   0.4167 0.2500 0.2500  plane waves:     563
 k-point 21 :  -0.4167 0.2500 0.2500  plane waves:     569
 k-point 22 :  -0.2500 0.2500 0.2500  plane waves:     578
 k-point 23 :   0.4167 0.4167 0.2500  plane waves:     566
 k-point 24 :  -0.4167 0.4167 0.2500  plane waves:     567
 k-point 25 :   0.0833 0.0833 0.4167  plane waves:     581
 k-point 26 :   0.2500 0.0833 0.4167  plane waves:     571
 k-point 27 :   0.4167 0.0833 0.4167  plane waves:     567
 k-point 28 :  -0.4167 0.0833 0.4167  plane waves:     564
 k-point 29 :  -0.2500 0.0833 0.4167  plane waves:     573
 k-point 30 :  -0.0833 0.0833 0.4167  plane waves:     580
 k-point 31 :   0.2500 0.2500 0.4167  plane waves:     566
 k-point 32 :   0.4167 0.2500 0.4167  plane waves:     564
 k-point 33 :  -0.4167 0.2500 0.4167  plane waves:     564
 k-point 34 :  -0.2500 0.2500 0.4167  plane waves:     578
 k-point 35 :   0.4167 0.4167 0.4167  plane waves:     566
 k-point 36 :  -0.4167 0.4167 0.4167  plane waves:     563

 maximum and minimum number of plane-waves per node :       581      563

 maximum number of plane-waves:       581
 maximum index in each direction: 
   IXMAX=    4   IYMAX=    4   IZMAX=    7
   IXMIN=   -4   IYMIN=   -4   IZMIN=   -7

 NGX is ok and might be reduce to  18
 NGY is ok and might be reduce to  18
 NGZ is ok and might be reduce to  30

 serial   3D FFT for wavefunctions
 parallel 3D FFT for charge:
    minimum data exchange during FFTs selected (reduces bandwidth)


 total amount of memory used by VASP on root node    34122. kBytes
========================================================================

   base      :      30000. kBytes
   nonl-proj :       1364. kBytes
   fftplans  :        714. kBytes
   grid      :       1347. kBytes
   one-center:          6. kBytes
   wavefun   :        691. kBytes
 
     INWAV:  cpu time    0.0000: real time    0.0000
 Broyden mixing: mesh for mixing (old mesh)
   NGX =  9   NGY =  9   NGZ = 15
  (NGX  = 36   NGY  = 36   NGZ  = 60)
  gives a total of   1215 points

 initial charge density was supplied:
 charge density of overlapping atoms calculated
 number of electron       8.0000000 magnetization 
 keeping initial charge density in first step


--------------------------------------------------------------------------------------------------------


 Maximum index for augmentation-charges         2995 (set IRDMAX)


--------------------------------------------------------------------------------------------------------


 First call to EWALD:  gamma=   0.596
 Maximum number of real-space cells 3x 3x 2
 Maximum number of reciprocal cells 3x 3x 4

 FEWALD executed in parallel
    FEWALD:  cpu time    0.0020: real time    0.0010


----------------------------------------- Iteration    1(   1)  ---------------------------------------


    POTLOK:  cpu time    0.0400: real time    0.0235
    SETDIJ:  cpu time    0.0140: real time    0.0071
     EDDAV:  cpu time    1.3268: real time    0.8605
       DOS:  cpu time    0.0020: real time    0.0010
    --------------------------------------------
      LOOP:  cpu time    1.3878: real time    0.8956

 eigenvalue-minimisations  :   592
 total energy-change (2. order) : 0.2322299E+01  (-0.3257126E+03)
 number of electron       8.0000000 magnetization 
 augmentation part        8.0000000 magnetization 

 Free energy of the ion-electron system (eV)
  ---------------------------------------------------
  alpha Z        PSCENC =         5.11637911
  Ewald energy   TEWEN  =      -281.85422044
  -Hartree energ DENC   =        -0.85244363
  -exchange      EXHF   =         0.00000000
  -V(xc)+E(xc)   XCENC  =       -17.09433745
  PAW double counting   =       176.24759923     -141.06103558
  entropy T*S    EENTRO =        -0.00273079
  eigenvalues    EBANDS =        55.69116133
  atomic energy  EATOM  =       206.13192747
  Solvation  Ediel_sol  =         0.00000000
  ---------------------------------------------------
  free energy    TOTEN  =         2.32229925 eV

  energy without entropy =        2.32503004  energy(sigma->0) =        2.32366465


--------------------------------------------------------------------------------------------------------




----------------------------------------- Iteration    1(   2)  ---------------------------------------


     EDDAV:  cpu time    2.0787: real time    1.3058
       DOS:  cpu time    0.0020: real time    0.0009
    --------------------------------------------
      LOOP:  cpu time    2.0857: real time    1.3091

 eigenvalue-minimisations  :   816
 total energy-change (2. order) :-0.1195641E+02  (-0.1163888E+02)
 number of electron       8.0000000 magnetization 
 augmentation part        8.0000000 magnetization 

 Free energy of the ion-electron system (eV)
  ---------------------------------------------------
  alpha Z        PSCENC =         5.11637911
  Ewald energy   TEWEN  =      -281.85422044
  -Hartree energ DENC   =        -0.85244363
  -exchange      EXHF   =         0.00000000
  -V(xc)+E(xc)   XCENC  =       -17.09433745
  PAW double counting   =       176.24759923     -141.06103558
  entropy T*S    EENTRO =        -0.00567992
  eigenvalues    EBANDS =        43.73770362
  atomic energy  EATOM  =       206.13192747
  Solvation  Ediel_sol  =         0.00000000
  ---------------------------------------------------
  free energy    TOTEN  =        -9.63410758 eV

  energy without entropy =       -9.62842766  energy(sigma->0) =       -9.63126762


--------------------------------------------------------------------------------------------------------




----------------------------------------- Iteration    1(   3)  ---------------------------------------


     EDDAV:  cpu time    1.7777: real time    1.1872
       DOS:  cpu time    0.0020: real time    0.0011
    --------------------------------------------
      LOOP:  cpu time    1.7837: real time    1.1906

 eigenvalue-minimisations  :   816
 total energy-change (2. order) :-0.2046849E+00  (-0.1961568E+00)
 number of electron       8.0000000 magnetization 
 augmentation part        8.0000000 magnetization 

 Free energy of the ion-electron system (eV)
  ---------------------------------------------------
  alpha Z        PSCENC =         5.11637911
  Ewald energy   TEWEN  =      -281.85422044
  -Hartree energ DENC   =        -0.85244363
  -exchange      EXHF   =         0.00000000
  -V(xc)+E(xc)   XCENC  =       -17.09433745
  PAW double counting   =       176.24759923     -141.06103558
  entropy T*S    EENTRO =        -0.00165553
  eigenvalues    EBANDS =        43.52899435
  atomic energy  EATOM  =       206.13192747
  Solvation  Ediel_sol  =         0.00000000
  ---------------------------------------------------
  free energy    TOTEN  =        -9.83879246 eV

  energy without entropy =       -9.83713694  energy(sigma->0) =       -9.83796470


--------------------------------------------------------------------------------------------------------




----------------------------------------- Iteration    1(   4)  ---------------------------------------


     EDDAV:  cpu time    2.1547: real time    1.4500
       DOS:  cpu time    0.0010: real time    0.0012
    --------------------------------------------
      LOOP:  cpu time    2.1597: real time    1.4536

 eigenvalue-minimisations  :   880
 total energy-change (2. order) :-0.4531860E-03  (-0.4531797E-03)
 number of electron       8.0000000 magnetization 
 augmentation part        8.0000000 magnetization 

 Free energy of the ion-electron system (eV)
  ---------------------------------------------------
  alpha Z        PSCENC =         5.11637911
  Ewald energy   TEWEN  =      -281.85422044
  -Hartree energ DENC   =        -0.85244363
  -exchange      EXHF   =         0.00000000
  -V(xc)+E(xc)   XCENC  =       -17.09433745
  PAW double counting   =       176.24759923     -141.06103558
  entropy T*S    EENTRO =        -0.00165322
  eigenvalues    EBANDS =        43.52853885
  atomic energy  EATOM  =       206.13192747
  Solvation  Ediel_sol  =         0.00000000
  ---------------------------------------------------
  free energy    TOTEN  =        -9.83924565 eV

  energy without entropy =       -9.83759243  energy(sigma->0) =       -9.83841904


--------------------------------------------------------------------------------------------------------




----------------------------------------- Iteration    1(   5)  ---------------------------------------


     EDDAV:  cpu time    1.4458: real time    0.9661
       DOS:  cpu time    0.0030: real time    0.0011
    CHARGE:  cpu time    0.0370: real time    0.0259
    MIXING:  cpu time    0.0030: real time    0.0012
    --------------------------------------------
      LOOP:  cpu time    1.4938: real time    0.9979

 eigenvalue-minimisations  :   744
 total energy-change (2. order) :-0.8079633E-06  (-0.8082360E-06)
 number of electron       8.0000001 magnetization 
 augmentation part       -0.4715300 magnetization 

 Broyden mixing:
  rms(total) = 0.45003E+00    rms(broyden)= 0.45003E+00
  rms(prec ) = 0.50451E+00
  weight for this iteration     100.00

 Free energy of the ion-electron system (eV)
  ---------------------------------------------------
  alpha Z        PSCENC =         5.11637911
  Ewald energy   TEWEN  =      -281.85422044
  -Hartree energ DENC   =        -0.85244363
  -exchange      EXHF   =         0.00000000
  -V(xc)+E(xc)   XCENC  =       -17.09433745
  PAW double counting   =       176.24759923     -141.06103558
  entropy T*S    EENTRO =        -0.00165322
  eigenvalues    EBANDS =        43.52853805
  atomic energy  EATOM  =       206.13192747
  Solvation  Ediel_sol  =         0.00000000
  ---------------------------------------------------
  free energy    TOTEN  =        -9.83924646 eV

  energy without entropy =       -9.83759324  energy(sigma->0) =       -9.83841985


--------------------------------------------------------------------------------------------------------




----------------------------------------- Iteration    1(   6)  ---------------------------------------


    POTLOK:  cpu time    0.0400: real time    0.0280
    SETDIJ:  cpu time    0.0060: real time    0.0027
     EDDAV:  cpu time    1.8497: real time    1.2371
       DOS:  cpu time    0.0020: real time    0.0011
    CHARGE:  cpu time    0.0240: real time    0.0168
    MIXING:  cpu time    0.0020: real time    0.0007
    --------------------------------------------
      LOOP:  cpu time    1.9267: real time    1.2882

 eigenvalue-minimisations  :   760
 total energy-change (2. order) : 0.2950071E-01  (-0.7876751E-03)
 number of electron       8.0000001 magnetization 
 augmentation part       -0.4756858 magnetization 

 Broyden mixing:
  rms(total) = 0.24923E+00    rms(broyden)= 0.24923E+00
  rms(prec ) = 0.28427E+00
  weight for this iteration     100.00

 eigenvalues of (default mixing * dielectric matrix)
  average eigenvalue GAMMA=   2.2320
  2.2320

 Free energy of the ion-electron system (eV)
  ---------------------------------------------------
  alpha Z        PSCENC =         5.11637911
  Ewald energy   TEWEN  =      -281.85422044
  -Hartree energ DENC   =        -0.74447619
  -exchange      EXHF   =         0.00000000
  -V(xc)+E(xc)   XCENC  =       -17.03553018
  PAW double counting   =       377.47407981     -342.30185757
  entropy T*S    EENTRO =        -0.00163085
  eigenvalues    EBANDS =        43.40558309
  atomic energy  EATOM  =       206.13192747
  Solvation  Ediel_sol  =         0.00000000
  ---------------------------------------------------
  free energy    TOTEN  =        -9.80974575 eV

  energy without entropy =       -9.80811490  energy(sigma->0) =       -9.80893032


--------------------------------------------------------------------------------------------------------




----------------------------------------- Iteration    1(   7)  ---------------------------------------


    POTLOK:  cpu time    0.0320: real time    0.0214
    SETDIJ:  cpu time    0.0040: real time    0.0028
     EDDAV:  cpu time    1.5348: real time    1.0248
       DOS:  cpu time    0.0020: real time    0.0011
    CHARGE:  cpu time    0.0320: real time    0.0217
    MIXING:  cpu time    0.0020: real time    0.0021
    --------------------------------------------
      LOOP:  cpu time    1.6118: real time    1.0767

 eigenvalue-minimisations  :   712
 total energy-change (2. order) : 0.1709145E-01  (-0.1524530E-02)
 number of electron       8.0000001 magnetization 
 augmentation part       -0.4815889 magnetization 

 Broyden mixing:
  rms(total) = 0.15923E-01    rms(broyden)= 0.15923E-01
  rms(prec ) = 0.20274E-01
  weight for this iteration     100.00

 eigenvalues of (default mixing * dielectric matrix)
  average eigenvalue GAMMA=   2.4458
  2.4458  2.4458

 Free energy of the ion-electron system (eV)
  ---------------------------------------------------
  alpha Z        PSCENC =         5.11637911
  Ewald energy   TEWEN  =      -281.85422044
  -Hartree energ DENC   =        -0.65235814
  -exchange      EXHF   =         0.00000000
  -V(xc)+E(xc)   XCENC  =       -16.94393446
  PAW double counting   =       766.18605370     -731.04134847
  entropy T*S    EENTRO =        -0.00160574
  eigenvalues    EBANDS =        43.26645267
  atomic energy  EATOM  =       206.13192747
  Solvation  Ediel_sol  =         0.00000000
  ---------------------------------------------------
  free energy    TOTEN  =        -9.79265430 eV

  energy without entropy =       -9.79104855  energy(sigma->0) =       -9.79185143


--------------------------------------------------------------------------------------------------------




----------------------------------------- Iteration    1(   8)  ---------------------------------------


    POTLOK:  cpu time    0.0350: real time    0.0230
    SETDIJ:  cpu time    0.0020: real time    0.0020
     EDDAV:  cpu time    2.4066: real time    1.6397
       DOS:  cpu time    0.0020: real time    0.0011
    CHARGE:  cpu time    0.0190: real time    0.0139
    MIXING:  cpu time    0.0030: real time    0.0014
    --------------------------------------------
      LOOP:  cpu time    2.4726: real time    1.6843

 eigenvalue-minimisations  :   928
 total energy-change (2. order) : 0.1522201E-03  (-0.1344652E-04)
 number of electron       8.0000001 magnetization 
 augmentation part       -0.4819981 magnetization 

 Broyden mixing:
  rms(total) = 0.22884E-02    rms(broyden)= 0.22884E-02
  rms(prec ) = 0.28146E-02
  weight for this iteration     100.00

 eigenvalues of (default mixing * dielectric matrix)
  average eigenvalue GAMMA=   2.0169
  0.9321  2.7139  2.4048

 Free energy of the ion-electron system (eV)
  ---------------------------------------------------
  alpha Z        PSCENC =         5.11637911
  Ewald energy   TEWEN  =      -281.85422044
  -Hartree energ DENC   =        -0.65508473
  -exchange      EXHF   =         0.00000000
  -V(xc)+E(xc)   XCENC  =       -16.93095871
  PAW double counting   =       746.03369208     -710.90360776
  entropy T*S    EENTRO =        -0.00160510
  eigenvalues    EBANDS =        43.27097600
  atomic energy  EATOM  =       206.13192747
  Solvation  Ediel_sol  =         0.00000000
  ---------------------------------------------------
  free energy    TOTEN  =        -9.79250208 eV

  energy without entropy =       -9.79089698  energy(sigma->0) =       -9.79169953


--------------------------------------------------------------------------------------------------------




----------------------------------------- Iteration    1(   9)  ---------------------------------------


    POTLOK:  cpu time    0.0370: real time    0.0262
    SETDIJ:  cpu time    0.0040: real time    0.0016
     EDDAV:  cpu time    1.0048: real time    0.6716
       DOS:  cpu time    0.0020: real time    0.0011
    --------------------------------------------
      LOOP:  cpu time    1.0528: real time    0.7032

 eigenvalue-minimisations  :   480
 total energy-change (2. order) :-0.5533094E-06  (-0.1860122E-06)
 number of electron       8.0000001 magnetization 
 augmentation part       -0.4819981 magnetization 

 Free energy of the ion-electron system (eV)
  ---------------------------------------------------
  alpha Z        PSCENC =         5.11637911
  Ewald energy   TEWEN  =      -281.85422044
  -Hartree energ DENC   =        -0.65551436
  -exchange      EXHF   =         0.00000000
  -V(xc)+E(xc)   XCENC  =       -16.92911407
  PAW double counting   =       742.62487754     -707.49652744
  entropy T*S    EENTRO =        -0.00160498
  eigenvalues    EBANDS =        43.27129454
  atomic energy  EATOM  =       206.13192747
  Solvation  Ediel_sol  =         0.00000000
  ---------------------------------------------------
  free energy    TOTEN  =        -9.79250263 eV

  energy without entropy =       -9.79089765  energy(sigma->0) =       -9.79170014


--------------------------------------------------------------------------------------------------------




 average (electrostatic) potential at core
  the test charge radii are     0.9892
  (the norm of the test charge is              1.0000)
       1 -78.5936       2 -78.5936
 
 
 
 E-fermi :  11.4282     XC(G=0): -11.5840     alpha+bet :-18.2267


 k-point     1 :       0.0833    0.0833    0.0833
  band No.  band energies     occupation 
      1      -3.2645      2.00000
      2       3.0832      2.00000
      3       5.5848      2.00000
      4      16.1098      0.00000
      5      16.5172      0.00000
      6      21.5318      0.00000
      7      21.8107      0.00000
      8      22.0140      0.00000

 k-point     2 :       0.2500    0.0833    0.0833
  band No.  band energies     occupation 
      1      -1.3634      2.00000
      2       4.9210      2.00000
      3       7.3729      2.00000
      4       9.7634      2.00000
      5      13.9285      0.00000
      6      15.7284      0.00000
      7      17.8962      0.00000
      8      19.8365      0.00000

 k-point     3 :       0.4167    0.0833    0.0833
  band No.  band energies     occupation 
      1       1.9894      2.00000
      2       4.2757      2.00000
      3       8.1806      2.00000
      4      10.0205      2.00000
      5      11.0327      2.00000
      6      12.7604      0.00000
      7      13.1098      0.00000
      8      18.7973      0.00000

 k-point     4 :      -0.4167    0.0833    0.0833
  band No.  band energies     occupation 
      1       0.1419      2.00000
      2       6.2804      2.00000
      3       6.9247      2.00000
      4       8.8335      2.00000
      5      12.8523      0.00000
      6      13.3729      0.00000
      7      15.2878      0.00000
      8      19.1382      0.00000

 k-point     5 :      -0.2500    0.0833    0.0833
  band No.  band energies     occupation 
      1      -2.5017      2.00000
      2       3.8224      2.00000
      3       6.3080      2.00000
      4      12.9119      0.00000
      5      14.9833      0.00000
      6      18.6923      0.00000
      7      20.3010      0.00000
      8      21.0175      0.00000

 k-point     6 :      -0.0833    0.0833    0.0833
  band No.  band energies     occupation 
      1      -3.6471      2.00000
      2       2.7119      2.00000
      3       5.2212      2.00000
      4      17.9066      0.00000
      5      19.0994      0.00000
      6      20.9861      0.00000
      7      22.6690      0.00000
      8      23.1242      0.00000

 k-point     7 :       0.2500    0.2500    0.0833
  band No.  band energies     occupation 
      1       1.2631      2.00000
      2       7.2156      2.00000
      3       7.9016      2.00000
      4       8.1926      2.00000
      5       9.9017      2.00000
      6      13.6550      0.00000
      7      14.2339      0.00000
      8      16.1044      0.00000

 k-point     8 :       0.4167    0.2500    0.0833
  band No.  band energies     occupation 
      1       3.0988      2.00000
      2       5.3436      2.00000
      3       7.5718      2.00000
      4       9.2881      2.00000
      5      11.0657      2.00000
      6      12.0036      0.00000
      7      13.2790      0.00000
      8      14.5759      0.00000

 k-point     9 :      -0.4167    0.2500    0.0833
  band No.  band energies     occupation 
      1      -0.2324      2.00000
      2       6.0010      2.00000
      3       8.2903      2.00000
      4       8.8251      2.00000
      5      10.8485      2.00000
      6      14.6604      0.00000
      7      16.3364      0.00000
      8      17.5064      0.00000

 k-point    10 :      -0.2500    0.2500    0.0833
  band No.  band energies     occupation 
      1      -2.1215      2.00000
      2       4.1901      2.00000
      3       6.6663      2.00000
      4      11.1755      1.99965
      5      16.4949      0.00000
      6      17.0543      0.00000
      7      18.7507      0.00000
      8      19.2804      0.00000

 k-point    11 :       0.4167    0.4167    0.0833
  band No.  band energies     occupation 
      1       3.2297      2.00000
      2       3.7783      2.00000
      3       9.3028      2.00000
      4       9.7921      2.00000
      5      10.1357      2.00000
      6      12.0380      0.00000
      7      12.3997      0.00000
      8      16.3127      0.00000

 k-point    12 :      -0.4167    0.4167    0.0833
  band No.  band energies     occupation 
      1       0.8868      2.00000
      2       5.3424      2.00000
      3       7.1419      2.00000
      4       9.4700      2.00000
      5      11.6276      0.00480
      6      13.9257      0.00000
      7      15.1703      0.00000
      8      17.4097      0.00000

 k-point    13 :       0.0833    0.0833    0.2500
  band No.  band energies     occupation 
      1      -2.8345      2.00000
      2       0.9931      2.00000
      3       8.4341      2.00000
      4      16.4894      0.00000
      5      16.7803      0.00000
      6      19.0857      0.00000
      7      19.8416      0.00000
      8      20.4252      0.00000

 k-point    14 :       0.2500    0.0833    0.2500
  band No.  band energies     occupation 
      1      -0.9373      2.00000
      2       2.8539      2.00000
      3       9.9144      2.00000
      4      10.3931      2.00000
      5      13.7542      0.00000
      6      14.3934      0.00000
      7      17.8127      0.00000
      8      19.8167      0.00000

 k-point    15 :       0.4167    0.0833    0.2500
  band No.  band energies     occupation 
      1       2.4082      2.00000
      2       4.6712      2.00000
      3       6.1821      2.00000
      4       8.3708      2.00000
      5      13.1334      0.00000
      6      13.6085      0.00000
      7      15.4235      0.00000
      8      17.1784      0.00000

 k-point    16 :      -0.4167    0.0833    0.2500
  band No.  band energies     occupation 
      1       0.5649      2.00000
      2       4.3192      2.00000
      3       7.2538      2.00000
      4      10.6504      2.00000
      5      11.9227      0.00000
      6      13.6717      0.00000
      7      16.9425      0.00000
      8      18.2474      0.00000

 k-point    17 :      -0.2500    0.0833    0.2500
  band No.  band energies     occupation 
      1      -2.0732      2.00000
      2       1.7402      2.00000
      3       9.1347      2.00000
      4      13.2961      0.00000
      5      15.3347      0.00000
      6      16.8581      0.00000
      7      18.8714      0.00000
      8      19.5561      0.00000

 k-point    18 :      -0.0833    0.0833    0.2500
  band No.  band energies     occupation 
      1      -3.2163      2.00000
      2       0.6182      2.00000
      3       8.0788      2.00000
      4      18.0520      0.00000
      5      18.7509      0.00000
      6      19.4648      0.00000
      7      21.5708      0.00000
      8      22.0052      0.00000

 k-point    19 :       0.2500    0.2500    0.2500
  band No.  band energies     occupation 
      1       1.6835      2.00000
      2       5.4028      2.00000
      3       8.1056      2.00000
      4       8.5885      2.00000
      5      11.6912      0.00020
      6      11.7357      0.00001
      7      13.4168      0.00000
      8      18.5512      0.00000

 k-point    20 :       0.4167    0.2500    0.2500
  band No.  band energies     occupation 
      1       3.5142      2.00000
      2       5.7302      2.00000
      3       7.2307      2.00000
      4       8.0530      2.00000
      5       9.4595      2.00000
      6      11.5378      0.12109
      7      14.6977      0.00000
      8      16.7782      0.00000

 k-point    21 :      -0.4167    0.2500    0.2500
  band No.  band energies     occupation 
      1       0.1914      2.00000
      2       3.9576      2.00000
      3       9.0190      2.00000
      4      11.0387      2.00000
      5      11.3029      1.92365
      6      12.8645      0.00000
      7      14.9377      0.00000
      8      19.4598      0.00000

 k-point    22 :      -0.2500    0.2500    0.2500
  band No.  band energies     occupation 
      1      -1.6938      2.00000
      2       2.1124      2.00000
      3       9.4703      2.00000
      4      11.5780      0.03418
      5      15.1803      0.00000
      6      16.8667      0.00000
      7      18.6951      0.00000
      8      20.1648      0.00000

 k-point    23 :       0.4167    0.4167    0.2500
  band No.  band energies     occupation 
      1       3.6466      2.00000
      2       4.1850      2.00000
      3       7.3845      2.00000
      4       7.8754      2.00000
      5      10.5199      2.00000
      6      13.6877      0.00000
      7      14.6733      0.00000
      8      15.7931      0.00000

 k-point    24 :      -0.4167    0.4167    0.2500
  band No.  band energies     occupation 
      1       1.3082      2.00000
      2       5.0048      2.00000
      3       5.8520      2.00000
      4       9.4021      2.00000
      5      12.4786      0.00000
      6      15.5435      0.00000
      7      16.5169      0.00000
      8      17.7307      0.00000

 k-point    25 :       0.0833    0.0833    0.4167
  band No.  band energies     occupation 
      1      -1.9773      2.00000
      2      -0.6986      2.00000
      3      11.6247      0.00547
      4      15.0426      0.00000
      5      17.2419      0.00000
      6      17.8957      0.00000
      7      18.3995      0.00000
      8      18.9748      0.00000

 k-point    26 :       0.2500    0.0833    0.4167
  band No.  band energies     occupation 
      1      -0.0879      2.00000
      2       1.1789      2.00000
      3      10.8933      2.00000
      4      11.9627      0.00000
      5      13.5563      0.00000
      6      15.0187      0.00000
      7      16.4000      0.00000
      8      17.1289      0.00000

 k-point    27 :       0.4167    0.0833    0.4167
  band No.  band energies     occupation 
      1       3.2408      2.00000
      2       4.4584      2.00000
      3       5.5725      2.00000
      4       6.7686      2.00000
      5      14.0334      0.00000
      6      15.0517      0.00000
      7      16.7026      0.00000
      8      18.4602      0.00000

 k-point    28 :      -0.4167    0.0833    0.4167
  band No.  band energies     occupation 
      1       1.4077      2.00000
      2       2.6637      2.00000
      3       8.0596      2.00000
      4       9.2558      2.00000
      5      14.3003      0.00000
      6      14.6969      0.00000
      7      15.8931      0.00000
      8      18.2001      0.00000

 k-point    29 :      -0.2500    0.0833    0.4167
  band No.  band energies     occupation 
      1      -1.2191      2.00000
      2       0.0549      2.00000
      3      12.2515      0.00000
      4      13.9936      0.00000
      5      15.3163      0.00000
      6      15.5575      0.00000
      7      16.7141      0.00000
      8      17.4317      0.00000

 k-point    30 :      -0.0833    0.0833    0.4167
  band No.  band energies     occupation 
      1      -2.3575      2.00000
      2      -1.0765      2.00000
      3      11.2882      1.95231
      4      14.7896      0.00000
      5      19.0896      0.00000
      6      20.1824      0.00000
      7      20.1918      0.00000
      8      21.2652      0.00000

 k-point    31 :       0.2500    0.2500    0.4167
  band No.  band energies     occupation 
      1       2.5209      2.00000
      2       3.7672      2.00000
      3       8.8943      2.00000
      4       9.3429      2.00000
      5      10.1820      2.00000
      6      10.5755      2.00000
      7      16.0668      0.00000
      8      19.1009      0.00000

 k-point    32 :       0.4167    0.2500    0.4167
  band No.  band energies     occupation 
      1       4.3385      2.00000
      2       5.5318      2.00000
      3       6.6547      2.00000
      4       7.8100      2.00000
      5       8.8761      2.00000
      6      10.0378      2.00000
      7      17.6138      0.00000
      8      19.2904      0.00000

 k-point    33 :      -0.4167    0.2500    0.4167
  band No.  band energies     occupation 
      1       1.0359      2.00000
      2       2.2949      2.00000
      3       9.8261      2.00000
      4      10.9757      2.00000
      5      12.0201      0.00000
      6      13.0224      0.00000
      7      14.9052      0.00000
      8      18.0243      0.00000

 k-point    34 :      -0.2500    0.2500    0.4167
  band No.  band energies     occupation 
      1      -0.8413      2.00000
      2       0.4304      2.00000
      3      12.1827      0.00000
      4      12.5840      0.00000
      5      13.8247      0.00000
      6      16.2016      0.00000
      7      17.6088      0.00000
      8      18.7154      0.00000

 k-point    35 :       0.4167    0.4167    0.4167
  band No.  band energies     occupation 
      1       4.4668      2.00000
      2       4.9586      2.00000
      3       5.8032      2.00000
      4       6.2778      2.00000
      5      11.3069      1.91390
      6      12.4552      0.00000
      7      17.6076      0.00000
      8      18.3511      0.00000

 k-point    36 :      -0.4167    0.4167    0.4167
  band No.  band energies     occupation 
      1       2.1474      2.00000
      2       3.3956      2.00000
      3       6.6237      2.00000
      4       7.8346      2.00000
      5      15.4647      0.00000
      6      16.2891      0.00000
      7      17.4036      0.00000
      8      17.8820      0.00000


--------------------------------------------------------------------------------------------------------


 soft charge-density along one line, spin component           1
         0         1         2         3         4         5         6         7         8         9
 total charge-density along one line
 
 pseudopotential strength for first ion, spin component:           1
 17.822  24.862   0.000   0.000  -0.000   0.000   0.000  -0.000
 24.862  34.687   0.000   0.000  -0.000   0.000   0.000  -0.000
  0.000   0.000   4.077  -0.000   0.000   7.593  -0.000   0.000
  0.000   0.000  -0.000   4.077  -0.000  -0.000   7.593  -0.000
 -0.000  -0.000   0.000  -0.000   4.077   0.000  -0.000   7.593
  0.000   0.000   7.593  -0.000   0.000  14.154  -0.000   0.000
  0.000   0.000  -0.000   7.593  -0.000  -0.000  14.154  -0.000
 -0.000  -0.000   0.000  -0.000   7.593   0.000  -0.000  14.154
 total augmentation occupancy for first ion, spin component:           1
  5.625  -2.456  -0.000   0.000   0.000  -0.000   0.000  -0.000
 -2.456   1.491   0.000   0.000  -0.000   0.000   0.000   0.000
 -0.000   0.000   2.656   0.000   0.000  -0.657  -0.000   0.000
  0.000   0.000   0.000   2.655   0.000   0.000  -0.658   0.000
  0.000   0.000   0.000   0.000   2.656   0.000   0.000  -0.657
  0.000   0.000  -0.657  -0.000   0.000   0.179   0.000   0.000
  0.000   0.000  -0.000  -0.658   0.000   0.000   0.179  -0.000
  0.000   0.000  -0.000  -0.000  -0.657   0.000   0.000   0.179


------------------------ aborting loop because EDIFF is reached ----------------------------------------


    CHARGE:  cpu time    0.0280: real time    0.0196
    FORLOC:  cpu time    0.0030: real time    0.0017
    FORNL :  cpu time    0.0390: real time    0.0254
    STRESS:  cpu time    0.3230: real time    0.2146
    FORCOR:  cpu time    0.0500: real time    0.0359
    FORHAR:  cpu time    0.0080: real time    0.0075
    MIXING:  cpu time    0.0010: real time    0.0005
    OFIELD:  cpu time    0.0000: real time    0.0000

  FORCE on cell =-STRESS in cart. coord.  units (eV):
  Direction    XX          YY          ZZ          XY          YZ          ZX
  --------------------------------------------------------------------------------------
  Alpha Z     5.11638     5.11638     5.11638
  Ewald     -94.01577   -94.01577   -93.82288    -0.00000     0.00000     0.00000
  Hartree     0.21234     0.21234     0.23073    -0.00000    -0.00000    -0.00000
  E(xc)     -26.01447   -26.01447   -26.03878    -0.00000     0.00000     0.00000
  Local      -8.24516    -8.24516    -8.55808    -0.00001    -0.00000    -0.00000
  n-local    74.67154    78.28898    77.01418    -1.11120     0.11383    -0.69072
  augment   -12.26539   -12.26539   -12.25515     0.00001     0.00000     0.00000
  Kinetic    76.16991    44.63548    59.40983    10.73927     0.00602     0.08235
  Fock        0.00000     0.00000     0.00000     0.00000     0.00000     0.00000
  -------------------------------------------------------------------------------------
  Total       1.67089     1.67089     1.09624     0.00000     0.00000     0.00000
  in kB     101.71981   101.71981    66.73648     0.00000     0.00000     0.00000
  external pressure =       90.06 kB  Pullay stress =        0.00 kB


 VOLUME and BASIS-vectors are now :
 -----------------------------------------------------------------------------
  energy-cutoff  :      450.00
  volume of cell :       26.32
      direct lattice vectors                 reciprocal lattice vectors
     2.650000000  0.000000000  0.000000000     0.377358491  0.217868026  0.000000000
    -1.325000000  2.294967320  0.000000000     0.000000000  0.435736052  0.000000000
     0.000000000  0.000000000  4.327423500     0.000000000  0.000000000  0.231084385

  length of vectors
     2.650000000  2.650000000  4.327423500     0.435736052  0.435736052  0.231084385


 FORCES acting on ions
    electron-ion (+dipol)            ewald-force                    non-local-force                 convergence-correction
 -----------------------------------------------------------------------------------------------
   -.260E-08 0.150E-08 0.815E-15   -.896E-13 0.708E-13 -.392E-14   0.737E-16 -.867E-18 0.000E+00   0.706E-09 -.408E-09 0.310E-14
   0.260E-08 -.150E-08 -.106E-13   0.912E-13 -.721E-13 0.392E-14   -.555E-16 0.520E-17 0.000E+00   -.706E-09 0.408E-09 -.307E-14
 -----------------------------------------------------------------------------------------------
   -.491E-14 -.146E-14 -.982E-14   0.163E-14 -.128E-14 0.000E+00   0.182E-16 0.434E-17 0.000E+00   -.901E-17 0.278E-16 0.273E-16
 
 
 POSITION                                       TOTAL-FORCE (eV/Angst)
 -----------------------------------------------------------------------------------
      0.00000      0.00000      0.00000         0.000000      0.000000      0.000000
     -0.00000      1.52998      2.16371        -0.000000      0.000000      0.000000
 -----------------------------------------------------------------------------------
    total drift:                               -0.000000     -0.000000     -0.000000


--------------------------------------------------------------------------------------------------------



  FREE ENERGIE OF THE ION-ELECTRON SYSTEM (eV)
  ---------------------------------------------------
  free  energy   TOTEN  =        -9.79250263 eV

  energy  without entropy=       -9.79089765  energy(sigma->0) =       -9.79170014
 


--------------------------------------------------------------------------------------------------------


    POTLOK:  cpu time    0.0230: real time    0.0234


--------------------------------------------------------------------------------------------------------




--------------------------------------------------------------------------------------------------------


    WAVPRE:  cpu time    0.0020: real time    0.0020
 FEWALD executed in parallel
    FEWALD:  cpu time    0.0010: real time    0.0001
    GENKIN:  cpu time    0.0060: real time    0.0068
    ORTHCH:  cpu time    0.1500: real time    0.0990
     LOOP+:  cpu time   16.7005: real time   11.1405


----------------------------------------- Iteration    2(   1)  ---------------------------------------


    POTLOK:  cpu time    0.0310: real time    0.0224
    SETDIJ:  cpu time    0.0040: real time    0.0016
     EDDAV:  cpu time    1.7927: real time    1.1978
       DOS:  cpu time    0.0020: real time    0.0010
    CHARGE:  cpu time    0.0180: real time    0.0123
    MIXING:  cpu time    0.0030: real time    0.0013
    --------------------------------------------
      LOOP:  cpu time    1.8527: real time    1.2378

 eigenvalue-minimisations  :   848
 total energy-change (2. order) :-0.5536952E-02  (-0.9783646E-02)
 number of electron       8.0000001 magnetization 
 augmentation part       -0.4824590 magnetization 

 Broyden mixing:
  rms(total) = 0.19048E-01    rms(broyden)= 0.19048E-01
  rms(prec ) = 0.44765E-01
  weight for this iteration     100.00

 Free energy of the ion-electron system (eV)
  ---------------------------------------------------
  alpha Z        PSCENC =         5.11637911
  Ewald energy   TEWEN  =      -281.84492772
  -Hartree energ DENC   =        -0.65553899
  -exchange      EXHF   =         0.00000000
  -V(xc)+E(xc)   XCENC  =       -16.92948151
  PAW double counting   =       743.55881504     -708.42968710
  entropy T*S    EENTRO =        -0.00347315
  eigenvalues    EBANDS =        43.25794781
  atomic energy  EATOM  =       206.13192747
  Solvation  Ediel_sol  =         0.00000000
  ---------------------------------------------------
  free energy    TOTEN  =        -9.79803903 eV

  energy without entropy =       -9.79456588  energy(sigma->0) =       -9.79630246


--------------------------------------------------------------------------------------------------------




----------------------------------------- Iteration    2(   2)  ---------------------------------------


    POTLOK:  cpu time    0.0350: real time    0.0246
    SETDIJ:  cpu time    0.0040: real time    0.0020
     EDDAV:  cpu time    1.7787: real time    1.0987
       DOS:  cpu time    0.0030: real time    0.0012
    CHARGE:  cpu time    0.0230: real time    0.0168
    MIXING:  cpu time    0.0030: real time    0.0014
    --------------------------------------------
      LOOP:  cpu time    1.8507: real time    1.1472

 eigenvalue-minimisations  :   656
 total energy-change (2. order) : 0.7897896E-03  (-0.1711766E-03)
 number of electron       8.0000001 magnetization 
 augmentation part       -0.4825258 magnetization 

 Broyden mixing:
  rms(total) = 0.10554E-01    rms(broyden)= 0.10554E-01
  rms(prec ) = 0.25215E-01
  weight for this iteration     100.00

 eigenvalues of (default mixing * dielectric matrix)
  average eigenvalue GAMMA=   2.0566
  2.0566

 Free energy of the ion-electron system (eV)
  ---------------------------------------------------
  alpha Z        PSCENC =         5.11637911
  Ewald energy   TEWEN  =      -281.84492772
  -Hartree energ DENC   =        -0.65654257
  -exchange      EXHF   =         0.00000000
  -V(xc)+E(xc)   XCENC  =       -16.92947063
  PAW double counting   =       743.51224001     -708.38331158
  entropy T*S    EENTRO =        -0.00348511
  eigenvalues    EBANDS =        43.25994177
  atomic energy  EATOM  =       206.13192747
  Solvation  Ediel_sol  =         0.00000000
  ---------------------------------------------------
  free energy    TOTEN  =        -9.79724924 eV

  energy without entropy =       -9.79376413  energy(sigma->0) =       -9.79550669


--------------------------------------------------------------------------------------------------------




----------------------------------------- Iteration    2(   3)  ---------------------------------------


    POTLOK:  cpu time    0.0400: real time    0.0256
    SETDIJ:  cpu time    0.0030: real time    0.0016
     EDDAV:  cpu time    1.9307: real time    1.2321
       DOS:  cpu time    0.0060: real time    0.0051
    CHARGE:  cpu time    0.0200: real time    0.0131
    MIXING:  cpu time    0.0020: real time    0.0009
    --------------------------------------------
      LOOP:  cpu time    2.0067: real time    1.2812

 eigenvalue-minimisations  :   872
 total energy-change (2. order) : 0.4041663E-03  (-0.9821570E-04)
 number of electron       8.0000001 magnetization 
 augmentation part       -0.4824810 magnetization 

 Broyden mixing:
  rms(total) = 0.87334E-03    rms(broyden)= 0.87331E-03
  rms(prec ) = 0.13901E-02
  weight for this iteration     100.00

 eigenvalues of (default mixing * dielectric matrix)
  average eigenvalue GAMMA=   1.6306
  1.0412  2.2199

 Free energy of the ion-electron system (eV)
  ---------------------------------------------------
  alpha Z        PSCENC =         5.11637911
  Ewald energy   TEWEN  =      -281.84492772
  -Hartree energ DENC   =        -0.65882900
  -exchange      EXHF   =         0.00000000
  -V(xc)+E(xc)   XCENC  =       -16.92943696
  PAW double counting   =       743.09959340     -707.97115715
  entropy T*S    EENTRO =        -0.00350039
  eigenvalues    EBANDS =        43.26310617
  atomic energy  EATOM  =       206.13192747
  Solvation  Ediel_sol  =         0.00000000
  ---------------------------------------------------
  free energy    TOTEN  =        -9.79684507 eV

  energy without entropy =       -9.79334468  energy(sigma->0) =       -9.79509488


--------------------------------------------------------------------------------------------------------




----------------------------------------- Iteration    2(   4)  ---------------------------------------


    POTLOK:  cpu time    0.0370: real time    0.0258
    SETDIJ:  cpu time    0.0030: real time    0.0016
     EDDAV:  cpu time    1.6168: real time    1.0283
       DOS:  cpu time    0.0020: real time    0.0007
    --------------------------------------------
      LOOP:  cpu time    1.6637: real time    1.0589

 eigenvalue-minimisations  :   616
 total energy-change (2. order) :-0.3174687E-05  (-0.3159161E-05)
 number of electron       8.0000001 magnetization 
 augmentation part       -0.4824810 magnetization 

 Free energy of the ion-electron system (eV)
  ---------------------------------------------------
  alpha Z        PSCENC =         5.11637911
  Ewald energy   TEWEN  =      -281.84492772
  -Hartree energ DENC   =        -0.65858796
  -exchange      EXHF   =         0.00000000
  -V(xc)+E(xc)   XCENC  =       -16.92947238
  PAW double counting   =       743.17473636     -708.04628437
  entropy T*S    EENTRO =        -0.00350010
  eigenvalues    EBANDS =        43.26288134
  atomic energy  EATOM  =       206.13192747
  Solvation  Ediel_sol  =         0.00000000
  ---------------------------------------------------
  free energy    TOTEN  =        -9.79684825 eV

  energy without entropy =       -9.79334814  energy(sigma->0) =       -9.79509820


--------------------------------------------------------------------------------------------------------




 average (electrostatic) potential at core
  the test charge radii are     0.9892
  (the norm of the test charge is              1.0000)
       1 -78.5925       2 -78.5925
 
 
 
 E-fermi :  11.4685     XC(G=0): -11.5839     alpha+bet :-18.2267


 k-point     1 :       0.0833    0.0833    0.0833
  band No.  band energies     occupation 
      1      -3.2696      2.00000
      2       3.2019      2.00000
      3       5.7363      2.00000
      4      15.9102      0.00000
      5      16.3529      0.00000
      6      21.4581      0.00000
      7      21.8088      0.00000
      8      21.9860      0.00000

 k-point     2 :       0.2500    0.0833    0.0833
  band No.  band energies     occupation 
      1      -1.3865      2.00000
      2       5.0197      2.00000
      3       7.5046      2.00000
      4       9.6428      2.00000
      5      13.7739      0.00000
      6      15.7238      0.00000
      7      17.9158      0.00000
      8      19.8295      0.00000

 k-point     3 :       0.4167    0.0833    0.0833
  band No.  band energies     occupation 
      1       1.9318      2.00000
      2       4.2088      2.00000
      3       8.2360      2.00000
      4      10.0964      2.00000
      5      11.1153      2.00000
      6      12.7044      0.00000
      7      13.0917      0.00000
      8      18.7877      0.00000

 k-point     4 :      -0.4167    0.0833    0.0833
  band No.  band energies     occupation 
      1       0.1043      2.00000
      2       6.3361      2.00000
      3       6.8575      2.00000
      4       8.9510      2.00000
      5      12.8365      0.00000
      6      13.2631      0.00000
      7      15.3374      0.00000
      8      19.1286      0.00000

 k-point     5 :      -0.2500    0.0833    0.0833
  band No.  band energies     occupation 
      1      -2.5140      2.00000
      2       3.9330      2.00000
      3       6.4526      2.00000
      4      12.7580      0.00000
      5      14.8187      0.00000
      6      18.6613      0.00000
      7      20.2843      0.00000
      8      21.0107      0.00000

 k-point     6 :      -0.0833    0.0833    0.0833
  band No.  band energies     occupation 
      1      -3.6486      2.00000
      2       2.8347      2.00000
      3       5.3761      2.00000
      4      17.7033      0.00000
      5      18.8761      0.00000
      6      20.8748      0.00000
      7      22.8812      0.00000
      8      22.9009      0.00000

 k-point     7 :       0.2500    0.2500    0.0833
  band No.  band energies     occupation 
      1       1.2148      2.00000
      2       7.2174      2.00000
      3       7.8486      2.00000
      4       8.1114      2.00000
      5      10.0078      2.00000
      6      13.6242      0.00000
      7      14.3033      0.00000
      8      16.1690      0.00000

 k-point     8 :       0.4167    0.2500    0.0833
  band No.  band energies     occupation 
      1       3.0306      2.00000
      2       5.2624      2.00000
      3       7.4855      2.00000
      4       9.3259      2.00000
      5      11.1328      2.00000
      6      12.0492      0.00000
      7      13.3369      0.00000
      8      14.6454      0.00000

 k-point     9 :      -0.4167    0.2500    0.0833
  band No.  band energies     occupation 
      1      -0.2662      2.00000
      2       6.0877      2.00000
      3       8.3115      2.00000
      4       8.8111      2.00000
      5      10.7257      2.00000
      6      14.6578      0.00000
      7      16.3546      0.00000
      8      17.5478      0.00000

 k-point    10 :      -0.2500    0.2500    0.0833
  band No.  band energies     occupation 
      1      -2.1374      2.00000
      2       4.2967      2.00000
      3       6.8070      2.00000
      4      11.0402      2.00000
      5      16.2987      0.00000
      6      17.0451      0.00000
      7      18.5920      0.00000
      8      19.2930      0.00000

 k-point    11 :       0.4167    0.4167    0.0833
  band No.  band energies     occupation 
      1       3.1463      2.00000
      2       3.7291      2.00000
      3       9.3097      2.00000
      4       9.8856      2.00000
      5      10.0280      2.00000
      6      12.1310      0.00000
      7      12.4627      0.00000
      8      16.3329      0.00000

 k-point    12 :      -0.4167    0.4167    0.0833
  band No.  band energies     occupation 
      1       0.8417      2.00000
      2       5.2674      2.00000
      3       7.2088      2.00000
      4       9.5804      2.00000
      5      11.6736      0.00372
      6      13.9912      0.00000
      7      14.9851      0.00000
      8      17.2537      0.00000

 k-point    13 :       0.0833    0.0833    0.2500
  band No.  band energies     occupation 
      1      -2.8314      2.00000
      2       1.0691      2.00000
      3       8.6404      2.00000
      4      16.2977      0.00000
      5      16.6560      0.00000
      6      19.3886      0.00000
      7      19.7248      0.00000
      8      20.3400      0.00000

 k-point    14 :       0.2500    0.0833    0.2500
  band No.  band energies     occupation 
      1      -0.9523      2.00000
      2       2.9112      2.00000
      3       9.8975      2.00000
      4      10.4781      2.00000
      5      13.7056      0.00000
      6      14.2524      0.00000
      7      17.7420      0.00000
      8      19.9662      0.00000

 k-point    15 :       0.4167    0.0833    0.2500
  band No.  band energies     occupation 
      1       2.3589      2.00000
      2       4.6149      2.00000
      3       6.1984      2.00000
      4       8.3827      2.00000
      5      13.0604      0.00000
      6      13.6886      0.00000
      7      15.5225      0.00000
      8      17.1474      0.00000

 k-point    16 :      -0.4167    0.0833    0.2500
  band No.  band energies     occupation 
      1       0.5354      2.00000
      2       4.3617      2.00000
      3       7.1667      2.00000
      4      10.6692      2.00000
      5      12.0535      0.00000
      6      13.5306      0.00000
      7      16.9082      0.00000
      8      18.3268      0.00000

 k-point    17 :      -0.2500    0.0833    0.2500
  band No.  band energies     occupation 
      1      -2.0774      2.00000
      2       1.8087      2.00000
      3       9.3323      2.00000
      4      13.1524      0.00000
      5      15.1836      0.00000
      6      16.7810      0.00000
      7      18.7921      0.00000
      8      19.8431      0.00000

 k-point    18 :      -0.0833    0.0833    0.2500
  band No.  band energies     occupation 
      1      -3.2096      2.00000
      2       0.6980      2.00000
      3       8.2891      2.00000
      4      17.9839      0.00000
      5      18.9589      0.00000
      6      19.2493      0.00000
      7      21.4325      0.00000
      8      21.8677      0.00000

 k-point    19 :       0.2500    0.2500    0.2500
  band No.  band energies     occupation 
      1       1.6433      2.00000
      2       5.4342      2.00000
      3       7.9899      2.00000
      4       8.5162      2.00000
      5      11.6814      0.00260
      6      11.7454      0.00009
      7      13.5278      0.00000
      8      18.6641      0.00000

 k-point    20 :       0.4167    0.2500    0.2500
  band No.  band energies     occupation 
      1       3.4543      2.00000
      2       5.6602      2.00000
      3       7.2334      2.00000
      4       7.9731      2.00000
      5       9.4515      2.00000
      6      11.5285      0.39579
      7      14.8367      0.00000
      8      16.9027      0.00000

 k-point    21 :      -0.4167    0.2500    0.2500
  band No.  band energies     occupation 
      1       0.1656      2.00000
      2       4.0039      2.00000
      3       8.9151      2.00000
      4      11.0307      2.00000
      5      11.3481      1.91137
      6      12.8355      0.00000
      7      14.9056      0.00000
      8      19.5869      0.00000

 k-point    22 :      -0.2500    0.2500    0.2500
  band No.  band energies     occupation 
      1      -1.7015      2.00000
      2       2.1772      2.00000
      3       9.6604      2.00000
      4      11.4546      1.15536
      5      15.1256      0.00000
      6      16.6784      0.00000
      7      18.6661      0.00000
      8      20.0537      0.00000

 k-point    23 :       0.4167    0.4167    0.2500
  band No.  band energies     occupation 
      1       3.5714      2.00000
      2       4.1444      2.00000
      3       7.3733      2.00000
      4       7.9093      2.00000
      5      10.4071      2.00000
      6      13.6821      0.00000
      7      14.8111      0.00000
      8      15.9005      0.00000

 k-point    24 :      -0.4167    0.4167    0.2500
  band No.  band energies     occupation 
      1       1.2712      2.00000
      2       5.0353      2.00000
      3       5.7827      2.00000
      4       9.4049      2.00000
      5      12.6379      0.00000
      6      15.3661      0.00000
      7      16.6289      0.00000
      8      17.5979      0.00000

 k-point    25 :       0.0833    0.0833    0.4167
  band No.  band energies     occupation 
      1      -1.9579      2.00000
      2      -0.6549      2.00000
      3      11.8853      0.00000
      4      15.3327      0.00000
      5      17.0666      0.00000
      6      17.7767      0.00000
      7      18.2468      0.00000
      8      18.8537      0.00000

 k-point    26 :       0.2500    0.0833    0.4167
  band No.  band energies     occupation 
      1      -0.0867      2.00000
      2       1.2043      2.00000
      3      10.7996      2.00000
      4      11.9189      0.00000
      5      13.7468      0.00000
      6      14.9120      0.00000
      7      16.3104      0.00000
      8      17.3834      0.00000

 k-point    27 :       0.4167    0.0833    0.4167
  band No.  band energies     occupation 
      1       3.2078      2.00000
      2       4.4503      2.00000
      3       5.5256      2.00000
      4       6.7470      2.00000
      5      13.9119      0.00000
      6      14.9773      0.00000
      7      16.8864      0.00000
      8      18.6424      0.00000

 k-point    28 :      -0.4167    0.0833    0.4167
  band No.  band energies     occupation 
      1       1.3945      2.00000
      2       2.6745      2.00000
      3       7.9884      2.00000
      4       9.2098      2.00000
[...]

 k-point     2 :       0.2500    0.0833    0.0833
  band No.  band energies     occupation 
      1      -1.4097      2.00000
      2       5.1139      2.00000
      3       7.6387      2.00000
      4       9.5260      2.00000
      5      13.6226      0.00000
      6      15.7174      0.00000
      7      17.9423      0.00000
      8      19.8202      0.00000

 k-point     3 :       0.4167    0.0833    0.0833
  band No.  band energies     occupation 
      1       1.8752      2.00000
      2       4.1432      2.00000
      3       8.2879      2.00000
      4      10.1728      2.00000
      5      11.1979      1.99997
      6      12.6032      0.00000
      7      13.1296      0.00000
      8      18.7769      0.00000

 k-point     4 :      -0.4167    0.0833    0.0833
  band No.  band energies     occupation 
      1       0.0672      2.00000
      2       6.3698      2.00000
      3       6.8102      2.00000
      4       9.0726      2.00000
      5      12.7883      0.00000
      6      13.1872      0.00000
      7      15.3934      0.00000
      8      19.1176      0.00000

 k-point     5 :      -0.2500    0.0833    0.0833
  band No.  band energies     occupation 
      1      -2.5267      2.00000
      2       4.0388      2.00000
      3       6.5999      2.00000
      4      12.6077      0.00000
      5      14.6582      0.00000
      6      18.6275      0.00000
      7      20.2705      0.00000
      8      20.9519      0.00000

 k-point     6 :      -0.0833    0.0833    0.0833
  band No.  band energies     occupation 
      1      -3.6507      2.00000
      2       2.9524      2.00000
      3       5.5334      2.00000
      4      17.5042      0.00000
      5      18.6586      0.00000
      6      20.7362      0.00000
      7      22.6828      0.00000
      8      22.9944      0.00000

 k-point     7 :       0.2500    0.2500    0.0833
  band No.  band energies     occupation 
      1       1.1672      2.00000
      2       7.1903      2.00000
      3       7.8237      2.00000
      4       8.0317      2.00000
      5      10.1185      2.00000
      6      13.5953      0.00000
      7      14.3704      0.00000
      8      16.2372      0.00000

 k-point     8 :       0.4167    0.2500    0.0833
  band No.  band energies     occupation 
      1       2.9637      2.00000
      2       5.1825      2.00000
      3       7.4006      2.00000
      4       9.3615      2.00000
      5      11.1992      1.99997
      6      12.0976      0.00000
      7      13.3995      0.00000
      8      14.7154      0.00000

 k-point     9 :      -0.4167    0.2500    0.0833
  band No.  band energies     occupation 
      1      -0.2998      2.00000
      2       6.1700      2.00000
      3       8.2824      2.00000
      4       8.8536      2.00000
      5      10.6065      2.00000
      6      14.6526      0.00000
      7      16.3776      0.00000
      8      17.5901      0.00000

 k-point    10 :      -0.2500    0.2500    0.0833
  band No.  band energies     occupation 
      1      -2.1536      2.00000
      2       4.3986      2.00000
      3       6.9507      2.00000
      4      10.9084      2.00000
      5      16.1078      0.00000
      6      17.0332      0.00000
      7      18.4357      0.00000
      8      19.3118      0.00000

 k-point    11 :       0.4167    0.4167    0.0833
  band No.  band energies     occupation 
      1       3.0652      2.00000
      2       3.6801      2.00000
      3       9.3139      2.00000
      4       9.9251      2.00000
      5       9.9740      2.00000
      6      12.2286      0.00000
      7      12.5313      0.00000
      8      16.3515      0.00000

 k-point    12 :      -0.4167    0.4167    0.0833
  band No.  band energies     occupation 
      1       0.7972      2.00000
      2       5.1931      2.00000
      3       7.2730      2.00000
      4       9.6945      2.00000
      5      11.7169      0.00146
      6      14.0623      0.00000
      7      14.8049      0.00000
      8      17.1018      0.00000

 k-point    13 :       0.0833    0.0833    0.2500
  band No.  band energies     occupation 
      1      -2.8289      2.00000
      2       1.1431      2.00000
      3       8.8462      2.00000
      4      16.1116      0.00000
      5      16.5235      0.00000
      6      19.5844      0.00000
      7      19.7135      0.00000
      8      20.2563      0.00000

 k-point    14 :       0.2500    0.0833    0.2500
  band No.  band energies     occupation 
      1      -0.9673      2.00000
      2       2.9671      2.00000
      3       9.8298      2.00000
      4      10.6163      2.00000
      5      13.6549      0.00000
      6      14.1192      0.00000
      7      17.6736      0.00000
      8      20.0537      0.00000

 k-point    15 :       0.4167    0.0833    0.2500
  band No.  band energies     occupation 
      1       2.3103      2.00000
      2       4.5593      2.00000
      3       6.2148      2.00000
      4       8.3949      2.00000
      5      12.9537      0.00000
      6      13.8063      0.00000
      7      15.6173      0.00000
      8      17.1251      0.00000

 k-point    16 :      -0.4167    0.0833    0.2500
  band No.  band energies     occupation 
      1       0.5063      2.00000
      2       4.4031      2.00000
      3       7.0817      2.00000
      4      10.6820      2.00000
      5      12.1897      0.00000
      6      13.3954      0.00000
      7      16.8705      0.00000
      8      18.4126      0.00000

 k-point    17 :      -0.2500    0.0833    0.2500
  band No.  band energies     occupation 
      1      -2.0819      2.00000
      2       1.8754      2.00000
      3       9.5294      2.00000
      4      13.0119      0.00000
      5      15.0355      0.00000
      6      16.7054      0.00000
      7      18.7147      0.00000
      8      20.0966      0.00000

 k-point    18 :      -0.0833    0.0833    0.2500
  band No.  band energies     occupation 
      1      -3.2036      2.00000
      2       0.7756      2.00000
      3       8.4988      2.00000
      4      17.8388      0.00000
      5      19.0394      0.00000
      6      19.2286      0.00000
      7      21.2979      0.00000
      8      21.7480      0.00000

 k-point    19 :       0.2500    0.2500    0.2500
  band No.  band energies     occupation 
      1       1.6037      2.00000
      2       5.4646      2.00000
      3       7.8776      2.00000
      4       8.4452      2.00000
      5      11.6299      0.05086
      6      11.7942      0.00002
      7      13.6453      0.00000
      8      18.7778      0.00000

 k-point    20 :       0.4167    0.2500    0.2500
  band No.  band energies     occupation 
      1       3.3954      2.00000
      2       5.5910      2.00000
      3       7.2358      2.00000
      4       7.8960      2.00000
      5       9.4445      2.00000
      6      11.5211      0.67914
      7      14.9774      0.00000
      8      17.0290      0.00000

 k-point    21 :      -0.4167    0.2500    0.2500
  band No.  band energies     occupation 
      1       0.1401      2.00000
      2       4.0490      2.00000
      3       8.8130      2.00000
      4      10.9508      2.00000
      5      11.4638      1.30845
      6      12.8125      0.00000
      7      14.8766      0.00000
      8      19.7099      0.00000

 k-point    22 :      -0.2500    0.2500    0.2500
  band No.  band energies     occupation 
      1      -1.7096      2.00000
      2       2.2402      2.00000
      3       9.8487      2.00000
      4      11.3359      1.97260
      5      15.0724      0.00000
      6      16.4952      0.00000
      7      18.5982      0.00000
      8      19.9459      0.00000

 k-point    23 :       0.4167    0.4167    0.2500
  band No.  band energies     occupation 
      1       3.4983      2.00000
      2       4.1039      2.00000
      3       7.3635      2.00000
      4       7.9417      2.00000
      5      10.2974      2.00000
      6      13.6745      0.00000
      7      14.9507      0.00000
      8      16.0132      0.00000

 k-point    24 :      -0.4167    0.4167    0.2500
  band No.  band energies     occupation 
      1       1.2347      2.00000
      2       5.0634      2.00000
      3       5.7166      2.00000
      4       9.4079      2.00000
      5      12.7982      0.00000
      6      15.1937      0.00000
      7      16.7393      0.00000
      8      17.4701      0.00000

 k-point    25 :       0.0833    0.0833    0.4167
  band No.  band energies     occupation 
      1      -1.9393      2.00000
      2      -0.6124      2.00000
      3      12.1439      0.00000
      4      15.6080      0.00000
      5      16.8965      0.00000
      6      17.6708      0.00000
      7      18.1004      0.00000
      8      18.7356      0.00000

 k-point    26 :       0.2500    0.0833    0.4167
  band No.  band energies     occupation 
      1      -0.0857      2.00000
      2       1.2289      2.00000
      3      10.7073      2.00000
      4      11.8687      0.00000
      5      13.9386      0.00000
      6      14.8044      0.00000
      7      16.2250      0.00000
      8      17.6438      0.00000

 k-point    27 :       0.4167    0.0833    0.4167
  band No.  band energies     occupation 
      1       3.1753      2.00000
      2       4.4421      2.00000
      3       5.4802      2.00000
      4       6.7263      2.00000
      5      13.7931      0.00000
      6      14.8997      0.00000
      7      17.0750      0.00000
      8      18.8181      0.00000

 k-point    28 :      -0.4167    0.0833    0.4167
  band No.  band energies     occupation 
      1       1.3813      2.00000
      2       2.6850      2.00000
      3       7.9191      2.00000
      4       9.1652      2.00000
      5      14.1074      0.00000
      6      14.8597      0.00000
      7      15.9234      0.00000
      8      18.6788      0.00000

 k-point    29 :      -0.2500    0.0833    0.4167
  band No.  band energies     occupation 
      1      -1.1955      2.00000
      2       0.1266      2.00000
      3      12.7224      0.00000
      4      13.7887      0.00000
      5      15.1265      0.00000
      6      15.6067      0.00000
      7      16.9294      0.00000
      8      17.2238      0.00000

 k-point    30 :      -0.0833    0.0833    0.4167
  band No.  band energies     occupation 
      1      -2.3124      2.00000
      2      -0.9831      2.00000
      3      11.8187      0.00000
      4      15.4222      0.00000
      5      18.7310      0.00000
      6      19.7975      0.00000
      7      19.8656      0.00000
      8      20.9173      0.00000

 k-point    31 :       0.2500    0.2500    0.4167
  band No.  band energies     occupation 
      1       2.4732      2.00000
      2       3.7672      2.00000
      3       8.6980      2.00000
      4       9.2375      2.00000
      5      10.0179      2.00000
      6      10.5160      2.00000
      7      16.4937      0.00000
      8      19.6196      0.00000

 k-point    32 :       0.4167    0.2500    0.4167
  band No.  band energies     occupation 
      1       4.2524      2.00000
      2       5.4940      2.00000
      3       6.5351      2.00000
      4       7.7417      2.00000
      5       8.7330      2.00000
      6       9.9476      2.00000
      7      18.0136      0.00000
      8      19.6964      0.00000

 k-point    33 :      -0.4167    0.2500    0.4167
  band No.  band energies     occupation 
      1       1.0167      2.00000
      2       2.3235      2.00000
      3       9.6491      2.00000
      4      10.8537      2.00000
      5      11.8307      0.00000
      6      12.9256      0.00000
      7      15.2950      0.00000
      8      18.5813      0.00000

 k-point    34 :      -0.2500    0.2500    0.4167
  band No.  band energies     occupation 
      1      -0.8248      2.00000
      2       0.4948      2.00000
      3      12.0588      0.00000
      4      12.8019      0.00000
      5      13.8453      0.00000
      6      16.7414      0.00000
      7      17.2690      0.00000
      8      18.4250      0.00000

 k-point    35 :       0.4167    0.4167    0.4167
  band No.  band energies     occupation 
      1       4.3528      2.00000
      2       4.9149      2.00000
      3       5.7212      2.00000
      4       6.2709      2.00000
      5      11.1157      2.00000
      6      12.3168      0.00000
      7      18.0015      0.00000
      8      18.7499      0.00000

 k-point    36 :      -0.4167    0.4167    0.4167
  band No.  band energies     occupation 
      1       2.1061      2.00000
      2       3.4022      2.00000
      3       6.5100      2.00000
      4       7.7696      2.00000
      5      15.8742      0.00000
      6      15.9707      0.00000
      7      17.1339      0.00000
      8      17.8716      0.00000


--------------------------------------------------------------------------------------------------------


 soft charge-density along one line, spin component           1
         0         1         2         3         4         5         6         7         8         9
 total charge-density along one line
 
 pseudopotential strength for first ion, spin component:           1
 17.822  24.862   0.000   0.000  -0.000   0.000   0.000  -0.000
 24.862  34.687   0.000   0.000  -0.000   0.000   0.000  -0.000
  0.000   0.000   4.077  -0.000   0.000   7.593  -0.000   0.000
  0.000   0.000  -0.000   4.077  -0.000  -0.000   7.593  -0.000
 -0.000  -0.000   0.000  -0.000   4.077   0.000  -0.000   7.593
  0.000   0.000   7.593  -0.000   0.000  14.154  -0.000   0.000
  0.000   0.000  -0.000   7.593  -0.000  -0.000  14.154  -0.000
 -0.000  -0.000   0.000  -0.000   7.593   0.000  -0.000  14.154
 total augmentation occupancy for first ion, spin component:           1
  5.625  -2.456  -0.000   0.000   0.000   0.000   0.000   0.000
 -2.456   1.494   0.000   0.000   0.000  -0.000   0.000  -0.000
  0.000   0.000   2.621   0.000   0.000  -0.646   0.000   0.000
  0.000   0.000   0.000   2.725   0.000   0.000  -0.679   0.000
 -0.000   0.000   0.000   0.000   2.621  -0.000   0.000  -0.646
 -0.000   0.000  -0.646   0.000  -0.000   0.175   0.000   0.000
  0.000   0.000   0.000  -0.679  -0.000   0.000   0.185  -0.000
  0.000   0.000  -0.000  -0.000  -0.646   0.000  -0.000   0.175


------------------------ aborting loop because EDIFF is reached ----------------------------------------


    CHARGE:  cpu time    0.0200: real time    0.0123
    FORLOC:  cpu time    0.0020: real time    0.0016
    FORNL :  cpu time    0.0420: real time    0.0265
    STRESS:  cpu time    0.3160: real time    0.1998
    FORCOR:  cpu time    0.0450: real time    0.0298
    FORHAR:  cpu time    0.0110: real time    0.0074
    MIXING:  cpu time    0.0040: real time    0.0023
    OFIELD:  cpu time    0.0000: real time    0.0000

  FORCE on cell =-STRESS in cart. coord.  units (eV):
  Direction    XX          YY          ZZ          XY          YZ          ZX
  --------------------------------------------------------------------------------------
  Alpha Z     5.11638     5.11638     5.11638
  Ewald     -95.03714   -95.03714   -91.74781    -0.00000    -0.00000    -0.00000
  Hartree     0.17490     0.17490     0.31672    -0.00000    -0.00000    -0.00000
  E(xc)     -26.00740   -26.00740   -26.06281     0.00000     0.00000     0.00000
  Local      -7.23444    -7.23445   -10.66265    -0.00001    -0.00000    -0.00000
  n-local    74.63589    78.06921    77.48570    -0.98627     0.10167    -0.65997
  augment   -12.26572   -12.26571   -12.30439     0.00001     0.00000    -0.00000
  Kinetic    75.88959    44.93149    59.37618     9.96343    -0.00694     0.63236
  Fock        0.00000     0.00000     0.00000     0.00000     0.00000     0.00000
  -------------------------------------------------------------------------------------
  Total       1.50968     1.50968     1.51733     0.00000    -0.00000    -0.00000
  in kB      91.90595    91.90595    92.37142     0.00000    -0.00000    -0.00000
  external pressure =       92.06 kB  Pullay stress =        0.00 kB


 VOLUME and BASIS-vectors are now :
 -----------------------------------------------------------------------------
  energy-cutoff  :      450.00
  volume of cell :       26.32
      direct lattice vectors                 reciprocal lattice vectors
     2.674349151  0.000000000  0.000000000     0.373922754  0.215884403 -0.000000000
    -1.337174575  2.316054303 -0.000000000     0.000000000  0.431768805 -0.000000000
    -0.000000000  0.000000000  4.248982425    -0.000000000  0.000000000  0.235350467

  length of vectors
     2.674349151  2.674349151  4.248982425     0.431768805  0.431768805  0.235350467


 FORCES acting on ions
    electron-ion (+dipol)            ewald-force                    non-local-force                 convergence-correction
 -----------------------------------------------------------------------------------------------
   -.142E-08 0.818E-09 0.220E-14   -.115E-12 0.799E-13 -.358E-14   0.121E-16 -.173E-17 0.000E+00   -.111E-09 0.639E-10 -.777E-15
   0.142E-08 -.818E-09 -.115E-13   0.114E-12 -.809E-13 0.358E-14   -.252E-16 -.234E-20 0.000E+00   0.111E-09 -.639E-10 0.787E-15
 -----------------------------------------------------------------------------------------------
   -.661E-14 -.523E-14 -.930E-14   -.128E-14 -.104E-14 -.174E-17   -.130E-16 -.173E-17 0.000E+00   0.928E-17 0.358E-16 0.966E-17
 
 
 POSITION                                       TOTAL-FORCE (eV/Angst)
 -----------------------------------------------------------------------------------
      0.00000     -0.00000      0.00000         0.000000      0.000000      0.000000
     -0.00000      1.54404      2.12449        -0.000000     -0.000000     -0.000000
 -----------------------------------------------------------------------------------
    total drift:                               -0.000000     -0.000000     -0.000000


--------------------------------------------------------------------------------------------------------



  FREE ENERGIE OF THE ION-ELECTRON SYSTEM (eV)
  ---------------------------------------------------
  free  energy   TOTEN  =        -9.79981360 eV

  energy  without entropy=       -9.79570935  energy(sigma->0) =       -9.79776148
 
 d Force = 0.0000000E+00[ 0.000E+00, 0.000E+00]  d Energy = 0.1045208E-04-0.105E-04
 d Force = 0.0000000E+00[ 0.000E+00, 0.000E+00]  d Ewald  = 0.1635856E-02-0.164E-02


--------------------------------------------------------------------------------------------------------


    POTLOK:  cpu time    0.0430: real time    0.0289


--------------------------------------------------------------------------------------------------------




--------------------------------------------------------------------------------------------------------


  
 reached required accuracy - stopping structural energy minimisation
 writing wavefunctions
     LOOP+:  cpu time    4.8493: real time    3.1107
    4ORBIT:  cpu time    0.0000: real time    0.0000

 total amount of memory used by VASP on root node    34122. kBytes
========================================================================

   base      :      30000. kBytes
   nonl-proj :       1364. kBytes
   fftplans  :        714. kBytes
   grid      :       1347. kBytes
   one-center:          6. kBytes
   wavefun   :        691. kBytes
 
  
  
 General timing and accounting informations for this job:
 ========================================================
  
                  Total CPU time used (sec):       59.131
                            User time (sec):       54.622
                          System time (sec):        4.509
                         Elapsed time (sec):       39.643
  
                   Maximum memory used (kb):       34940.
                   Average memory used (kb):           0.
  
                          Minor page faults:        51246
                          Major page faults:           10
                 Voluntary context switches:         1111
