<?xml version="1.0" encoding="ISO-8859-1"?>
<modeling>
 <generator>
  <i name="program" type="string">vasp </i>
  <i name="version" type="string">5.4.1  </i>
  <i name="subversion" type="string">24Jun15 (build Jul 19 2016 16:50:41) complex                          parallel </i>
  <i name="platform" type="string">IFC91_ompi </i>
  <i name="date" type="string">2019 10 10 </i>
  <i name="time" type="string">11:14:52 </i>
 </generator>
 <incar>
  <i type="string" name="SYSTEM"> Si beta-tin</i>
  <i type="string" name="PREC">accurate</i>
  <i type="int" name="IBRION">     2</i>
  <i name="EDIFF">      0.00001000</i>
  <i name="EDIFFG">     -0.01000000</i>
  <i type="int" name="NSW">   100</i>
  <i type="int" name="ISIF">     4</i>
  <i name="ENMAX">    450.00000000</i>
  <i type="int" name="ISMEAR">     0</i>
  <i name="SIGMA">      0.10000000</i>
  <v type="int" name="KPOINT_BSE">    -1     0     0     0</v>
 </incar>
 <kpoints>
  <generation param="Monkhorst-Pack">
   <v type="int" name="divisions">       6        6        6 </v>
   <v name="usershift">      0.00000000       0.00000000       0.00000000 </v>
   <v name="genvec1">      0.16666667       0.00000000       0.00000000 </v>
   <v name="genvec2">      0.00000000       0.16666667       0.00000000 </v>
   <v name="genvec3">      0.00000000       0.00000000       0.16666667 </v>
   <v name="shift">      0.50000000       0.50000000       0.50000000 </v>
  </generation>
  <varray name="kpointlist" >
   <v>       0.08333333       0.08333333       0.08333333 </v>
   <v>       0.25000000       0.08333333       0.08333333 </v>
   <v>       0.41666667       0.08333333       0.08333333 </v>
   <v>      -0.41666667       0.08333333       0.08333333 </v>
   <v>      -0.25000000       0.08333333       0.08333333 </v>
   <v>      -0.08333333       0.08333333       0.08333333 </v>
   <v>       0.25000000       0.25000000       0.08333333 </v>
   <v>       0.41666667       0.25000000       0.08333333 </v>
   <v>      -0.41666667       0.25000000       0.08333333 </v>
   <v>      -0.25000000       0.25000000       0.08333333 </v>
   <v>       0.41666667       0.41666667       0.08333333 </v>
   <v>      -0.41666667       0.41666667       0.08333333 </v>
   <v>       0.08333333       0.08333333       0.25000000 </v>
   <v>       0.25000000       0.08333333       0.25000000 </v>
   <v>       0.41666667       0.08333333       0.25000000 </v>
   <v>      -0.41666667       0.08333333       0.25000000 </v>
   <v>      -0.25000000       0.08333333       0.25000000 </v>
   <v>      -0.08333333       0.08333333       0.25000000 </v>
   <v>       0.25000000       0.25000000       0.25000000 </v>
   <v>       0.41666667       0.25000000       0.25000000 </v>
   <v>      -0.41666667       0.25000000       0.25000000 </v>
   <v>      -0.25000000       0.25000000       0.25000000 </v>
   <v>       0.41666667       0.41666667       0.25000000 </v>
   <v>      -0.41666667       0.41666667       0.25000000 </v>
   <v>       0.08333333       0.08333333       0.41666667 </v>
   <v>       0.25000000       0.08333333       0.41666667 </v>
   <v>       0.41666667       0.08333333       0.41666667 </v>
   <v>      -0.41666667       0.08333333       0.41666667 </v>
   <v>      -0.25000000       0.08333333       0.41666667 </v>
   <v>      -0.08333333       0.08333333       0.41666667 </v>
   <v>       0.25000000       0.25000000       0.41666667 </v>
   <v>       0.41666667       0.25000000       0.41666667 </v>
   <v>      -0.41666667       0.25000000       0.41666667 </v>
   <v>      -0.25000000       0.25000000       0.41666667 </v>
   <v>       0.41666667       0.41666667       0.41666667 </v>
   <v>      -0.41666667       0.41666667       0.41666667 </v>
  </varray>
  <varray name="weights" >
   <v>       0.01851852 </v>
   <v>       0.03703704 </v>
   <v>       0.03703704 </v>
   <v>       0.03703704 </v>
   <v>       0.03703704 </v>
   <v>       0.01851852 </v>
   <v>       0.01851852 </v>
   <v>       0.03703704 </v>
   <v>       0.03703704 </v>
   <v>       0.01851852 </v>
   <v>       0.01851852 </v>
   <v>       0.01851852 </v>
   <v>       0.01851852 </v>
   <v>       0.03703704 </v>
   <v>       0.03703704 </v>
   <v>       0.03703704 </v>
   <v>       0.03703704 </v>
   <v>       0.01851852 </v>
   <v>       0.01851852 </v>
   <v>       0.03703704 </v>
   <v>       0.03703704 </v>
   <v>       0.01851852 </v>
   <v>       0.01851852 </v>
   <v>       0.01851852 </v>
   <v>       0.01851852 </v>
   <v>       0.03703704 </v>
   <v>       0.03703704 </v>
   <v>       0.03703704 </v>
   <v>       0.03703704 </v>
   <v>       0.01851852 </v>
   <v>       0.01851852 </v>
   <v>       0.03703704 </v>
   <v>       0.03703704 </v>
   <v>       0.01851852 </v>
   <v>       0.01851852 </v>
   <v>       0.01851852 </v>
  </varray>
 </kpoints>
 <parameters>
  <separator name="general" >
   <i type="string" name="SYSTEM">Si beta-tin</i>
   <i type="logical" name="LCOMPAT"> F  </i>
  </separator>
  <separator name="electronic" >
   <i type="string" name="PREC">accura</i>
   <i name="ENMAX">    450.00000000</i>
   <i name="ENAUG">    322.06900000</i>
   <i name="EDIFF">      0.00001000</i>
   <i type="int" name="IALGO">    38</i>
   <i type="int" name="IWAVPR">    11</i>
   <i type="int" name="NBANDS">     8</i>
   <i name="NELECT">      8.00000000</i>
   <i type="int" name="TURBO">     0</i>
   <i type="int" name="IRESTART">     0</i>
   <i type="int" name="NREBOOT">     0</i>
   <i type="int" name="NMIN">     0</i>
   <i name="EREF">      0.00000000</i>
   <separator name="electronic smearing" >
    <i type="int" name="ISMEAR">     0</i>
    <i name="SIGMA">      0.10000000</i>
    <i name="KSPACING">      0.50000000</i>
    <i type="logical" name="KGAMMA"> T  </i>
   </separator>
   <separator name="electronic projectors" >
    <i type="logical" name="LREAL"> F  </i>
    <v name="ROPT">      0.00000000</v>
    <i type="int" name="LMAXPAW">  -100</i>
    <i type="int" name="LMAXMIX">     2</i>
    <i type="logical" name="NLSPLINE"> F  </i>
   </separator>
   <separator name="electronic startup" >
    <i type="int" name="ISTART">     0</i>
    <i type="int" name="ICHARG">     2</i>
    <i type="int" name="INIWAV">     1</i>
   </separator>
   <separator name="electronic spin" >
    <i type="int" name="ISPIN">     1</i>
    <i type="logical" name="LNONCOLLINEAR"> F  </i>
    <v name="MAGMOM">      1.00000000      1.00000000</v>
    <i name="NUPDOWN">     -1.00000000</i>
    <i type="logical" name="LSORBIT"> F  </i>
    <v name="SAXIS">      0.00000000      0.00000000      1.00000000</v>
    <i type="logical" name="LSPIRAL"> F  </i>
    <v name="QSPIRAL">      0.00000000      0.00000000      0.00000000</v>
    <i type="logical" name="LZEROZ"> F  </i>
   </separator>
   <separator name="electronic exchange-correlation" >
    <i type="logical" name="LASPH"> F  </i>
    <i type="logical" name="LMETAGGA"> F  </i>
   </separator>
   <separator name="electronic convergence" >
    <i type="int" name="NELM">    60</i>
    <i type="int" name="NELMDL">    -5</i>
    <i type="int" name="NELMIN">     2</i>
    <i name="ENINI">    450.00000000</i>
    <separator name="electronic convergence detail" >
     <i type="logical" name="LDIAG"> T  </i>
     <i type="logical" name="LSUBROT"> F  </i>
     <i name="WEIMIN">      0.00100000</i>
     <i name="EBREAK">      0.00000031</i>
     <i name="DEPER">      0.30000000</i>
     <i type="int" name="NRMM">     4</i>
     <i name="TIME">      0.40000000</i>
    </separator>
   </separator>
   <separator name="electronic mixer" >
    <i name="AMIX">      0.40000000</i>
    <i name="BMIX">      1.00000000</i>
    <i name="AMIN">      0.10000000</i>
    <i name="AMIX_MAG">      1.60000000</i>
    <i name="BMIX_MAG">      1.00000000</i>
    <separator name="electronic mixer details" >
     <i type="int" name="IMIX">     4</i>
     <i type="logical" name="MIXFIRST"> F  </i>
     <i type="int" name="MAXMIX">   -45</i>
     <i name="WC">    100.00000000</i>
     <i type="int" name="INIMIX">     1</i>
     <i type="int" name="MIXPRE">     1</i>
     <i type="int" name="MREMOVE">     5</i>
    </separator>
   </separator>
   <separator name="electronic dipolcorrection" >
    <i type="logical" name="LDIPOL"> F  </i>
    <i type="logical" name="LMONO"> F  </i>
    <i type="int" name="IDIPOL">     0</i>
    <i name="EPSILON">      1.00000000</i>
    <v name="DIPOL">   -100.00000000   -100.00000000   -100.00000000</v>
    <i name="EFIELD">      0.00000000</i>
   </separator>
  </separator>
  <separator name="grids" >
   <i type="int" name="NGX">    18</i>
   <i type="int" name="NGY">    18</i>
   <i type="int" name="NGZ">    30</i>
   <i type="int" name="NGXF">    36</i>
   <i type="int" name="NGYF">    36</i>
   <i type="int" name="NGZF">    60</i>
   <i type="logical" name="ADDGRID"> F  </i>
  </separator>
  <separator name="ionic" >
   <i type="int" name="NSW">   100</i>
   <i type="int" name="IBRION">     2</i>
   <i type="int" name="ISIF">     4</i>
   <i name="PSTRESS">      0.00000000</i>
   <i name="EDIFFG">     -0.01000000</i>
   <i type="int" name="NFREE">     1</i>
   <i name="POTIM">      0.50000000</i>
   <i name="SMASS">     -3.00000000</i>
   <i name="SCALEE">      1.00000000</i>
  </separator>
  <separator name="ionic md" >
   <i name="TEBEG">      0.00010000</i>
   <i name="TEEND">      0.00010000</i>
   <i type="int" name="NBLOCK">     1</i>
   <i type="int" name="KBLOCK">   100</i>
   <i type="int" name="NPACO">   256</i>
   <i name="APACO">     16.00000000</i>
  </separator>
  <separator name="symmetry" >
   <i type="int" name="ISYM">     2</i>
   <i name="SYMPREC">      0.00001000</i>
  </separator>
  <separator name="dos" >
   <i type="logical" name="LORBIT"> F  </i>
   <v name="RWIGS">     -1.00000000</v>
   <i type="int" name="NEDOS">   301</i>
   <i name="EMIN">     10.00000000</i>
   <i name="EMAX">    -10.00000000</i>
   <i name="EFERMI">      0.00000000</i>
  </separator>
  <separator name="writing" >
   <i type="int" name="NWRITE">     2</i>
   <i type="logical" name="LWAVE"> T  </i>
   <i type="logical" name="LCHARG"> T  </i>
   <i type="logical" name="LPARD"> F  </i>
   <i type="logical" name="LVTOT"> F  </i>
   <i type="logical" name="LVHAR"> F  </i>
   <i type="logical" name="LELF"> F  </i>
   <i type="logical" name="LOPTICS"> F  </i>
   <v name="STM">      0.00000000      0.00000000      0.00000000      0.00000000      0.00000000      0.00000000      0.00000000</v>
  </separator>
  <separator name="performance" >
   <i type="int" name="NPAR">     4</i>
   <i type="int" name="NSIM">     4</i>
   <i type="int" name="NBLK">    -1</i>
   <i type="logical" name="LPLANE"> T  </i>
   <i type="logical" name="LSCALAPACK"> F  </i>
   <i type="logical" name="LSCAAWARE"> F  </i>
   <i type="logical" name="LSCALU"> F  </i>
   <i type="logical" name="LASYNC"> F  </i>
   <i type="logical" name="LORBITALREAL"> F  </i>
  </separator>
  <separator name="miscellaneous" >
   <i type="int" name="IDIOT">     3</i>
   <i type="logical" name="LMUSIC"> F  </i>
   <v name="POMASS">     28.08500000</v>
   <v name="DARWINR">      0.00000000</v>
   <v name="DARWINV">      1.00000000</v>
   <i type="logical" name="LCORR"> T  </i>
  </separator>
  <i type="logical" name="GGA_COMPAT"> T  </i>
  <i type="logical" name="LBERRY"> F  </i>
  <i type="int" name="ICORELEVEL">     0</i>
  <i type="logical" name="LDAU"> F  </i>
  <i type="int" name="I_CONSTRAINED_M">     0</i>
  <separator name="electronic exchange-correlation" >
   <i type="string" name="GGA">--</i>
   <i type="int" name="VOSKOWN">     0</i>
   <i type="logical" name="LHFCALC"> F  </i>
   <i type="string" name="PRECFOCK"></i>
   <i type="logical" name="LSYMGRAD"> F  </i>
   <i type="logical" name="LHFONE"> F  </i>
   <i type="logical" name="LRHFCALC"> F  </i>
   <i type="logical" name="LTHOMAS"> F  </i>
   <i type="logical" name="LMODELHF"> F  </i>
   <i name="ENCUT4O">     -1.00000000</i>
   <i type="int" name="EXXOEP">     0</i>
   <i type="int" name="FOURORBIT">     0</i>
   <i name="AEXX">      0.00000000</i>
   <i name="HFALPHA">      0.00000000</i>
   <i name="MCALPHA">      0.00000000</i>
   <i name="ALDAX">      1.00000000</i>
   <i name="AGGAX">      1.00000000</i>
   <i name="ALDAC">      1.00000000</i>
   <i name="AGGAC">      1.00000000</i>
   <i type="int" name="NKREDX">     1</i>
   <i type="int" name="NKREDY">     1</i>
   <i type="int" name="NKREDZ">     1</i>
   <i type="logical" name="SHIFTRED"> F  </i>
   <i type="logical" name="ODDONLY"> F  </i>
   <i type="logical" name="EVENONLY"> F  </i>
   <i type="int" name="LMAXFOCK">     0</i>
   <i type="int" name="NMAXFOCKAE">     0</i>
   <i type="logical" name="LFOCKAEDFT"> F  </i>
   <i name="HFSCREEN">      0.00000000</i>
   <i name="HFSCREENC">      0.00000000</i>
   <i type="int" name="NBANDSGWLOW">     0</i>
  </separator>
  <separator name="vdW DFT" >
   <i type="logical" name="LUSE_VDW"> F  </i>
   <i name="Zab_VDW">     -0.84910000</i>
   <i name="PARAM1">      0.12340000</i>
   <i name="PARAM2">      1.00000000</i>
   <i name="PARAM3">      0.00000000</i>
  </separator>
  <separator name="model GW" >
   <i type="int" name="MODEL_GW">     0</i>
   <i name="MODEL_EPS0">      7.89537993</i>
   <i name="MODEL_ALPHA">      1.00000000</i>
  </separator>
  <separator name="linear response parameters" >
   <i type="logical" name="LEPSILON"> F  </i>
   <i type="logical" name="LRPA"> F  </i>
   <i type="logical" name="LNABLA"> F  </i>
   <i type="logical" name="LVEL"> F  </i>
   <i type="int" name="KINTER">     0</i>
   <i name="CSHIFT">      0.10000000</i>
   <i name="OMEGAMAX">     -1.00000000</i>
   <i name="DEG_THRESHOLD">      0.00200000</i>
  </separator>
  <separator name="orbital magnetization" >
   <i type="logical" name="NUCIND"> F  </i>
   <v name="MAGPOS">      0.00000000      0.00000000      0.00000000</v>
   <i type="logical" name="LNICSALL"> T  </i>
   <i type="logical" name="ORBITALMAG"> F  </i>
   <i type="logical" name="LMAGBLOCH"> F  </i>
   <i type="logical" name="LCHIMAG"> F  </i>
   <i type="logical" name="LGAUGE"> T  </i>
   <i type="int" name="MAGATOM">     0</i>
   <v name="MAGDIPOL">      0.00000000      0.00000000      0.00000000</v>
   <v name="AVECCONST">      0.00000000      0.00000000      0.00000000</v>
  </separator>
  <separator name="response functions" >
   <i type="logical" name="LADDER"> F  </i>
   <i type="logical" name="LFXC"> F  </i>
   <i type="logical" name="LHARTREE"> T  </i>
   <i type="int" name="IBSE">     0</i>
   <v type="int" name="KPOINT">    -1     0     0     0</v>
   <i type="logical" name="LTCTE"> F  </i>
   <i type="logical" name="LTETE"> F  </i>
   <i type="logical" name="LTRIPLET"> F  </i>
   <i type="logical" name="LFXCEPS"> F  </i>
   <i type="logical" name="LFXHEG"> F  </i>
   <i type="int" name="NATURALO">     0</i>
   <i type="logical" name="L2ORDER"> F  </i>
   <i type="logical" name="LUSEW"> F  </i>
   <i name="ENCUTGW">     -2.00000000</i>
   <i name="ENCUTGWSOFT">     -2.00000000</i>
   <i name="ENCUTLF">     -1.00000000</i>
   <i type="int" name="LMAXMP2">    -1</i>
   <i name="SCISSOR">      0.00000000</i>
   <i type="int" name="NOMEGA">     0</i>
   <i type="int" name="NOMEGAR">     0</i>
   <i type="int" name="NBANDSGW">    -1</i>
   <i type="int" name="NBANDSO">    -1</i>
   <i type="int" name="NBANDSV">    -1</i>
   <i type="int" name="NELM">     1</i>
   <i type="int" name="NELMHF">     1</i>
   <i type="int" name="DIM">     3</i>
   <i type="int" name="ANTIRES">     0</i>
   <i name="OMEGAMAX">    -30.00000000</i>
   <i name="OMEGAMIN">    -30.00000000</i>
   <i name="OMEGATL">   -200.00000000</i>
   <i type="int" name="OMEGAGRID">     0</i>
   <i name="CSHIFT">     -0.10000000</i>
   <i type="logical" name="SELFENERGY"> F  </i>
   <i type="logical" name="LSPECTRAL"> F  </i>
   <i type="logical" name="LSPECTRALGW"> F  </i>
   <i type="logical" name="LSINGLES"> F  </i>
   <i type="logical" name="LFERMIGW"> F  </i>
   <i type="logical" name="ODDONLYGW"> F  </i>
   <i type="logical" name="EVENONLYGW"> F  </i>
   <i type="int" name="NKREDLFX">     1</i>
   <i type="int" name="NKREDLFY">     1</i>
   <i type="int" name="NKREDLFZ">     1</i>
   <i type="int" name="MAXMEM">  1800</i>
   <i type="int" name="TELESCOPE">     0</i>
   <i type="int" name="TAUPAR">     1</i>
   <i type="int" name="OMEGAPAR">    -1</i>
   <i name="LAMBDA">      1.00000000</i>
  </separator>
  <separator name="External order field" >
   <i name="OFIELD_KAPPA">      0.00000000</i>
   <v name="OFIELD_K">      0.00000000      0.00000000      0.00000000</v>
   <i name="OFIELD_Q6_NEAR">      0.00000000</i>
   <i name="OFIELD_Q6_FAR">      0.00000000</i>
   <i name="OFIELD_A">      0.00000000</i>
  </separator>
 </parameters>
 <atominfo>
  <atoms>       2 </atoms>
  <types>       1 </types>
  <array name="atoms" >
   <dimension dim="1">ion</dimension>
   <field type="string">element</field>
   <field type="int">atomtype</field>
   <set>
    <rc><c> S</c><c>   1</c></rc>
    <rc><c> S</c><c>   1</c></rc>
   </set>
  </array>
  <array name="atomtypes" >
   <dimension dim="1">type</dimension>
   <field type="int">atomspertype</field>
   <field type="string">element</field>
   <field>mass</field>
   <field>valence</field>
   <field type="string">pseudopotential</field>
   <set>
    <rc><c>   2</c><c> S</c><c>     28.08500000</c><c>      4.00000000</c><c>  PAW_PBE Si 05Jan2001                  </c></rc>
   </set>
  </array>
 </atominfo>
 <structure name="initialpos" >
  <crystal>
   <varray name="basis" >
    <v>       2.65000000       0.00000000       0.00000000 </v>
    <v>      -1.32500000       2.29496732       0.00000000 </v>
    <v>       0.00000000       0.00000000       4.32742350 </v>
   </varray>
   <i name="volume">     26.31793311 </i>
   <varray name="rec_basis" >
    <v>       0.37735849       0.21786803       0.00000000 </v>
    <v>       0.00000000       0.43573605       0.00000000 </v>
    <v>       0.00000000       0.00000000       0.23108439 </v>
   </varray>
  </crystal>
  <varray name="positions" >
   <v>       0.00000000       0.00000000       0.00000000 </v>
   <v>       0.33333333       0.66666667       0.50000000 </v>
  </varray>
 </structure>
 <calculation>
  <scstep>
   <time name="dav">    1.33    0.86</time>
   <time name="total">    1.39    0.90</time>
   <energy>
    <i name="alphaZ">      5.11637911 </i>
    <i name="ewald">   -281.85422044 </i>
    <i name="hartreedc">     -0.85244363 </i>
    <i name="XCdc">    -17.09433745 </i>
    <i name="pawpsdc">    176.24759923 </i>
    <i name="pawaedc">   -141.06103558 </i>
    <i name="eentropy">     -0.00273079 </i>
    <i name="bandstr">     55.69116133 </i>
    <i name="atom">    206.13192747 </i>
    <i name="e_fr_energy">      2.32229925 </i>
    <i name="e_wo_entrp">      2.32503004 </i>
    <i name="e_0_energy">      2.32366465 </i>
   </energy>
  </scstep>
  <scstep>
   <time name="dav">    2.08    1.31</time>
   <time name="total">    2.09    1.31</time>
   <energy>
    <i name="e_fr_energy">     -9.63410758 </i>
    <i name="e_wo_entrp">     -9.62842766 </i>
    <i name="e_0_energy">     -9.63126762 </i>
   </energy>
  </scstep>
  <scstep>
   <time name="dav">    1.78    1.19</time>
   <time name="total">    1.78    1.19</time>
   <energy>
    <i name="e_fr_energy">     -9.83879246 </i>
    <i name="e_wo_entrp">     -9.83713694 </i>
    <i name="e_0_energy">     -9.83796470 </i>
   </energy>
  </scstep>
  <scstep>
   <time name="dav">    2.15    1.45</time>
   <time name="total">    2.16    1.45</time>
   <energy>
    <i name="e_fr_energy">     -9.83924565 </i>
    <i name="e_wo_entrp">     -9.83759243 </i>
    <i name="e_0_energy">     -9.83841904 </i>
   </energy>
  </scstep>
  <scstep>
   <time name="dav">    1.45    0.97</time>
   <time name="total">    1.49    1.00</time>
   <energy>
    <i name="e_fr_energy">     -9.83924646 </i>
    <i name="e_wo_entrp">     -9.83759324 </i>
    <i name="e_0_energy">     -9.83841985 </i>
   </energy>
  </scstep>
  <scstep>
   <time name="dav">    1.85    1.24</time>
   <time name="total">    1.93    1.29</time>
   <energy>
    <i name="e_fr_energy">     -9.80974575 </i>
    <i name="e_wo_entrp">     -9.80811490 </i>
    <i name="e_0_energy">     -9.80893032 </i>
   </energy>
  </scstep>
  <scstep>
   <time name="dav">    1.53    1.02</time>
   <time name="total">    1.61    1.08</time>
   <energy>
    <i name="e_fr_energy">     -9.79265430 </i>
    <i name="e_wo_entrp">     -9.79104855 </i>
    <i name="e_0_energy">     -9.79185143 </i>
   </energy>
  </scstep>
  <scstep>
   <time name="dav">    2.41    1.64</time>
   <time name="total">    2.47    1.68</time>
   <energy>
    <i name="e_fr_energy">     -9.79250208 </i>
    <i name="e_wo_entrp">     -9.79089698 </i>
    <i name="e_0_energy">     -9.79169953 </i>
   </energy>
  </scstep>
  <scstep>
   <time name="dav">    1.00    0.67</time>
   <time name="total">    1.05    0.70</time>
   <energy>
    <i name="alphaZ">      5.11637911 </i>
    <i name="ewald">   -281.85422044 </i>
    <i name="hartreedc">     -0.65551436 </i>
    <i name="XCdc">    -16.92911407 </i>
    <i name="pawpsdc">    742.62487754 </i>
    <i name="pawaedc">   -707.49652744 </i>
    <i name="eentropy">     -0.00160498 </i>
    <i name="bandstr">     43.27129454 </i>
    <i name="atom">    206.13192747 </i>
    <i name="e_fr_energy">     -9.79250263 </i>
    <i name="e_wo_entrp">     -9.79089765 </i>
    <i name="e_0_energy">     -9.79170014 </i>
   </energy>
  </scstep>
  <structure>
   <crystal>
    <varray name="basis" >
     <v>       2.65000000       0.00000000       0.00000000 </v>
     <v>      -1.32500000       2.29496732       0.00000000 </v>
     <v>       0.00000000       0.00000000       4.32742350 </v>
    </varray>
    <i name="volume">     26.31793311 </i>
    <varray name="rec_basis" >
     <v>       0.37735849       0.21786803       0.00000000 </v>
     <v>       0.00000000       0.43573605       0.00000000 </v>
     <v>       0.00000000       0.00000000       0.23108439 </v>
    </varray>
   </crystal>
   <varray name="positions" >
    <v>       0.00000000       0.00000000       0.00000000 </v>
    <v>       0.33333333       0.66666667       0.50000000 </v>
   </varray>
  </structure>
  <varray name="forces" >
   <v>       0.00000000       0.00000000       0.00000000 </v>
   <v>      -0.00000000       0.00000000       0.00000000 </v>
  </varray>
  <varray name="stress" >
   <v>     101.71981282       0.00000000       0.00000000 </v>
   <v>       0.00000000     101.71981282      -0.00000000 </v>
   <v>      -0.00000000       0.00000000      66.73648174 </v>
  </varray>
  <energy>
   <i name="e_fr_energy">     -9.79250263 </i>
   <i name="e_wo_entrp">     -9.79170014 </i>
   <i name="e_0_energy">     -0.00160498 </i>
  </energy>
  <time name="totalsc">   16.70   11.14</time>
 </calculation>
 <calculation>
  <scstep>
   <time name="dav">    1.79    1.20</time>
   <time name="total">    1.85    1.24</time>
   <energy>
    <i name="alphaZ">      5.11637911 </i>
    <i name="ewald">   -281.84492772 </i>
    <i name="hartreedc">     -0.65553899 </i>
    <i name="XCdc">    -16.92948151 </i>
    <i name="pawpsdc">    743.55881504 </i>
    <i name="pawaedc">   -708.42968710 </i>
    <i name="eentropy">     -0.00347315 </i>
    <i name="bandstr">     43.25794781 </i>
    <i name="atom">    206.13192747 </i>
    <i name="e_fr_energy">     -9.79803903 </i>
    <i name="e_wo_entrp">     -9.79456588 </i>
    <i name="e_0_energy">     -9.79630246 </i>
   </energy>
  </scstep>
  <scstep>
   <time name="dav">    1.78    1.10</time>
   <time name="total">    1.85    1.15</time>
   <energy>
    <i name="e_fr_energy">     -9.79724924 </i>
    <i name="e_wo_entrp">     -9.79376413 </i>
    <i name="e_0_energy">     -9.79550669 </i>
   </energy>
  </scstep>
  <scstep>
   <time name="dav">    1.93    1.23</time>
   <time name="total">    2.01    1.28</time>
   <energy>
    <i name="e_fr_energy">     -9.79684507 </i>
    <i name="e_wo_entrp">     -9.79334468 </i>
    <i name="e_0_energy">     -9.79509488 </i>
   </energy>
  </scstep>
  <scstep>
   <time name="dav">    1.62    1.03</time>
   <time name="total">    1.66    1.06</time>
   <energy>
    <i name="alphaZ">      5.11637911 </i>
    <i name="ewald">   -281.84492772 </i>
    <i name="hartreedc">     -0.65858796 </i>
    <i name="XCdc">    -16.92947238 </i>
    <i name="pawpsdc">    743.17473636 </i>
    <i name="pawaedc">   -708.04628437 </i>
    <i name="eentropy">     -0.00350010 </i>
    <i name="bandstr">     43.26288134 </i>
    <i name="atom">    206.13192747 </i>
    <i name="e_fr_energy">     -9.79684825 </i>
    <i name="e_wo_entrp">     -9.79334814 </i>
    <i name="e_0_energy">     -9.79509820 </i>
   </energy>
  </scstep>
  <structure>
   <crystal>
    <varray name="basis" >
     <v>       2.66230115       0.00000000       0.00000000 </v>
     <v>      -1.33115057       2.30562043      -0.00000000 </v>
     <v>      -0.00000000       0.00000000       4.28752621 </v>
    </varray>
    <i name="volume">     26.31793311 </i>
    <varray name="rec_basis" >
     <v>       0.37561491       0.21686137      -0.00000000 </v>
     <v>       0.00000000       0.43372274      -0.00000000 </v>
     <v>      -0.00000000       0.00000000       0.23323473 </v>
    </varray>
   </crystal>
   <varray name="positions" >
    <v>       0.00000000       0.00000000       0.00000000 </v>
    <v>       0.33333333       0.66666667       0.50000000 </v>
   </varray>
  </structure>
  <varray name="forces" >
   <v>      -0.00000000      -0.00000000      -0.00000000 </v>
   <v>       0.00000000       0.00000000       0.00000000 </v>
  </varray>
  <varray name="stress" >
   <v>     103.06847086       0.00000000      -0.00000000 </v>
   <v>       0.00000000     103.06847086       0.00000000 </v>
   <v>       0.00000000       0.00000000      68.17263305 </v>
  </varray>
  <energy>
   <i name="e_fr_energy">     -9.79684825 </i>
   <i name="e_wo_entrp">     -9.79509820 </i>
   <i name="e_0_energy">     -0.00350010 </i>
  </energy>
  <time name="totalsc">    7.94    5.15</time>
 </calculation>
 <calculation>
  <scstep>
   <time name="dav">    2.21    1.36</time>
   <time name="total">    2.27    1.40</time>
   <energy>
    <i name="alphaZ">      5.11637911 </i>
    <i name="ewald">   -281.73128355 </i>
    <i name="hartreedc">     -0.66080148 </i>
    <i name="XCdc">    -16.93047298 </i>
    <i name="pawpsdc">    743.30697004 </i>
    <i name="pawaedc">   -708.17849328 </i>
    <i name="eentropy">     -0.00395793 </i>
    <i name="bandstr">     43.15419364 </i>
    <i name="atom">    206.13192747 </i>
    <i name="e_fr_energy">     -9.79553895 </i>
    <i name="e_wo_entrp">     -9.79158102 </i>
    <i name="e_0_energy">     -9.79355999 </i>
   </energy>
  </scstep>
  <scstep>
   <time name="dav">    1.35    0.83</time>
   <time name="total">    1.43    0.88</time>
   <energy>
    <i name="e_fr_energy">     -9.78873278 </i>
    <i name="e_wo_entrp">     -9.78470001 </i>
    <i name="e_0_energy">     -9.78671640 </i>
   </energy>
  </scstep>
  <scstep>
   <time name="dav">    1.97    1.26</time>
   <time name="total">    2.04    1.30</time>
   <energy>
    <i name="e_fr_energy">     -9.78534139 </i>
    <i name="e_wo_entrp">     -9.78126543 </i>
    <i name="e_0_energy">     -9.78330341 </i>
   </energy>
  </scstep>
  <scstep>
   <time name="dav">    1.51    0.93</time>
   <time name="total">    1.58    0.97</time>
   <energy>
    <i name="e_fr_energy">     -9.78536732 </i>
    <i name="e_wo_entrp">     -9.78129228 </i>
    <i name="e_0_energy">     -9.78332980 </i>
   </energy>
  </scstep>
  <scstep>
   <time name="dav">    1.73    1.09</time>
   <time name="total">    1.78    1.12</time>
   <energy>
    <i name="alphaZ">      5.11637911 </i>
    <i name="ewald">   -281.73128355 </i>
    <i name="hartreedc">     -0.70537248 </i>
    <i name="XCdc">    -16.92542994 </i>
    <i name="pawpsdc">    746.31345972 </i>
    <i name="pawaedc">   -711.18606629 </i>
    <i name="eentropy">     -0.00407444 </i>
    <i name="bandstr">     43.20509002 </i>
    <i name="atom">    206.13192747 </i>
    <i name="e_fr_energy">     -9.78537038 </i>
    <i name="e_wo_entrp">     -9.78129594 </i>
    <i name="e_0_energy">     -9.78333316 </i>
   </energy>
  </scstep>
  <structure>
   <crystal>
    <varray name="basis" >
     <v>       2.69991045       0.00000000       0.00000000 </v>
     <v>      -1.34995523       2.33819104      -0.00000000 </v>
     <v>      -0.00000000       0.00000000       4.16890911 </v>
    </varray>
    <i name="volume">     26.31793311 </i>
    <varray name="rec_basis" >
     <v>       0.37038265       0.21384053      -0.00000000 </v>
     <v>       0.00000000       0.42768105      -0.00000000 </v>
     <v>      -0.00000000       0.00000000       0.23987090 </v>
    </varray>
   </crystal>
   <varray name="positions" >
    <v>       0.00000000       0.00000000      -0.00000000 </v>
    <v>       0.33333333       0.66666667       0.50000000 </v>
   </varray>
  </structure>
  <varray name="forces" >
   <v>      -0.00000000      -0.00000000      -0.00000000 </v>
   <v>       0.00000000       0.00000000       0.00000000 </v>
  </varray>
  <varray name="stress" >
   <v>      60.95433296       0.00000000      -0.00000000 </v>
   <v>       0.00000000      60.95433296       0.00000000 </v>
   <v>       0.00000000       0.00000000     164.27848603 </v>
  </varray>
  <energy>
   <i name="e_fr_energy">     -9.78537038 </i>
   <i name="e_wo_entrp">     -9.78333316 </i>
   <i name="e_0_energy">     -0.00407444 </i>
  </energy>
  <time name="totalsc">    9.79    6.10</time>
 </calculation>
 <calculation>
  <scstep>
   <time name="dav">    2.02    1.30</time>
   <time name="total">    2.09    1.35</time>
   <energy>
    <i name="alphaZ">      5.11637911 </i>
    <i name="ewald">   -281.82810481 </i>
    <i name="hartreedc">     -0.69969416 </i>
    <i name="XCdc">    -16.92596851 </i>
    <i name="pawpsdc">    746.40232814 </i>
    <i name="pawaedc">   -711.27487501 </i>
    <i name="eentropy">     -0.00386426 </i>
    <i name="bandstr">     43.27611586 </i>
    <i name="atom">    206.13192747 </i>
    <i name="e_fr_energy">     -9.80575617 </i>
    <i name="e_wo_entrp">     -9.80189191 </i>
    <i name="e_0_energy">     -9.80382404 </i>
   </energy>
  </scstep>
  <scstep>
   <time name="dav">    2.02    1.28</time>
   <time name="total">    2.09    1.33</time>
   <energy>
    <i name="e_fr_energy">     -9.80167319 </i>
    <i name="e_wo_entrp">     -9.79783830 </i>
    <i name="e_0_energy">     -9.79975574 </i>
   </energy>
  </scstep>
  <scstep>
   <time name="dav">    2.03    1.31</time>
   <time name="total">    2.13    1.38</time>
   <energy>
    <i name="e_fr_energy">     -9.79963696 </i>
    <i name="e_wo_entrp">     -9.79583417 </i>
    <i name="e_0_energy">     -9.79773557 </i>
   </energy>
  </scstep>
  <scstep>
   <time name="dav">    1.45    0.93</time>
   <time name="total">    1.52    0.98</time>
   <energy>
    <i name="e_fr_energy">     -9.79965400 </i>
    <i name="e_wo_entrp">     -9.79585068 </i>
    <i name="e_0_energy">     -9.79775234 </i>
   </energy>
  </scstep>
  <scstep>
   <time name="dav">    1.26    0.82</time>
   <time name="total">    1.31    0.85</time>
   <energy>
    <i name="alphaZ">      5.11637911 </i>
    <i name="ewald">   -281.82810481 </i>
    <i name="hartreedc">     -0.66424766 </i>
    <i name="XCdc">    -16.92923868 </i>
    <i name="pawpsdc">    743.54319287 </i>
    <i name="pawaedc">   -708.41482819 </i>
    <i name="eentropy">     -0.00380340 </i>
    <i name="bandstr">     43.24906686 </i>
    <i name="atom">    206.13192747 </i>
    <i name="e_fr_energy">     -9.79965643 </i>
    <i name="e_wo_entrp">     -9.79585303 </i>
    <i name="e_0_energy">     -9.79775473 </i>
   </energy>
  </scstep>
  <structure>
   <crystal>
    <varray name="basis" >
     <v>       2.67169494       0.00000000       0.00000000 </v>
     <v>      -1.33584747       2.31375569      -0.00000000 </v>
     <v>      -0.00000000       0.00000000       4.25742898 </v>
    </varray>
    <i name="volume">     26.31793311 </i>
    <varray name="rec_basis" >
     <v>       0.37429423       0.21609887      -0.00000000 </v>
     <v>       0.00000000       0.43219775      -0.00000000 </v>
     <v>      -0.00000000       0.00000000       0.23488354 </v>
    </varray>
   </crystal>
   <varray name="positions" >
    <v>       0.00000000      -0.00000000       0.00000000 </v>
    <v>       0.33333333       0.66666667       0.50000000 </v>
   </varray>
  </structure>
  <varray name="forces" >
   <v>       0.00000000       0.00000000      -0.00000000 </v>
   <v>      -0.00000000      -0.00000000       0.00000000 </v>
  </varray>
  <varray name="stress" >
   <v>      95.22345396       0.00000000      -0.00000000 </v>
   <v>       0.00000000      95.22345396      -0.00000000 </v>
   <v>      -0.00000000       0.00000000      85.54746902 </v>
  </varray>
  <energy>
   <i name="e_fr_energy">     -9.79965643 </i>
   <i name="e_wo_entrp">     -9.79775473 </i>
   <i name="e_0_energy">     -0.00380340 </i>
  </energy>
  <time name="totalsc">    9.70    6.39</time>
 </calculation>
 <calculation>
  <scstep>
   <time name="dav">    2.05    1.29</time>
   <time name="total">    2.17    1.36</time>
   <energy>
    <i name="alphaZ">      5.11637911 </i>
    <i name="ewald">   -281.82025471 </i>
    <i name="hartreedc">     -0.66475751 </i>
    <i name="XCdc">    -16.92922914 </i>
    <i name="pawpsdc">    743.52853800 </i>
    <i name="pawaedc">   -708.40018455 </i>
    <i name="eentropy">     -0.00418865 </i>
    <i name="bandstr">     43.24188632 </i>
    <i name="atom">    206.13192747 </i>
    <i name="e_fr_energy">     -9.79988366 </i>
    <i name="e_wo_entrp">     -9.79569502 </i>
    <i name="e_0_energy">     -9.79778934 </i>
   </energy>
  </scstep>
  <scstep>
   <time name="dav">    2.13    1.49</time>
   <time name="total">    2.21    1.55</time>
   <energy>
    <i name="e_fr_energy">     -9.79983009 </i>
    <i name="e_wo_entrp">     -9.79564394 </i>
    <i name="e_0_energy">     -9.79773702 </i>
   </energy>
  </scstep>
  <scstep>
   <time name="dav">    2.69    1.71</time>
   <time name="total">    2.78    1.77</time>
   <energy>
    <i name="e_fr_energy">     -9.79980294 </i>
    <i name="e_wo_entrp">     -9.79561969 </i>
    <i name="e_0_energy">     -9.79771132 </i>
   </energy>
  </scstep>
  <scstep>
   <time name="dav">    1.39    0.85</time>
   <time name="total">    1.44    0.88</time>
   <energy>
    <i name="alphaZ">      5.11637911 </i>
    <i name="ewald">   -281.82025471 </i>
    <i name="hartreedc">     -0.66733800 </i>
    <i name="XCdc">    -16.92899185 </i>
    <i name="pawpsdc">    743.64460193 </i>
    <i name="pawaedc">   -708.51621864 </i>
    <i name="eentropy">     -0.00418332 </i>
    <i name="bandstr">     43.24427485 </i>
    <i name="atom">    206.13192747 </i>
    <i name="e_fr_energy">     -9.79980315 </i>
    <i name="e_wo_entrp">     -9.79561983 </i>
    <i name="e_0_energy">     -9.79771149 </i>
   </energy>
  </scstep>
  <structure>
   <crystal>
    <varray name="basis" >
     <v>       2.67500636       0.00000000       0.00000000 </v>
     <v>      -1.33750318       2.31662346      -0.00000000 </v>
     <v>      -0.00000000       0.00000000       4.24689486 </v>
    </varray>
    <i name="volume">     26.31793311 </i>
    <varray name="rec_basis" >
     <v>       0.37383089       0.21583136      -0.00000000 </v>
     <v>       0.00000000       0.43166273      -0.00000000 </v>
     <v>      -0.00000000       0.00000000       0.23546615 </v>
    </varray>
   </crystal>
   <varray name="positions" >
    <v>       0.00000000      -0.00000000       0.00000000 </v>
    <v>       0.33333333       0.66666667       0.50000000 </v>
   </varray>
  </structure>
  <varray name="forces" >
   <v>      -0.00000000      -0.00000000       0.00000000 </v>
   <v>       0.00000000       0.00000000      -0.00000000 </v>
  </varray>
  <varray name="stress" >
   <v>      91.29620497       0.00000000       0.00000000 </v>
   <v>       0.00000000      91.29620497      -0.00000000 </v>
   <v>      -0.00000000      -0.00000000      93.68905017 </v>
  </varray>
  <energy>
   <i name="e_fr_energy">     -9.79980315 </i>
   <i name="e_wo_entrp">     -9.79771149 </i>
   <i name="e_0_energy">     -0.00418332 </i>
  </energy>
  <time name="totalsc">    9.40    6.05</time>
 </calculation>
 <calculation>
  <scstep>
   <time name="dav">    2.69    1.70</time>
   <time name="total">    2.76    1.74</time>
   <energy>
    <i name="alphaZ">      5.11637911 </i>
    <i name="ewald">   -281.82189056 </i>
    <i name="hartreedc">     -0.66718717 </i>
    <i name="XCdc">    -16.92900068 </i>
    <i name="pawpsdc">    743.66434344 </i>
    <i name="pawaedc">   -708.53594303 </i>
    <i name="eentropy">     -0.00410400 </i>
    <i name="bandstr">     43.24565962 </i>
    <i name="atom">    206.13192747 </i>
    <i name="e_fr_energy">     -9.79981581 </i>
    <i name="e_wo_entrp">     -9.79571181 </i>
    <i name="e_0_energy">     -9.79776381 </i>
   </energy>
  </scstep>
  <scstep>
   <time name="dav">    1.53    0.99</time>
   <time name="total">    1.57    1.02</time>
   <energy>
    <i name="alphaZ">      5.11637911 </i>
    <i name="ewald">   -281.82189056 </i>
    <i name="hartreedc">     -0.66692117 </i>
    <i name="XCdc">    -16.92902921 </i>
    <i name="pawpsdc">    743.65120480 </i>
    <i name="pawaedc">   -708.52280930 </i>
    <i name="eentropy">     -0.00410425 </i>
    <i name="bandstr">     43.24542952 </i>
    <i name="atom">    206.13192747 </i>
    <i name="e_fr_energy">     -9.79981360 </i>
    <i name="e_wo_entrp">     -9.79570935 </i>
    <i name="e_0_energy">     -9.79776148 </i>
   </energy>
  </scstep>
  <structure>
   <crystal>
    <varray name="basis" >
     <v>       2.67434915       0.00000000       0.00000000 </v>
     <v>      -1.33717458       2.31605430      -0.00000000 </v>
     <v>      -0.00000000       0.00000000       4.24898243 </v>
    </varray>
    <i name="volume">     26.31793311 </i>
    <varray name="rec_basis" >
     <v>       0.37392275       0.21588440      -0.00000000 </v>
     <v>       0.00000000       0.43176881      -0.00000000 </v>
     <v>      -0.00000000       0.00000000       0.23535047 </v>
    </varray>
   </crystal>
   <varray name="positions" >
    <v>       0.00000000      -0.00000000       0.00000000 </v>
    <v>       0.33333333       0.66666667       0.50000000 </v>
   </varray>
  </structure>
  <varray name="forces" >
   <v>       0.00000000       0.00000000       0.00000000 </v>
   <v>      -0.00000000      -0.00000000      -0.00000000 </v>
  </varray>
  <varray name="stress" >
   <v>      91.90595202       0.00000000      -0.00000000 </v>
   <v>       0.00000000      91.90595202      -0.00000000 </v>
   <v>       0.00000000      -0.00000000      92.37142362 </v>
  </varray>
  <energy>
   <i name="e_fr_energy">     -9.79981360 </i>
   <i name="e_wo_entrp">     -9.79776148 </i>
   <i name="e_0_energy">     -0.00410425 </i>
  </energy>
  <time name="totalsc">    4.85    3.11</time>
  <eigenvalues>
   <array>
    <dimension dim="1">band</dimension>
    <dimension dim="2">kpoint</dimension>
    <dimension dim="3">spin</dimension>
    <field>eigene</field>
    <field>occ</field>
    <set>
     <set comment="spin 1">
      <set comment="kpoint 1">
       <r>   -3.2753    1.0000 </r>
       <r>    3.3156    1.0000 </r>
       <r>    5.8904    1.0000 </r>
       <r>   15.7162    0.0000 </r>
       <r>   16.1912    0.0000 </r>
       <r>   21.3781    0.0000 </r>
       <r>   21.7363    0.0000 </r>
       <r>   21.9522    0.0000 </r>
      </set>
      <set comment="kpoint 2">
       <r>   -1.4097    1.0000 </r>
       <r>    5.1139    1.0000 </r>
       <r>    7.6387    1.0000 </r>
       <r>    9.5260    1.0000 </r>
       <r>   13.6226    0.0000 </r>
       <r>   15.7174    0.0000 </r>
       <r>   17.9423    0.0000 </r>
       <r>   19.8202    0.0000 </r>
      </set>
      <set comment="kpoint 3">
       <r>    1.8752    1.0000 </r>
       <r>    4.1432    1.0000 </r>
       <r>    8.2879    1.0000 </r>
       <r>   10.1728    1.0000 </r>
       <r>   11.1979    1.0000 </r>
       <r>   12.6032    0.0000 </r>
       <r>   13.1296    0.0000 </r>
       <r>   18.7769    0.0000 </r>
      </set>
      <set comment="kpoint 4">
       <r>    0.0672    1.0000 </r>
       <r>    6.3698    1.0000 </r>
       <r>    6.8102    1.0000 </r>
       <r>    9.0726    1.0000 </r>
       <r>   12.7883    0.0000 </r>
       <r>   13.1872    0.0000 </r>
       <r>   15.3934    0.0000 </r>
       <r>   19.1176    0.0000 </r>
      </set>
      <set comment="kpoint 5">
       <r>   -2.5267    1.0000 </r>
       <r>    4.0388    1.0000 </r>
       <r>    6.5999    1.0000 </r>
       <r>   12.6077    0.0000 </r>
       <r>   14.6582    0.0000 </r>
       <r>   18.6275    0.0000 </r>
       <r>   20.2705    0.0000 </r>
       <r>   20.9519    0.0000 </r>
      </set>
      <set comment="kpoint 6">
       <r>   -3.6507    1.0000 </r>
       <r>    2.9524    1.0000 </r>
       <r>    5.5334    1.0000 </r>
       <r>   17.5042    0.0000 </r>
       <r>   18.6586    0.0000 </r>
       <r>   20.7362    0.0000 </r>
       <r>   22.6828    0.0000 </r>
       <r>   22.9944    0.0000 </r>
      </set>
      <set comment="kpoint 7">
       <r>    1.1672    1.0000 </r>
       <r>    7.1903    1.0000 </r>
       <r>    7.8237    1.0000 </r>
       <r>    8.0317    1.0000 </r>
       <r>   10.1185    1.0000 </r>
       <r>   13.5953    0.0000 </r>
       <r>   14.3704    0.0000 </r>
       <r>   16.2372    0.0000 </r>
      </set>
      <set comment="kpoint 8">
       <r>    2.9637    1.0000 </r>
       <r>    5.1825    1.0000 </r>
       <r>    7.4006    1.0000 </r>
       <r>    9.3615    1.0000 </r>
       <r>   11.1992    1.0000 </r>
       <r>   12.0976    0.0000 </r>
       <r>   13.3995    0.0000 </r>
       <r>   14.7154    0.0000 </r>
      </set>
      <set comment="kpoint 9">
       <r>   -0.2998    1.0000 </r>
       <r>    6.1700    1.0000 </r>
       <r>    8.2824    1.0000 </r>
       <r>    8.8536    1.0000 </r>
       <r>   10.6065    1.0000 </r>
       <r>   14.6526    0.0000 </r>
       <r>   16.3776    0.0000 </r>
       <r>   17.5901    0.0000 </r>
      </set>
      <set comment="kpoint 10">
       <r>   -2.1536    1.0000 </r>
       <r>    4.3986    1.0000 </r>
       <r>    6.9507    1.0000 </r>
       <r>   10.9084    1.0000 </r>
       <r>   16.1078    0.0000 </r>
       <r>   17.0332    0.0000 </r>
       <r>   18.4357    0.0000 </r>
       <r>   19.3118    0.0000 </r>
      </set>
      <set comment="kpoint 11">
       <r>    3.0652    1.0000 </r>
       <r>    3.6801    1.0000 </r>
       <r>    9.3139    1.0000 </r>
       <r>    9.9251    1.0000 </r>
       <r>    9.9740    1.0000 </r>
       <r>   12.2286    0.0000 </r>
       <r>   12.5313    0.0000 </r>
       <r>   16.3515    0.0000 </r>
      </set>
      <set comment="kpoint 12">
       <r>    0.7972    1.0000 </r>
       <r>    5.1931    1.0000 </r>
       <r>    7.2730    1.0000 </r>
       <r>    9.6945    1.0000 </r>
       <r>   11.7169    0.0007 </r>
       <r>   14.0623    0.0000 </r>
       <r>   14.8049    0.0000 </r>
       <r>   17.1018    0.0000 </r>
      </set>
      <set comment="kpoint 13">
       <r>   -2.8289    1.0000 </r>
       <r>    1.1431    1.0000 </r>
       <r>    8.8462    1.0000 </r>
       <r>   16.1116    0.0000 </r>
       <r>   16.5235    0.0000 </r>
       <r>   19.5844    0.0000 </r>
       <r>   19.7135    0.0000 </r>
       <r>   20.2563    0.0000 </r>
      </set>
      <set comment="kpoint 14">
       <r>   -0.9673    1.0000 </r>
       <r>    2.9671    1.0000 </r>
       <r>    9.8298    1.0000 </r>
       <r>   10.6163    1.0000 </r>
       <r>   13.6549    0.0000 </r>
       <r>   14.1192    0.0000 </r>
       <r>   17.6736    0.0000 </r>
       <r>   20.0537    0.0000 </r>
      </set>
      <set comment="kpoint 15">
       <r>    2.3103    1.0000 </r>
       <r>    4.5593    1.0000 </r>
       <r>    6.2148    1.0000 </r>
       <r>    8.3949    1.0000 </r>
       <r>   12.9537    0.0000 </r>
       <r>   13.8063    0.0000 </r>
       <r>   15.6173    0.0000 </r>
       <r>   17.1251    0.0000 </r>
      </set>
      <set comment="kpoint 16">
       <r>    0.5063    1.0000 </r>
       <r>    4.4031    1.0000 </r>
       <r>    7.0817    1.0000 </r>
       <r>   10.6820    1.0000 </r>
       <r>   12.1897    0.0000 </r>
       <r>   13.3954    0.0000 </r>
       <r>   16.8705    0.0000 </r>
       <r>   18.4126    0.0000 </r>
      </set>
      <set comment="kpoint 17">
       <r>   -2.0819    1.0000 </r>
       <r>    1.8754    1.0000 </r>
       <r>    9.5294    1.0000 </r>
       <r>   13.0119    0.0000 </r>
       <r>   15.0355    0.0000 </r>
       <r>   16.7054    0.0000 </r>
       <r>   18.7147    0.0000 </r>
       <r>   20.0966    0.0000 </r>
      </set>
      <set comment="kpoint 18">
       <r>   -3.2036    1.0000 </r>
       <r>    0.7756    1.0000 </r>
       <r>    8.4988    1.0000 </r>
       <r>   17.8388    0.0000 </r>
       <r>   19.0394    0.0000 </r>
       <r>   19.2286    0.0000 </r>
       <r>   21.2979    0.0000 </r>
       <r>   21.7480    0.0000 </r>
      </set>
      <set comment="kpoint 19">
       <r>    1.6037    1.0000 </r>
       <r>    5.4646    1.0000 </r>
       <r>    7.8776    1.0000 </r>
       <r>    8.4452    1.0000 </r>
       <r>   11.6299    0.0254 </r>
       <r>   11.7942    0.0000 </r>
       <r>   13.6453    0.0000 </r>
       <r>   18.7778    0.0000 </r>
      </set>
      <set comment="kpoint 20">
       <r>    3.3954    1.0000 </r>
       <r>    5.5910    1.0000 </r>
       <r>    7.2358    1.0000 </r>
       <r>    7.8960    1.0000 </r>
       <r>    9.4445    1.0000 </r>
       <r>   11.5211    0.3396 </r>
       <r>   14.9774    0.0000 </r>
       <r>   17.0290    0.0000 </r>
      </set>
      <set comment="kpoint 21">
       <r>    0.1401    1.0000 </r>
       <r>    4.0490    1.0000 </r>
       <r>    8.8130    1.0000 </r>
       <r>   10.9508    1.0000 </r>
       <r>   11.4638    0.6542 </r>
       <r>   12.8125    0.0000 </r>
       <r>   14.8766    0.0000 </r>
       <r>   19.7099    0.0000 </r>
      </set>
      <set comment="kpoint 22">
       <r>   -1.7096    1.0000 </r>
       <r>    2.2402    1.0000 </r>
       <r>    9.8487    1.0000 </r>
       <r>   11.3359    0.9863 </r>
       <r>   15.0724    0.0000 </r>
       <r>   16.4952    0.0000 </r>
       <r>   18.5982    0.0000 </r>
       <r>   19.9459    0.0000 </r>
      </set>
      <set comment="kpoint 23">
       <r>    3.4983    1.0000 </r>
       <r>    4.1039    1.0000 </r>
       <r>    7.3635    1.0000 </r>
       <r>    7.9417    1.0000 </r>
       <r>   10.2974    1.0000 </r>
       <r>   13.6745    0.0000 </r>
       <r>   14.9507    0.0000 </r>
       <r>   16.0132    0.0000 </r>
      </set>
      <set comment="kpoint 24">
       <r>    1.2347    1.0000 </r>
       <r>    5.0634    1.0000 </r>
       <r>    5.7166    1.0000 </r>
       <r>    9.4079    1.0000 </r>
       <r>   12.7982    0.0000 </r>
       <r>   15.1937    0.0000 </r>
       <r>   16.7393    0.0000 </r>
       <r>   17.4701    0.0000 </r>
      </set>
      <set comment="kpoint 25">
       <r>   -1.9393    1.0000 </r>
       <r>   -0.6124    1.0000 </r>
       <r>   12.1439    0.0000 </r>
       <r>   15.6080    0.0000 </r>
       <r>   16.8965    0.0000 </r>
       <r>   17.6708    0.0000 </r>
       <r>   18.1004    0.0000 </r>
       <r>   18.7356    0.0000 </r>
      </set>
      <set comment="kpoint 26">
       <r>   -0.0857    1.0000 </r>
       <r>    1.2289    1.0000 </r>
       <r>   10.7073    1.0000 </r>
       <r>   11.8687    0.0000 </r>
       <r>   13.9386    0.0000 </r>
       <r>   14.8044    0.0000 </r>
       <r>   16.2250    0.0000 </r>
       <r>   17.6438    0.0000 </r>
      </set>
      <set comment="kpoint 27">
       <r>    3.1753    1.0000 </r>
       <r>    4.4421    1.0000 </r>
       <r>    5.4802    1.0000 </r>
       <r>    6.7263    1.0000 </r>
       <r>   13.7931    0.0000 </r>
       <r>   14.8997    0.0000 </r>
       <r>   17.0750    0.0000 </r>
       <r>   18.8181    0.0000 </r>
      </set>
      <set comment="kpoint 28">
       <r>    1.3813    1.0000 </r>
       <r>    2.6850    1.0000 </r>
       <r>    7.9191    1.0000 </r>
       <r>    9.1652    1.0000 </r>
       <r>   14.1074    0.0000 </r>
       <r>   14.8597    0.0000 </r>
       <r>   15.9234    0.0000 </r>
       <r>   18.6788    0.0000 </r>
      </set>
      <set comment="kpoint 29">
       <r>   -1.1955    1.0000 </r>
       <r>    0.1266    1.0000 </r>
       <r>   12.7224    0.0000 </r>
       <r>   13.7887    0.0000 </r>
       <r>   15.1265    0.0000 </r>
       <r>   15.6067    0.0000 </r>
       <r>   16.9294    0.0000 </r>
       <r>   17.2238    0.0000 </r>
      </set>
      <set comment="kpoint 30">
       <r>   -2.3124    1.0000 </r>
       <r>   -0.9831    1.0000 </r>
       <r>   11.8187    0.0000 </r>
       <r>   15.4222    0.0000 </r>
       <r>   18.7310    0.0000 </r>
       <r>   19.7975    0.0000 </r>
       <r>   19.8656    0.0000 </r>
       <r>   20.9173    0.0000 </r>
      </set>
      <set comment="kpoint 31">
       <r>    2.4732    1.0000 </r>
       <r>    3.7672    1.0000 </r>
       <r>    8.6980    1.0000 </r>
       <r>    9.2375    1.0000 </r>
       <r>   10.0179    1.0000 </r>
       <r>   10.5160    1.0000 </r>
       <r>   16.4937    0.0000 </r>
       <r>   19.6196    0.0000 </r>
      </set>
      <set comment="kpoint 32">
       <r>    4.2524    1.0000 </r>
       <r>    5.4940    1.0000 </r>
       <r>    6.5351    1.0000 </r>
       <r>    7.7417    1.0000 </r>
       <r>    8.7330    1.0000 </r>
       <r>    9.9476    1.0000 </r>
       <r>   18.0136    0.0000 </r>
       <r>   19.6964    0.0000 </r>
      </set>
      <set comment="kpoint 33">
       <r>    1.0167    1.0000 </r>
       <r>    2.3235    1.0000 </r>
       <r>    9.6491    1.0000 </r>
       <r>   10.8537    1.0000 </r>
       <r>   11.8307    0.0000 </r>
       <r>   12.9256    0.0000 </r>
       <r>   15.2950    0.0000 </r>
       <r>   18.5813    0.0000 </r>
      </set>
      <set comment="kpoint 34">
       <r>   -0.8248    1.0000 </r>
       <r>    0.4948    1.0000 </r>
       <r>   12.0588    0.0000 </r>
       <r>   12.8019    0.0000 </r>
       <r>   13.8453    0.0000 </r>
       <r>   16.7414    0.0000 </r>
       <r>   17.2690    0.0000 </r>
       <r>   18.4250    0.0000 </r>
      </set>
      <set comment="kpoint 35">
       <r>    4.3528    1.0000 </r>
       <r>    4.9149    1.0000 </r>
       <r>    5.7212    1.0000 </r>
       <r>    6.2709    1.0000 </r>
       <r>   11.1157    1.0000 </r>
       <r>   12.3168    0.0000 </r>
       <r>   18.0015    0.0000 </r>
       <r>   18.7499    0.0000 </r>
      </set>
      <set comment="kpoint 36">
       <r>    2.1061    1.0000 </r>
       <r>    3.4022    1.0000 </r>
       <r>    6.5100    1.0000 </r>
       <r>    7.7696    1.0000 </r>
       <r>   15.8742    0.0000 </r>
       <r>   15.9707    0.0000 </r>
       <r>   17.1339    0.0000 </r>
       <r>   17.8716    0.0000 </r>
      </set>
     </set>
    </set>
   </array>
  </eigenvalues>
  <separator name="orbital magnetization" >
   <v name="MAGDIPOLOUT">      0.00000000      0.00000000      0.00000000</v>
  </separator>
  <dos>
   <i name="efermi">     11.49187364 </i>
   <total>
    <array>
     <dimension dim="1">gridpoints</dimension>
     <dimension dim="2">spin</dimension>
     <field>energy</field>
     <field>total</field>
     <field>integrated</field>
     <set>
      <set comment="spin 1">
       <r>    -4.9830     0.0000     0.0000 </r>
       <r>    -4.8853     0.0000     0.0000 </r>
       <r>    -4.7876     0.0000     0.0000 </r>
       <r>    -4.6899     0.0000     0.0000 </r>
       <r>    -4.5922     0.0000     0.0000 </r>
       <r>    -4.4945     0.0000     0.0000 </r>
       <r>    -4.3968     0.0000     0.0000 </r>
       <r>    -4.2991     0.0000     0.0000 </r>
       <r>    -4.2014     0.0000     0.0000 </r>
       <r>    -4.1037     0.0000     0.0000 </r>
       <r>    -4.0060     0.0000     0.0000 </r>
       <r>    -3.9083     0.0001     0.0000 </r>
       <r>    -3.8106     0.0045     0.0004 </r>
       <r>    -3.7129     0.0674     0.0070 </r>
       <r>    -3.6152     0.1906     0.0256 </r>
       <r>    -3.5175     0.1055     0.0359 </r>
       <r>    -3.4198     0.0191     0.0378 </r>
       <r>    -3.3221     0.1060     0.0482 </r>
       <r>    -3.2244     0.3213     0.0796 </r>
       <r>    -3.1267     0.2637     0.1053 </r>
       <r>    -3.0290     0.0575     0.1109 </r>
       <r>    -2.9313     0.0298     0.1138 </r>
       <r>    -2.8336     0.1516     0.1287 </r>
       <r>    -2.7359     0.1650     0.1448 </r>
       <r>    -2.6382     0.0767     0.1523 </r>
       <r>    -2.5405     0.2783     0.1795 </r>
       <r>    -2.4428     0.3607     0.2147 </r>
       <r>    -2.3451     0.1965     0.2339 </r>
       <r>    -2.2474     0.2340     0.2568 </r>
       <r>    -2.1497     0.3480     0.2908 </r>
       <r>    -2.0520     0.5525     0.3447 </r>
       <r>    -1.9543     0.3924     0.3831 </r>
       <r>    -1.8566     0.2098     0.4036 </r>
       <r>    -1.7589     0.1293     0.4162 </r>
       <r>    -1.6612     0.1956     0.4353 </r>
       <r>    -1.5635     0.0973     0.4448 </r>
       <r>    -1.4658     0.1580     0.4603 </r>
       <r>    -1.3681     0.3908     0.4984 </r>
       <r>    -1.2704     0.2968     0.5274 </r>
       <r>    -1.1727     0.3862     0.5652 </r>
       <r>    -1.0750     0.3325     0.5976 </r>
       <r>    -0.9773     0.4918     0.6457 </r>
       <r>    -0.8796     0.5683     0.7012 </r>
       <r>    -0.7819     0.3005     0.7306 </r>
       <r>    -0.6842     0.1540     0.7456 </r>
       <r>    -0.5865     0.1938     0.7645 </r>
       <r>    -0.4888     0.1231     0.7766 </r>
       <r>    -0.3911     0.0866     0.7850 </r>
       <r>    -0.2934     0.3334     0.8176 </r>
       <r>    -0.1957     0.3426     0.8511 </r>
       <r>    -0.0980     0.3413     0.8844 </r>
       <r>    -0.0003     0.5129     0.9345 </r>
       <r>     0.0974     0.8772     1.0202 </r>
       <r>     0.1951     0.9908     1.1170 </r>
       <r>     0.2928     0.3010     1.1464 </r>
       <r>     0.3905     0.0823     1.1545 </r>
       <r>     0.4882     0.4129     1.1948 </r>
       <r>     0.5859     0.5253     1.2461 </r>
       <r>     0.6836     0.1854     1.2642 </r>
       <r>     0.7813     0.3067     1.2942 </r>
       <r>     0.8790     0.3459     1.3280 </r>
       <r>     0.9767     0.2731     1.3547 </r>
       <r>     1.0744     0.4963     1.4032 </r>
       <r>     1.1720     0.7146     1.4730 </r>
       <r>     1.2697     0.8947     1.5604 </r>
       <r>     1.3674     0.6185     1.6208 </r>
       <r>     1.4651     0.3890     1.6588 </r>
       <r>     1.5628     0.1832     1.6767 </r>
       <r>     1.6605     0.1981     1.6961 </r>
       <r>     1.7582     0.1469     1.7104 </r>
       <r>     1.8559     0.5260     1.7618 </r>
       <r>     1.9536     0.7245     1.8326 </r>
       <r>     2.0513     0.2722     1.8592 </r>
       <r>     2.1490     0.2520     1.8838 </r>
       <r>     2.2467     0.4921     1.9319 </r>
       <r>     2.3444     0.9125     2.0210 </r>
       <r>     2.4421     0.6085     2.0805 </r>
       <r>     2.5398     0.2618     2.1061 </r>
       <r>     2.6375     0.2383     2.1293 </r>
       <r>     2.7352     0.3919     2.1676 </r>
       <r>     2.8329     0.2297     2.1901 </r>
       <r>     2.9306     0.5771     2.2465 </r>
       <r>     3.0283     1.0600     2.3500 </r>
       <r>     3.1260     0.6789     2.4163 </r>
       <r>     3.2237     0.5193     2.4671 </r>
       <r>     3.3214     0.4969     2.5156 </r>
       <r>     3.4191     0.7560     2.5895 </r>
       <r>     3.5168     0.5901     2.6471 </r>
       <r>     3.6145     0.2524     2.6718 </r>
       <r>     3.7122     0.2856     2.6997 </r>
       <r>     3.8099     0.3046     2.7295 </r>
       <r>     3.9076     0.1489     2.7440 </r>
       <r>     4.0053     0.4611     2.7891 </r>
       <r>     4.1030     1.1319     2.8997 </r>
       <r>     4.2007     1.0015     2.9975 </r>
       <r>     4.2984     0.7585     3.0716 </r>
       <r>     4.3961     1.0229     3.1715 </r>
       <r>     4.4938     1.1168     3.2806 </r>
       <r>     4.5915     0.6550     3.3446 </r>
       <r>     4.6892     0.2383     3.3679 </r>
       <r>     4.7869     0.0379     3.3716 </r>
       <r>     4.8846     0.1165     3.3830 </r>
       <r>     4.9823     0.2590     3.4083 </r>
       <r>     5.0800     0.5279     3.4599 </r>
       <r>     5.1777     0.9563     3.5533 </r>
       <r>     5.2754     0.6577     3.6176 </r>
       <r>     5.3731     0.2432     3.6413 </r>
       <r>     5.4708     0.8088     3.7204 </r>
       <r>     5.5685     1.3077     3.8481 </r>
       <r>     5.6662     0.8395     3.9301 </r>
       <r>     5.7639     0.5244     3.9814 </r>
       <r>     5.8616     0.3038     4.0110 </r>
       <r>     5.9593     0.2045     4.0310 </r>
       <r>     6.0570     0.1100     4.0418 </r>
       <r>     6.1547     0.4355     4.0843 </r>
       <r>     6.2524     0.9016     4.1724 </r>
       <r>     6.3501     0.7387     4.2446 </r>
       <r>     6.4478     0.5901     4.3022 </r>
       <r>     6.5455     0.7913     4.3795 </r>
       <r>     6.6432     0.8769     4.4652 </r>
       <r>     6.7409     0.7127     4.5348 </r>
       <r>     6.8386     0.6878     4.6020 </r>
       <r>     6.9363     0.4269     4.6438 </r>
       <r>     7.0340     0.3848     4.6814 </r>
       <r>     7.1317     0.5634     4.7364 </r>
       <r>     7.2294     0.7699     4.8116 </r>
       <r>     7.3271     0.8498     4.8946 </r>
       <r>     7.4248     0.7193     4.9649 </r>
       <r>     7.5225     0.3610     5.0002 </r>
       <r>     7.6202     0.3379     5.0332 </r>
       <r>     7.7179     0.7220     5.1037 </r>
       <r>     7.8156     1.0286     5.2042 </r>
       <r>     7.9133     1.3485     5.3360 </r>
       <r>     8.0110     1.0682     5.4403 </r>
       <r>     8.1087     0.3709     5.4766 </r>
       <r>     8.2064     0.2522     5.5012 </r>
       <r>     8.3041     0.8016     5.5795 </r>
       <r>     8.4018     0.9804     5.6753 </r>
       <r>     8.4995     0.7235     5.7460 </r>
       <r>     8.5972     0.3376     5.7790 </r>
       <r>     8.6949     0.4443     5.8224 </r>
       <r>     8.7926     1.0198     5.9220 </r>
       <r>     8.8903     1.1150     6.0310 </r>
       <r>     8.9880     0.4982     6.0796 </r>
       <r>     9.0857     0.4822     6.1267 </r>
       <r>     9.1834     0.7319     6.1982 </r>
       <r>     9.2811     0.7235     6.2689 </r>
       <r>     9.3788     0.9439     6.3611 </r>
       <r>     9.4765     1.2397     6.4823 </r>
       <r>     9.5742     1.2177     6.6012 </r>
       <r>     9.6718     0.8875     6.6879 </r>
       <r>     9.7695     0.6616     6.7526 </r>
       <r>     9.8672     0.8426     6.8349 </r>
       <r>     9.9649     1.1193     6.9442 </r>
       <r>    10.0626     0.8867     7.0309 </r>
       <r>    10.1603     0.6619     7.0955 </r>
       <r>    10.2580     0.5522     7.1495 </r>
       <r>    10.3557     0.2886     7.1777 </r>
       <r>    10.4534     0.1630     7.1936 </r>
       <r>    10.5511     0.5097     7.2434 </r>
       <r>    10.6488     1.2336     7.3639 </r>
       <r>    10.7465     1.2372     7.4848 </r>
       <r>    10.8442     0.7734     7.5604 </r>
       <r>    10.9419     0.8515     7.6436 </r>
       <r>    11.0396     0.5931     7.7015 </r>
       <r>    11.1373     0.5484     7.7551 </r>
       <r>    11.2350     0.9225     7.8452 </r>
       <r>    11.3327     0.6126     7.9051 </r>
       <r>    11.4304     0.4962     7.9536 </r>
       <r>    11.5281     0.7754     8.0293 </r>
       <r>    11.6258     0.6217     8.0900 </r>
       <r>    11.7235     0.5407     8.1429 </r>
       <r>    11.8212     0.9960     8.2402 </r>
       <r>    11.9189     1.0396     8.3418 </r>
       <r>    12.0166     0.4942     8.3900 </r>
       <r>    12.1143     0.8033     8.4685 </r>
       <r>    12.2120     1.0563     8.5717 </r>
       <r>    12.3097     0.6813     8.6383 </r>
       <r>    12.4074     0.2687     8.6645 </r>
       <r>    12.5051     0.2744     8.6913 </r>
       <r>    12.6028     0.8440     8.7738 </r>
       <r>    12.7005     1.1325     8.8844 </r>
       <r>    12.7982     1.4622     9.0273 </r>
       <r>    12.8959     1.4777     9.1717 </r>
       <r>    12.9936     1.2481     9.2936 </r>
       <r>    13.0913     0.9490     9.3863 </r>
       <r>    13.1890     0.8272     9.4671 </r>
       <r>    13.2867     0.5446     9.5203 </r>
       <r>    13.3844     0.6274     9.5816 </r>
       <r>    13.4821     0.7441     9.6543 </r>
       <r>    13.5798     0.6952     9.7223 </r>
       <r>    13.6775     1.3940     9.8585 </r>
       <r>    13.7752     1.5451    10.0094 </r>
       <r>    13.8729     1.4824    10.1542 </r>
       <r>    13.9706     0.8680    10.2390 </r>
       <r>    14.0683     0.7824    10.3155 </r>
       <r>    14.1660     0.9463    10.4079 </r>
       <r>    14.2637     0.3719    10.4443 </r>
       <r>    14.3614     0.1718    10.4611 </r>
       <r>    14.4591     0.1736    10.4780 </r>
       <r>    14.5568     0.1674    10.4944 </r>
       <r>    14.6545     0.7870    10.5713 </r>
       <r>    14.7522     1.3515    10.7033 </r>
       <r>    14.8499     1.6651    10.8660 </r>
       <r>    14.9476     1.8745    11.0491 </r>
       <r>    15.0453     1.4821    11.1939 </r>
       <r>    15.1430     1.1016    11.3016 </r>
       <r>    15.2407     0.7447    11.3743 </r>
       <r>    15.3384     0.7148    11.4441 </r>
       <r>    15.4361     0.7684    11.5192 </r>
       <r>    15.5338     0.5980    11.5776 </r>
       <r>    15.6315     1.0633    11.6815 </r>
       <r>    15.7292     1.1715    11.7960 </r>
       <r>    15.8269     0.6715    11.8616 </r>
       <r>    15.9246     0.7119    11.9311 </r>
       <r>    16.0223     0.8443    12.0136 </r>
       <r>    16.1200     0.7591    12.0878 </r>
       <r>    16.2177     0.9507    12.1807 </r>
       <r>    16.3154     0.9249    12.2710 </r>
       <r>    16.4131     0.8221    12.3514 </r>
       <r>    16.5108     0.7809    12.4277 </r>
       <r>    16.6085     0.5548    12.4819 </r>
       <r>    16.7062     0.6236    12.5428 </r>
       <r>    16.8039     0.8838    12.6291 </r>
       <r>    16.9016     1.0118    12.7280 </r>
       <r>    16.9993     1.2632    12.8514 </r>
       <r>    17.0970     1.6146    13.0091 </r>
       <r>    17.1947     1.4570    13.1515 </r>
       <r>    17.2924     0.8254    13.2321 </r>
       <r>    17.3901     0.3249    13.2639 </r>
       <r>    17.4878     0.4054    13.3035 </r>
       <r>    17.5855     0.8767    13.3891 </r>
       <r>    17.6832     1.2946    13.5156 </r>
       <r>    17.7809     0.8188    13.5956 </r>
       <r>    17.8786     0.6178    13.6560 </r>
       <r>    17.9763     0.9705    13.7508 </r>
       <r>    18.0740     0.9371    13.8423 </r>
       <r>    18.1716     0.4043    13.8818 </r>
       <r>    18.2693     0.0939    13.8910 </r>
       <r>    18.3670     0.3175    13.9220 </r>
       <r>    18.4647     0.8239    14.0025 </r>
       <r>    18.5624     0.9596    14.0963 </r>
       <r>    18.6601     1.7499    14.2672 </r>
       <r>    18.7578     2.3488    14.4967 </r>
       <r>    18.8555     1.6608    14.6590 </r>
       <r>    18.9532     0.4776    14.7056 </r>
       <r>    19.0509     0.3276    14.7376 </r>
       <r>    19.1486     0.5695    14.7933 </r>
       <r>    19.2463     0.4884    14.8410 </r>
       <r>    19.3440     0.3478    14.8750 </r>
       <r>    19.4417     0.1403    14.8887 </r>
       <r>    19.5394     0.1689    14.9052 </r>
       <r>    19.6371     0.6815    14.9718 </r>
       <r>    19.7348     1.3081    15.0995 </r>
       <r>    19.8325     1.2630    15.2229 </r>
       <r>    19.9302     0.8181    15.3029 </r>
       <r>    20.0279     0.6572    15.3671 </r>
       <r>    20.1256     0.8212    15.4473 </r>
       <r>    20.2233     0.6288    15.5087 </r>
       <r>    20.3210     0.6095    15.5683 </r>
       <r>    20.4187     0.2311    15.5909 </r>
       <r>    20.5164     0.0179    15.5926 </r>
       <r>    20.6141     0.0158    15.5942 </r>
       <r>    20.7118     0.1233    15.6062 </r>
       <r>    20.8095     0.2238    15.6281 </r>
       <r>    20.9072     0.3811    15.6653 </r>
       <r>    21.0049     0.5595    15.7200 </r>
       <r>    21.1026     0.1996    15.7395 </r>
       <r>    21.2003     0.0469    15.7440 </r>
       <r>    21.2980     0.2047    15.7640 </r>
       <r>    21.3957     0.3358    15.7968 </r>
       <r>    21.4934     0.1635    15.8128 </r>
       <r>    21.5911     0.0326    15.8160 </r>
       <r>    21.6888     0.1593    15.8316 </r>
       <r>    21.7865     0.3887    15.8695 </r>
       <r>    21.8842     0.2446    15.8934 </r>
       <r>    21.9819     0.2044    15.9134 </r>
       <r>    22.0796     0.1146    15.9246 </r>
       <r>    22.1773     0.0133    15.9259 </r>
       <r>    22.2750     0.0003    15.9259 </r>
       <r>    22.3727     0.0000    15.9259 </r>
       <r>    22.4704     0.0005    15.9260 </r>
       <r>    22.5681     0.0194    15.9279 </r>
       <r>    22.6658     0.1337    15.9409 </r>
       <r>    22.7635     0.1776    15.9583 </r>
       <r>    22.8612     0.0569    15.9639 </r>
       <r>    22.9589     0.1075    15.9744 </r>
       <r>    23.0566     0.1906    15.9930 </r>
       <r>    23.1543     0.0674    15.9996 </r>
       <r>    23.2520     0.0045    16.0000 </r>
       <r>    23.3497     0.0001    16.0000 </r>
       <r>    23.4474     0.0000    16.0000 </r>
       <r>    23.5451     0.0000    16.0000 </r>
       <r>    23.6428     0.0000    16.0000 </r>
       <r>    23.7405     0.0000    16.0000 </r>
       <r>    23.8382     0.0000    16.0000 </r>
       <r>    23.9359     0.0000    16.0000 </r>
       <r>    24.0336     0.0000    16.0000 </r>
       <r>    24.1313     0.0000    16.0000 </r>
       <r>    24.2290     0.0000    16.0000 </r>
       <r>    24.3267     0.0000    16.0000 </r>
      </set>
     </set>
    </array>
   </total>
  </dos>
 </calculation>
 <structure name="finalpos" >
  <crystal>
   <varray name="basis" >
    <v>       2.67434915       0.00000000       0.00000000 </v>
    <v>      -1.33717458       2.31605430      -0.00000000 </v>
    <v>      -0.00000000       0.00000000       4.24898243 </v>
   </varray>
   <i name="volume">     26.31793311 </i>
   <varray name="rec_basis" >
    <v>       0.37392275       0.21588440      -0.00000000 </v>
    <v>       0.00000000       0.43176881      -0.00000000 </v>
    <v>      -0.00000000       0.00000000       0.23535047 </v>
   </varray>
  </crystal>
  <varray name="positions" >
   <v>       0.00000000      -0.00000000       0.00000000 </v>
   <v>       0.33333333       0.66666667       0.50000000 </v>
  </varray>
 </structure>
</modeling>
