Si beta-tin                             
           1
     2.650000    0.000000    0.000000
    -1.325000    2.294967    0.000000
     0.000000    0.000000    4.327424
    S
   2
Direct configuration=     1
   0.00000000  0.00000000  0.00000000
   0.33333333  0.66666667  0.50000000
Direct configuration=     2
   0.00000000  0.00000000  0.00000000
   0.33333333  0.66666667  0.50000000
Direct configuration=     3
   0.00000000  0.00000000 -0.00000000
   0.33333333  0.66666667  0.50000000
Direct configuration=     4
   0.00000000 -0.00000000  0.00000000
   0.33333333  0.66666667  0.50000000
Direct configuration=     5
   0.00000000 -0.00000000  0.00000000
   0.33333333  0.66666667  0.50000000
Direct configuration=     6
   0.00000000 -0.00000000  0.00000000
   0.33333333  0.66666667  0.50000000
