Si beta-tin                             
   2.54000000000000     
     1.004300    0.000000    0.000000
    -0.502150    0.869749    0.000000
    -0.000000    0.000000    1.619037
    S
     2
Direct
  0.000000  0.000000  0.000000
  0.333333  0.666667  0.500000
 
   36   36   60
 -4.0682     -3.7268     -2.7400     -1.2157     0.68142      2.7523      4.7929      6.6233      8.1112      9.1838    
  9.8294      10.089      10.046      9.8066      9.4865      9.1840      8.9428      8.7878      8.7344      8.7878    
  8.9428      9.1840      9.4865      9.8066      10.046      10.089      9.8294      9.1838      8.1112      6.6233    
  4.7929      2.7523     0.68142     -1.2157     -2.7400     -3.7268     -3.7268     -3.7268     -3.0611     -1.8031    
 -.90668E-01  1.8923      3.9424      5.8665      7.5085      8.7671      9.6016      10.029      10.113      9.9498    
  9.6521      9.3310      9.0552      8.8544      8.7489      8.7489      8.8544      9.0552      9.3310      9.6521    
  9.9498      10.113      10.029      9.6016      8.7671      7.5085      5.8665      3.9424      1.8923     -.90670E-01
 -1.8031     -3.0611     -2.7400     -3.0645     -2.7400     -1.8031     -.35860      1.4341      3.3839      5.2961    
  7.0008      8.3738      9.3486      9.9166      10.120      10.040      9.7801      9.4527      9.1483      8.9065    
  8.7514      8.6979      8.7514      8.9065      9.1483      9.4527      9.7801      10.040      10.120      9.9166    
  9.3486      8.3738      7.0008      5.2961      3.3839      1.4341     -.35861     -1.8031     -1.2157     -1.8127    
 -1.8127     -1.2157     -.90667E-01  1.4341      3.1893      4.9898      6.6622      8.0683      9.1207      9.7871    
  10.088      10.085      9.8699      9.5489      9.2224      8.9449      8.7438      8.6383      8.6383      8.7438    
  8.9449      9.2224      9.5489      9.8699      10.085      10.088      9.7871      9.1207      8.0683      6.6622    
  4.9898      3.1893      1.4341     -.90670E-01 0.68142     -.10798     -.38207     -.10798     0.68142      1.8923    
  3.3839      4.9898      6.5433      7.9016      8.9630      9.6763      10.040      10.098      9.9263      9.6197    
  9.2786      8.9715      8.7292      8.5744      8.5212      8.5744      8.7292      8.9715      9.2786      9.6197    
  9.9263      10.098      10.040      9.6763      8.9630      7.9016      6.5433      4.9898      3.3839      1.8923    
  2.7523      1.8669      1.3948      1.3948      1.8669      2.7523      3.9424      5.2961      6.6622      7.9016    
  8.9067      9.6128      10.001      10.096      9.9574      9.6674      9.3191      8.9887      8.7112      8.5114    
  8.4069      8.4069      8.5114      8.7112      8.9887      9.3191      9.6674      9.9574      10.096      10.001    
  9.6128      8.9067      7.9016      6.6622      5.2961      3.9424      4.7929      3.9099      3.3293      3.1270    
  3.3293      3.9099      4.7929      5.8665      7.0008      8.0683      8.9630      9.6128      9.9861      10.091    
  9.9718      9.6959      9.3462      8.9991      8.6932      8.4542      8.3022      8.2501      8.3022      8.4542    
  8.6932      8.9991      9.3462      9.6959      9.9718      10.091      9.9861      9.6128      8.9630      8.0683    
  7.0008      5.8665      6.6233      5.8284      5.2289      4.9066      4.9066      5.2288      5.8284      6.6233    
  7.5085      8.3738      9.1207      9.6763      10.001      10.091      9.9758      9.7090      9.3616      9.0048    
  8.6781      8.4072      8.2135      8.1126      8.1126      8.2135      8.4072      8.6781      9.0048      9.3616    
  9.7090      9.9758      10.091      10.001      9.6763      9.1207      8.3738      7.5085      8.1112      7.4669    
  6.9243      6.5624      6.4354      6.5624      6.9243      7.4669      8.1112      8.7671      9.3486      9.7871    
  10.040      10.096      9.9718      9.7090      9.3665      9.0073      8.6682      8.3739      8.1461      8.0021    
  7.9528      8.0021      8.1461      8.3739      8.6682      9.0073      9.3665      9.7090      9.9718      10.096    
  10.040      9.7871      9.3486      8.7671      9.1838      8.7237      8.2918      7.9572      7.7747      7.7747    
  7.9572      8.2918      8.7237      9.1838      9.6016      9.9166      10.088      10.098      9.9574      9.6959    
  9.3616      9.0073      8.6648      8.3566      8.1040      7.9247      7.8317      7.8317      7.9247      8.1040    
  8.3566      8.6648      9.0073      9.3616      9.6959      9.9574      10.098      10.088      9.9166      9.6016    
  9.8294      9.5578      9.2641      9.0029      8.8234      8.7595      8.8234      9.0029      9.2641      9.5578    
  9.8294      10.029      10.120      10.085      9.9263      9.6674      9.3462      9.0048      8.6682      8.3566    
  8.0897      7.8849      7.7561      7.7122      7.7561      7.8849      8.0897      8.3566      8.6682      9.0048    
  9.3462      9.6674      9.9263      10.085      10.120      10.029      10.089      9.9855      9.8316      9.6664    
  9.5291      9.4514      9.4514      9.5291      9.6664      9.8316      9.9855      10.089      10.113      10.040    
  9.8699      9.6197      9.3191      8.9991      8.6781      8.3739      8.1040      7.8849      7.7304      7.6505    
  7.6505      7.7304      7.8849      8.1040      8.3739      8.6781      8.9991      9.3191      9.6197      9.8699    
  10.040      10.113      10.046      10.070      10.036      9.9663      9.8893      9.8308      9.8091      9.8308    
  9.8893      9.9663      10.036      10.070      10.046      9.9498      9.7801      9.5489      9.2786      8.9887    
  8.6932      8.4072      8.1461      7.9247      7.7561      7.6505      7.6146      7.6505      7.7561      7.9247    
  8.1461      8.4072      8.6932      8.9887      9.2786      9.5489      9.7801      9.9498      9.8066      9.9075    
  9.9564      9.9636      9.9456      9.9205      9.9035      9.9035      9.9205      9.9456      9.9636      9.9564    
  9.9075      9.8066      9.6521      9.4527      9.2224      8.9715      8.7112      8.4542      8.2135      8.0021    
  7.8317      7.7122      7.6505      7.6505      7.7122      7.8317      8.0021      8.2135      8.4542      8.7112    
  8.9715      9.2224      9.4527      9.6521      9.4865      9.6103      9.6976      9.7494      9.7728      9.7782    
  9.7762      9.7746      9.7762      9.7782      9.7728      9.7494      9.6976      9.6103      9.4865      9.3310    
  9.1483      8.9449      8.7292      8.5114      8.3022      8.1126      7.9528      7.8317      7.7561      7.7304    
  7.7561      7.8317      7.9528      8.1126      8.3022      8.5114      8.7292      8.9449      9.1483      9.3310    
  9.1840      9.2894      9.3707      9.4288      9.4658      9.4858      9.4945      9.4973      9.4973      9.4945    
  9.4858      9.4658      9.4288      9.3707      9.2894      9.1840      9.0552      8.9065      8.7438      8.5744    
  8.4069      8.2501      8.1126      8.0021      7.9247      7.8849      7.8849      7.9247      8.0021      8.1126    
  8.2501      8.4069      8.5744      8.7438      8.9065      9.0552      8.9428      9.0138      9.0665      9.1024    
  9.1241      9.1354      9.1401      9.1415      9.1416      9.1415      9.1401      9.1354      9.1241      9.1024    
  9.0665      9.0138      8.9428      8.8544      8.7514      8.6383      8.5212      8.4069      8.3022      8.2135    
  8.1461      8.1040      8.0897      8.1040      8.1461      8.2135      8.3022      8.4069      8.5212      8.6383    
  8.7514      8.8544      8.7878      8.8131      8.8248      8.8248      8.8164      8.8032      8.7893      8.7779    
  8.7716      8.7716      8.7779      8.7893      8.8032      8.8164      8.8248      8.8248      8.8131      8.7878    
  8.7489      8.6979      8.6383      8.5744      8.5114      8.4542      8.4072      8.3739      8.3566      8.3566    
  8.3739      8.4072      8.4542      8.5114      8.5744      8.6383      8.6979      8.7489      8.7344      8.7075    
  8.6696      8.6235      8.5735      8.5242      8.4804      8.4459      8.4240      8.4165      8.4240      8.4459    
  8.4804      8.5242      8.5735      8.6235      8.6696      8.7075      8.7344      8.7489      8.7514      8.7438    
  8.7292      8.7112      8.6932      8.6781      8.6682      8.6648      8.6682      8.6781      8.6932      8.7112    
  8.7292      8.7438      8.7514      8.7489      8.7878      8.7075      8.6161      8.5179      8.4182      8.3233    
  8.2391      8.1709      8.1231      8.0984      8.0984      8.1231      8.1709      8.2391      8.3233      8.4182    
  8.5179      8.6161      8.7075      8.7878      8.8544      8.9065      8.9449      8.9715      8.9887      8.9991    
  9.0048      9.0073      9.0073      9.0048      8.9991      8.9887      8.9715      8.9449      8.9065      8.8544    
  8.9428      8.8131      8.6696      8.5179      8.3649      8.2183      8.0858      7.9746      7.8906      7.8384    
  7.8207      7.8384      7.8906      7.9746      8.0858      8.2183      8.3649      8.5179      8.6696      8.8131    
  8.9428      9.0552      9.1483      9.2224      9.2786      9.3191      9.3462      9.3616      9.3665      9.3616    
  9.3462      9.3191      9.2786      9.2224      9.1483      9.0552      9.1840      9.0138      8.8248      8.6235    
  8.4182      8.2183      8.0332      7.8724      7.7439      7.6544      7.6084      7.6084      7.6544      7.7439    
  7.8724      8.0332      8.2183      8.4182      8.6235      8.8248      9.0138      9.1840      9.3310      9.4527    
  9.5489      9.6197      9.6674      9.6959      9.7090      9.7090      9.6959      9.6674      9.6197      9.5489    
  9.4527      9.3310      9.4865      9.2894      9.0665      8.8248      8.5735      8.3233      8.0858      7.8724    
  7.6937      7.5590      7.4752      7.4467      7.4751      7.5590      7.6937      7.8724      8.0858      8.3233    
  8.5735      8.8248      9.0665      9.2894      9.4865      9.6521      9.7801      9.8699      9.9263      9.9574    
  9.9718      9.9758      9.9718      9.9574      9.9263      9.8699      9.7801      9.6521      9.8066      9.6103    
  9.3707      9.1024      8.8164      8.5242      8.2391      7.9746      7.7439      7.5590      7.4297      7.3633    
  7.3633      7.4297      7.5590      7.7439      7.9746      8.2391      8.5242      8.8164      9.1024      9.3707    
  9.6103      9.8066      9.9498      10.040      10.085      10.098      10.096      10.091      10.091      10.096    
  10.098      10.085      10.040      9.9498      10.046      9.9075      9.6976      9.4288      9.1241      8.8032    
  8.4804      8.1710      7.8906      7.6544      7.4751      7.3633      7.3252      7.3633      7.4751      7.6544    
  7.8906      8.1709      8.4804      8.8032      9.1241      9.4288      9.6976      9.9075      10.046      10.113    
  10.120      10.088      10.040      10.001      9.9861      10.001      10.040      10.088      10.120      10.113    
  10.089      10.070      9.9564      9.7494      9.4658      9.1354      8.7893      8.4459      8.1231      7.8384    
  7.6084      7.4467      7.3633      7.3633      7.4467      7.6084      7.8384      8.1231      8.4459      8.7893    
  9.1354      9.4658      9.7494      9.9564      10.070      10.089      10.029      9.9166      9.7871      9.6763    
  9.6128      9.6128      9.6763      9.7871      9.9166      10.029      9.8294      9.9855      10.036      9.9636    
  9.7728      9.4858      9.1401      8.7779      8.4240      8.0984      7.8207      7.6084      7.4751      7.4297    
  7.4752      7.6084      7.8207      8.0984      8.4240      8.7779      9.1401      9.4858      9.7728      9.9636    
  10.036      9.9855      9.8294      9.6016      9.3486      9.1207      8.9630      8.9067      8.9630      9.1207    
  9.3486      9.6016      9.1838      9.5578      9.8316      9.9663      9.9456      9.7782      9.4945      9.1415    
  8.7716      8.4165      8.0984      7.8384      7.6544      7.5590      7.5590      7.6544      7.8384      8.0984    
  8.4165      8.7716      9.1415      9.4945      9.7782      9.9456      9.9663      9.8316      9.5578      9.1838    
  8.7671      8.3738      8.0683      7.9016      7.9016      8.0683      8.3738      8.7671      8.1112      8.7237    
  9.2641      9.6664      9.8893      9.9205      9.7762      9.4973      9.1416      8.7716      8.4240      8.1231    
  7.8906      7.7439      7.6937      7.7439      7.8906      8.1231      8.4240      8.7716      9.1416      9.4973    
  9.7762      9.9205      9.8893      9.6664      9.2641      8.7237      8.1112      7.5085      7.0008      6.6622    
  6.5433      6.6622      7.0008      7.5085      6.6233      7.4669      8.2918      9.0029      9.5291      9.8308    
  9.9035      9.7746      9.4973      9.1415      8.7779      8.4459      8.1710      7.9746      7.8724      7.8724    
  7.9746      8.1709      8.4459      8.7779      9.1415      9.4973      9.7746      9.9035      9.8308      9.5291    
  9.0029      8.2918      7.4669      6.6233      5.8665      5.2961      4.9898      4.9898      5.2961      5.8665    
  4.7929      5.8284      6.9243      7.9572      8.8234      9.4514      9.8091      9.9035      9.7762      9.4945    
  9.1401      8.7893      8.4804      8.2391      8.0858      8.0332      8.0858      8.2391      8.4804      8.7893    
  9.1401      9.4945      9.7762      9.9035      9.8091      9.4514      8.8234      7.9572      6.9243      5.8284    
  4.7929      3.9424      3.3839      3.1893      3.3839      3.9424      2.7523      3.9099      5.2288      6.5624    
  7.7747      8.7595      9.4514      9.8308      9.9205      9.7782      9.4858      9.1354      8.8032      8.5242    
  8.3233      8.2183      8.2183      8.3233      8.5242      8.8032      9.1354      9.4858      9.7782      9.9205    
  9.8308      9.4514      8.7595      7.7747      6.5624      5.2288      3.9099      2.7523      1.8923      1.4341    
  1.4341      1.8923     0.68142      1.8669      3.3293      4.9066      6.4354      7.7747      8.8234      9.5291    
  9.8893      9.9456      9.7728      9.4658      9.1241      8.8164      8.5735      8.4182      8.3649      8.4182    
  8.5735      8.8164      9.1241      9.4658      9.7728      9.9456      9.8893      9.5291      8.8234      7.7747    
  6.4354      4.9066      3.3293      1.8669     0.68142     -.90667E-01 -.35860     -.90668E-01 -1.2157     -.10799    
  1.3948      3.1269      4.9066      6.5624      7.9572      9.0029      9.6664      9.9663      9.9636      9.7494    
  9.4288      9.1024      8.8248      8.6235      8.5179      8.5179      8.6235      8.8248      9.1024      9.4288    
  9.7494      9.9636      9.9663      9.6664      9.0029      7.9572      6.5624      4.9066      3.1270      1.3948    
 -.10798     -1.2157     -1.8031     -1.8031     -2.7400     -1.8127     -.38207      1.3948      3.3293      5.2288    
  6.9243      8.2918      9.2641      9.8316      10.036      9.9564      9.6976      9.3707      9.0665      8.8248    
  8.6696      8.6161      8.6696      8.8248      9.0665      9.3707      9.6976      9.9564      10.036      9.8316    
  9.2641      8.2918      6.9243      5.2289      3.3293      1.3948     -.38207     -1.8127     -2.7400     -3.0611    
 -3.7268     -3.0645     -1.8127     -.10799      1.8669      3.9099      5.8284      7.4669      8.7237      9.5578    
  9.9855      10.070      9.9075      9.6103      9.2894      9.0138      8.8131      8.7075      8.7075      8.8131    
  9.0138      9.2894      9.6103      9.9075      10.070      9.9855      9.5578      8.7237      7.4669      5.8284    
  3.9099      1.8669     -.10798     -1.8127     -3.0645     -3.7268     -3.7347     -3.3998     -2.4321     -.93780    
 0.92073      2.9478      4.9429      6.7296      8.1783      9.2181      9.8379      10.079      10.024      9.7778    
  9.4552      9.1521      8.9107      8.7556      8.7021      8.7556      8.9107      9.1521      9.4552      9.7778    
  10.024      10.079      9.8379      9.2181      8.1783      6.7296      4.9429      2.9478     0.92073     -.93780    
 -2.4321     -3.3998     -3.3998     -3.3998     -2.7471     -1.5140     0.16371      2.1051      4.1102      5.9896    
  7.5903      8.8130      9.6186      10.024      10.093      9.9211      9.6192      9.2969      9.0208      8.8199    
  8.7143      8.7143      8.8199      9.0208      9.2969      9.6192      9.9211      10.093      10.024      9.6186    
  8.8130      7.5903      5.9896      4.1102      2.1051     0.16370     -1.5140     -2.7471     -2.4321     -2.7501    
 -2.4321     -1.5140     -.99067E-01  1.6559      3.5631      5.4314      7.0941      8.4298      9.3734      9.9172    
  10.103      10.012      9.7462      9.4168      9.1119      8.8700      8.7148      8.6613      8.7148      8.8700    
  9.1119      9.4168      9.7462      10.012      10.103      9.9172      9.3734      8.4298      7.0941      5.4314    
  3.5631      1.6559     -.99070E-01 -1.5140     -.93780     -1.5224     -1.5224     -.93780     0.16371      1.6559    
  3.3724      5.1315      6.7630      8.1317      9.1518      9.7925      10.074      10.058      9.8357      9.5115    
  9.1843      8.9066      8.7055      8.6000      8.6000      8.7055      8.9066      9.1843      9.5115      9.8357    
  10.058      10.074      9.7925      9.1518      8.1317      6.7630      5.1315      3.3724      1.6559     0.16370    
 0.92073     0.14836     -.11987     0.14836     0.92073      2.1051      3.5631      5.1315      6.6467      7.9688    
  8.9983      9.6852      10.029      10.073      9.8921      9.5813      9.2392      8.9318      8.6896      8.5348    
  8.4816      8.5348      8.6896      8.9318      9.2392      9.5813      9.8921      10.073      10.029      9.6852    
  8.9983      7.9688      6.6467      5.1315      3.5631      2.1051      2.9478      2.0826      1.6210      1.6210    
  2.0826      2.9478      4.1102      5.4314      6.7630      7.9688      8.9434      9.6236      9.9915      10.072    
  9.9234      9.6285      9.2786      8.9479      8.6705      8.4708      8.3664      8.3664      8.4708      8.6705    
  8.9479      9.2786      9.6285      9.9234      10.072      9.9915      9.6236      8.9434      7.9688      6.7630    
  5.4314      4.1102      4.9429      4.0813      3.5146      3.3170      3.5146      4.0813      4.9429      5.9896    
  7.0941      8.1317      8.9983      9.6236      9.9770      10.068      9.9381      9.6566      9.3049      8.9575    
  8.6517      8.4129      8.2611      8.2091      8.2611      8.4129      8.6517      8.9575      9.3049      9.6566    
  9.9381      10.068      9.9770      9.6236      8.9983      8.1317      7.0941      5.9896      6.7296      5.9558    
  5.3716      5.0575      5.0575      5.3716      5.9558      6.7296      7.5903      8.4298      9.1518      9.6852    
  9.9915      10.068      9.9422      9.6696      9.3198      8.9627      8.6361      8.3654      8.1721      8.0714    
  8.0714      8.1721      8.3654      8.6361      8.9627      9.3198      9.6696      9.9422      10.068      9.9915    
  9.6852      9.1518      8.4298      7.5903      8.1783      7.5533      7.0262      6.6743      6.5508      6.6743    
  7.0261      7.5533      8.1783      8.8130      9.3734      9.7925      10.029      10.072      9.9381      9.6696    
  9.3247      8.9649      8.6259      8.3319      8.1045      7.9608      7.9116      7.9608      8.1045      8.3319    
  8.6259      8.9649      9.3247      9.6696      9.9381      10.072      10.029      9.7925      9.3734      8.8130    
  9.2181      8.7745      8.3569      8.0329      7.8561      7.8561      8.0329      8.3569      8.7745      9.2181    
  9.6186      9.9172      10.074      10.073      9.9234      9.6566      9.3198      8.9649      8.6223      8.3145    
  8.0623      7.8834      7.7906      7.7906      7.8834      8.0623      8.3145      8.6223      8.9649      9.3198    
  9.6566      9.9234      10.073      10.074      9.9172      9.6186      9.8379      9.5797      9.2984      9.0473    
  8.8743      8.8127      8.8743      9.0473      9.2984      9.5797      9.8379      10.024      10.103      10.058    
  9.8921      9.6285      9.3049      8.9627      8.6259      8.3145      8.0480      7.8436      7.7152      7.6713    
  7.7152      7.8436      8.0480      8.3145      8.6259      8.9627      9.3049      9.6285      9.8921      10.058    
  10.103      10.024      10.079      9.9857      9.8419      9.6855      9.5546      9.4805      9.4805      9.5546    
  9.6855      9.8419      9.9857      10.079      10.093      10.012      9.8357      9.5813      9.2786      8.9575    
  8.6361      8.3319      8.0623      7.8436      7.6895      7.6099      7.6099      7.6895      7.8436      8.0623    
  8.3319      8.6361      8.9575      9.2786      9.5813      9.8357      10.012      10.093      10.024      10.055    
  10.029      9.9664      9.8953      9.8406      9.8203      9.8406      9.8953      9.9664      10.029      10.055    
  10.024      9.9211      9.7462      9.5115      9.2392      8.9479      8.6517      8.3654      8.1045      7.8834    
  7.7152      7.6099      7.5740      7.6099      7.7152      7.8834      8.1045      8.3654      8.6517      8.9479    
  9.2392      9.5115      9.7462      9.9211      9.7778      9.8838      9.9382      9.9510      9.9378      9.9163    
  9.9013      9.9013      9.9163      9.9378      9.9510      9.9382      9.8838      9.7778      9.6192      9.4168    
  9.1843      8.9318      8.6705      8.4129      8.1721      7.9608      7.7906      7.6713      7.6099      7.6099    
  7.6713      7.7906      7.9608      8.1721      8.4129      8.6705      8.9318      9.1843      9.4168      9.6192    
  9.4552      9.5823      9.6734      9.7293      9.7565      9.7651      9.7651      9.7642      9.7651      9.7651    
  9.7565      9.7293      9.6734      9.5823      9.4552      9.2969      9.1119      8.9066      8.6896      8.4708    
  8.2611      8.0714      7.9116      7.7906      7.7152      7.6895      7.7152      7.7906      7.9116      8.0714    
  8.2611      8.4708      8.6896      8.9066      9.1119      9.2969      9.1521      9.2603      9.3445      9.4056    
  9.4455      9.4680      9.4787      9.4825      9.4825      9.4787      9.4680      9.4455      9.4056      9.3445    
  9.2603      9.1521      9.0208      8.8700      8.7055      8.5348      8.3664      8.2091      8.0714      7.9608    
  7.8834      7.8436      7.8436      7.8834      7.9608      8.0714      8.2091      8.3664      8.5348      8.7055    
  8.8700      9.0208      8.9107      8.9843      9.0398      9.0785      9.1028      9.1164      9.1229      9.1254    
  9.1259      9.1254      9.1229      9.1164      9.1028      9.0785      9.0398      8.9843      8.9107      8.8199    
  8.7148      8.6000      8.4816      8.3664      8.2611      8.1721      8.1045      8.0623      8.0480      8.0623    
  8.1045      8.1721      8.2611      8.3664      8.4816      8.6000      8.7148      8.8199      8.7556      8.7834    
  8.7979      8.8007      8.7949      8.7841      8.7722      8.7622      8.7566      8.7566      8.7622      8.7722    
  8.7841      8.7949      8.8007      8.7979      8.7834      8.7556      8.7143      8.6613      8.6000      8.5348    
  8.4708      8.4129      8.3654      8.3319      8.3145      8.3145      8.3319      8.3654      8.4129      8.4708    
  8.5348      8.6000      8.6613      8.7143      8.7021      8.6778      8.6426      8.5994      8.5521      8.5053    
  8.4636      8.4308      8.4099      8.4027      8.4099      8.4308      8.4636      8.5053      8.5521      8.5994    
  8.6426      8.6778      8.7021      8.7143      8.7148      8.7055      8.6896      8.6705      8.6517      8.6361    
  8.6259      8.6223      8.6259      8.6361      8.6517      8.6705      8.6896      8.7055      8.7148      8.7143    
  8.7556      8.6778      8.5891      8.4937      8.3969      8.3046      8.2227      8.1565      8.1099      8.0859    
  8.0859      8.1099      8.1565      8.2227      8.3046      8.3969      8.4937      8.5892      8.6778      8.7556    
  8.8199      8.8700      8.9066      8.9318      8.9479      8.9575      8.9627      8.9649      8.9649      8.9627    
  8.9575      8.9479      8.9318      8.9066      8.8700      8.8199      8.9107      8.7834      8.6426      8.4937    
  8.3436      8.1997      8.0697      7.9606      7.8783      7.8270      7.8097      7.8270      7.8783      7.9606    
  8.0697      8.1997      8.3436      8.4937      8.6426      8.7834      8.9107      9.0208      9.1119      9.1843    
  9.2392      9.2786      9.3049      9.3198      9.3247      9.3198      9.3049      9.2786      9.2392      9.1843    
  9.1119      9.0208      9.1521      8.9843      8.7979      8.5994      8.3969      8.1997      8.0172      7.8587    
  7.7320      7.6438      7.5985      7.5985      7.6438      7.7320      7.8587      8.0172      8.1997      8.3969    
  8.5994      8.7979      8.9843      9.1521      9.2969      9.4168      9.5115      9.5813      9.6285      9.6566    
  9.6696      9.6696      9.6566      9.6285      9.5813      9.5115      9.4168      9.2969      9.4552      9.2603    
  9.0398      8.8007      8.5521      8.3046      8.0697      7.8587      7.6820      7.5488      7.4660      7.4378    
  7.4660      7.5488      7.6820      7.8587      8.0697      8.3046      8.5521      8.8007      9.0398      9.2603    
  9.4552      9.6192      9.7462      9.8357      9.8921      9.9234      9.9381      9.9422      9.9381      9.9234    
  9.8921      9.8357      9.7462      9.6192      9.7778      9.5823      9.3445      9.0785      8.7949      8.5053    
  8.2227      7.9606      7.7320      7.5488      7.4208      7.3550      7.3549      7.4208      7.5488      7.7320    
  7.9606      8.2227      8.5053      8.7949      9.0785      9.3445      9.5823      9.7778      9.9211      10.012    
  10.058      10.073      10.072      10.068      10.068      10.072      10.073      10.058      10.012      9.9211    
  10.024      9.8838      9.6734      9.4056      9.1028      8.7841      8.4636      8.1565      7.8783      7.6438    
  7.4660      7.3549      7.3172      7.3549      7.4660      7.6438      7.8783      8.1565      8.4636      8.7841    
  9.1028      9.4056      9.6734      9.8838      10.024      10.093      10.103      10.074      10.029      9.9915    
  9.9770      9.9915      10.029      10.074      10.103      10.093      10.079      10.055      9.9382      9.7293    
  9.4455      9.1164      8.7722      8.4308      8.1099      7.8270      7.5985      7.4378      7.3549      7.3550    
  7.4378      7.5985      7.8270      8.1099      8.4308      8.7722      9.1164      9.4455      9.7293      9.9382    
  10.055      10.079      10.024      9.9172      9.7925      9.6852      9.6236      9.6236      9.6852      9.7925    
  9.9172      10.024      9.8379      9.9857      10.029      9.9510      9.7565      9.4680      9.1229      8.7622    
  8.4099      8.0859      7.8097      7.5985      7.4660      7.4208      7.4660      7.5985      7.8097      8.0859    
  8.4099      8.7622      9.1229      9.4680      9.7565      9.9510      10.029      9.9857      9.8379      9.6186    
  9.3734      9.1518      8.9983      8.9434      8.9983      9.1518      9.3734      9.6186      9.2181      9.5797    
  9.8419      9.9664      9.9378      9.7651      9.4787      9.1254      8.7566      8.4027      8.0859      7.8270    
  7.6438      7.5488      7.5488      7.6438      7.8270      8.0859      8.4027      8.7566      9.1254      9.4787    
  9.7651      9.9378      9.9664      9.8419      9.5797      9.2181      8.8130      8.4298      8.1317      7.9688    
  7.9688      8.1317      8.4298      8.8130      8.1783      8.7745      9.2984      9.6855      9.8953      9.9163    
  9.7651      9.4825      9.1259      8.7566      8.4099      8.1099      7.8783      7.7320      7.6820      7.7320    
  7.8783      8.1099      8.4099      8.7566      9.1259      9.4825      9.7651      9.9163      9.8953      9.6855    
  9.2984      8.7745      8.1783      7.5903      7.0941      6.7630      6.6467      6.7630      7.0941      7.5903    
  6.7296      7.5533      8.3569      9.0473      9.5546      9.8406      9.9013      9.7642      9.4825      9.1254    
  8.7622      8.4308      8.1565      7.9606      7.8587      7.8587      7.9606      8.1565      8.4308      8.7622    
  9.1254      9.4825      9.7642      9.9013      9.8406      9.5546      9.0473      8.3569      7.5533      6.7296    
  5.9896      5.4314      5.1315      5.1315      5.4314      5.9896      4.9429      5.9558      7.0262      8.0329    
  8.8743      9.4805      9.8203      9.9013      9.7651      9.4787      9.1229      8.7722      8.4636      8.2227    
  8.0697      8.0172      8.0697      8.2227      8.4636      8.7722      9.1229      9.4787      9.7651      9.9013    
  9.8203      9.4805      8.8743      8.0329      7.0261      5.9558      4.9429      4.1102      3.5631      3.3724    
  3.5631      4.1102      2.9478      4.0813      5.3716      6.6743      7.8561      8.8127      9.4805      9.8406    
  9.9163      9.7651      9.4680      9.1164      8.7841      8.5053      8.3046      8.1997      8.1997      8.3046    
  8.5053      8.7841      9.1164      9.4680      9.7651      9.9163      9.8406      9.4805      8.8127      7.8561    
  6.6743      5.3716      4.0813      2.9478      2.1051      1.6559      1.6559      2.1051     0.92073      2.0825    