Si beta-tin                             
   2.54000000000000     
     1.008791    0.000000    0.000000
    -0.504395    0.873638    0.000000
    -0.000000    0.000000    1.604654
    S
     2
Direct
 -0.000000  0.000000  0.000000
  0.333333  0.666667  0.500000
 
   36   36   60
 -.40678130754E+01 -.37212751795E+01 -.27206692459E+01 -.11782119367E+01 0.73538480447E+00
 0.28151677236E+01 0.48525023377E+01 0.66655357288E+01 0.81225274282E+01 0.91537560369E+01
 0.97518995290E+01 0.99637215419E+01 0.98764645575E+01 0.96014771266E+01 0.92568066339E+01
 0.89372639690E+01 0.86837070847E+01 0.85211189346E+01 0.84651499306E+01 0.85211189439E+01
 0.86837070918E+01 0.89372639583E+01 0.92568065962E+01 0.96014770676E+01 0.98764644989E+01
 0.99637215144E+01 0.97518995592E+01 0.91537561347E+01 0.81225275800E+01 0.66655359009E+01
 0.48525024883E+01 0.28151678195E+01 0.73538483317E+00 -.11782119621E+01 -.27206692940E+01
 -.37212752149E+01 -.37212752149E+01 -.37212750732E+01 -.30467567137E+01 -.17740608127E+01
 -.46057285823E-01 0.19475981017E+01 0.39984121137E+01 0.59101941902E+01 0.75263248473E+01
 0.87472907652E+01 0.95364012319E+01 0.99153473627E+01 0.99529432091E+01 0.97500269146E+01
 0.94225356011E+01 0.90818177780E+01 0.87914572105E+01 0.85808262115E+01 0.84702668101E+01
 0.84702667531E+01 0.85808260489E+01 0.87914569683E+01 0.90818174967E+01 0.94225353303E+01
 0.97500267026E+01 0.99529430893E+01 0.99153473402E+01 0.95364012759E+01 0.87472908132E+01
 0.75263248209E+01 0.59101940203E+01 0.39984117669E+01 0.19475975988E+01 -.46057868478E-01
 -.17740613602E+01 -.30467571044E+01 -.27206692940E+01 -.30488195957E+01 -.27206688529E+01
 -.17740605663E+01 -.31755686801E+00 0.14845055430E+01 0.34360408161E+01 0.53387761699E+01
 0.70211492952E+01 0.83600779613E+01 0.92918438436E+01 0.98121761474E+01 0.99682085264E+01
 0.98454228007E+01 0.95518957325E+01 0.92014140457E+01 0.88807718200E+01 0.86270816041E+01
 0.84646741581E+01 0.84088085946E+01 0.84646739881E+01 0.86270813065E+01 0.88807714682E+01
 0.92014137247E+01 0.95518955144E+01 0.98454227224E+01 0.99682085750E+01 0.98121762585E+01
 0.92918439146E+01 0.83600778780E+01 0.70211489652E+01 0.53387755539E+01 0.34360399482E+01
 0.14845045313E+01 -.31755786091E+00 -.17740613602E+01 -.11782119621E+01 -.17798358312E+01
 -.17798355769E+01 -.11782112466E+01 -.46056822831E-01 0.14845057213E+01 0.32398278242E+01
 0.50311800024E+01 0.66831273057E+01 0.80576313513E+01 0.90691357893E+01 0.96891939301E+01
 0.99422163344E+01 0.98951514176E+01 0.96435698284E+01 0.92959166885E+01 0.89516342083E+01
 0.86606745300E+01 0.84504403190E+01 0.83403163053E+01 0.83403162337E+01 0.84504401309E+01
 0.86606742969E+01 0.89516340226E+01 0.92959166318E+01 0.96435699413E+01 0.98951516811E+01
 0.99422166684E+01 0.96891942099E+01 0.90691358774E+01 0.80576311346E+01 0.66831267302E+01
 0.50311790937E+01 0.32398266895E+01 0.14845045313E+01 -.46057868478E-01 0.73538483317E+00
 -.56473229582E-01 -.33168558342E+00 -.56472794307E-01 0.73538561435E+00 0.19475985689E+01
 0.34360409204E+01 0.50311798940E+01 0.65642940208E+01 0.78920113294E+01 0.89141467514E+01
 0.95822638264E+01 0.98993204674E+01 0.99125429237E+01 0.97018955798E+01 0.93659765999E+01
 0.90053479942E+01 0.86834847716E+01 0.84306198948E+01 0.82693832909E+01 0.82140198194E+01
 0.82693832595E+01 0.84306198633E+01 0.86834847921E+01 0.90053481216E+01 0.93659768705E+01
 0.97018959929E+01 0.99125434315E+01 0.98993209783E+01 0.95822642215E+01 0.89141469123E+01
 0.78920111700E+01 0.65642935157E+01 0.50311790937E+01 0.34360399482E+01 0.19475975988E+01
 0.28151678195E+01 0.19324539187E+01 0.14610034482E+01 0.14610035870E+01 0.19324542899E+01
 0.28151683028E+01 0.39984122094E+01 0.53387758208E+01 0.66831267463E+01 0.78920109367E+01
 0.88586921737E+01 0.95206130599E+01 0.98625690100E+01 0.99128854087E+01 0.97346056638E+01
 0.94134753516E+01 0.90439505248E+01 0.86979213744E+01 0.84086741109E+01 0.82010126447E+01
 0.80926026113E+01 0.80926026576E+01 0.82010127731E+01 0.84086742966E+01 0.86979215934E+01
 0.90439507694E+01 0.94134756351E+01 0.97346060116E+01 0.99128858371E+01 0.98625695039E+01
 0.95206135614E+01 0.88586925902E+01 0.78920111700E+01 0.66831267302E+01 0.53387755539E+01
 0.39984117669E+01 0.48525024883E+01 0.39792025636E+01 0.34037300573E+01 0.32028639691E+01
 0.34037300583E+01 0.39792024975E+01 0.48525022565E+01 0.59101935509E+01 0.70211482615E+01
 0.80576302899E+01 0.89141460832E+01 0.95206129096E+01 0.98483457560E+01 0.99092952834E+01
 0.97500191184E+01 0.94419904070E+01 0.90696228395E+01 0.87063859085E+01 0.83879169799E+01
 0.81400162582E+01 0.79827785328E+01 0.79289178169E+01 0.79827787026E+01 0.81400165175E+01
 0.83879172082E+01 0.87063860058E+01 0.90696227795E+01 0.94419902565E+01 0.97500190130E+01
 0.99092953699E+01 0.98483461273E+01 0.95206135614E+01 0.89141469123E+01 0.80576311346E+01
 0.70211489652E+01 0.59101940203E+01 0.66655359009E+01 0.58880683153E+01 0.52994455138E+01
 0.49824200586E+01 0.49824198970E+01 0.52994450229E+01 0.58880674916E+01 0.66655347779E+01
 0.75263235020E+01 0.83600765428E+01 0.90691347495E+01 0.95822635053E+01 0.98625693130E+01
 0.99092956805E+01 0.97543876686E+01 0.94551409333E+01 0.90842152264E+01 0.87108768723E+01
 0.83711081534E+01 0.80905424283E+01 0.78906020379E+01 0.77866357819E+01 0.77866358797E+01
 0.78906022690E+01 0.80905426352E+01 0.83711081580E+01 0.87108765632E+01 0.90842146205E+01
 0.94551401839E+01 0.97543870167E+01 0.99092953699E+01 0.98625695039E+01 0.95822642215E+01
 0.90691358774E+01 0.83600778780E+01 0.75263248209E+01 0.81225275800E+01 0.75025756507E+01
 0.69772028026E+01 0.66255640248E+01 0.65019193253E+01 0.66255634025E+01 0.69772016557E+01
 0.75025741626E+01 0.81225259945E+01 0.87472893957E+01 0.92918429024E+01 0.96891937619E+01
 0.98993211369E+01 0.99128865154E+01 0.97500200167E+01 0.94551412634E+01 0.90889389951E+01
 0.87127755730E+01 0.83602404451E+01 0.80557883026E+01 0.78210648572E+01 0.76730226399E+01
 0.76224433289E+01 0.76730227675E+01 0.78210650135E+01 0.80557883305E+01 0.83602401948E+01
 0.87127749683E+01 0.90889380749E+01 0.94551401839E+01 0.97500190130E+01 0.99128858371E+01
 0.98993209783E+01 0.96891942099E+01 0.92918439146E+01 0.87472908132E+01 0.91537561347E+01
 0.87230474127E+01 0.83138882223E+01 0.79946700215E+01 0.78199422701E+01 0.78199418798E+01
 0.79946689612E+01 0.83138867880E+01 0.87230459924E+01 0.91537550900E+01 0.95364008402E+01
 0.98121764836E+01 0.99422174332E+01 0.99125445028E+01 0.97346071292E+01 0.94419912105E+01
 0.90842152964E+01 0.87127753516E+01 0.83564892974E+01 0.80378838908E+01 0.77778472621E+01
 0.75938895693E+01 0.74986157135E+01 0.74986157357E+01 0.75938896255E+01 0.77778473191E+01
 0.80378838876E+01 0.83564891488E+01 0.87127749683E+01 0.90842146205E+01 0.94419902565E+01
 0.97346060116E+01 0.99125434315E+01 0.99422166684E+01 0.98121762585E+01 0.95364012759E+01
 0.97518995592E+01 0.95124401579E+01 0.92452649825E+01 0.90037794934E+01 0.88363100778E+01
 0.87764746505E+01 0.88363094826E+01 0.90037785681E+01 0.92452641477E+01 0.95124398172E+01
 0.97518999362E+01 0.99153483941E+01 0.99682100252E+01 0.98951531265E+01 0.97018970712E+01
 0.94134761526E+01 0.90696227601E+01 0.87108762035E+01 0.83602397544E+01 0.80378835702E+01
 0.77631908161E+01 0.75532845724E+01 0.74216043403E+01 0.73767282467E+01 0.74216042834E+01
 0.75532845463E+01 0.77631909354E+01 0.80378838876E+01 0.83602401948E+01 0.87108765632E+01
 0.90696227795E+01 0.94134756351E+01 0.97018959929E+01 0.98951516811E+01 0.99682085750E+01
 0.99153473402E+01 0.99637215144E+01 0.98920485801E+01 0.97663241585E+01 0.96235475320E+01
 0.95017898841E+01 0.94321761546E+01 0.94321760663E+01 0.95017897275E+01 0.96235475751E+01
 0.97663246853E+01 0.98920497294E+01 0.99637231780E+01 0.99529449223E+01 0.98454242629E+01
 0.96435707898E+01 0.93659768484E+01 0.90439499859E+01 0.87063848047E+01 0.83711069701E+01
 0.80557874984E+01 0.77778469736E+01 0.75532845877E+01 0.73954713958E+01 0.73140413258E+01
 0.73140412316E+01 0.73954712098E+01 0.75532845463E+01 0.77778473191E+01 0.80557883305E+01
 0.83711081580E+01 0.87063860058E+01 0.90439507694E+01 0.93659768705E+01 0.96435699413E+01
 0.98454227224E+01 0.99529430893E+01 0.98764644989E+01 0.99303614010E+01 0.99234992211E+01
 0.98773719510E+01 0.98181841616E+01 0.97707775626E+01 0.97528429885E+01 0.97707779865E+01
 0.98181850354E+01 0.98773732782E+01 0.99235009146E+01 0.99303632408E+01 0.98764661503E+01
 0.97500278009E+01 0.95518957881E+01 0.92959160125E+01 0.90053467880E+01 0.86979199227E+01
 0.83879156488E+01 0.80905415491E+01 0.78210645529E+01 0.75938896962E+01 0.74216046104E+01
 0.73140414985E+01 0.72774688333E+01 0.73140412316E+01 0.74216042834E+01 0.75938896255E+01
 0.78210650135E+01 0.80905426352E+01 0.83879172082E+01 0.86979215934E+01 0.90053481216E+01
 0.92959166318E+01 0.95518955144E+01 0.97500267026E+01 0.96014770676E+01 0.97280175756E+01
 0.98017726893E+01 0.98313709185E+01 0.98316223179E+01 0.98193919764E+01 0.98091317445E+01
 0.98091321828E+01 0.98193931945E+01 0.98316240468E+01 0.98313727781E+01 0.98017742743E+01
 0.97280185475E+01 0.96014772313E+01 0.94225346767E+01 0.92014124274E+01 0.89516323897E+01
 0.86834831841E+01 0.84086730333E+01 0.81400157967E+01 0.78906021229E+01 0.76730230663E+01
 0.74986162394E+01 0.73767286880E+01 0.73140414985E+01 0.73140413258E+01 0.73767282467E+01
 0.74986157357E+01 0.76730227675E+01 0.78906022690E+01 0.81400165175E+01 0.84086742966E+01
 0.86834847921E+01 0.89516340226E+01 0.92014137247E+01 0.94225353303E+01 0.92568065962E+01
 0.94008800539E+01 0.95089691535E+01 0.95806070578E+01 0.96212885393E+01 0.96400717176E+01
 0.96465254807E+01 0.96477986421E+01 0.96465263899E+01 0.96400732012E+01 0.96212900512E+01
 0.95806080394E+01 0.95089692300E+01 0.94008791562E+01 0.92568049652E+01 0.90818155787E+01
 0.88807697489E+01 0.86606731418E+01 0.84306194225E+01 0.82010129766E+01 0.79827793304E+01
 0.77866366665E+01 0.76224440531E+01 0.74986162394E+01 0.74216046104E+01 0.73954713958E+01
 0.74216043403E+01 0.74986157135E+01 0.76224433289E+01 0.77866358797E+01 0.79827787026E+01
 0.82010127731E+01 0.84306198633E+01 0.86606742969E+01 0.88807714682E+01 0.90818174967E+01
 0.89372639583E+01 0.90603140926E+01 0.91588303317E+01 0.92333346838E+01 0.92853867168E+01
 0.93179593095E+01 0.93357408584E+01 0.93432656143E+01 0.93432659150E+01 0.93357415816E+01
 0.93179600001E+01 0.92853868523E+01 0.92333339170E+01 0.91588286598E+01 0.90603118779E+01
 0.89372617939E+01 0.87914554477E+01 0.86270807992E+01 0.84504406588E+01 0.82693845202E+01
 0.80926041756E+01 0.79289191460E+01 0.77866366665E+01 0.76730230663E+01 0.75938896962E+01
 0.75532845877E+01 0.75532845724E+01 0.75938895693E+01 0.76730226399E+01 0.77866357819E+01
 0.79289178169E+01 0.80926026576E+01 0.82693832595E+01 0.84504401309E+01 0.86270813065E+01
 0.87914569683E+01 0.86837070918E+01 0.87699685519E+01 0.88382354127E+01 0.88890343796E+01
 0.89244045474E+01 0.89472839854E+01 0.89608160659E+01 0.89677178956E+01 0.89698057039E+01
 0.89677178670E+01 0.89608158166E+01 0.89472832500E+01 0.89244031642E+01 0.88890324352E+01
 0.88382332752E+01 0.87699667670E+01 0.86837061802E+01 0.85808262945E+01 0.84646753123E+01
 0.83403182174E+01 0.82140218647E+01 0.80926041756E+01 0.79827793304E+01 0.78906021229E+01
 0.78210645529E+01 0.77778469736E+01 0.77631908161E+01 0.77778472621E+01 0.78210648572E+01
 0.78906020379E+01 0.79827785328E+01 0.80926026113E+01 0.82140198194E+01 0.83403162337E+01
 0.84646739881E+01 0.85808260489E+01 0.85211189439E+01 0.85592929795E+01 0.85844362570E+01
 0.85978178879E+01 0.86019414190E+01 0.85999759290E+01 0.85951527178E+01 0.85902584795E+01
 0.85872939581E+01 0.85872936832E+01 0.85902576667E+01 0.85951514221E+01 0.85999742898E+01
 0.86019396906E+01 0.85978164230E+01 0.85844354291E+01 0.85592930632E+01 0.85211199995E+01
 0.84702685699E+01 0.84088107300E+01 0.83403182174E+01 0.82693845202E+01 0.82010129766E+01
 0.81400157967E+01 0.80905415491E+01 0.80557874984E+01 0.80378835702E+01 0.80378838908E+01
 0.80557883026E+01 0.80905424283E+01 0.81400162582E+01 0.82010126447E+01 0.82693832909E+01
 0.83403163053E+01 0.84088085946E+01 0.84702667531E+01 0.84651499306E+01 0.84486934777E+01
 0.84218995489E+01 0.83872779989E+01 0.83484366213E+01 0.83094993822E+01 0.82745044726E+01
 0.82469158015E+01 0.82293168626E+01 0.82232760309E+01 0.82293160990E+01 0.82469144991E+01
 0.82745030176E+01 0.83094982152E+01 0.83484361143E+01 0.83872783534E+01 0.84219007414E+01
 0.84486952673E+01 0.84651519249E+01 0.84702685699E+01 0.84646753123E+01 0.84504406588E+01
 0.84306194225E+01 0.84086730333E+01 0.83879156488E+01 0.83711069701E+01 0.83602397544E+01
 0.83564892974E+01 0.83602404451E+01 0.83711081534E+01 0.83879169799E+01 0.84086741109E+01
 0.84306198948E+01 0.84504403190E+01 0.84646741581E+01 0.84702668101E+01 0.85211189346E+01
 0.84486934097E+01 0.83659795868E+01 0.82769572729E+01 0.81867214715E+01 0.81008696895E+01
 0.80248592090E+01 0.79634680206E+01 0.79204359555E+01 0.78982886609E+01 0.78982883266E+01
 0.79204351191E+01 0.79634671128E+01 0.80248587460E+01 0.81008700597E+01 0.81867227738E+01
 0.82769592714E+01 0.83659817951E+01 0.84486952673E+01 0.85211199995E+01 0.85808262945E+01
 0.86270807992E+01 0.86606731418E+01 0.86834831841E+01 0.86979199227E+01 0.87063848047E+01
 0.87108762035E+01 0.87127753516E+01 0.87127755730E+01 0.87108768723E+01 0.87063859085E+01
 0.86979213744E+01 0.86834847716E+01 0.86606745300E+01 0.86270816041E+01 0.85808262115E+01
 0.86837070847E+01 0.85592927953E+01 0.84218993603E+01 0.82769571939E+01 0.81311817561E+01
 0.79919271554E+01 0.78664914720E+01 0.77614983040E+01 0.76824319314E+01 0.76333445404E+01
 0.76167059757E+01 0.76333442740E+01 0.76824316751E+01 0.77614984666E+01 0.78664923746E+01
 0.79919288406E+01 0.81311839192E+01 0.82769592714E+01 0.84219007414E+01 0.85592930632E+01
 0.86837061802E+01 0.87914554477E+01 0.88807697489E+01 0.89516323897E+01 0.90053467880E+01
 0.90439499859E+01 0.90696227601E+01 0.90842152964E+01 0.90889389951E+01 0.90842152264E+01
 0.90696228395E+01 0.90439505248E+01 0.90053479942E+01 0.89516342083E+01 0.88807718200E+01
 0.87914572105E+01 0.89372639690E+01 0.87699683036E+01 0.85844359351E+01 0.83872777899E+01
 0.81867214362E+01 0.79919272091E+01 0.78122394529E+01 0.76564829392E+01 0.75323722698E+01
 0.74460587915E+01 0.74018106327E+01 0.74018106758E+01 0.74460589974E+01 0.75323728138E+01
 0.76564839613E+01 0.78122409179E+01 0.79919288406E+01 0.81867227738E+01 0.83872783534E+01
 0.85844354291E+01 0.87699667670E+01 0.89372617939E+01 0.90818155787E+01 0.92014124274E+01
 0.92959160125E+01 0.93659768484E+01 0.94134761526E+01 0.94419912105E+01 0.94551412634E+01
 0.94551409333E+01 0.94419904070E+01 0.94134753516E+01 0.93659765999E+01 0.92959166885E+01
 0.92014140457E+01 0.90818177780E+01 0.92568066339E+01 0.90603138458E+01 0.88382350498E+01
 0.85978176240E+01 0.83484365726E+01 0.81008698296E+01 0.78664916706E+01 0.76564830587E+01
 0.74811121652E+01 0.73491047618E+01 0.72671144410E+01 0.72393109179E+01 0.72671147772E+01
 0.73491054016E+01 0.74811130205E+01 0.76564839613E+01 0.78664923746E+01 0.81008700597E+01
 0.83484361143E+01 0.85978164230E+01 0.88382332752E+01 0.90603118779E+01 0.92568049652E+01
 0.94225346767E+01 0.95518957881E+01 0.96435707898E+01 0.97018970712E+01 0.97346071292E+01
 0.97500200167E+01 0.97543876686E+01 0.97500191184E+01 0.97346056638E+01 0.97018955798E+01
 0.96435698284E+01 0.95518957325E+01 0.94225356011E+01 0.96014771266E+01 0.94008798644E+01
 0.91588300273E+01 0.88890341594E+01 0.86019413975E+01 0.83094995588E+01 0.80248595012E+01
 0.77614985877E+01 0.75323724390E+01 0.73491047999E+01 0.72212298810E+01 0.71555291319E+01
 0.71555293358E+01 0.72212304031E+01 0.73491054016E+01 0.75323728138E+01 0.77614984666E+01
 0.80248587460E+01 0.83094982152E+01 0.86019396906E+01 0.88890324352E+01 0.91588286598E+01
 0.94008791562E+01 0.96014772313E+01 0.97500278009E+01 0.98454242629E+01 0.98951531265E+01
 0.99125445028E+01 0.99128865154E+01 0.99092956805E+01 0.99092952834E+01 0.99128854087E+01
 0.99125429237E+01 0.98951514176E+01 0.98454228007E+01 0.97500269146E+01 0.98764645575E+01
 0.97280174695E+01 0.95089689806E+01 0.92333345978E+01 0.89244046055E+01 0.85999760953E+01
 0.82745047024E+01 0.79634682797E+01 0.76824321550E+01 0.74460588939E+01 0.72671143958E+01
 0.71555290296E+01 0.71176124775E+01 0.71555293358E+01 0.72671147772E+01 0.74460589974E+01
 0.76824316751E+01 0.79634671128E+01 0.82745030176E+01 0.85999742898E+01 0.89244031642E+01
 0.92333339170E+01 0.95089692300E+01 0.97280185475E+01 0.98764661503E+01 0.99529449223E+01
 0.99682100252E+01 0.99422174332E+01 0.98993211369E+01 0.98625693130E+01 0.98483457560E+01
 0.98625690100E+01 0.98993204674E+01 0.99422163344E+01 0.99682085264E+01 0.99529432091E+01
 0.99637215419E+01 0.99303613661E+01 0.98017726705E+01 0.95806071577E+01 0.92853869051E+01
 0.89472841307E+01 0.85951527603E+01 0.82469158233E+01 0.79204360510E+01 0.76333446672E+01
 0.74018106389E+01 0.72393107177E+01 0.71555290296E+01 0.71555291319E+01 0.72393109179E+01
 0.74018106758E+01 0.76333442740E+01 0.79204351191E+01 0.82469144991E+01 0.85951514221E+01
 0.89472832500E+01 0.92853868523E+01 0.95806080394E+01 0.98017742743E+01 0.99303632408E+01
 0.99637231780E+01 0.99153483941E+01 0.98121764836E+01 0.96891937619E+01 0.95822635053E+01
 0.95206129096E+01 0.95206130599E+01 0.95822638264E+01 0.96891939301E+01 0.98121761474E+01
 0.99153473627E+01 0.97518995290E+01 0.98920485702E+01 0.99234993188E+01 0.98313711957E+01
 0.96212888882E+01 0.93179594729E+01 0.89608158968E+01 0.85902581317E+01 0.82293166543E+01
 0.78982887398E+01 0.76167061581E+01 0.74018106389E+01 0.72671143958E+01 0.72212298810E+01
 0.72671144410E+01 0.74018106327E+01 0.76167059757E+01 0.78982883266E+01 0.82293160990E+01
 0.85902576667E+01 0.89608158166E+01 0.93179600001E+01 0.96212900512E+01 0.98313727781E+01
 0.99235009146E+01 0.98920497294E+01 0.97518999362E+01 0.95364008402E+01 0.92918429024E+01
 0.90691347495E+01 0.89141460832E+01 0.88586921737E+01 0.89141467514E+01 0.90691357893E+01
 0.92918438436E+01 0.95364012319E+01 0.91537560369E+01 0.95124401088E+01 0.97663242850E+01
 0.98773723327E+01 0.98316228182E+01 0.96400719736E+01 0.93357405772E+01 0.89677171987E+01
 0.85872933524E+01 0.82232759599E+01 0.78982887398E+01 0.76333446672E+01 0.74460588939E+01
 0.73491047999E+01 0.73491047618E+01 0.74460587915E+01 0.76333445404E+01 0.78982886609E+01
 0.82232760309E+01 0.85872936832E+01 0.89677178670E+01 0.93357415816E+01 0.96400732012E+01
 0.98316240468E+01 0.98773732782E+01 0.97663246853E+01 0.95124398172E+01 0.91537550900E+01
 0.87472893957E+01 0.83600765428E+01 0.80576302899E+01 0.78920109367E+01 0.78920113294E+01
 0.80576313513E+01 0.83600779613E+01 0.87472907652E+01 0.81225274282E+01 0.87230472636E+01
 0.92452650241E+01 0.96235478951E+01 0.98181847522E+01 0.98193923944E+01 0.96465252747E+01
 0.93432647482E+01 0.89698047354E+01 0.85872933524E+01 0.82293166543E+01 0.79204360510E+01
 0.76824321550E+01 0.75323724390E+01 0.74811121652E+01 0.75323722698E+01 0.76824319314E+01
 0.79204359555E+01 0.82293168626E+01 0.85872939581E+01 0.89698057039E+01 0.93432659150E+01
 0.96465263899E+01 0.98193931945E+01 0.98181850354E+01 0.96235475751E+01 0.92452641477E+01
 0.87230459924E+01 0.81225259945E+01 0.75263235020E+01 0.70211482615E+01 0.66831267463E+01
 0.65642940208E+01 0.66831273057E+01 0.70211492952E+01 0.75263248473E+01 0.66655357288E+01
 0.75025753636E+01 0.83138880727E+01 0.90037796948E+01 0.95017904539E+01 0.97707781606E+01
 0.98091318079E+01 0.96477978851E+01 0.93432647482E+01 0.89677171987E+01 0.85902581317E+01
 0.82469158233E+01 0.79634682797E+01 0.77614985877E+01 0.76564830587E+01 0.76564829392E+01
 0.77614983040E+01 0.79634680206E+01 0.82469158015E+01 0.85902584795E+01 0.89677178956E+01
 0.93432656143E+01 0.96477986421E+01 0.98091321828E+01 0.97707779865E+01 0.95017897275E+01
 0.90037785681E+01 0.83138867880E+01 0.75025741626E+01 0.66655347779E+01 0.59101935509E+01
 0.53387758208E+01 0.50311798940E+01 0.50311800024E+01 0.53387761699E+01 0.59101941902E+01
 0.48525023377E+01 0.58880678866E+01 0.69772023940E+01 0.79946699367E+01 0.88363104868E+01
 0.94321768700E+01 0.97528434342E+01 0.98091318079E+01 0.96465252747E+01 0.93357405772E+01
 0.89608158968E+01 0.85951527603E+01 0.82745047024E+01 0.80248595012E+01 0.78664916706E+01
 0.78122394529E+01 0.78664914720E+01 0.80248592090E+01 0.82745044726E+01 0.85951527178E+01
 0.89608160659E+01 0.93357408584E+01 0.96465254807E+01 0.98091317445E+01 0.97528429885E+01
 0.94321760663E+01 0.88363094826E+01 0.79946689612E+01 0.69772016557E+01 0.58880674916E+01
 0.48525022565E+01 0.39984122094E+01 0.34360409204E+01 0.32398278242E+01 0.34360408161E+01
 0.39984121137E+01 0.28151677236E+01 0.39792020255E+01 0.52994448384E+01 0.66255635844E+01
 0.78199423863E+01 0.87764753461E+01 0.94321768700E+01 0.97707781606E+01 0.98193923944E+01
 0.96400719736E+01 0.93179594729E+01 0.89472841307E+01 0.85999760953E+01 0.83094995588E+01
 0.81008698296E+01 0.79919272091E+01 0.79919271554E+01 0.81008696895E+01 0.83094993822E+01
 0.85999759290E+01 0.89472839854E+01 0.93179593095E+01 0.96400717176E+01 0.98193919764E+01
 0.97707775626E+01 0.94321761546E+01 0.87764746505E+01 0.78199418798E+01 0.66255634025E+01
 0.52994450229E+01 0.39792024975E+01 0.28151683028E+01 0.19475985689E+01 0.14845057213E+01
 0.14845055430E+01 0.19475981017E+01 0.73538480447E+00 0.19324533311E+01 0.34037291736E+01
 0.49824192734E+01 0.65019190684E+01 0.78199423863E+01 0.88363104868E+01 0.95017904539E+01
 0.98181847522E+01 0.98316228182E+01 0.96212888882E+01 0.92853869051E+01 0.89244046055E+01
 0.86019413975E+01 0.83484365726E+01 0.81867214362E+01 0.81311817561E+01 0.81867214715E+01
 0.83484366213E+01 0.86019414190E+01 0.89244045474E+01 0.92853867168E+01 0.96212885393E+01
 0.98316223179E+01 0.98181841616E+01 0.95017898841E+01 0.88363100778E+01 0.78199422701E+01
 0.65019193253E+01 0.49824198970E+01 0.34037300583E+01 0.19324542899E+01 0.73538561435E+00
 -.46056822831E-01 -.31755686801E+00 -.46057285823E-01 -.11782119367E+01 -.56473792445E-01
 0.14610024710E+01 0.32028629355E+01 0.49824192734E+01 0.66255635844E+01 0.79946699367E+01
 0.90037796948E+01 0.96235478951E+01 0.98773723327E+01 0.98313711957E+01 0.95806071577E+01
 0.92333345978E+01 0.88890341594E+01 0.85978176240E+01 0.83872777899E+01 0.82769571939E+01
 0.82769572729E+01 0.83872779989E+01 0.85978178879E+01 0.88890343796E+01 0.92333346838E+01
 0.95806070578E+01 0.98313709185E+01 0.98773719510E+01 0.96235475320E+01 0.90037794934E+01
 0.79946700215E+01 0.66255640248E+01 0.49824200586E+01 0.32028639691E+01 0.14610035870E+01
 -.56472794307E-01 -.11782112466E+01 -.17740605663E+01 -.17740608127E+01 -.27206692459E+01
 -.17798362956E+01 -.33168650639E+00 0.14610024710E+01 0.34037291736E+01 0.52994448384E+01
 0.69772023940E+01 0.83138880727E+01 0.92452650241E+01 0.97663242850E+01 0.99234993188E+01
 0.98017726705E+01 0.95089689806E+01 0.91588300273E+01 0.88382350498E+01 0.85844359351E+01
 0.84218993603E+01 0.83659795868E+01 0.84218995489E+01 0.85844362570E+01 0.88382354127E+01
 0.91588303317E+01 0.95089691535E+01 0.98017726893E+01 0.99234992211E+01 0.97663241585E+01
 0.92452649825E+01 0.83138882223E+01 0.69772028026E+01 0.52994455138E+01 0.34037300573E+01
 0.14610034482E+01 -.33168558342E+00 -.17798355769E+01 -.27206688529E+01 -.30467567137E+01
 -.37212751795E+01 -.30488199008E+01 -.17798362956E+01 -.56473792445E-01 0.19324533311E+01
 0.39792020255E+01 0.58880678866E+01 0.75025753636E+01 0.87230472636E+01 0.95124401088E+01
 0.98920485702E+01 0.99303613661E+01 0.97280174695E+01 0.94008798644E+01 0.90603138458E+01
 0.87699683036E+01 0.85592927953E+01 0.84486934097E+01 0.84486934777E+01 0.85592929795E+01
 0.87699685519E+01 0.90603140926E+01 0.94008800539E+01 0.97280175756E+01 0.99303614010E+01
 0.98920485801E+01 0.95124401579E+01 0.87230474127E+01 0.75025756507E+01 0.58880683153E+01
 0.39792025636E+01 0.19324539187E+01 -.56473229582E-01 -.17798358312E+01 -.30488195957E+01
 -.37212750732E+01 -.37439296287E+01 -.34036844606E+01 -.24214796289E+01 -.90808378338E+00
 0.96819294362E+00 0.30055682191E+01 0.49989371416E+01 0.67697930916E+01 0.81890748515E+01
 0.91888030185E+01 0.97624359241E+01 0.99567003290E+01 0.98581910921E+01 0.95771986363E+01
 0.92304639919E+01 0.89103901358E+01 0.86566289495E+01 0.84939867640E+01 0.84380109804E+01
 0.84939867762E+01 0.86566289618E+01 0.89103901317E+01 0.92304639610E+01 0.95771985831E+01
 0.98581910375E+01 0.99567003031E+01 0.97624359535E+01 0.91888031136E+01 0.81890749996E+01
 0.67697932599E+01 0.49989372893E+01 0.30055683130E+01 0.96819297164E+00 -.90808380859E+00
 -.24214796764E+01 -.34036844956E+01 -.34036844956E+01 -.34036843561E+01 -.27417021245E+01
 -.14930749926E+01 0.20132775999E+00 0.21547319059E+01 0.41620838802E+01 0.60306885335E+01
 0.76069505020E+01 0.87935371637E+01 0.95549669631E+01 0.99132497665E+01 0.99368161321E+01
 0.97256239766E+01 0.93944181283E+01 0.90528118843E+01 0.87621389135E+01 0.85514152251E+01
 0.84408435532E+01 0.84408435017E+01 0.85514150775E+01 0.87621386907E+01 0.90528116207E+01
 0.93944178680E+01 0.97256237652E+01 0.99368160035E+01 0.99132497290E+01 0.95549669911E+01
 0.87935371993E+01 0.76069504697E+01 0.60306883651E+01 0.41620835410E+01 0.21547314140E+01
 0.20132718888E+00 -.14930755304E+01 -.27417025089E+01 -.24214796764E+01 -.27433872952E+01
 -.24214792419E+01 -.14930747495E+01 -.65176115242E-01 0.17003871935E+01 0.36107322564E+01
 0.54710490166E+01 0.71129791706E+01 0.84159533992E+01 0.93178526655E+01 0.98150925499E+01
 0.99547259278E+01 0.98215812526E+01 0.95226953372E+01 0.91705422689E+01 0.88494803368E+01
 0.85956647521E+01 0.84332509798E+01 0.83773946747E+01 0.84332508217E+01 0.85956644737E+01
 0.88494800042E+01 0.91705419594E+01 0.95226951182E+01 0.98215811607E+01 0.99547259541E+01
 0.98150926369E+01 0.93178527176E+01 0.84159533072E+01 0.71129788438E+01 0.54710484139E+01
 0.36107314078E+01 0.17003862025E+01 -.65177089991E-01 -.14930755304E+01 -.90808380859E+00
 -.14977983006E+01 -.14977980497E+01 -.90808310316E+00 0.20132821794E+00 0.17003873706E+01
 0.34183082825E+01 0.51696413792E+01 0.67821703781E+01 0.81205648452E+01 0.91011755327E+01
 0.96965836459E+01 0.99314347638E+01 0.98722851738E+01 0.96138627061E+01 0.92634812537E+01
 0.89186534298E+01 0.86275429148E+01 0.84173238095E+01 0.83072419028E+01 0.83072418347E+01
 0.84173236302E+01 0.86275426909E+01 0.89186532479E+01 0.92634811911E+01 0.96138628027E+01
 0.98722854138E+01 0.99314350731E+01 0.96965839066E+01 0.91011756125E+01 0.81205646330E+01
 0.67821698182E+01 0.51696404931E+01 0.34183071722E+01 0.17003862025E+01 0.20132718888E+00
 0.96819297164E+00 0.19279881105E+00 -.76743594252E-01 0.19279924193E+00 0.96819374356E+00
 0.21547323697E+01 0.36107323609E+01 0.51696412720E+01 0.66658265051E+01 0.79586765767E+01
 0.89501131729E+01 0.95930089621E+01 0.98908557943E+01 0.98907625183E+01 0.96720789690E+01
 0.93324429467E+01 0.89709708648E+01 0.86489334943E+01 0.83961174267E+01 0.82349799578E+01
 0.81796612105E+01 0.82349799265E+01 0.83961173937E+01 0.86489335094E+01 0.89709709808E+01
 0.93324432000E+01 0.96720793611E+01 0.98907630059E+01 0.98908562906E+01 0.95930093519E+01
 0.89501133390E+01 0.79586764317E+01 0.66658260200E+01 0.51696404931E+01 0.36107314078E+01
 0.21547314140E+01 0.30055683130E+01 0.21423254626E+01 0.16811337912E+01 0.16811339296E+01
 0.21423258321E+01 0.30055687928E+01 0.41620839773E+01 0.54710486719E+01 0.67821698237E+01
 0.79586761879E+01 0.88960212792E+01 0.95331549887E+01 0.98556626333E+01 0.98920161251E+01
 0.97048854724E+01 0.93792553406E+01 0.90084764579E+01 0.86622422438E+01 0.83730796218E+01
 0.81655911414E+01 0.80573031257E+01 0.80573031707E+01 0.81655912660E+01 0.83730798008E+01
 0.86622424536E+01 0.90084766911E+01 0.93792556124E+01 0.97048858100E+01 0.98920165470E+01
 0.98556631257E+01 0.95331554940E+01 0.88960217039E+01 0.79586764317E+01 0.67821698182E+01
 0.54710484139E+01 0.41620835410E+01 0.49989372893E+01 0.41463609916E+01 0.35842742403E+01
 0.33880362864E+01 0.35842742433E+01 0.41463609297E+01 0.49989370638E+01 0.60306879037E+01
 0.71129781485E+01 0.81205637956E+01 0.89501125144E+01 0.95331548428E+01 0.98419882048E+01
 0.98889416515E+01 0.97204333790E+01 0.94073872995E+01 0.90333578270E+01 0.86698654625E+01
 0.83515039668E+01 0.81038521735E+01 0.79468350369E+01 0.78930599524E+01 0.79468352054E+01
 0.81038524311E+01 0.83515041945E+01 0.86698655619E+01 0.90333577722E+01 0.94073871567E+01
 0.97204332821E+01 0.98889417450E+01 0.98419885797E+01 0.95331554940E+01 0.89501133390E+01
 0.81205646330E+01 0.71129788438E+01 0.60306883651E+01 0.67697932599E+01 0.60126297890E+01
 0.54389099398E+01 0.51297757930E+01 0.51297756333E+01 0.54389094554E+01 0.60126289779E+01
 0.67697921567E+01 0.76069491768E+01 0.84159520004E+01 0.91011745097E+01 0.95930086513E+01
 0.98556629366E+01 0.98889420429E+01 0.97248602065E+01 0.94203705045E+01 0.90474720246E+01
 0.86737974090E+01 0.83341287659E+01 0.80538701469E+01 0.78542513036E+01 0.77504821494E+01
 0.77504822466E+01 0.78542515342E+01 0.80538703569E+01 0.83341287809E+01 0.86737971193E+01
 0.90474714454E+01 0.94203697838E+01 0.97248595784E+01 0.98889417450E+01 0.98556631257E+01
 0.95930093519E+01 0.91011756125E+01 0.84159533072E+01 0.76069504697E+01 0.81890749996E+01
 0.75876657173E+01 0.70772180538E+01 0.67352722042E+01 0.66149885777E+01 0.67352715871E+01
 0.70772169194E+01 0.75876642513E+01 0.81890734463E+01 0.87935358205E+01 0.93178517435E+01
 0.96965834868E+01 0.98908564594E+01 0.98920172143E+01 0.97204342563E+01 0.94203708237E+01
 0.90520364882E+01 0.86754170429E+01 0.83229289987E+01 0.80188029861E+01 0.77844805824E+01
 0.76367501422E+01 0.75862870152E+01 0.76367502647E+01 0.77844807334E+01 0.80188030157E+01
 0.83229287631E+01 0.86754164674E+01 0.90520356070E+01 0.94203697838E+01 0.97204332821E+01
 0.98920165470E+01 0.98908562906E+01 0.96965839066E+01 0.93178527176E+01 0.87935371993E+01
 0.91888031136E+01 0.87739955681E+01 0.83786065189E+01 0.80695535744E+01 0.79002276077E+01
 0.79002272206E+01 0.80695525242E+01 0.83786051028E+01 0.87739941742E+01 0.91888021010E+01