   2   2   0   0
  0.1158738E+02  0.2540000E-09  0.2540000E-09  0.4147795E-09  0.5000000E-15
  1.000000000000000E-004
  CAR 
 Si beta-tin                             
     27.56658916     -4.49418327  301     13.42037428      1.00000000
     -4.494  0.0000E+00  0.0000E+00
     -4.387  0.0000E+00  0.0000E+00
     -4.280  0.0000E+00  0.0000E+00
     -4.174  0.0000E+00  0.0000E+00
     -4.067  0.0000E+00  0.0000E+00
     -3.960  0.0000E+00  0.0000E+00
     -3.853  0.0000E+00  0.0000E+00
     -3.746  0.0000E+00  0.0000E+00
     -3.639  0.0000E+00  0.0000E+00
     -3.532  0.4213E-14  0.4502E-15
     -3.425  0.6737E-10  0.7201E-11
     -3.319  0.1171E-06  0.1252E-07
     -3.212  0.2309E-04  0.2480E-05
     -3.105  0.5593E-03  0.6225E-04
     -2.998  0.1874E-02  0.2625E-03
     -2.891  0.9418E-03  0.3631E-03
     -2.784  0.1159E-03  0.3755E-03
     -2.677  0.9222E-03  0.4741E-03
     -2.571  0.3140E-02  0.8097E-03
     -2.464  0.2415E-02  0.1068E-02
     -2.357  0.3994E-03  0.1110E-02
     -2.250  0.2370E-03  0.1136E-02
     -2.143  0.1516E-02  0.1298E-02
     -2.036  0.1502E-02  0.1458E-02
     -1.929  0.5599E-03  0.1518E-02
     -1.822  0.2760E-02  0.1813E-02
     -1.716  0.3359E-02  0.2172E-02
     -1.609  0.1741E-02  0.2358E-02
     -1.502  0.2146E-02  0.2587E-02
     -1.395  0.3279E-02  0.2938E-02
     -1.288  0.5339E-02  0.3508E-02
     -1.181  0.3403E-02  0.3872E-02
     -1.074  0.1713E-02  0.4055E-02
     -0.967  0.1141E-02  0.4177E-02
     -0.861  0.1889E-02  0.4379E-02
     -0.754  0.6824E-03  0.4452E-02
     -0.647  0.1628E-02  0.4626E-02
     -0.540  0.3865E-02  0.5039E-02
     -0.433  0.2617E-02  0.5319E-02
     -0.326  0.3887E-02  0.5734E-02
     -0.219  0.2735E-02  0.6026E-02
     -0.113  0.5206E-02  0.6583E-02
     -0.006  0.4829E-02  0.7099E-02
      0.101  0.2364E-02  0.7351E-02
      0.208  0.1341E-02  0.7495E-02
      0.315  0.1926E-02  0.7701E-02
      0.422  0.7156E-03  0.7777E-02
      0.529  0.9064E-03  0.7874E-02
      0.636  0.3621E-02  0.8261E-02
      0.742  0.2888E-02  0.8570E-02
      0.849  0.3681E-02  0.8963E-02
      0.956  0.4845E-02  0.9481E-02
      1.063  0.9639E-02  0.1051E-01
      1.170  0.7831E-02  0.1135E-01
      1.277  0.1254E-02  0.1148E-01
      1.384  0.1074E-02  0.1160E-01
      1.490  0.5069E-02  0.1214E-01
      1.597  0.3860E-02  0.1255E-01
      1.704  0.1453E-02  0.1271E-01
      1.811  0.3528E-02  0.1308E-01
      1.918  0.2519E-02  0.1335E-01
      2.025  0.3237E-02  0.1370E-01
      2.132  0.5208E-02  0.1425E-01
      2.239  0.7744E-02  0.1508E-01
      2.345  0.7494E-02  0.1588E-01
      2.452  0.4870E-02  0.1640E-01
      2.559  0.2449E-02  0.1667E-01
      2.666  0.1616E-02  0.1684E-01
      2.773  0.1650E-02  0.1701E-01
      2.880  0.1884E-02  0.1722E-01
      2.987  0.6857E-02  0.1795E-01
      3.094  0.4954E-02  0.1848E-01
      3.200  0.1984E-02  0.1869E-01
      3.307  0.3042E-02  0.1902E-01
      3.414  0.6489E-02  0.1971E-01
      3.521  0.8131E-02  0.2058E-01
      3.628  0.3617E-02  0.2096E-01
      3.735  0.1933E-02  0.2117E-01
      3.842  0.3507E-02  0.2155E-01
      3.948  0.2684E-02  0.2183E-01
      4.055  0.2660E-02  0.2212E-01
      4.162  0.8638E-02  0.2304E-01
      4.269  0.6398E-02  0.2372E-01
      4.376  0.5590E-02  0.2432E-01
      4.483  0.5996E-02  0.2496E-01
      4.590  0.5661E-02  0.2557E-01
      4.697  0.6073E-02  0.2622E-01
      4.803  0.4270E-02  0.2667E-01
      4.910  0.3370E-02  0.2703E-01
      5.017  0.2284E-02  0.2728E-01
      5.124  0.1596E-02  0.2745E-01
      5.231  0.5185E-02  0.2800E-01
      5.338  0.1128E-01  0.2921E-01
      5.445  0.7239E-02  0.2998E-01
      5.552  0.5704E-02  0.3059E-01
      5.658  0.1113E-01  0.3178E-01
      5.765  0.1222E-01  0.3308E-01
      5.872  0.5105E-02  0.3363E-01
      5.979  0.1315E-02  0.3377E-01
      6.086  0.1925E-02  0.3398E-01
      6.193  0.1349E-02  0.3412E-01
      6.300  0.2220E-02  0.3436E-01
      6.406  0.4676E-02  0.3486E-01
      6.513  0.8336E-02  0.3575E-01
      6.620  0.4764E-02  0.3626E-01
      6.727  0.3036E-02  0.3658E-01
      6.834  0.7375E-02  0.3737E-01
      6.941  0.1007E-01  0.3845E-01
      7.048  0.6697E-02  0.3916E-01
      7.155  0.1199E-02  0.3929E-01
      7.261  0.2919E-02  0.3960E-01
      7.368  0.5334E-02  0.4017E-01
      7.475  0.3356E-02  0.4053E-01
      7.582  0.5970E-02  0.4117E-01
      7.689  0.8392E-02  0.4206E-01
      7.796  0.6596E-02  0.4277E-01
      7.903  0.2035E-02  0.4299E-01
      8.010  0.3498E-02  0.4336E-01
      8.116  0.8773E-02  0.4430E-01
      8.223  0.7754E-02  0.4513E-01
      8.330  0.4398E-02  0.4560E-01
      8.437  0.5693E-02  0.4621E-01
      8.544  0.6771E-02  0.4693E-01
      8.651  0.6970E-02  0.4767E-01
      8.758  0.8225E-02  0.4855E-01
      8.864  0.7313E-02  0.4933E-01
      8.971  0.3994E-02  0.4976E-01
      9.078  0.3481E-02  0.5013E-01
      9.185  0.4912E-02  0.5066E-01
      9.292  0.5559E-02  0.5125E-01
      9.399  0.6202E-02  0.5192E-01
      9.506  0.8940E-02  0.5287E-01
      9.613  0.1150E-01  0.5410E-01
      9.719  0.9047E-02  0.5507E-01
      9.826  0.5649E-02  0.5567E-01
      9.933  0.7028E-02  0.5642E-01
     10.040  0.7317E-02  0.5720E-01
     10.147  0.4188E-02  0.5765E-01
     10.254  0.1125E-02  0.5777E-01
     10.361  0.8980E-03  0.5787E-01
     10.468  0.7595E-02  0.5868E-01
     10.574  0.1039E-01  0.5979E-01
     10.681  0.4471E-02  0.6027E-01
     10.788  0.8348E-02  0.6116E-01
     10.895  0.1162E-01  0.6240E-01
     11.002  0.5397E-02  0.6298E-01
     11.109  0.5296E-02  0.6354E-01
     11.216  0.1074E-01  0.6469E-01
     11.322  0.9249E-02  0.6568E-01
     11.429  0.1218E-01  0.6698E-01
     11.536  0.1146E-01  0.6821E-01
     11.643  0.4904E-02  0.6873E-01
     11.750  0.7283E-02  0.6951E-01
     11.857  0.4750E-02  0.7002E-01
     11.964  0.4253E-02  0.7047E-01
     12.071  0.6939E-02  0.7121E-01
     12.177  0.5580E-02  0.7181E-01
     12.284  0.2969E-02  0.7213E-01
     12.391  0.2192E-02  0.7236E-01
     12.498  0.9990E-02  0.7343E-01
     12.605  0.1684E-01  0.7523E-01
     12.712  0.1124E-01  0.7643E-01
     12.819  0.3434E-02  0.7680E-01
     12.926  0.4188E-02  0.7724E-01
     13.032  0.8660E-02  0.7817E-01
     13.139  0.5889E-02  0.7880E-01
     13.246  0.1203E-02  0.7893E-01
     13.353  0.4166E-02  0.7937E-01
     13.460  0.9266E-02  0.8036E-01
     13.567  0.6523E-02  0.8106E-01
     13.674  0.6600E-02  0.8177E-01
     13.780  0.1013E-01  0.8285E-01
     13.887  0.8538E-02  0.8376E-01
     13.994  0.5645E-02  0.8436E-01
     14.101  0.7735E-02  0.8519E-01
     14.208  0.6098E-02  0.8584E-01
     14.315  0.4566E-02  0.8633E-01
     14.422  0.3597E-02  0.8671E-01
     14.529  0.6275E-02  0.8738E-01
     14.635  0.1179E-01  0.8865E-01
     14.742  0.1099E-01  0.8982E-01
     14.849  0.1034E-01  0.9093E-01
     14.956  0.1005E-01  0.9200E-01
     15.063  0.8243E-02  0.9288E-01
     15.170  0.5681E-02  0.9349E-01
     15.277  0.1998E-02  0.9370E-01
     15.383  0.2097E-02  0.9392E-01
     15.490  0.7791E-02  0.9476E-01
     15.597  0.1146E-01  0.9598E-01
     15.704  0.1605E-01  0.9770E-01
     15.811  0.1181E-01  0.9896E-01
     15.918  0.1189E-01  0.1002E+00
     16.025  0.1452E-01  0.1018E+00
     16.132  0.1072E-01  0.1029E+00
     16.238  0.6162E-02  0.1036E+00
     16.345  0.1178E-02  0.1037E+00
     16.452  0.1930E-02  0.1039E+00
     16.559  0.5146E-02  0.1045E+00
     16.666  0.2940E-02  0.1048E+00
     16.773  0.2091E-02  0.1050E+00
     16.880  0.7385E-02  0.1058E+00
     16.987  0.8349E-02  0.1067E+00
     17.093  0.1660E-01  0.1085E+00
     17.200  0.1981E-01  0.1106E+00
     17.307  0.1369E-01  0.1120E+00
     17.414  0.7736E-02  0.1129E+00
     17.521  0.5575E-02  0.1135E+00
     17.628  0.7935E-02  0.1143E+00
     17.735  0.9902E-02  0.1154E+00
     17.841  0.7228E-02  0.1161E+00
     17.948  0.9355E-02  0.1171E+00
     18.055  0.9227E-02  0.1181E+00
     18.162  0.5187E-02  0.1187E+00
     18.269  0.5458E-02  0.1193E+00
     18.376  0.7663E-02  0.1201E+00
     18.483  0.6759E-02  0.1208E+00
     18.590  0.7628E-02  0.1216E+00
     18.696  0.8567E-02  0.1225E+00
     18.803  0.9903E-02  0.1236E+00
     18.910  0.7086E-02  0.1244E+00
     19.017  0.7639E-02  0.1252E+00
     19.124  0.6723E-02  0.1259E+00
     19.231  0.7315E-02  0.1267E+00
     19.338  0.1028E-01  0.1278E+00
     19.445  0.7345E-02  0.1286E+00
     19.551  0.1112E-01  0.1297E+00
     19.658  0.1251E-01  0.1311E+00
     19.765  0.6209E-02  0.1317E+00
     19.872  0.6670E-02  0.1325E+00
     19.979  0.4913E-02  0.1330E+00
     20.086  0.6444E-02  0.1337E+00
     20.193  0.1483E-01  0.1353E+00
     20.299  0.9937E-02  0.1363E+00
     20.406  0.5444E-02  0.1369E+00
     20.513  0.4251E-02  0.1374E+00
     20.620  0.2944E-02  0.1377E+00
     20.727  0.5557E-02  0.1383E+00
     20.834  0.5360E-02  0.1388E+00
     20.941  0.6592E-02  0.1395E+00
     21.048  0.8259E-02  0.1404E+00
     21.154  0.8589E-02  0.1413E+00
     21.261  0.1710E-01  0.1432E+00
     21.368  0.1686E-01  0.1450E+00
     21.475  0.1079E-01  0.1461E+00
     21.582  0.5473E-02  0.1467E+00
     21.689  0.4516E-02  0.1472E+00
     21.796  0.7723E-02  0.1480E+00
     21.903  0.4369E-02  0.1485E+00
     22.009  0.1602E-02  0.1487E+00
     22.116  0.2996E-02  0.1490E+00
     22.223  0.2248E-02  0.1492E+00
     22.330  0.6661E-03  0.1493E+00
     22.437  0.2883E-02  0.1496E+00
     22.544  0.1281E-01  0.1510E+00
     22.651  0.1635E-01  0.1527E+00
     22.757  0.7650E-02  0.1535E+00
     22.864  0.9785E-02  0.1546E+00
     22.971  0.9392E-02  0.1556E+00
     23.078  0.3054E-02  0.1559E+00
     23.185  0.3718E-03  0.1559E+00
     23.292  0.1312E-02  0.1561E+00
     23.399  0.1677E-02  0.1563E+00
     23.506  0.3193E-03  0.1563E+00
     23.612  0.4992E-04  0.1563E+00
     23.719  0.1135E-02  0.1564E+00
     23.826  0.5041E-02  0.1570E+00
     23.933  0.4696E-02  0.1575E+00
     24.040  0.2345E-02  0.1577E+00
     24.147  0.6297E-03  0.1578E+00
     24.254  0.8451E-03  0.1579E+00
     24.361  0.1919E-02  0.1581E+00
     24.467  0.1208E-02  0.1582E+00
     24.574  0.2736E-02  0.1585E+00
     24.681  0.3079E-02  0.1588E+00
     24.788  0.2028E-02  0.1590E+00
     24.895  0.1699E-02  0.1592E+00
     25.002  0.3142E-03  0.1593E+00
     25.109  0.7930E-05  0.1593E+00
     25.215  0.2404E-07  0.1593E+00
     25.322  0.3292E-09  0.1593E+00
     25.429  0.3701E-06  0.1593E+00
     25.536  0.4896E-04  0.1593E+00
     25.643  0.8116E-03  0.1594E+00
     25.750  0.1902E-02  0.1596E+00
     25.857  0.6701E-03  0.1596E+00
     25.964  0.1004E-03  0.1596E+00
     26.070  0.9416E-03  0.1597E+00
     26.177  0.1874E-02  0.1599E+00
     26.284  0.5593E-03  0.1600E+00
     26.391  0.2309E-04  0.1600E+00
     26.498  0.1171E-06  0.1600E+00
     26.605  0.6737E-10  0.1600E+00
     26.712  0.4213E-14  0.1600E+00
     26.819  0.0000E+00  0.1600E+00
     26.925  0.0000E+00  0.1600E+00
     27.032  0.0000E+00  0.1600E+00
     27.139  0.0000E+00  0.1600E+00
     27.246  0.0000E+00  0.1600E+00
     27.353  0.0000E+00  0.1600E+00
     27.460  0.0000E+00  0.1600E+00
     27.567  0.0000E+00  0.1600E+00
