    2    2  100    1
  0.1158738E+02  0.2540000E-09  0.2540000E-09  0.4147795E-09  0.5000000E-15
  1.000000000000000E-004
  CAR 
 Si beta-tin                             
      8     36      8
 
  0.8333333E-01  0.8333333E-01  0.8333333E-01  0.1851852E-01
    1       -2.628002   1.000000
    2        4.491143   1.000000
    3        7.304304   1.000000
    4       18.188869   0.000000
    5       18.406856   0.000000
    6       24.301016   0.000000
    7       24.541575   0.000000
    8       24.801301   0.000000
 
  0.2500000E+00  0.8333333E-01  0.8333333E-01  0.3703704E-01
    1       -0.598074   1.000000
    2        6.419170   1.000000
    3        9.129462   1.000000
    4       11.399182   1.000000
    5       15.704381   0.000000
    6       18.015768   0.000000
    7       20.419982   0.000000
    8       22.578765   0.000000
 
  0.4166667E+00  0.8333333E-01  0.8333333E-01  0.3703704E-01
    1        2.983543   1.000000
    2        5.364258   1.000000
    3        9.902791   1.000000
    4       11.957178   1.000000
    5       12.976423   1.000000
    6       14.512253   0.000000
    7       15.496130   0.000000
    8       21.406743   0.000000
 
 -0.4166667E+00  0.8333333E-01  0.8333333E-01  0.3703704E-01
    1        1.007824   1.000000
    2        7.626894   1.000000
    3        8.427112   1.000000
    4       10.846311   1.000000
    5       14.607541   0.000000
    6       15.433961   0.000000
    7       17.706132   0.000000
    8       21.786579   0.000000
 
 -0.2500000E+00  0.8333333E-01  0.8333333E-01  0.3703704E-01
    1       -1.813133   1.000000
    2        5.268908   1.000000
    3        8.063735   1.000000
    4       14.689901   0.000000
    5       16.845992   0.000000
    6       21.176329   0.000000
    7       22.944864   0.000000
    8       23.823786   0.000000
 
 -0.8333333E-01  0.8333333E-01  0.8333333E-01  0.1851852E-01
    1       -3.036875   1.000000
    2        4.100132   1.000000
    3        6.919568   1.000000
    4       20.031270   0.000000
    5       21.323483   0.000000
    6       23.305777   0.000000
    7       25.690987   0.000000
    8       26.109281   0.000000
 
  0.2500000E+00  0.2500000E+00  0.8333333E-01  0.1851852E-01
    1        2.202516   1.000000
    2        8.522335   1.000000
    3        9.456055   1.000000
    4        9.621641   1.000000
    5       12.068884   1.000000
    6       15.713283   0.000000
    7       16.569598   0.000000
    8       18.966507   0.000000
 
  0.4166667E+00  0.2500000E+00  0.8333333E-01  0.3703704E-01
    1        4.163122   1.000000
    2        6.510263   1.000000
    3        8.818552   1.000000
    4       11.125485   1.000000
    5       13.048029   1.000000
    6       14.145697   0.000000
    7       15.667699   0.000000
    8       17.017678   0.000000
 
 -0.4166667E+00  0.2500000E+00  0.8333333E-01  0.3703704E-01
    1        0.608341   1.000000
    2        7.531081   1.000000
    3        9.720933   1.000000
    4       10.750686   1.000000
    5       12.490808   1.000000
    6       16.859871   0.000000
    7       18.750440   0.000000
    8       20.185599   0.000000
 
 -0.2500000E+00  0.2500000E+00  0.8333333E-01  0.1851852E-01
    1       -1.407161   1.000000
    2        5.654759   1.000000
    3        8.432159   1.000000
    4       12.847530   1.000000
    5       18.539312   0.000000
    6       19.272290   0.000000
    7       20.791591   0.000000
    8       22.140115   0.000000
 
  0.4166667E+00  0.4166667E+00  0.8333333E-01  0.1851852E-01
    1        4.365530   1.000000
    2        4.779069   1.000000
    3       10.869296   1.000000
    4       11.685618   1.000000
    5       11.738783   1.000000
    6       14.317631   0.000000
    7       14.733705   0.000000
    8       18.725950   0.000000
 
 -0.4166667E+00  0.4166667E+00  0.8333333E-01  0.1851852E-01
    1        1.803113   1.000000
    2        6.482746   1.000000
    3        8.826752   1.000000
    4       11.497320   1.000000
    5       13.577071   0.013345
    6       16.094152   0.000000
    7       17.139497   0.000000
    8       19.626769   0.000000
 
  0.8333333E-01  0.8333333E-01  0.2500000E+00  0.1851852E-01
    1       -2.143805   1.000000
    2        2.154926   1.000000
    3       10.478257   1.000000
    4       18.606668   0.000000
    5       18.753815   0.000000
    6       22.039998   0.000000
    7       22.586030   0.000000
    8       22.888580   0.000000
 
  0.2500000E+00  0.8333333E-01  0.2500000E+00  0.3703704E-01
    1       -0.119355   1.000000
    2        4.124932   1.000000
    3       11.448782   1.000000
    4       12.580079   1.000000
    5       15.563651   0.000000
    6       16.496334   0.000000
    7       20.136896   0.000000
    8       22.854060   0.000000
 
  0.4166667E+00  0.8333333E-01  0.2500000E+00  0.3703704E-01
    1        3.449785   1.000000
    2        5.780308   1.000000
    3        7.742334   1.000000
    4       10.007515   1.000000
    5       14.852331   0.000000
    6       16.077103   0.000000
    7       17.923392   0.000000
    8       19.560996   0.000000
 
 -0.4166667E+00  0.8333333E-01  0.2500000E+00  0.3703704E-01
    1        1.481862   1.000000
    2        5.656713   1.000000
    3        8.631723   1.000000
    4       12.493222   1.000000
    5       14.037846   0.000000
    6       15.656476   0.000000
    7       19.268107   0.000000
    8       20.949618   0.000000
 
 -0.2500000E+00  0.8333333E-01  0.2500000E+00  0.3703704E-01
    1       -1.331120   1.000000
    2        2.946996   1.000000
    3       11.193525   1.000000
    4       15.128044   0.000000
    5       17.226466   0.000000
    6       19.127336   0.000000
    7       21.245773   0.000000
    8       22.802799   0.000000
 
 -0.8333333E-01  0.8333333E-01  0.2500000E+00  0.1851852E-01
    1       -2.551582   1.000000
    2        1.757190   1.000000
    3       10.108165   1.000000
    4       20.351025   0.000000
    5       21.733180   0.000000
    6       21.751012   0.000000
    7       23.972954   0.000000
    8       24.618710   0.000000
 
  0.2500000E+00  0.2500000E+00  0.2500000E+00  0.1851852E-01
    1        2.672557   1.000000
    2        6.777870   1.000000
    3        9.659351   1.000000
    4        9.894145   1.000000
    5       13.580647   0.011707
    6       13.715004   0.000015
    7       15.884873   0.000000
    8       21.630822   0.000000
 
  0.4166667E+00  0.2500000E+00  0.2500000E+00  0.3703704E-01
    1        4.623414   1.000000
    2        6.908564   1.000000
    3        8.696025   1.000000
    4        9.567437   1.000000
    5       11.244942   1.000000
    6       13.401582   0.604789
    7       17.361377   0.000000
    8       19.515012   0.000000
 
 -0.4166667E+00  0.2500000E+00  0.2500000E+00  0.3703704E-01
    1        1.083609   1.000000
    2        5.286777   1.000000
    3       10.482887   1.000000
    4       12.641760   1.000000
    5       13.427135   0.461916
    6       15.014344   0.000000
    7       17.100105   0.000000
    8       22.531888   0.000000
 
 -0.2500000E+00  0.2500000E+00  0.2500000E+00  0.1851852E-01
    1       -0.926224   1.000000
    2        3.341066   1.000000
    3       11.491884   1.000000
    4       13.349637   0.841437
    5       17.240022   0.000000
    6       18.954353   0.000000
    7       21.022815   0.000000
    8       22.692949   0.000000
 
  0.4166667E+00  0.4166667E+00  0.2500000E+00  0.1851852E-01
    1        4.823666   1.000000
    2        5.226942   1.000000
    3        8.992465   1.000000
    4        9.456235   1.000000
    5       12.122040   1.000000
    6       15.707858   0.000000
    7       17.471487   0.000000
    8       18.232555   0.000000
 
 -0.4166667E+00  0.4166667E+00  0.2500000E+00  0.1851852E-01
    1        2.274397   1.000000
    2        6.269211   1.000000
    3        7.262070   1.000000
    4       11.113622   1.000000
    5       14.781514   0.000000
    6       17.554961   0.000000
    7       18.804346   0.000000
    8       20.188322   0.000000
 
  0.8333333E-01  0.8333333E-01  0.4166667E+00  0.1851852E-01
    1       -1.179364   1.000000
    2        0.257473   1.000000
    3       14.025946   0.000000
    4       17.748087   0.000000
    5       19.413950   0.000000
    6       19.916581   0.000000
    7       20.912599   0.000000
    8       21.265578   0.000000
 
  0.2500000E+00  0.8333333E-01  0.4166667E+00  0.3703704E-01
    1        0.833946   1.000000
    2        2.253387   1.000000
    3       12.517772   1.000000
    4       13.779142   0.000000
    5       15.932421   0.000000
    6       17.129418   0.000000
    7       18.575017   0.000000
    8       20.168055   0.000000
 
  0.4166667E+00  0.8333333E-01  0.4166667E+00  0.3703704E-01
    1        4.370869   1.000000
    2        5.661361   1.000000
    3        6.953181   1.000000
    4        8.223733   1.000000
    5       15.888888   0.000000
    6       17.087543   0.000000
    7       19.570062   0.000000
    8       21.480033   0.000000
 
 -0.4166667E+00  0.8333333E-01  0.4166667E+00  0.3703704E-01
    1        2.425062   1.000000
    2        3.826163   1.000000
    3        9.523428   1.000000
    4       10.860408   1.000000
    5       16.160899   0.000000
    6       17.077797   0.000000
    7       18.331018   0.000000
    8       21.294870   0.000000
 
 -0.2500000E+00  0.8333333E-01  0.4166667E+00  0.3703704E-01
    1       -0.371068   1.000000
    2        1.059073   1.000000
    3       14.579552   0.000000
    4       15.964281   0.000000
    5       17.258027   0.000000
    6       17.891287   0.000000
    7       19.307720   0.000000
    8       19.827876   0.000000
 
 -0.8333333E-01  0.8333333E-01  0.4166667E+00  0.1851852E-01
    1       -1.584978   1.000000
    2       -0.144854   1.000000
    3       13.686273   0.000085
    4       17.571450   0.000000
    5       21.367364   0.000000
    6       22.552234   0.000000
    7       22.564525   0.000000
    8       23.778804   0.000000
 
  0.2500000E+00  0.2500000E+00  0.4166667E+00  0.1851852E-01
    1        3.606888   1.000000
    2        4.990574   1.000000
    3       10.479080   1.000000
    4       10.703179   1.000000
    5       12.046614   1.000000
    6       12.237266   1.000000
    7       18.938210   0.000000
    8       22.437072   0.000000
 
  0.4166667E+00  0.2500000E+00  0.4166667E+00  0.3703704E-01
    1        5.528937   1.000000
    2        6.772451   1.000000
    3        8.116418   1.000000
    4        9.274815   1.000000
    5       10.491839   1.000000
    6       11.723526   1.000000
    7       20.651160   0.000000
    8       22.563553   0.000000
 
 -0.4166667E+00  0.2500000E+00  0.4166667E+00  0.3703704E-01
    1        2.029669   1.000000
    2        3.436814   1.000000
    3       11.393001   1.000000
    4       12.634271   1.000000
    5       13.788447   0.000000
    6       14.940754   0.000000
    7       17.654031   0.000000
    8       21.198383   0.000000
 
 -0.2500000E+00  0.2500000E+00  0.4166667E+00  0.1851852E-01
    1        0.031597   1.000000
    2        1.458274   1.000000
    3       13.906643   0.000000
    4       14.837528   0.000000
    5       15.965236   0.000000
    6       19.034884   0.000000
    7       19.785182   0.000000
    8       21.032330   0.000000
 
  0.4166667E+00  0.4166667E+00  0.4166667E+00  0.1851852E-01
    1        5.700007   1.000000
    2        6.042486   1.000000
    3        7.333092   1.000000
    4        7.683321   1.000000
    5       13.001938   1.000000
    6       14.293492   0.000000
    7       20.744148   0.000000
    8       21.248628   0.000000
 
 -0.4166667E+00  0.4166667E+00  0.4166667E+00  0.1851852E-01
    1        3.210898   1.000000
    2        4.593896   1.000000
    3        8.009687   1.000000
    4        9.353746   1.000000
    5       18.042276   0.000000
    6       18.387035   0.000000
    7       19.637279   0.000000
    8       20.146649   0.000000
