 vasp.5.4.1 24Jun15 (build Jul 19 2016 16:50:41) complex                        
  
 executed on           IFC91_ompi date 2019.10.10  11:12:18
 running on    4 total cores
 distrk:  each k-point on    4 cores,    1 groups
 distr:  one band on NCORES_PER_BAND=   1 cores,    4 groups


--------------------------------------------------------------------------------------------------------


 INCAR:
 POTCAR:    PAW_PBE Si 05Jan2001                  
 POTCAR:    PAW_PBE Si 05Jan2001                  
   VRHFIN = Si: s2p2                                                            
   LEXCH  = PE                                                                  
   EATOM  =   103.0669 eV,    7.5752 Ry                                         
                                                                                
   TITEL  = PAW_PBE Si 05Jan2001                                                
   LULTRA =        F    use ultrasoft PP ?                                      
   IUNSCR =        1    unscreen: 0-lin 1-nonlin 2-no                           
   RPACOR =    1.500    partial core radius                                     
   POMASS =   28.085; ZVAL   =    4.000    mass and valenz                      
   RCORE  =    1.900    outmost cutoff radius                                   
   RWIGS  =    2.480; RWIGS  =    1.312    wigner-seitz radius (au A)           
   ENMAX  =  245.345; ENMIN  =  184.009 eV                                      
   ICORE  =        2    local potential                                         
   LCOR   =        T    correct aug charges                                     
   LPAW   =        T    paw PP                                                  
   EAUG   =  322.069                                                            
   DEXC   =    0.000                                                            
   RMAX   =    1.950    core radius for proj-oper                               
   RAUG   =    1.300    factor for augmentation sphere                          
   RDEP   =    1.993    radius for radial grids                                 
   RDEPT  =    1.837    core radius for aug-charge                              
                                                                                
   Atomic configuration                                                         
    6 entries                                                                   
     n  l   j            E        occ.                                          
     1  0  0.50     -1785.8828   2.0000                                         
     2  0  0.50      -139.4969   2.0000                                         
     2  1  1.50       -95.5546   6.0000                                         
     3  0  0.50       -10.8127   2.0000                                         
     3  1  0.50        -4.0811   2.0000                                         
     3  2  1.50        -4.0817   0.0000                                         
   Description                                                                  
     l       E           TYP  RCUT    TYP  RCUT                                 
     0    -10.8127223     23  1.900                                             
     0     -7.6451159     23  1.900                                             
     1     -4.0811372     23  1.900                                             
     1      2.4879257     23  1.900                                             
     2     -4.0817478      7  1.900                                             
  local pseudopotential read in
  partial core-charges read in
  partial kinetic energy density read in
  atomic valenz-charges read in
  non local Contribution for L=           0  read in
    real space projection operators read in
  non local Contribution for L=           0  read in
    real space projection operators read in
  non local Contribution for L=           1  read in
    real space projection operators read in
  non local Contribution for L=           1  read in
    real space projection operators read in
    PAW grid and wavefunctions read in
 
   number of l-projection  operators is LMAX  =           4
   number of lm-projection operators is LMMAX =           8
 
  PAW_PBE Si 05Jan2001                  :
 energy of atom  1       EATOM= -103.0669
 kinetic energy error for atom=    0.0009 (will be added to EATOM!!)
 
 
 POSCAR: Si HCP                                  
  positions in direct lattice
  No initial velocities read in
 exchange correlation table for  LEXCH =        8
   RHO(1)=    0.500       N(1)  =     2000
   RHO(2)=  100.500       N(2)  =     4000
 


--------------------------------------------------------------------------------------------------------


 ion  position               nearest neighbor table
   1  0.000  0.000  0.000-   2 2.54   2 2.54   2 2.54   2 2.54   2 2.54   2 2.54
   2  0.333  0.667  0.500-   1 2.54   1 2.54   1 2.54   1 2.54   1 2.54   1 2.54
 
  LATTYP: Found a hexagonal cell.
 ALAT       =     2.5400000000
 C/A-ratio  =     1.6329900000
  
  Lattice vectors:
  
 A1 = (   2.5400000000,   0.0000000000,   0.0000000000)
 A2 = (  -1.2700000000,   2.1997045256,   0.0000000000)
 A3 = (   0.0000000000,   0.0000000000,   4.1477946000)


Analysis of symmetry for initial positions (statically):
=====================================================================
 Subroutine PRICEL returns:
 Original cell was already a primitive cell.
 

 Routine SETGRP: Setting up the symmetry group for a 
 hexagonal supercell.


 Subroutine GETGRP returns: Found 24 space group operations
 (whereof 12 operations were pure point group operations)
 out of a pool of 24 trial point group operations.


The static configuration has the point symmetry D_3h.
 The point group associated with its full space group is D_6h.


Analysis of symmetry for dynamics (positions and initial velocities):
=====================================================================
 Subroutine PRICEL returns:
 Original cell was already a primitive cell.
 

 Routine SETGRP: Setting up the symmetry group for a 
 hexagonal supercell.


 Subroutine GETGRP returns: Found 24 space group operations
 (whereof 12 operations were pure point group operations)
 out of a pool of 24 trial point group operations.


The dynamic configuration has the point symmetry D_3h.
 The point group associated with its full space group is D_6h.


 Subroutine INISYM returns: Found 24 space group operations
 (whereof 12 operations are pure point group operations),
 and found     1 'primitive' translations

 
 
 KPOINTS: K-Points                                

Automatic generation of k-mesh.
Space group operators:
 irot       det(A)        alpha          n_x          n_y          n_z        tau_x        tau_y        tau_z
    1     1.000000     0.000000     1.000000     0.000000     0.000000     0.000000     0.000000     0.000000
    2    -1.000000    60.000000     0.000000     0.000000    -1.000000     0.000000     0.000000     0.000000
    3     1.000000   120.000000     0.000000     0.000000    -1.000000     0.000000     0.000000     0.000000
    4    -1.000000   179.999999     0.000000     0.000000     1.000000     0.000000     0.000000     0.000000
    5     1.000000   120.000000     0.000000     0.000000     1.000000     0.000000     0.000000     0.000000
    6    -1.000000    60.000000     0.000000     0.000000     1.000000     0.000000     0.000000     0.000000
    7    -1.000000   180.000000     1.000000     0.000000     0.000000     0.000000     0.000000     0.000000
    8     1.000000   180.000000     0.866025    -0.500000     0.000000     0.000000     0.000000     0.000000
    9    -1.000000   180.000000     0.500000    -0.866025     0.000000     0.000000     0.000000     0.000000
   10     1.000000   180.000000     0.000000     1.000000     0.000000     0.000000     0.000000     0.000000
   11    -1.000000   180.000000    -0.500000    -0.866025     0.000000     0.000000     0.000000     0.000000
   12     1.000000   180.000000     0.866025     0.500000     0.000000     0.000000     0.000000     0.000000
   13    -1.000000     0.000000     1.000000     0.000000     0.000000     0.333333     0.666667     0.500000
   14     1.000000    60.000000     0.000000     0.000000    -1.000000     0.333333     0.666667     0.500000
   15    -1.000000   120.000000     0.000000     0.000000    -1.000000     0.333333     0.666667     0.500000
   16     1.000000   179.999999     0.000000     0.000000     1.000000     0.333333     0.666667     0.500000
   17    -1.000000   120.000000     0.000000     0.000000     1.000000     0.333333     0.666667     0.500000
   18     1.000000    60.000000     0.000000     0.000000     1.000000     0.333333     0.666667     0.500000
   19     1.000000   180.000000     1.000000     0.000000     0.000000     0.333333     0.666667     0.500000
   20    -1.000000   180.000000     0.866025    -0.500000     0.000000     0.333333     0.666667     0.500000
   21     1.000000   180.000000     0.500000    -0.866025     0.000000     0.333333     0.666667     0.500000
   22    -1.000000   180.000000     0.000000     1.000000     0.000000     0.333333     0.666667     0.500000
   23     1.000000   180.000000    -0.500000    -0.866025     0.000000     0.333333     0.666667     0.500000
   24    -1.000000   180.000000     0.866025     0.500000     0.000000     0.333333     0.666667     0.500000
 
 Subroutine IBZKPT returns following result:
 ===========================================
 
 Found     36 irreducible k-points:
 
 Following reciprocal coordinates:
            Coordinates               Weight
  0.083333  0.083333  0.083333     96.000000
  0.250000  0.083333  0.083333    192.000000
  0.416667  0.083333  0.083333    192.000000
 -0.416667  0.083333  0.083333    192.000000
 -0.250000  0.083333  0.083333    192.000000
 -0.083333  0.083333  0.083333     96.000000
  0.250000  0.250000  0.083333     96.000000
  0.416667  0.250000  0.083333    192.000000
 -0.416667  0.250000  0.083333    192.000000
 -0.250000  0.250000  0.083333     96.000000
  0.416667  0.416667  0.083333     96.000000
 -0.416667  0.416667  0.083333     96.000000
  0.083333  0.083333  0.250000     96.000000
  0.250000  0.083333  0.250000    192.000000
  0.416667  0.083333  0.250000    192.000000
 -0.416667  0.083333  0.250000    192.000000
 -0.250000  0.083333  0.250000    192.000000
 -0.083333  0.083333  0.250000     96.000000
  0.250000  0.250000  0.250000     96.000000
  0.416667  0.250000  0.250000    192.000000
 -0.416667  0.250000  0.250000    192.000000
 -0.250000  0.250000  0.250000     96.000000
  0.416667  0.416667  0.250000     96.000000
 -0.416667  0.416667  0.250000     96.000000
  0.083333  0.083333  0.416667     96.000000
  0.250000  0.083333  0.416667    192.000000
  0.416667  0.083333  0.416667    192.000000
 -0.416667  0.083333  0.416667    192.000000
 -0.250000  0.083333  0.416667    192.000000
 -0.083333  0.083333  0.416667     96.000000
  0.250000  0.250000  0.416667     96.000000
  0.416667  0.250000  0.416667    192.000000
 -0.416667  0.250000  0.416667    192.000000
 -0.250000  0.250000  0.416667     96.000000
  0.416667  0.416667  0.416667     96.000000
 -0.416667  0.416667  0.416667     96.000000
 
 Following cartesian coordinates:
            Coordinates               Weight
  0.083333  0.144338  0.051031     96.000000
  0.250000  0.240563  0.051031    192.000000
  0.416667  0.336788  0.051031    192.000000
 -0.416667 -0.144338  0.051031    192.000000
 -0.250000 -0.048113  0.051031    192.000000
 -0.083333  0.048113  0.051031     96.000000
  0.250000  0.433013  0.051031     96.000000
  0.416667  0.529238  0.051031    192.000000
 -0.416667  0.048113  0.051031    192.000000
 -0.250000  0.144338  0.051031     96.000000
  0.416667  0.721688  0.051031     96.000000
 -0.416667  0.240563  0.051031     96.000000
  0.083333  0.144338  0.153093     96.000000
  0.250000  0.240563  0.153093    192.000000
  0.416667  0.336788  0.153093    192.000000
 -0.416667 -0.144338  0.153093    192.000000
 -0.250000 -0.048113  0.153093    192.000000
 -0.083333  0.048113  0.153093     96.000000
  0.250000  0.433013  0.153093     96.000000
  0.416667  0.529238  0.153093    192.000000
 -0.416667  0.048113  0.153093    192.000000
 -0.250000  0.144338  0.153093     96.000000
  0.416667  0.721688  0.153093     96.000000
 -0.416667  0.240563  0.153093     96.000000
  0.083333  0.144338  0.255156     96.000000
  0.250000  0.240563  0.255156    192.000000
  0.416667  0.336788  0.255156    192.000000
 -0.416667 -0.144338  0.255156    192.000000
 -0.250000 -0.048113  0.255156    192.000000
 -0.083333  0.048113  0.255156     96.000000
  0.250000  0.433013  0.255156     96.000000
  0.416667  0.529238  0.255156    192.000000
 -0.416667  0.048113  0.255156    192.000000
 -0.250000  0.144338  0.255156     96.000000
  0.416667  0.721688  0.255156     96.000000
 -0.416667  0.240563  0.255156     96.000000
 


--------------------------------------------------------------------------------------------------------




 Dimension of arrays:
   k-points           NKPTS =     36   k-points in BZ     NKDIM =     36   number of bands    NBANDS=      8
   number of dos      NEDOS =    301   number of ions     NIONS =      2
   non local maximal  LDIM  =      4   non local SUM 2l+1 LMDIM =      8
   total plane-waves  NPLWV =   9720
   max r-space proj   IRMAX =      1   max aug-charges    IRDMAX=  14221
   dimension x,y,z NGX =    18 NGY =   18 NGZ =   30
   dimension x,y,z NGXF=    36 NGYF=   36 NGZF=   60
   support grid    NGXF=    36 NGYF=   36 NGZF=   60
   ions per type =               2
 NGX,Y,Z   is equivalent  to a cutoff of  11.78, 11.78, 12.02 a.u.
 NGXF,Y,Z  is equivalent  to a cutoff of  23.56, 23.56, 24.05 a.u.


 I would recommend the setting:
   dimension x,y,z NGX =    18 NGY =   18 NGZ =   29
 SYSTEM =  Si beta-tin                             
 POSCAR =  Si HCP                                  

 Startparameter for this run:
   NWRITE =      2    write-flag & timer
   PREC   = accura    normal or accurate (medium, high low for compatibility)
   ISTART =      0    job   : 0-new  1-cont  2-samecut
   ICHARG =      2    charge: 1-file 2-atom 10-const
   ISPIN  =      1    spin polarized calculation?
   LNONCOLLINEAR =      F non collinear calculations
   LSORBIT =      F    spin-orbit coupling
   INIWAV =      1    electr: 0-lowe 1-rand  2-diag
   LASPH  =      F    aspherical Exc in radial PAW
   METAGGA=      F    non-selfconsistent MetaGGA calc.

 Electronic Relaxation 1
   ENCUT  =  450.0 eV  33.07 Ry    5.75 a.u.   4.39  4.39  7.17*2*pi/ulx,y,z
   ENINI  =  450.0     initial cutoff
   ENAUG  =  322.1 eV  augmentation charge cutoff
   NELM   =     60;   NELMIN=  2; NELMDL= -5     # of ELM steps 
   EDIFF  = 0.1E-04   stopping-criterion for ELM
   LREAL  =      F    real-space projection
   NLSPLINE    = F    spline interpolate recip. space projectors
   LCOMPAT=      F    compatible to vasp.4.4
   GGA_COMPAT  = T    GGA compatible to vasp.4.4-vasp.4.6
   LMAXPAW     = -100 max onsite density
   LMAXMIX     =    2 max onsite mixed and CHGCAR
   VOSKOWN=      0    Vosko Wilk Nusair interpolation
   ROPT   =    0.00000
 Ionic relaxation
   EDIFFG = -.1E-01   stopping-criterion for IOM
   NSW    =    100    number of steps for IOM
   NBLOCK =      1;   KBLOCK =    100    inner block; outer block 
   IBRION =      2    ionic relax: 0-MD 1-quasi-New 2-CG
   NFREE  =      1    steps in history (QN), initial steepest desc. (CG)
   ISIF   =      4    stress and relaxation
   IWAVPR =     11    prediction:  0-non 1-charg 2-wave 3-comb
   ISYM   =      2    0-nonsym 1-usesym 2-fastsym
   LCORR  =      T    Harris-Foulkes like correction to forces

   POTIM  = 0.5000    time-step for ionic-motion
   TEIN   =    0.0    initial temperature
   TEBEG  =    0.0;   TEEND  =   0.0 temperature during run
   SMASS  =  -3.00    Nose mass-parameter (am)
   estimated Nose-frequenzy (Omega)   =  0.10E-29 period in steps =****** mass=  -0.147E-27a.u.
   SCALEE = 1.0000    scale energy and forces
   NPACO  =    256;   APACO  = 16.0  distance and # of slots for P.C.
   PSTRESS=    0.0 pullay stress

  Mass of Ions in am
   POMASS =  28.09
  Ionic Valenz
   ZVAL   =   4.00
  Atomic Wigner-Seitz radii
   RWIGS  =  -1.00
  virtual crystal weights 
   VCA    =   1.00
   NELECT =       8.0000    total number of electrons
   NUPDOWN=      -1.0000    fix difference up-down

 DOS related values:
   EMIN   =  10.00;   EMAX   =-10.00  energy-range for DOS
   EFERMI =   0.00
   ISMEAR =     0;   SIGMA  =   0.10  broadening in eV -4-tet -1-fermi 0-gaus

 Electronic relaxation 2 (details)
   IALGO  =     38    algorithm
   LDIAG  =      T    sub-space diagonalisation (order eigenvalues)
   LSUBROT=      F    optimize rotation matrix (better conditioning)
   TURBO    =      0    0=normal 1=particle mesh
   IRESTART =      0    0=no restart 2=restart with 2 vectors
   NREBOOT  =      0    no. of reboots
   NMIN     =      0    reboot dimension
   EREF     =   0.00    reference energy to select bands
   IMIX   =      4    mixing-type and parameters
     AMIX     =   0.40;   BMIX     =  1.00
     AMIX_MAG =   1.60;   BMIX_MAG =  1.00
     AMIN     =   0.10
     WC   =   100.;   INIMIX=   1;  MIXPRE=   1;  MAXMIX= -45

 Intra band minimization:
   WEIMIN = 0.0010     energy-eigenvalue tresh-hold
   EBREAK =  0.31E-06  absolut break condition
   DEPER  =   0.30     relativ break condition  

   TIME   =   0.40     timestep for ELM

  volume/ion in A,a.u.               =      11.59        78.20
  Fermi-wavevector in a.u.,A,eV,Ry     =   1.148417  2.170194 17.944211  1.318862
  Thomas-Fermi vector in A             =   2.285092
 
 Write flags
   LWAVE  =      T    write WAVECAR
   LCHARG =      T    write CHGCAR
   LVTOT  =      F    write LOCPOT, total local potential
   LVHAR  =      F    write LOCPOT, Hartree potential only
   LELF   =      F    write electronic localiz. function (ELF)
   LORBIT =      0    0 simple, 1 ext, 2 COOP (PROOUT)


 Dipole corrections
   LMONO  =      F    monopole corrections only (constant potential shift)
   LDIPOL =      F    correct potential (dipole corrections)
   IDIPOL =      0    1-x, 2-y, 3-z, 4-all directions 
   EPSILON=  1.0000000 bulk dielectric constant

 Exchange correlation treatment:
   GGA     =    --    GGA type
   LEXCH   =     8    internal setting for exchange type
   VOSKOWN=      0    Vosko Wilk Nusair interpolation
   LHFCALC =     F    Hartree Fock is set to
   LHFONE  =     F    Hartree Fock one center treatment
   AEXX    =    0.0000 exact exchange contribution

 Linear response parameters
   LEPSILON=     F    determine dielectric tensor
   LRPA    =     F    only Hartree local field effects (RPA)
   LNABLA  =     F    use nabla operator in PAW spheres
   LVEL    =     F    velocity operator in full k-point grid
   LINTERFAST=   F  fast interpolation
   KINTER  =     0    interpolate to denser k-point grid
   CSHIFT  =0.1000    complex shift for real part using Kramers Kronig
   OMEGAMAX=  -1.0    maximum frequency
   DEG_THRESHOLD= 0.2000000E-02 threshold for treating states as degnerate
   RTIME   =    0.100 relaxation time in fs

 Orbital magnetization related:
   ORBITALMAG=     F  switch on orbital magnetization
   LCHIMAG   =     F  perturbation theory with respect to B field
   DQ        =  0.001000  dq finite difference perturbation B field



--------------------------------------------------------------------------------------------------------


 conjugate gradient relaxation of ions
 charge density and potential will be updated during run
 non-spin polarized calculation
 Variant of blocked Davidson
 Davidson routine will perform the subspace rotation
 perform sub-space diagonalisation
    after iterative eigenvector-optimisation
 modified Broyden-mixing scheme, WC =      100.0
 initial mixing is a Kerker type mixing with AMIX =  0.4000 and BMIX =      1.0000
 Hartree-type preconditioning will be used
 using additional bands            4
 reciprocal scheme for non local part
 use partial core corrections
 calculate Harris-corrections to forces 
   (improved forces if not selfconsistent)
 use gradient corrections 
 use of overlap-Matrix (Vanderbilt PP)
 Gauss-broadening in eV      SIGMA  =   0.10


--------------------------------------------------------------------------------------------------------


  energy-cutoff  :      450.00
  volume of cell :       23.17
      direct lattice vectors                 reciprocal lattice vectors
     2.540000000  0.000000000  0.000000000     0.393700787  0.227303256  0.000000000
    -1.270000000  2.199704526  0.000000000     0.000000000  0.454606511  0.000000000
     0.000000000  0.000000000  4.147794600     0.000000000  0.000000000  0.241091977

  length of vectors
     2.540000000  2.540000000  4.147794600     0.454606511  0.454606511  0.241091977


 
 k-points in units of 2pi/SCALE and weight: K-Points                                
   0.08333333  0.14433757  0.05103114       0.019
   0.25000000  0.24056261  0.05103114       0.037
   0.41666667  0.33678766  0.05103114       0.037
  -0.41666667 -0.14433757  0.05103114       0.037
  -0.25000000 -0.04811252  0.05103114       0.037
  -0.08333333  0.04811252  0.05103114       0.019
   0.25000000  0.43301270  0.05103114       0.019
   0.41666667  0.52923775  0.05103114       0.037
  -0.41666667  0.04811252  0.05103114       0.037
  -0.25000000  0.14433757  0.05103114       0.019
   0.41666667  0.72168784  0.05103114       0.019
  -0.41666667  0.24056261  0.05103114       0.019
   0.08333333  0.14433757  0.15309341       0.019
   0.25000000  0.24056261  0.15309341       0.037
   0.41666667  0.33678766  0.15309341       0.037
  -0.41666667 -0.14433757  0.15309341       0.037
  -0.25000000 -0.04811252  0.15309341       0.037
  -0.08333333  0.04811252  0.15309341       0.019
   0.25000000  0.43301270  0.15309341       0.019
   0.41666667  0.52923775  0.15309341       0.037
  -0.41666667  0.04811252  0.15309341       0.037
  -0.25000000  0.14433757  0.15309341       0.019
   0.41666667  0.72168784  0.15309341       0.019
  -0.41666667  0.24056261  0.15309341       0.019
   0.08333333  0.14433757  0.25515568       0.019
   0.25000000  0.24056261  0.25515568       0.037
   0.41666667  0.33678766  0.25515568       0.037
  -0.41666667 -0.14433757  0.25515568       0.037
  -0.25000000 -0.04811252  0.25515568       0.037
  -0.08333333  0.04811252  0.25515568       0.019
   0.25000000  0.43301270  0.25515568       0.019
   0.41666667  0.52923775  0.25515568       0.037
  -0.41666667  0.04811252  0.25515568       0.037
  -0.25000000  0.14433757  0.25515568       0.019
   0.41666667  0.72168784  0.25515568       0.019
  -0.41666667  0.24056261  0.25515568       0.019
 
 k-points in reciprocal lattice and weights: K-Points                                
   0.08333333  0.08333333  0.08333333       0.019
   0.25000000  0.08333333  0.08333333       0.037
   0.41666667  0.08333333  0.08333333       0.037
  -0.41666667  0.08333333  0.08333333       0.037
  -0.25000000  0.08333333  0.08333333       0.037
  -0.08333333  0.08333333  0.08333333       0.019
   0.25000000  0.25000000  0.08333333       0.019
   0.41666667  0.25000000  0.08333333       0.037
  -0.41666667  0.25000000  0.08333333       0.037
  -0.25000000  0.25000000  0.08333333       0.019
   0.41666667  0.41666667  0.08333333       0.019
  -0.41666667  0.41666667  0.08333333       0.019
   0.08333333  0.08333333  0.25000000       0.019
   0.25000000  0.08333333  0.25000000       0.037
   0.41666667  0.08333333  0.25000000       0.037
  -0.41666667  0.08333333  0.25000000       0.037
  -0.25000000  0.08333333  0.25000000       0.037
  -0.08333333  0.08333333  0.25000000       0.019
   0.25000000  0.25000000  0.25000000       0.019
   0.41666667  0.25000000  0.25000000       0.037
  -0.41666667  0.25000000  0.25000000       0.037
  -0.25000000  0.25000000  0.25000000       0.019
   0.41666667  0.41666667  0.25000000       0.019
  -0.41666667  0.41666667  0.25000000       0.019
   0.08333333  0.08333333  0.41666667       0.019
   0.25000000  0.08333333  0.41666667       0.037
   0.41666667  0.08333333  0.41666667       0.037
  -0.41666667  0.08333333  0.41666667       0.037
  -0.25000000  0.08333333  0.41666667       0.037
  -0.08333333  0.08333333  0.41666667       0.019
   0.25000000  0.25000000  0.41666667       0.019
   0.41666667  0.25000000  0.41666667       0.037
  -0.41666667  0.25000000  0.41666667       0.037
  -0.25000000  0.25000000  0.41666667       0.019
   0.41666667  0.41666667  0.41666667       0.019
  -0.41666667  0.41666667  0.41666667       0.019
 
 position of ions in fractional coordinates (direct lattice) 
   0.00000000  0.00000000  0.00000000
   0.33333333  0.66666667  0.50000000
 
 position of ions in cartesian coordinates  (Angst):
   0.00000000  0.00000000  0.00000000
  -0.00000000  1.46646968  2.07389730
 


--------------------------------------------------------------------------------------------------------


 k-point  1 :   0.0833 0.0833 0.0833  plane waves:     517
 k-point  2 :   0.2500 0.0833 0.0833  plane waves:     503
 k-point  3 :   0.4167 0.0833 0.0833  plane waves:     498
 k-point  4 :  -0.4167 0.0833 0.0833  plane waves:     502
 k-point  5 :  -0.2500 0.0833 0.0833  plane waves:     505
 k-point  6 :  -0.0833 0.0833 0.0833  plane waves:     521
 k-point  7 :   0.2500 0.2500 0.0833  plane waves:     500
 k-point  8 :   0.4167 0.2500 0.0833  plane waves:     497
 k-point  9 :  -0.4167 0.2500 0.0833  plane waves:     500
 k-point 10 :  -0.2500 0.2500 0.0833  plane waves:     500
 k-point 11 :   0.4167 0.4167 0.0833  plane waves:     501
 k-point 12 :  -0.4167 0.4167 0.0833  plane waves:     494
 k-point 13 :   0.0833 0.0833 0.2500  plane waves:     511
 k-point 14 :   0.2500 0.0833 0.2500  plane waves:     502
 k-point 15 :   0.4167 0.0833 0.2500  plane waves:     498
 k-point 16 :  -0.4167 0.0833 0.2500  plane waves:     498
 k-point 17 :  -0.2500 0.0833 0.2500  plane waves:     506
 k-point 18 :  -0.0833 0.0833 0.2500  plane waves:     513
 k-point 19 :   0.2500 0.2500 0.2500  plane waves:     500
 k-point 20 :   0.4167 0.2500 0.2500  plane waves:     500
 k-point 21 :  -0.4167 0.2500 0.2500  plane waves:     498
 k-point 22 :  -0.2500 0.2500 0.2500  plane waves:     504
 k-point 23 :   0.4167 0.4167 0.2500  plane waves:     497
 k-point 24 :  -0.4167 0.4167 0.2500  plane waves:     503
 k-point 25 :   0.0833 0.0833 0.4167  plane waves:     506
 k-point 26 :   0.2500 0.0833 0.4167  plane waves:     507
 k-point 27 :   0.4167 0.0833 0.4167  plane waves:     499
 k-point 28 :  -0.4167 0.0833 0.4167  plane waves:     502
 k-point 29 :  -0.2500 0.0833 0.4167  plane waves:     502
 k-point 30 :  -0.0833 0.0833 0.4167  plane waves:     508
 k-point 31 :   0.2500 0.2500 0.4167  plane waves:     504
 k-point 32 :   0.4167 0.2500 0.4167  plane waves:     505
 k-point 33 :  -0.4167 0.2500 0.4167  plane waves:     505
 k-point 34 :  -0.2500 0.2500 0.4167  plane waves:     508
 k-point 35 :   0.4167 0.4167 0.4167  plane waves:     499
 k-point 36 :  -0.4167 0.4167 0.4167  plane waves:     498

 maximum and minimum number of plane-waves per node :       521      494

 maximum number of plane-waves:       521
 maximum index in each direction: 
   IXMAX=    4   IYMAX=    4   IZMAX=    7
   IXMIN=   -4   IYMIN=   -4   IZMIN=   -7

 NGX is ok and might be reduce to  18
 NGY is ok and might be reduce to  18
 NGZ is ok and might be reduce to  30

 serial   3D FFT for wavefunctions
 parallel 3D FFT for charge:
    minimum data exchange during FFTs selected (reduces bandwidth)


 total amount of memory used by VASP on root node    33913. kBytes
========================================================================

   base      :      30000. kBytes
   nonl-proj :       1224. kBytes
   fftplans  :        714. kBytes
   grid      :       1347. kBytes
   one-center:          6. kBytes
   wavefun   :        622. kBytes
 
     INWAV:  cpu time    0.0000: real time    0.0000
 Broyden mixing: mesh for mixing (old mesh)
   NGX =  9   NGY =  9   NGZ = 15
  (NGX  = 36   NGY  = 36   NGZ  = 60)
  gives a total of   1215 points

 initial charge density was supplied:
 charge density of overlapping atoms calculated
 number of electron       8.0000000 magnetization 
 keeping initial charge density in first step


--------------------------------------------------------------------------------------------------------


 Maximum index for augmentation-charges         3385 (set IRDMAX)


--------------------------------------------------------------------------------------------------------


 First call to EWALD:  gamma=   0.622
 Maximum number of real-space cells 3x 3x 2
 Maximum number of reciprocal cells 3x 3x 4

 FEWALD executed in parallel
    FEWALD:  cpu time    0.0020: real time    0.0010


----------------------------------------- Iteration    1(   1)  ---------------------------------------


    POTLOK:  cpu time    0.0320: real time    0.0209
    SETDIJ:  cpu time    0.0040: real time    0.0019
     EDDAV:  cpu time    1.4158: real time    0.8516
       DOS:  cpu time    0.0020: real time    0.0010
    --------------------------------------------
      LOOP:  cpu time    1.4578: real time    0.8773

 eigenvalue-minimisations  :   584
 total energy-change (2. order) : 0.3505723E+01  (-0.3393287E+03)
 number of electron       8.0000000 magnetization 
 augmentation part        8.0000000 magnetization 

 Free energy of the ion-electron system (eV)
  ---------------------------------------------------
  alpha Z        PSCENC =         5.81030846
  Ewald energy   TEWEN  =      -294.06050558
  -Hartree energ DENC   =        -0.53735344
  -exchange      EXHF   =         0.00000000
  -V(xc)+E(xc)   XCENC  =       -16.35970944
  PAW double counting   =       176.24759923     -141.06103558
  entropy T*S    EENTRO =        -0.00594487
  eigenvalues    EBANDS =        67.34043680
  atomic energy  EATOM  =       206.13192747
  Solvation  Ediel_sol  =         0.00000000
  ---------------------------------------------------
  free energy    TOTEN  =         3.50572306 eV

  energy without entropy =        3.51166793  energy(sigma->0) =        3.50869549


--------------------------------------------------------------------------------------------------------




----------------------------------------- Iteration    1(   2)  ---------------------------------------


     EDDAV:  cpu time    2.2507: real time    1.4170
       DOS:  cpu time    0.0020: real time    0.0009
    --------------------------------------------
      LOOP:  cpu time    2.2557: real time    1.4206

 eigenvalue-minimisations  :   856
 total energy-change (2. order) :-0.1281714E+02  (-0.1226978E+02)
 number of electron       8.0000000 magnetization 
 augmentation part        8.0000000 magnetization 

 Free energy of the ion-electron system (eV)
  ---------------------------------------------------
  alpha Z        PSCENC =         5.81030846
  Ewald energy   TEWEN  =      -294.06050558
  -Hartree energ DENC   =        -0.53735344
  -exchange      EXHF   =         0.00000000
  -V(xc)+E(xc)   XCENC  =       -16.35970944
  PAW double counting   =       176.24759923     -141.06103558
  entropy T*S    EENTRO =        -0.00177094
  eigenvalues    EBANDS =        54.51911943
  atomic energy  EATOM  =       206.13192747
  Solvation  Ediel_sol  =         0.00000000
  ---------------------------------------------------
  free energy    TOTEN  =        -9.31142038 eV

  energy without entropy =       -9.30964945  energy(sigma->0) =       -9.31053491


--------------------------------------------------------------------------------------------------------




----------------------------------------- Iteration    1(   3)  ---------------------------------------


     EDDAV:  cpu time    1.4878: real time    0.9456
       DOS:  cpu time    0.0020: real time    0.0010
    --------------------------------------------
      LOOP:  cpu time    1.4938: real time    0.9488

 eigenvalue-minimisations  :   728
 total energy-change (2. order) :-0.1720266E+00  (-0.1716313E+00)
 number of electron       8.0000000 magnetization 
 augmentation part        8.0000000 magnetization 

 Free energy of the ion-electron system (eV)
  ---------------------------------------------------
  alpha Z        PSCENC =         5.81030846
  Ewald energy   TEWEN  =      -294.06050558
  -Hartree energ DENC   =        -0.53735344
  -exchange      EXHF   =         0.00000000
  -V(xc)+E(xc)   XCENC  =       -16.35970944
  PAW double counting   =       176.24759923     -141.06103558
  entropy T*S    EENTRO =        -0.00316628
  eigenvalues    EBANDS =        54.34848816
  atomic energy  EATOM  =       206.13192747
  Solvation  Ediel_sol  =         0.00000000
  ---------------------------------------------------
  free energy    TOTEN  =        -9.48344700 eV

  energy without entropy =       -9.48028072  energy(sigma->0) =       -9.48186386


--------------------------------------------------------------------------------------------------------




----------------------------------------- Iteration    1(   4)  ---------------------------------------


     EDDAV:  cpu time    2.0117: real time    1.2093
       DOS:  cpu time    0.0030: real time    0.0012
    --------------------------------------------
      LOOP:  cpu time    2.0177: real time    1.2130

 eigenvalue-minimisations  :   856
 total energy-change (2. order) :-0.3440276E-03  (-0.3440143E-03)
 number of electron       8.0000000 magnetization 
 augmentation part        8.0000000 magnetization 

 Free energy of the ion-electron system (eV)
  ---------------------------------------------------
  alpha Z        PSCENC =         5.81030846
  Ewald energy   TEWEN  =      -294.06050558
  -Hartree energ DENC   =        -0.53735344
  -exchange      EXHF   =         0.00000000
  -V(xc)+E(xc)   XCENC  =       -16.35970944
  PAW double counting   =       176.24759923     -141.06103558
  entropy T*S    EENTRO =        -0.00317347
  eigenvalues    EBANDS =        54.34815131
  atomic energy  EATOM  =       206.13192747
  Solvation  Ediel_sol  =         0.00000000
  ---------------------------------------------------
  free energy    TOTEN  =        -9.48379103 eV

  energy without entropy =       -9.48061757  energy(sigma->0) =       -9.48220430


--------------------------------------------------------------------------------------------------------




----------------------------------------- Iteration    1(   5)  ---------------------------------------


     EDDAV:  cpu time    1.7027: real time    1.0237
       DOS:  cpu time    0.0010: real time    0.0009
    CHARGE:  cpu time    0.0160: real time    0.0080
    MIXING:  cpu time    0.0080: real time    0.0056
    --------------------------------------------
      LOOP:  cpu time    1.7297: real time    1.0408

 eigenvalue-minimisations  :   768
 total energy-change (2. order) :-0.2234347E-06  (-0.2250851E-06)
 number of electron       7.9999999 magnetization 
 augmentation part       -0.4651127 magnetization 

 Broyden mixing:
  rms(total) = 0.57695E+00    rms(broyden)= 0.57695E+00
  rms(prec ) = 0.62922E+00
  weight for this iteration     100.00

 Free energy of the ion-electron system (eV)
  ---------------------------------------------------
  alpha Z        PSCENC =         5.81030846
  Ewald energy   TEWEN  =      -294.06050558
  -Hartree energ DENC   =        -0.53735344
  -exchange      EXHF   =         0.00000000
  -V(xc)+E(xc)   XCENC  =       -16.35970944
  PAW double counting   =       176.24759923     -141.06103558
  entropy T*S    EENTRO =        -0.00317347
  eigenvalues    EBANDS =        54.34815110
  atomic energy  EATOM  =       206.13192747
  Solvation  Ediel_sol  =         0.00000000
  ---------------------------------------------------
  free energy    TOTEN  =        -9.48379125 eV

  energy without entropy =       -9.48061778  energy(sigma->0) =       -9.48220452


--------------------------------------------------------------------------------------------------------




----------------------------------------- Iteration    1(   6)  ---------------------------------------


    POTLOK:  cpu time    0.0300: real time    0.0172
    SETDIJ:  cpu time    0.0050: real time    0.0028
     EDDAV:  cpu time    1.7487: real time    1.0530
       DOS:  cpu time    0.0010: real time    0.0008
    CHARGE:  cpu time    0.0370: real time    0.0207
    MIXING:  cpu time    0.0010: real time    0.0007
    --------------------------------------------
      LOOP:  cpu time    1.8257: real time    1.0972

 eigenvalue-minimisations  :   680
 total energy-change (2. order) : 0.3704093E-01  (-0.6849022E-03)
 number of electron       7.9999999 magnetization 
 augmentation part       -0.4688752 magnetization 

 Broyden mixing:
  rms(total) = 0.32208E+00    rms(broyden)= 0.32208E+00
  rms(prec ) = 0.35599E+00
  weight for this iteration     100.00

 eigenvalues of (default mixing * dielectric matrix)
  average eigenvalue GAMMA=   2.2564
  2.2564

 Free energy of the ion-electron system (eV)
  ---------------------------------------------------
  alpha Z        PSCENC =         5.81030846
  Ewald energy   TEWEN  =      -294.06050558
  -Hartree energ DENC   =        -0.49881891
  -exchange      EXHF   =         0.00000000
  -V(xc)+E(xc)   XCENC  =       -16.26828248
  PAW double counting   =       457.85737216     -422.71530974
  entropy T*S    EENTRO =        -0.00305819
  eigenvalues    EBANDS =        54.29961649
  atomic energy  EATOM  =       206.13192747
  Solvation  Ediel_sol  =         0.00000000
  ---------------------------------------------------
  free energy    TOTEN  =        -9.44675032 eV

  energy without entropy =       -9.44369213  energy(sigma->0) =       -9.44522123


--------------------------------------------------------------------------------------------------------




----------------------------------------- Iteration    1(   7)  ---------------------------------------


    POTLOK:  cpu time    0.0560: real time    0.0335
    SETDIJ:  cpu time    0.0040: real time    0.0018
     EDDAV:  cpu time    1.3668: real time    0.8208
       DOS:  cpu time    0.0020: real time    0.0009
    CHARGE:  cpu time    0.0240: real time    0.0156
    MIXING:  cpu time    0.0010: real time    0.0009
    --------------------------------------------
      LOOP:  cpu time    1.4578: real time    0.8773

 eigenvalue-minimisations  :   760
 total energy-change (2. order) : 0.2212705E-01  (-0.1399700E-02)
 number of electron       7.9999999 magnetization 
 augmentation part       -0.4743723 magnetization 

 Broyden mixing:
  rms(total) = 0.18807E-01    rms(broyden)= 0.18807E-01
  rms(prec ) = 0.23668E-01
  weight for this iteration     100.00

 eigenvalues of (default mixing * dielectric matrix)
  average eigenvalue GAMMA=   2.4943
  2.4943  2.4943

 Free energy of the ion-electron system (eV)
  ---------------------------------------------------
  alpha Z        PSCENC =         5.81030846
  Ewald energy   TEWEN  =      -294.06050558
  -Hartree energ DENC   =        -0.50761481
  -exchange      EXHF   =         0.00000000
  -V(xc)+E(xc)   XCENC  =       -16.12842133
  PAW double counting   =      1055.46662071    -1020.39419125
  entropy T*S    EENTRO =        -0.00290944
  eigenvalues    EBANDS =        54.26016250
  atomic energy  EATOM  =       206.13192747
  Solvation  Ediel_sol  =         0.00000000
  ---------------------------------------------------
  free energy    TOTEN  =        -9.42462327 eV

  energy without entropy =       -9.42171383  energy(sigma->0) =       -9.42316855


--------------------------------------------------------------------------------------------------------




----------------------------------------- Iteration    1(   8)  ---------------------------------------


    POTLOK:  cpu time    0.0350: real time    0.0209
    SETDIJ:  cpu time    0.0100: real time    0.0052
     EDDAV:  cpu time    2.1057: real time    1.3034
       DOS:  cpu time    0.0020: real time    0.0008
    CHARGE:  cpu time    0.0260: real time    0.0171
    MIXING:  cpu time    0.0020: real time    0.0008
    --------------------------------------------
      LOOP:  cpu time    2.1857: real time    1.3510

 eigenvalue-minimisations  :   880
 total energy-change (2. order) : 0.2136986E-03  (-0.1183858E-04)
 number of electron       7.9999999 magnetization 
 augmentation part       -0.4747492 magnetization 

 Broyden mixing:
  rms(total) = 0.20677E-02    rms(broyden)= 0.20677E-02
  rms(prec ) = 0.29665E-02
  weight for this iteration     100.00

 eigenvalues of (default mixing * dielectric matrix)
  average eigenvalue GAMMA=   2.0211
  0.9602  2.6889  2.4141

 Free energy of the ion-electron system (eV)
  ---------------------------------------------------
  alpha Z        PSCENC =         5.81030846
  Ewald energy   TEWEN  =      -294.06050558
  -Hartree energ DENC   =        -0.51806704
  -exchange      EXHF   =         0.00000000
  -V(xc)+E(xc)   XCENC  =       -16.11098695
  PAW double counting   =      1026.82253288     -991.76671803
  entropy T*S    EENTRO =        -0.00290049
  eigenvalues    EBANDS =        54.26999969
  atomic energy  EATOM  =       206.13192747
  Solvation  Ediel_sol  =         0.00000000
  ---------------------------------------------------
  free energy    TOTEN  =        -9.42440958 eV

  energy without entropy =       -9.42150908  energy(sigma->0) =       -9.42295933


--------------------------------------------------------------------------------------------------------




----------------------------------------- Iteration    1(   9)  ---------------------------------------


    POTLOK:  cpu time    0.0350: real time    0.0206
    SETDIJ:  cpu time    0.0090: real time    0.0046
     EDDAV:  cpu time    1.1738: real time    0.7344
       DOS:  cpu time    0.0020: real time    0.0008
    --------------------------------------------
      LOOP:  cpu time    1.2238: real time    0.7627

 eigenvalue-minimisations  :   536
 total energy-change (2. order) : 0.1411470E-05  (-0.2829137E-06)
 number of electron       7.9999999 magnetization 
 augmentation part       -0.4747492 magnetization 

 Free energy of the ion-electron system (eV)
  ---------------------------------------------------
  alpha Z        PSCENC =         5.81030846
  Ewald energy   TEWEN  =      -294.06050558
  -Hartree energ DENC   =        -0.51957393
  -exchange      EXHF   =         0.00000000
  -V(xc)+E(xc)   XCENC  =       -16.10820088
  PAW double counting   =      1027.84196566     -992.78808151
  entropy T*S    EENTRO =        -0.00289853
  eigenvalues    EBANDS =        54.27065067
  atomic energy  EATOM  =       206.13192747
  Solvation  Ediel_sol  =         0.00000000
  ---------------------------------------------------
  free energy    TOTEN  =        -9.42440816 eV

  energy without entropy =       -9.42150963  energy(sigma->0) =       -9.42295890


--------------------------------------------------------------------------------------------------------




 average (electrostatic) potential at core
  the test charge radii are     0.9892
  (the norm of the test charge is              1.0000)
       1 -76.6559       2 -76.6559
 
 
 
 E-fermi :  13.3559     XC(G=0): -12.1157     alpha+bet :-20.6988


 k-point     1 :       0.0833    0.0833    0.0833
  band No.  band energies     occupation 
      1      -2.6171      2.00000
      2       4.2710      2.00000
      3       6.9632      2.00000
      4      18.5942      0.00000
      5      18.7377      0.00000
      6      24.4895      0.00000
      7      24.6564      0.00000
      8      24.8684      0.00000

 k-point     2 :       0.2500    0.0833    0.0833
  band No.  band energies     occupation 
      1      -0.5511      2.00000
      2       6.2397      2.00000
      3       8.8502      2.00000
      4      11.6204      2.00000
      5      16.0069      0.00000
      6      18.0729      0.00000
      7      20.3583      0.00000
      8      22.6306      0.00000

 k-point     3 :       0.4167    0.0833    0.0833
  band No.  band energies     occupation 
      1       3.0961      2.00000
      2       5.5003      2.00000
      3       9.8123      2.00000
      4      11.8038      2.00000
      5      12.8350      2.00000
      6      14.5470      0.00000
      7      15.5526      0.00000
      8      21.4733      0.00000

 k-point     4 :      -0.4167    0.0833    0.0833
  band No.  band energies     occupation 
      1       1.0833      2.00000
      2       7.5737      2.00000
      3       8.5142      2.00000
      4      10.5860      2.00000
      5      14.6873      0.00000
      6      15.6317      0.00000
      7      17.5827      0.00000
      8      21.8512      0.00000

 k-point     5 :      -0.2500    0.0833    0.0833
  band No.  band energies     occupation 
      1      -1.7877      2.00000
      2       5.0652      2.00000
      3       7.7390      2.00000
      4      14.9939      0.00000
      5      17.1835      0.00000
      6      21.2752      0.00000
      7      23.0059      0.00000
      8      24.0433      0.00000

 k-point     6 :      -0.0833    0.0833    0.0833
  band No.  band energies     occupation 
      1      -3.0333      2.00000
      2       3.8716      2.00000
      3       6.5710      2.00000
      4      20.4364      0.00000
      5      21.7812      0.00000
      6      23.5612      0.00000
      7      25.5963      0.00000
      8      26.1817      0.00000

 k-point     7 :       0.2500    0.2500    0.0833
  band No.  band energies     occupation 
      1       2.2989      2.00000
      2       8.5353      2.00000
      3       9.6249      2.00000
      4       9.7106      2.00000
      5      11.8353      2.00000
      6      15.7958      0.00000
      7      16.4646      0.00000
      8      18.8087      0.00000

 k-point     8 :       0.4167    0.2500    0.0833
  band No.  band energies     occupation 
      1       4.2961      2.00000
      2       6.6696      2.00000
      3       8.9884      2.00000
      4      11.0770      2.00000
      5      12.9065      2.00000
      6      14.0696      0.00000
      7      15.5325      0.00000
      8      16.8979      0.00000

 k-point     9 :      -0.4167    0.2500    0.0833
  band No.  band energies     occupation 
      1       0.6766      2.00000
      2       7.3782      2.00000
      3       9.6963      2.00000
      4      10.7352      2.00000
      5      12.7248      2.00000
      6      16.9031      0.00000
      7      18.7080      0.00000
      8      20.1160      0.00000

 k-point    10 :      -0.2500    0.2500    0.0833
  band No.  band energies     occupation 
      1      -1.3745      2.00000
      2       5.4591      2.00000
      3       8.1183      2.00000
      4      13.1143      1.99937
      5      18.9491      0.00000
      6      19.3283      0.00000
      7      21.0591      0.00000
      8      22.1217      0.00000

 k-point    11 :       0.4167    0.4167    0.0833
  band No.  band energies     occupation 
      1       4.5316      2.00000
      2       4.8779      2.00000
      3      10.8947      2.00000
      4      11.5216      2.00000
      5      11.9067      2.00000
      6      14.1478      0.00000
      7      14.5557      0.00000
      8      18.7342      0.00000

 k-point    12 :      -0.4167    0.4167    0.0833
  band No.  band energies     occupation 
      1       1.8930      2.00000
      2       6.6251      2.00000
      3       8.7217      2.00000
      4      11.2414      2.00000
      5      13.5150      0.02446
      6      15.9377      0.00000
      7      17.5291      0.00000
      8      19.9192      0.00000

 k-point    13 :       0.0833    0.0833    0.2500
  band No.  band energies     occupation 
      1      -2.1496      2.00000
      2       2.0043      2.00000
      3      10.0439      2.00000
      4      18.9944      0.00000
      5      19.0096      0.00000
      6      21.5577      0.00000
      7      22.6986      0.00000
      8      23.0707      0.00000

 k-point    14 :       0.2500    0.0833    0.2500
  band No.  band energies     occupation 
      1      -0.0890      2.00000
      2       4.0123      2.00000
      3      11.4622      2.00000
      4      12.4131      2.00000
      5      15.6944      0.00000
      6      16.7585      0.00000
      7      20.2914      0.00000
      8      22.6905      0.00000

 k-point    15 :       0.4167    0.0833    0.2500
  band No.  band energies     occupation 
      1       3.5456      2.00000
      2       5.8901      2.00000
      3       7.7182      2.00000
      4       9.9926      2.00000
      5      14.9604      0.00000
      6      15.9369      0.00000
      7      17.7284      0.00000
      8      19.6341      0.00000

 k-point    16 :      -0.4167    0.0833    0.2500
  band No.  band energies     occupation 
      1       1.5408      2.00000
      2       5.5753      2.00000
      3       8.8049      2.00000
      4      12.4668      2.00000
      5      13.7888      0.00000
      6      15.9122      0.00000
      7      19.3505      0.00000
      8      20.7996      0.00000

 k-point    17 :      -0.2500    0.0833    0.2500
  band No.  band energies     occupation 
      1      -1.3224      2.00000
      2       2.8117      2.00000
      3      10.7829      2.00000
      4      15.4073      0.00000
      5      17.5332      0.00000
      6      19.2879      0.00000
      7      21.3939      0.00000
      8      22.2817      0.00000

 k-point    18 :      -0.0833    0.0833    0.2500
  band No.  band energies     occupation 
      1      -2.5648      2.00000
      2       1.5989      2.00000
      3       9.6645      2.00000
      4      20.4760      0.00000
      5      21.3480      0.00000
      6      22.1751      0.00000
      7      24.2215      0.00000
      8      24.9324      0.00000

 k-point    19 :       0.2500    0.2500    0.2500
  band No.  band energies     occupation 
      1       2.7524      2.00000
      2       6.7212      2.00000
      3       9.8817      2.00000
      4      10.0445      2.00000
      5      13.4834      0.07148
      6      13.8344      0.00000
      7      15.6529      0.00000
      8      21.3871      0.00000

 k-point    20 :       0.4167    0.2500    0.2500
  band No.  band energies     occupation 
      1       4.7395      2.00000
      2       7.0407      2.00000
      3       8.7212      2.00000
      4       9.7013      2.00000
      5      11.2767      2.00000
      6      13.4386      0.24270
      7      17.0681      0.00000
      8      19.2459      0.00000

 k-point    21 :      -0.4167    0.2500    0.2500
  band No.  band energies     occupation 
      1       1.1354      2.00000
      2       5.1967      2.00000
      3      10.6785      2.00000
      4      12.7146      2.00000
      5      13.2837      1.69307
      6      15.0783      0.00000
      7      17.1781      0.00000
      8      22.2738      0.00000

 k-point    22 :      -0.2500    0.2500    0.2500
  band No.  band energies     occupation 
      1      -0.9102      2.00000
      2       3.2133      2.00000
      3      11.1159      2.00000
      4      13.5723      0.00221
      5      17.3564      0.00000
      6      19.3486      0.00000
      7      21.1238      0.00000
      8      22.9408      0.00000

 k-point    23 :       0.4167    0.4167    0.2500
  band No.  band energies     occupation 
      1       4.9722      2.00000
      2       5.3080      2.00000
      3       9.0192      2.00000
      4       9.3955      2.00000
      5      12.3495      2.00000
      6      15.7124      0.00000
      7      17.1895      0.00000
      8      18.0156      0.00000

 k-point    24 :      -0.4167    0.4167    0.2500
  band No.  band energies     occupation 
      1       2.3477      2.00000
      2       6.2317      2.00000
      3       7.3824      2.00000
      4      11.1148      2.00000
      5      14.4502      0.00000
      6      17.9293      0.00000
      7      18.6510      0.00000
      8      20.3519      0.00000

 k-point    25 :       0.0833    0.0833    0.4167
  band No.  band energies     occupation 
      1      -1.2183      2.00000
      2       0.1698      2.00000
      3      13.4867      0.06445
      4      17.1682      0.00000
      5      19.7632      0.00000
      6      20.1585      0.00000
      7      21.2090      0.00000
      8      21.5223      0.00000

 k-point    26 :       0.2500    0.0833    0.4167
  band No.  band energies     occupation 
      1       0.8315      2.00000
      2       2.2027      2.00000
      3      12.6971      2.00000
      4      13.8753      0.00000
      5      15.5817      0.00000
      6      17.3054      0.00000
      7      18.7219      0.00000
      8      19.6952      0.00000

 k-point    27 :       0.4167    0.0833    0.4167
  band No.  band energies     occupation 
      1       4.4332      2.00000
      2       5.6784      2.00000
      3       7.0496      2.00000
      4       8.2743      2.00000
      5      16.1274      0.00000
      6      17.2400      0.00000
      7      19.2107      0.00000
      8      21.1181      0.00000

 k-point    28 :      -0.4167    0.0833    0.4167
  band No.  band energies     occupation 
      1       2.4512      2.00000
      2       3.8044      2.00000
      3       9.6679      2.00000
      4      10.9555      2.00000
      5      16.2707      0.00000
      6      17.0155      0.00000
      7      18.2856      0.00000
      8      20.8106      0.00000

 k-point    29 :      -0.2500    0.0833    0.4167
  band No.  band energies     occupation 
      1      -0.3953      2.00000
      2       0.9863      2.00000
      3      14.1167      0.00000
      4      16.1316      0.00000
      5      17.4426      0.00000
      6      17.7940      0.00000
      7      19.2334      0.00000
      8      19.9800      0.00000

 k-point    30 :      -0.0833    0.0833    0.4167
  band No.  band energies     occupation 
      1      -1.6313      2.00000
      2      -0.2401      2.00000
      3      13.1326      1.99841
      4      16.9154      0.00000
      5      21.7307      0.00000
      6      22.8844      0.00000
      7      22.9622      0.00000
      8      24.1391      0.00000

 k-point    31 :       0.2500    0.2500    0.4167
  band No.  band energies     occupation 
      1       3.6541      2.00000
      2       4.9902      2.00000
      3      10.6690      2.00000
      4      10.8157      2.00000
      5      12.2206      2.00000
      6      12.3157      2.00000
      7      18.4954      0.00000
      8      21.8770      0.00000

 k-point    32 :       0.4167    0.2500    0.4167
  band No.  band energies     occupation 
      1       5.6117      2.00000
      2       6.8135      2.00000
      3       8.2279      2.00000
      4       9.3420      2.00000
      5      10.6557      2.00000
      6      11.8356      2.00000
      7      20.2298      0.00000
      8      22.1333      0.00000

 k-point    33 :      -0.4167    0.2500    0.4167
  band No.  band energies     occupation 
      1       2.0487      2.00000
      2       3.4078      2.00000
      3      11.5675      2.00000
      4      12.7598      2.00000
      5      13.9680      0.00000
      6      15.0524      0.00000
      7      17.2688      0.00000
      8      20.6195      0.00000

 k-point    34 :      -0.2500    0.2500    0.4167
  band No.  band energies     occupation 
      1       0.0147      2.00000
      2       1.3929      2.00000
      3      13.9494      0.00000
      4      14.6988      0.00000
      5      15.9295      0.00000
      6      18.4915      0.00000
      7      20.1482      0.00000
      8      21.3474      0.00000

 k-point    35 :       0.4167    0.4167    0.4167
  band No.  band energies     occupation 
      1       5.8090      2.00000
      2       6.0881      2.00000
      3       7.4164      2.00000
      4       7.6989      2.00000
      5      13.2042      1.96807
      6      14.4435      0.00000
      7      20.3362      0.00000
      8      20.8293      0.00000

 k-point    36 :      -0.4167    0.4167    0.4167
  band No.  band energies     occupation 
      1       3.2514      2.00000
      2       4.5866      2.00000
      3       8.1289      2.00000
      4       9.4248      2.00000
      5      17.6391      0.00000
      6      18.7306      0.00000
      7      19.9339      0.00000
      8      20.1661      0.00000


--------------------------------------------------------------------------------------------------------


 soft charge-density along one line, spin component           1
         0         1         2         3         4         5         6         7         8         9
 total charge-density along one line
 
 pseudopotential strength for first ion, spin component:           1
 17.610  24.565   0.000   0.000  -0.000   0.000   0.000  -0.000
 24.565  34.270   0.000   0.000  -0.000   0.000   0.000  -0.000
  0.000   0.000   4.050  -0.000   0.000   7.542  -0.000   0.000
  0.000   0.000  -0.000   4.050   0.000  -0.000   7.542   0.000
 -0.000  -0.000   0.000   0.000   4.050   0.000   0.000   7.542
  0.000   0.000   7.542  -0.000   0.000  14.054  -0.000   0.000
  0.000   0.000  -0.000   7.542   0.000  -0.000  14.055   0.000
 -0.000  -0.000   0.000   0.000   7.542   0.000   0.000  14.054
 total augmentation occupancy for first ion, spin component:           1
  6.979  -3.244   0.000   0.000   0.000   0.000   0.000   0.000
 -3.244   1.895   0.000   0.000   0.000   0.000   0.000   0.000
 -0.000   0.000   3.232   0.000   0.000  -0.851   0.000   0.000
  0.000   0.000   0.000   3.232   0.000   0.000  -0.852  -0.000
  0.000   0.000   0.000   0.000   3.232   0.000   0.000  -0.851
  0.000  -0.000  -0.851   0.000  -0.000   0.243  -0.000   0.000
  0.000   0.000  -0.000  -0.852  -0.000   0.000   0.243  -0.000
  0.000   0.000   0.000   0.000  -0.851   0.000   0.000   0.243


------------------------ aborting loop because EDIFF is reached ----------------------------------------


    CHARGE:  cpu time    0.0330: real time    0.0212
    FORLOC:  cpu time    0.0010: real time    0.0005
    FORNL :  cpu time    0.0400: real time    0.0286
    STRESS:  cpu time    0.2370: real time    0.1477
    FORCOR:  cpu time    0.0350: real time    0.0211
    FORHAR:  cpu time    0.0060: real time    0.0030
    MIXING:  cpu time    0.0010: real time    0.0009
    OFIELD:  cpu time    0.0000: real time    0.0000

  FORCE on cell =-STRESS in cart. coord.  units (eV):
  Direction    XX          YY          ZZ          XY          YZ          ZX
  --------------------------------------------------------------------------------------
  Alpha Z     5.81031     5.81031     5.81031
  Ewald     -98.08732   -98.08732   -97.88608    -0.00000    -0.00000     0.00000
  Hartree     0.16818     0.16818     0.18319    -0.00000    -0.00000    -0.00000
  E(xc)     -26.99452   -26.99453   -27.02264    -0.00000     0.00000     0.00000
  Local      -6.50457    -6.50458    -6.80670    -0.00001    -0.00000    -0.00000
  n-local    74.81568    79.79599    77.97041    -1.46945     0.21909    -0.85160
  augment   -12.03478   -12.03478   -12.02850     0.00001     0.00000     0.00000
  Kinetic    82.05086    47.88606    63.87910    11.43090     0.07274     0.17496
  Fock        0.00000     0.00000     0.00000     0.00000     0.00000     0.00000
  -------------------------------------------------------------------------------------
  Total       4.63158     4.63158     4.09909    -0.00000     0.00000     0.00000
  in kB     320.20242   320.20242   283.38911    -0.00000     0.00000     0.00000
  external pressure =      307.93 kB  Pullay stress =        0.00 kB


 VOLUME and BASIS-vectors are now :
 -----------------------------------------------------------------------------
  energy-cutoff  :      450.00
  volume of cell :       23.17
      direct lattice vectors                 reciprocal lattice vectors
     2.540000000  0.000000000  0.000000000     0.393700787  0.227303256  0.000000000
    -1.270000000  2.199704526  0.000000000     0.000000000  0.454606511  0.000000000
     0.000000000  0.000000000  4.147794600     0.000000000  0.000000000  0.241091977

  length of vectors
     2.540000000  2.540000000  4.147794600     0.454606511  0.454606511  0.241091977


 FORCES acting on ions
    electron-ion (+dipol)            ewald-force                    non-local-force                 convergence-correction
 -----------------------------------------------------------------------------------------------
   -.239E-08 0.138E-08 0.334E-14   -.110E-12 0.800E-13 -.479E-14   0.494E-16 -.173E-17 0.000E+00   0.507E-09 -.293E-09 0.280E-14
   0.239E-08 -.138E-08 -.232E-13   0.109E-12 -.798E-13 0.479E-14   -.685E-16 0.000E+00 0.000E+00   -.507E-09 0.293E-09 -.280E-14
 -----------------------------------------------------------------------------------------------
   -.897E-14 -.514E-14 -.199E-13   -.108E-14 0.249E-15 0.000E+00   -.191E-16 -.173E-17 0.000E+00   0.192E-16 -.552E-16 0.661E-17
 
 
 POSITION                                       TOTAL-FORCE (eV/Angst)
 -----------------------------------------------------------------------------------
      0.00000      0.00000      0.00000        -0.000000      0.000000      0.000000
     -0.00000      1.46647      2.07390         0.000000     -0.000000      0.000000
 -----------------------------------------------------------------------------------
    total drift:                               -0.000000     -0.000000     -0.000000


--------------------------------------------------------------------------------------------------------



  FREE ENERGIE OF THE ION-ELECTRON SYSTEM (eV)
  ---------------------------------------------------
  free  energy   TOTEN  =        -9.42440816 eV

  energy  without entropy=       -9.42150963  energy(sigma->0) =       -9.42295890
 


--------------------------------------------------------------------------------------------------------


    POTLOK:  cpu time    0.0540: real time    0.0345


--------------------------------------------------------------------------------------------------------




--------------------------------------------------------------------------------------------------------


    WAVPRE:  cpu time    0.0020: real time    0.0020
 FEWALD executed in parallel
    FEWALD:  cpu time    0.0000: real time    0.0001
    GENKIN:  cpu time    0.0070: real time    0.0072
    ORTHCH:  cpu time    0.1630: real time    0.1077
     LOOP+:  cpu time   16.3695: real time   10.1304


----------------------------------------- Iteration    2(   1)  ---------------------------------------


    POTLOK:  cpu time    0.0360: real time    0.0240
    SETDIJ:  cpu time    0.0040: real time    0.0022
     EDDAV:  cpu time    2.1977: real time    1.3673
       DOS:  cpu time    0.0020: real time    0.0011
    CHARGE:  cpu time    0.0280: real time    0.0192
    MIXING:  cpu time    0.0030: real time    0.0013
    --------------------------------------------
      LOOP:  cpu time    2.2717: real time    1.4165

 eigenvalue-minimisations  :   912
 total energy-change (2. order) :-0.2516172E-02  (-0.8828449E-02)
 number of electron       7.9999999 magnetization 
 augmentation part       -0.4751179 magnetization 

 Broyden mixing:
  rms(total) = 0.18567E-01    rms(broyden)= 0.18566E-01
  rms(prec ) = 0.43402E-01
  weight for this iteration     100.00

 Free energy of the ion-electron system (eV)
  ---------------------------------------------------
  alpha Z        PSCENC =         5.81030846
  Ewald energy   TEWEN  =      -294.05204848
  -Hartree energ DENC   =        -0.51963568
  -exchange      EXHF   =         0.00000000
  -V(xc)+E(xc)   XCENC  =       -16.10851293
  PAW double counting   =      1028.81869471     -993.76420051
  entropy T*S    EENTRO =        -0.00539268
  eigenvalues    EBANDS =        54.26193389
  atomic energy  EATOM  =       206.13192747
  Solvation  Ediel_sol  =         0.00000000
  ---------------------------------------------------
  free energy    TOTEN  =        -9.42692575 eV

  energy without entropy =       -9.42153307  energy(sigma->0) =       -9.42422941


--------------------------------------------------------------------------------------------------------




----------------------------------------- Iteration    2(   2)  ---------------------------------------


    POTLOK:  cpu time    0.0390: real time    0.0272
    SETDIJ:  cpu time    0.0040: real time    0.0019
     EDDAV:  cpu time    1.5798: real time    0.9790
       DOS:  cpu time    0.0010: real time    0.0010
    CHARGE:  cpu time    0.0130: real time    0.0096
    MIXING:  cpu time    0.0140: real time    0.0067
    --------------------------------------------
      LOOP:  cpu time    1.6557: real time    1.0278

 eigenvalue-minimisations  :   656
 total energy-change (2. order) : 0.7226617E-03  (-0.1393817E-03)
 number of electron       7.9999999 magnetization 
 augmentation part       -0.4751696 magnetization 

 Broyden mixing:
  rms(total) = 0.10087E-01    rms(broyden)= 0.10087E-01
  rms(prec ) = 0.24060E-01
  weight for this iteration     100.00

 eigenvalues of (default mixing * dielectric matrix)
  average eigenvalue GAMMA=   2.0265
  2.0265

 Free energy of the ion-electron system (eV)
  ---------------------------------------------------
  alpha Z        PSCENC =         5.81030846
  Ewald energy   TEWEN  =      -294.05204848
  -Hartree energ DENC   =        -0.52019297
  -exchange      EXHF   =         0.00000000
  -V(xc)+E(xc)   XCENC  =       -16.10854619
  PAW double counting   =      1028.76606472     -993.71163509
  entropy T*S    EENTRO =        -0.00538031
  eigenvalues    EBANDS =        54.26329931
  atomic energy  EATOM  =       206.13192747
  Solvation  Ediel_sol  =         0.00000000
  ---------------------------------------------------
  free energy    TOTEN  =        -9.42620309 eV

  energy without entropy =       -9.42082277  energy(sigma->0) =       -9.42351293


--------------------------------------------------------------------------------------------------------




----------------------------------------- Iteration    2(   3)  ---------------------------------------


    POTLOK:  cpu time    0.0300: real time    0.0185
    SETDIJ:  cpu time    0.0040: real time    0.0018
     EDDAV:  cpu time    2.3056: real time    1.4375
       DOS:  cpu time    0.0030: real time    0.0011
    CHARGE:  cpu time    0.0270: real time    0.0187
    MIXING:  cpu time    0.0020: real time    0.0008
    --------------------------------------------
      LOOP:  cpu time    2.3756: real time    1.4808

 eigenvalue-minimisations  :   864
 total energy-change (2. order) : 0.3482770E-03  (-0.8309486E-04)
 number of electron       7.9999999 magnetization 
 augmentation part       -0.4751411 magnetization 

 Broyden mixing:
  rms(total) = 0.76492E-03    rms(broyden)= 0.76491E-03
  rms(prec ) = 0.12060E-02
  weight for this iteration     100.00

 eigenvalues of (default mixing * dielectric matrix)
  average eigenvalue GAMMA=   1.6255
  1.0530  2.1980

 Free energy of the ion-electron system (eV)
  ---------------------------------------------------
  alpha Z        PSCENC =         5.81030846
  Ewald energy   TEWEN  =      -294.05204848
  -Hartree energ DENC   =        -0.52156906
  -exchange      EXHF   =         0.00000000
  -V(xc)+E(xc)   XCENC  =       -16.10860542
  PAW double counting   =      1028.05696938     -993.00283651
  entropy T*S    EENTRO =        -0.00536650
  eigenvalues    EBANDS =        54.26536585
  atomic energy  EATOM  =       206.13192747
  Solvation  Ediel_sol  =         0.00000000
  ---------------------------------------------------
  free energy    TOTEN  =        -9.42585481 eV

  energy without entropy =       -9.42048831  energy(sigma->0) =       -9.42317156


--------------------------------------------------------------------------------------------------------




----------------------------------------- Iteration    2(   4)  ---------------------------------------


    POTLOK:  cpu time    0.0440: real time    0.0268
    SETDIJ:  cpu time    0.0040: real time    0.0019
     EDDAV:  cpu time    1.2978: real time    0.8287
       DOS:  cpu time    0.0010: real time    0.0008
    --------------------------------------------
      LOOP:  cpu time    1.3518: real time    0.8609

 eigenvalue-minimisations  :   608
 total energy-change (2. order) :-0.2566674E-05  (-0.2444416E-05)
 number of electron       7.9999999 magnetization 
 augmentation part       -0.4751411 magnetization 

 Free energy of the ion-electron system (eV)
  ---------------------------------------------------
  alpha Z        PSCENC =         5.81030846
  Ewald energy   TEWEN  =      -294.05204848
  -Hartree energ DENC   =        -0.52136557
  -exchange      EXHF   =         0.00000000
  -V(xc)+E(xc)   XCENC  =       -16.10863968
  PAW double counting   =      1028.08435071     -993.03022183
  entropy T*S    EENTRO =        -0.00536671
  eigenvalues    EBANDS =        54.26519825
  atomic energy  EATOM  =       206.13192747
  Solvation  Ediel_sol  =         0.00000000
  ---------------------------------------------------
  free energy    TOTEN  =        -9.42585737 eV

  energy without entropy =       -9.42049067  energy(sigma->0) =       -9.42317402


--------------------------------------------------------------------------------------------------------




 average (electrostatic) potential at core
  the test charge radii are     0.9892
  (the norm of the test charge is              1.0000)
       1 -76.6559       2 -76.6559
 
 
 
 E-fermi :  13.3940     XC(G=0): -12.1157     alpha+bet :-20.6988


 k-point     1 :       0.0833    0.0833    0.0833
  band No.  band energies     occupation 
      1      -2.6222      2.00000
      2       4.3794      2.00000
      3       7.1278      2.00000
      4      18.3953      0.00000
      5      18.5761      0.00000
      6      24.4018      0.00000
      7      24.6365      0.00000
      8      24.8376      0.00000

 k-point     2 :       0.2500    0.0833    0.0833
  band No.  band energies     occupation 
      1      -0.5739      2.00000
      2       6.3282      2.00000
      3       8.9859      2.00000
      4      11.5104      2.00000
      5      15.8594      0.00000
      6      18.0448      0.00000
      7      20.3859      0.00000
      8      22.6070      0.00000

 k-point     3 :       0.4167    0.0833    0.0833
  band No.  band energies     occupation 
      1       3.0412      2.00000
      2       5.4337      2.00000
      3       9.8572      2.00000
      4      11.8788      2.00000
      5      12.9039      2.00000
      6      14.5411      0.00000
      7      15.5083      0.00000
      8      21.4415      0.00000

 k-point     4 :      -0.4167    0.0833    0.0833
  band No.  band energies     occupation 
      1       1.0465      2.00000
      2       7.6071      2.00000
      3       8.4653      2.00000
      4      10.7104      2.00000
      5      14.6557      0.00000
      6      15.5279      0.00000
      7      17.6397      0.00000
      8      21.8206      0.00000

 k-point     5 :      -0.2500    0.0833    0.0833
  band No.  band energies     occupation 
      1      -1.7999      2.00000
      2       5.1655      2.00000
      3       7.8956      2.00000
      4      14.8449      0.00000
      5      17.0180      0.00000
      6      21.2283      0.00000
      7      22.9757      0.00000
      8      24.0321      0.00000

 k-point     6 :      -0.0833    0.0833    0.0833
  band No.  band energies     occupation 
      1      -3.0348      2.00000
      2       3.9841      2.00000
      3       6.7392      2.00000
      4      20.2386      0.00000
      5      21.5567      0.00000
      6      23.4505      0.00000
      7      25.8661      0.00000
      8      25.9404      0.00000

 k-point     7 :       0.2500    0.2500    0.0833
  band No.  band energies     occupation 
      1       2.2519      2.00000
      2       8.5365      2.00000
      3       9.5421      2.00000
      4       9.6608      2.00000
      5      11.9460      2.00000
      6      15.7545      0.00000
      7      16.5161      0.00000
      8      18.8842      0.00000

 k-point     8 :       0.4167    0.2500    0.0833
  band No.  band energies     occupation 
      1       4.2312      2.00000
      2       6.5918      2.00000
      3       8.9058      2.00000
      4      11.1007      2.00000
      5      12.9763      2.00000
      6      14.1035      0.00000
      7      15.5971      0.00000
      8      16.9549      0.00000

 k-point     9 :      -0.4167    0.2500    0.0833
  band No.  band energies     occupation 
      1       0.6434      2.00000
      2       7.4539      2.00000
      3       9.7221      2.00000
      4      10.7273      2.00000
      5      12.6088      2.00000
      6      16.8825      0.00000
      7      18.7272      0.00000
      8      20.1489      0.00000

 k-point    10 :      -0.2500    0.2500    0.0833
  band No.  band energies     occupation 
      1      -1.3903      2.00000
      2       5.5555      2.00000
      3       8.2697      2.00000
      4      12.9833      2.00000
      5      18.7479      0.00000
      6      19.3024      0.00000
      7      20.9302      0.00000
      8      22.1264      0.00000

 k-point    11 :       0.4167    0.4167    0.0833
  band No.  band energies     occupation 
      1       4.4504      2.00000
      2       4.8297      2.00000
      3      10.8845      2.00000
      4      11.6030      2.00000
      5      11.8230      2.00000
      6      14.2274      0.00000
      7      14.6393      0.00000
      8      18.7304      0.00000

 k-point    12 :      -0.4167    0.4167    0.0833
  band No.  band energies     occupation 
      1       1.8492      2.00000
      2       6.5563      2.00000
      3       8.7728      2.00000
      4      11.3642      2.00000
      5      13.5457      0.03190
      6      16.0119      0.00000
      7      17.3377      0.00000
      8      19.7751      0.00000

 k-point    13 :       0.0833    0.0833    0.2500
  band No.  band energies     occupation 
      1      -2.1466      2.00000
      2       2.0781      2.00000
      3      10.2548      2.00000
      4      18.8041      0.00000
      5      18.8900      0.00000
      6      21.8261      0.00000
      7      22.6095      0.00000
      8      22.9815      0.00000

 k-point    14 :       0.2500    0.0833    0.2500
  band No.  band energies     occupation 
      1      -0.1037      2.00000
      2       4.0674      2.00000
      3      11.4764      2.00000
      4      12.4724      2.00000
      5      15.6322      0.00000
      6      16.6275      0.00000
      7      20.2156      0.00000
      8      22.8338      0.00000

 k-point    15 :       0.4167    0.0833    0.2500
  band No.  band energies     occupation 
      1       3.4989      2.00000
      2       5.8367      2.00000
      3       7.7295      2.00000
      4       9.9994      2.00000
      5      14.9239      0.00000
      6      15.9882      0.00000
      7      17.8242      0.00000
      8      19.5943      0.00000

 k-point    16 :      -0.4167    0.0833    0.2500
  band No.  band energies     occupation 
      1       1.5121      2.00000
      2       5.6151      2.00000
      3       8.7200      2.00000
      4      12.4827      2.00000
      5      13.9089      0.00000
      6      15.7832      0.00000
      7      19.3125      0.00000
      8      20.8703      0.00000

 k-point    17 :      -0.2500    0.0833    0.2500
  band No.  band energies     occupation 
      1      -1.3264      2.00000
      2       2.8779      2.00000
      3      10.9825      2.00000
      4      15.2703      0.00000
      5      17.3833      0.00000
      6      19.2100      0.00000
      7      21.3261      0.00000
      8      22.5456      0.00000

 k-point    18 :      -0.0833    0.0833    0.2500
  band No.  band energies     occupation 
      1      -2.5581      2.00000
      2       1.6764      2.00000
      3       9.8799      2.00000
      4      20.4676      0.00000
      5      21.4995      0.00000
      6      21.9584      0.00000
      7      24.0967      0.00000
      8      24.7735      0.00000

 k-point    19 :       0.2500    0.2500    0.2500
  band No.  band energies     occupation 
      1       2.7135      2.00000
      2       6.7491      2.00000
      3       9.7727      2.00000
      4       9.9707      2.00000
      5      13.5329      0.04953
      6      13.7752      0.00000
      7      15.7618      0.00000
      8      21.5051      0.00000

 k-point    20 :       0.4167    0.2500    0.2500
  band No.  band energies     occupation 
      1       4.6829      2.00000
      2       6.9765      2.00000
      3       8.7097      2.00000
      4       9.6348      2.00000
      5      11.2602      2.00000
      6      13.4195      0.71881
      7      17.2094      0.00000
      8      19.3755      0.00000

 k-point    21 :      -0.4167    0.2500    0.2500
  band No.  band energies     occupation 
      1       1.1102      2.00000
      2       5.2407      2.00000
      3      10.5835      2.00000
      4      12.7003      2.00000
      5      13.3331      1.61099
      6      15.0437      0.00000
      7      17.1384      0.00000
      8      22.4009      0.00000

 k-point    22 :      -0.2500    0.2500    0.2500
  band No.  band energies     occupation 
      1      -0.9179      2.00000
      2       3.2758      2.00000
      3      11.3008      2.00000
      4      13.4605      0.34688
      5      17.2993      0.00000
      6      19.1550      0.00000
      7      21.0922      0.00000
      8      22.8189      0.00000

 k-point    23 :       0.4167    0.4167    0.2500
  band No.  band energies     occupation 
      1       4.8995      2.00000
      2       5.2685      2.00000
      3       9.0057      2.00000
      4       9.4252      2.00000
      5      12.2380      2.00000
      6      15.7120      0.00000
      7      17.3253      0.00000
      8      18.1171      0.00000

 k-point    24 :      -0.4167    0.4167    0.2500
  band No.  band energies     occupation 
      1       2.3120      2.00000
      2       6.2515      2.00000
      3       7.3218      2.00000
      4      11.1140      2.00000
      5      14.6106      0.00000
      6      17.7453      0.00000
      7      18.7313      0.00000
      8      20.2654      0.00000

 k-point    25 :       0.0833    0.0833    0.4167
  band No.  band energies     occupation 
      1      -1.1991      2.00000
      2       0.2128      2.00000
      3      13.7491      0.00000
      4      17.4566      0.00000
      5      19.5918      0.00000
      6      20.0362      0.00000
      7      21.0608      0.00000
      8      21.3960      0.00000

 k-point    26 :       0.2500    0.0833    0.4167
  band No.  band energies     occupation 
      1       0.8328      2.00000
      2       2.2275      2.00000
      3      12.6102      2.00000
      4      13.8316      0.00000
      5      15.7541      0.00000
      6      17.2194      0.00000
      7      18.6527      0.00000
      8      19.9150      0.00000

 k-point    27 :       0.4167    0.0833    0.4167
  band No.  band energies     occupation 
      1       4.4028      2.00000
      2       5.6702      2.00000
      3       7.0020      2.00000
      4       8.2491      2.00000
      5      16.0114      0.00000
      6      17.1681      0.00000
      7      19.3820      0.00000
      8      21.2984      0.00000

 k-point    28 :      -0.4167    0.0833    0.4167
  band No.  band energies     occupation 
      1       2.4385      2.00000
      2       3.8150      2.00000
      3       9.5970      2.00000
      4      10.9087      2.00000
[...]

 k-point     2 :       0.2500    0.0833    0.0833
  band No.  band energies     occupation 
      1      -0.5981      2.00000
      2       6.4192      2.00000
      3       9.1295      2.00000
      4      11.3992      2.00000
      5      15.7044      0.00000
      6      18.0158      0.00000
      7      20.4200      0.00000
      8      22.5788      0.00000

 k-point     3 :       0.4167    0.0833    0.0833
  band No.  band energies     occupation 
      1       2.9835      2.00000
      2       5.3643      2.00000
      3       9.9028      2.00000
      4      11.9572      2.00000
      5      12.9764      2.00000
      6      14.5123      0.00000
      7      15.4961      0.00000
      8      21.4067      0.00000

 k-point     4 :      -0.4167    0.0833    0.0833
  band No.  band energies     occupation 
      1       1.0078      2.00000
      2       7.6269      2.00000
      3       8.4271      2.00000
      4      10.8463      2.00000
      5      14.6075      0.00000
      6      15.4340      0.00000
      7      17.7061      0.00000
      8      21.7866      0.00000

 k-point     5 :      -0.2500    0.0833    0.0833
  band No.  band energies     occupation 
      1      -1.8131      2.00000
      2       5.2689      2.00000
      3       8.0637      2.00000
      4      14.6899      0.00000
      5      16.8460      0.00000
      6      21.1763      0.00000
      7      22.9449      0.00000
      8      23.8238      0.00000

 k-point     6 :      -0.0833    0.0833    0.0833
  band No.  band energies     occupation 
      1      -3.0369      2.00000
      2       4.1001      2.00000
      3       6.9196      2.00000
      4      20.0313      0.00000
      5      21.3235      0.00000
      6      23.3058      0.00000
      7      25.6910      0.00000
      8      26.1093      0.00000

 k-point     7 :       0.2500    0.2500    0.0833
  band No.  band energies     occupation 
      1       2.2025      2.00000
      2       8.5223      2.00000
      3       9.4561      2.00000
      4       9.6216      2.00000
      5      12.0689      2.00000
      6      15.7133      0.00000
      7      16.5696      0.00000
      8      18.9665      0.00000

 k-point     8 :       0.4167    0.2500    0.0833
  band No.  band energies     occupation 
      1       4.1631      2.00000
      2       6.5103      2.00000
      3       8.8186      2.00000
      4      11.1255      2.00000
      5      13.0480      2.00000
      6      14.1457      0.00000
      7      15.6677      0.00000
      8      17.0177      0.00000

 k-point     9 :      -0.4167    0.2500    0.0833
  band No.  band energies     occupation 
      1       0.6083      2.00000
      2       7.5311      2.00000
      3       9.7209      2.00000
      4      10.7507      2.00000
      5      12.4908      2.00000
      6      16.8599      0.00000
      7      18.7504      0.00000
      8      20.1856      0.00000

 k-point    10 :      -0.2500    0.2500    0.0833
  band No.  band energies     occupation 
      1      -1.4072      2.00000
      2       5.6548      2.00000
      3       8.4322      2.00000
      4      12.8475      2.00000
      5      18.5393      0.00000
      6      19.2723      0.00000
      7      20.7916      0.00000
      8      22.1401      0.00000

 k-point    11 :       0.4167    0.4167    0.0833
  band No.  band energies     occupation 
      1       4.3655      2.00000
      2       4.7791      2.00000
      3      10.8693      2.00000
      4      11.6856      2.00000
      5      11.7388      2.00000
      6      14.3176      0.00000
      7      14.7337      0.00000
      8      18.7260      0.00000

 k-point    12 :      -0.4167    0.4167    0.0833
  band No.  band energies     occupation 
      1       1.8031      2.00000
      2       6.4827      2.00000
      3       8.8268      2.00000
      4      11.4973      2.00000
      5      13.5771      0.02669
      6      16.0942      0.00000
      7      17.1395      0.00000
      8      19.6268      0.00000

 k-point    13 :       0.0833    0.0833    0.2500
  band No.  band energies     occupation 
      1      -2.1438      2.00000
      2       2.1549      2.00000
      3      10.4783      2.00000
      4      18.6067      0.00000
      5      18.7538      0.00000
      6      22.0400      0.00000
      7      22.5860      0.00000
      8      22.8886      0.00000

 k-point    14 :       0.2500    0.0833    0.2500
  band No.  band energies     occupation 
      1      -0.1194      2.00000
      2       4.1249      2.00000
      3      11.4488      2.00000
      4      12.5801      2.00000
      5      15.5637      0.00000
      6      16.4963      0.00000
      7      20.1369      0.00000
      8      22.8541      0.00000

 k-point    15 :       0.4167    0.0833    0.2500
  band No.  band energies     occupation 
      1       3.4498      2.00000
      2       5.7803      2.00000
      3       7.7423      2.00000
      4      10.0075      2.00000
      5      14.8523      0.00000
      6      16.0771      0.00000
      7      17.9234      0.00000
      8      19.5610      0.00000

 k-point    16 :      -0.4167    0.0833    0.2500
  band No.  band energies     occupation 
      1       1.4819      2.00000
      2       5.6567      2.00000
      3       8.6317      2.00000
      4      12.4932      2.00000
      5      14.0378      0.00000
      6      15.6565      0.00000
      7      19.2681      0.00000
      8      20.9496      0.00000

 k-point    17 :      -0.2500    0.0833    0.2500
  band No.  band energies     occupation 
      1      -1.3311      2.00000
      2       2.9470      2.00000
      3      11.1935      2.00000
      4      15.1280      0.00000
      5      17.2265      0.00000
      6      19.1273      0.00000
      7      21.2458      0.00000
      8      22.8028      0.00000

 k-point    18 :      -0.0833    0.0833    0.2500
  band No.  band energies     occupation 
      1      -2.5516      2.00000
      2       1.7572      2.00000
      3      10.1082      2.00000
      4      20.3510      0.00000
      5      21.7332      0.00000
      6      21.7510      0.00000
      7      23.9730      0.00000
      8      24.6187      0.00000

 k-point    19 :       0.2500    0.2500    0.2500
  band No.  band energies     occupation 
      1       2.6726      2.00000
      2       6.7779      2.00000
      3       9.6594      2.00000
      4       9.8941      2.00000
      5      13.5806      0.02341
      6      13.7150      0.00003
      7      15.8849      0.00000
      8      21.6308      0.00000

 k-point    20 :       0.4167    0.2500    0.2500
  band No.  band energies     occupation 
      1       4.6234      2.00000
      2       6.9086      2.00000
      3       8.6960      2.00000
      4       9.5674      2.00000
      5      11.2449      2.00000
      6      13.4016      1.20958
      7      17.3614      0.00000
      8      19.5150      0.00000

 k-point    21 :      -0.4167    0.2500    0.2500
  band No.  band energies     occupation 
      1       1.0836      2.00000
      2       5.2868      2.00000
      3      10.4829      2.00000
      4      12.6418      2.00000
      5      13.4271      0.92383
      6      15.0143      0.00000
      7      17.1001      0.00000
      8      22.5319      0.00000

 k-point    22 :      -0.2500    0.2500    0.2500
  band No.  band energies     occupation 
      1      -0.9262      2.00000
      2       3.3411      2.00000
      3      11.4919      2.00000
      4      13.3496      1.68287
      5      17.2400      0.00000
      6      18.9544      0.00000
      7      21.0228      0.00000
      8      22.6929      0.00000

 k-point    23 :       0.4167    0.4167    0.2500
  band No.  band energies     occupation 
      1       4.8237      2.00000
      2       5.2269      2.00000
      3       8.9925      2.00000
      4       9.4562      2.00000
      5      12.1220      2.00000
      6      15.7079      0.00000
      7      17.4715      0.00000
      8      18.2326      0.00000

 k-point    24 :      -0.4167    0.4167    0.2500
  band No.  band energies     occupation 
      1       2.2744      2.00000
      2       6.2692      2.00000
      3       7.2621      2.00000
      4      11.1136      2.00000
      5      14.7815      0.00000
      6      17.5550      0.00000
      7      18.8043      0.00000
      8      20.1883      0.00000

 k-point    25 :       0.0833    0.0833    0.4167
  band No.  band energies     occupation 
      1      -1.1794      2.00000
      2       0.2575      2.00000
      3      14.0259      0.00000
      4      17.7481      0.00000
      5      19.4139      0.00000
      6      19.9166      0.00000
      7      20.9126      0.00000
      8      21.2656      0.00000

 k-point    26 :       0.2500    0.0833    0.4167
  band No.  band energies     occupation 
      1       0.8339      2.00000
      2       2.2534      2.00000
      3      12.5178      2.00000
      4      13.7791      0.00000
      5      15.9324      0.00000
      6      17.1294      0.00000
      7      18.5750      0.00000
      8      20.1681      0.00000

 k-point    27 :       0.4167    0.0833    0.4167
  band No.  band energies     occupation 
      1       4.3709      2.00000
      2       5.6614      2.00000
      3       6.9532      2.00000
      4       8.2237      2.00000
      5      15.8889      0.00000
      6      17.0875      0.00000
      7      19.5701      0.00000
      8      21.4800      0.00000

 k-point    28 :      -0.4167    0.0833    0.4167
  band No.  band energies     occupation 
      1       2.4251      2.00000
      2       3.8262      2.00000
      3       9.5234      2.00000
      4      10.8604      2.00000
      5      16.1609      0.00000
      6      17.0778      0.00000
      7      18.3310      0.00000
      8      21.2949      0.00000

 k-point    29 :      -0.2500    0.0833    0.4167
  band No.  band energies     occupation 
      1      -0.3711      2.00000
      2       1.0591      2.00000
      3      14.5796      0.00000
      4      15.9643      0.00000
      5      17.2580      0.00000
      6      17.8913      0.00000
      7      19.3077      0.00000
      8      19.8279      0.00000

 k-point    30 :      -0.0833    0.0833    0.4167
  band No.  band energies     occupation 
      1      -1.5850      2.00000
      2      -0.1449      2.00000
      3      13.6863      0.00017
      4      17.5715      0.00000
      5      21.3674      0.00000
      6      22.5522      0.00000
      7      22.5645      0.00000
      8      23.7788      0.00000

 k-point    31 :       0.2500    0.2500    0.4167
  band No.  band energies     occupation 
      1       3.6069      2.00000
      2       4.9906      2.00000
      3      10.4791      2.00000
      4      10.7032      2.00000
      5      12.0466      2.00000
      6      12.2373      2.00000
      7      18.9382      0.00000
      8      22.4371      0.00000

 k-point    32 :       0.4167    0.2500    0.4167
  band No.  band energies     occupation 
      1       5.5289      2.00000
      2       6.7725      2.00000
      3       8.1164      2.00000
      4       9.2748      2.00000
      5      10.4918      2.00000
      6      11.7235      2.00000
      7      20.6512      0.00000
      8      22.5636      0.00000

 k-point    33 :      -0.4167    0.2500    0.4167
  band No.  band energies     occupation 
      1       2.0297      2.00000
      2       3.4368      2.00000
      3      11.3930      2.00000
      4      12.6343      2.00000
      5      13.7884      0.00000
      6      14.9408      0.00000
      7      17.6540      0.00000
      8      21.1984      0.00000

 k-point    34 :      -0.2500    0.2500    0.4167
  band No.  band energies     occupation 
      1       0.0316      2.00000
      2       1.4583      2.00000
      3      13.9066      0.00000
      4      14.8375      0.00000
      5      15.9652      0.00000
      6      19.0349      0.00000
      7      19.7852      0.00000
      8      21.0323      0.00000

 k-point    35 :       0.4167    0.4167    0.4167
  band No.  band energies     occupation 
      1       5.7000      2.00000
      2       6.0425      2.00000
      3       7.3331      2.00000
      4       7.6833      2.00000
      5      13.0019      2.00000
      6      14.2935      0.00000
      7      20.7441      0.00000
      8      21.2486      0.00000

 k-point    36 :      -0.4167    0.4167    0.4167
  band No.  band energies     occupation 
      1       3.2109      2.00000
      2       4.5939      2.00000
      3       8.0097      2.00000
      4       9.3537      2.00000
      5      18.0423      0.00000
      6      18.3870      0.00000
      7      19.6373      0.00000
      8      20.1466      0.00000


--------------------------------------------------------------------------------------------------------


 soft charge-density along one line, spin component           1
         0         1         2         3         4         5         6         7         8         9
 total charge-density along one line
 
 pseudopotential strength for first ion, spin component:           1
 17.610  24.565  -0.000   0.000   0.000  -0.000   0.000   0.000
 24.565  34.270  -0.000   0.000   0.000  -0.000   0.000   0.000
 -0.000  -0.000   4.050  -0.000   0.000   7.542  -0.000   0.000
  0.000   0.000  -0.000   4.050   0.000  -0.000   7.542   0.000
  0.000   0.000   0.000   0.000   4.050   0.000   0.000   7.542
 -0.000  -0.000   7.542  -0.000   0.000  14.054  -0.000   0.000
  0.000   0.000  -0.000   7.542   0.000  -0.000  14.055   0.000
  0.000   0.000   0.000   0.000   7.542   0.000   0.000  14.054
 total augmentation occupancy for first ion, spin component:           1
  6.977  -3.243  -0.000   0.000   0.000  -0.000   0.000  -0.000
 -3.243   1.897   0.000   0.000   0.000   0.000   0.000   0.000
  0.000   0.000   3.187   0.000  -0.000  -0.838   0.000   0.000
  0.000   0.000   0.000   3.314   0.000  -0.000  -0.879  -0.000
  0.000  -0.000  -0.000   0.000   3.187   0.000  -0.000  -0.838
  0.000   0.000  -0.838  -0.000   0.000   0.239  -0.000  -0.000
  0.000   0.000  -0.000  -0.879  -0.000   0.000   0.252   0.000
 -0.000   0.000   0.000   0.000  -0.838  -0.000   0.000   0.239


------------------------ aborting loop because EDIFF is reached ----------------------------------------


    CHARGE:  cpu time    0.0580: real time    0.0433
    FORLOC:  cpu time    0.0010: real time    0.0005
    FORNL :  cpu time    0.0860: real time    0.0505
    STRESS:  cpu time    0.1990: real time    0.1529
    FORCOR:  cpu time    0.0120: real time    0.0232
    FORHAR:  cpu time    0.0020: real time    0.0063
    MIXING:  cpu time    0.0020: real time    0.0010
    OFIELD:  cpu time    0.0000: real time    0.0000

  FORCE on cell =-STRESS in cart. coord.  units (eV):
  Direction    XX          YY          ZZ          XY          YZ          ZX
  --------------------------------------------------------------------------------------
  Alpha Z     5.81031     5.81031     5.81031
  Ewald     -99.10966   -99.10966   -95.81031    -0.00000     0.00000     0.00000
  Hartree     0.15036     0.15036     0.22674    -0.00000    -0.00000    -0.00000
  E(xc)     -26.98155   -26.98155   -27.05646    -0.00000     0.00000     0.00000
  Local      -5.50319    -5.50320    -8.88347    -0.00001     0.00000     0.00000
  n-local    74.73030    79.50255    78.58946    -1.30011     0.17475    -0.79708
  augment   -12.03951   -12.03950   -12.08030     0.00001     0.00000    -0.00000
  Kinetic    81.69160    48.40513    63.68964    10.56371     0.15231     0.62000
  Fock        0.00000     0.00000     0.00000     0.00000     0.00000     0.00000
  -------------------------------------------------------------------------------------
  Total       4.49155     4.49155     4.48560     0.00000     0.00000     0.00000
  in kB     310.52116   310.52116   310.11003     0.00000     0.00000     0.00000
  external pressure =      310.38 kB  Pullay stress =        0.00 kB


 VOLUME and BASIS-vectors are now :
 -----------------------------------------------------------------------------
  energy-cutoff  :      450.00
  volume of cell :       23.17
      direct lattice vectors                 reciprocal lattice vectors
     2.562328651  0.000000000  0.000000000     0.390269999  0.225322489  0.000000000
    -1.281164326  2.219041705  0.000000000     0.000000000  0.450644978  0.000000000
    -0.000000000  0.000000000  4.075820127     0.000000000  0.000000000  0.245349394

  length of vectors
     2.562328651  2.562328651  4.075820127     0.450644978  0.450644978  0.245349394


 FORCES acting on ions
    electron-ion (+dipol)            ewald-force                    non-local-force                 convergence-correction
 -----------------------------------------------------------------------------------------------
   -.122E-08 0.705E-09 0.633E-14   -.113E-12 0.944E-13 -.391E-14   0.598E-16 0.347E-17 0.000E+00   0.510E-10 -.294E-10 -.279E-15
   0.122E-08 -.705E-09 -.236E-13   0.113E-12 -.958E-13 0.391E-14   -.564E-16 -.173E-17 0.000E+00   -.510E-10 0.294E-10 0.237E-15
 -----------------------------------------------------------------------------------------------
   -.433E-14 -.903E-15 -.173E-13   -.618E-15 -.133E-14 0.000E+00   0.347E-17 0.173E-17 0.000E+00   0.290E-15 0.220E-15 -.420E-16
 
 
 POSITION                                       TOTAL-FORCE (eV/Angst)
 -----------------------------------------------------------------------------------
     -0.00000      0.00000      0.00000         0.000000      0.000000      0.000000
     -0.00000      1.47936      2.03791        -0.000000      0.000000      0.000000
 -----------------------------------------------------------------------------------
    total drift:                               -0.000000     -0.000000     -0.000000


--------------------------------------------------------------------------------------------------------



  FREE ENERGIE OF THE ION-ELECTRON SYSTEM (eV)
  ---------------------------------------------------
  free  energy   TOTEN  =        -9.42746215 eV

  energy  without entropy=       -9.42256073  energy(sigma->0) =       -9.42501144
 
 d Force = 0.0000000E+00[ 0.000E+00, 0.000E+00]  d Energy = 0.1082492E-04-0.108E-04
 d Force = 0.0000000E+00[ 0.000E+00, 0.000E+00]  d Ewald  =-0.1876572E-02 0.188E-02


--------------------------------------------------------------------------------------------------------


    POTLOK:  cpu time    0.0120: real time    0.0361


--------------------------------------------------------------------------------------------------------




--------------------------------------------------------------------------------------------------------


  
 reached required accuracy - stopping structural energy minimisation
 writing wavefunctions
     LOOP+:  cpu time    3.0795: real time    2.1286
    4ORBIT:  cpu time    0.0000: real time    0.0000

 total amount of memory used by VASP on root node    33913. kBytes
========================================================================

   base      :      30000. kBytes
   nonl-proj :       1224. kBytes
   fftplans  :        714. kBytes
   grid      :       1347. kBytes
   one-center:          6. kBytes
   wavefun   :        622. kBytes
 
  
  
 General timing and accounting informations for this job:
 ========================================================
  
                  Total CPU time used (sec):       59.716
                            User time (sec):       54.606
                          System time (sec):        5.110
                         Elapsed time (sec):       39.258
  
                   Maximum memory used (kb):       36580.
                   Average memory used (kb):           0.
  
                          Minor page faults:        63616
                          Major page faults:            9
                 Voluntary context switches:          998
