 running on    4 total cores
 distrk:  each k-point on    4 cores,    1 groups
 distr:  one band on    1 cores,    4 groups
 using from now: INCAR     
 vasp.5.4.1 24Jun15 (build Jul 19 2016 16:50:41) complex                        
  
 POSCAR found :  1 types and       2 ions
 LDA part: xc-table for Pade appr. of Perdew
 POSCAR, INCAR and KPOINTS ok, starting setup
 FFT: planning ...
 WAVECAR not read
 entering main loop
       N       E                     dE             d eps       ncg     rms          rms(c)
DAV:   1     0.350572305904E+01    0.35057E+01   -0.33933E+03   584   0.728E+02
DAV:   2    -0.931142038235E+01   -0.12817E+02   -0.12270E+02   856   0.768E+01
DAV:   3    -0.948344700295E+01   -0.17203E+00   -0.17163E+00   728   0.998E+00
DAV:   4    -0.948379103052E+01   -0.34403E-03   -0.34401E-03   856   0.444E-01
DAV:   5    -0.948379125396E+01   -0.22343E-06   -0.22509E-06   768   0.891E-03    0.577E+00
DAV:   6    -0.944675032186E+01    0.37041E-01   -0.68490E-03   680   0.554E-01    0.322E+00
DAV:   7    -0.942462327372E+01    0.22127E-01   -0.13997E-02   760   0.799E-01    0.188E-01
DAV:   8    -0.942440957516E+01    0.21370E-03   -0.11839E-04   880   0.990E-02    0.207E-02
DAV:   9    -0.942440816368E+01    0.14115E-05   -0.28291E-06   536   0.131E-02
   1 F= -.94244082E+01 E0= -.94229589E+01  d E =-.942441E+01
 curvature:   0.00 expect dE= 0.000E+00 dE for cont linesearch  0.000E+00
 trial: gam= 0.00000 g(F)=  0.436E-51 g(S)=  0.456E-02 ort = 0.000E+00 (trialstep = 0.100E+01)
 search vector abs. value=  0.456E-02
 bond charge predicted
       N       E                     dE             d eps       ncg     rms          rms(c)
DAV:   1    -0.942692574690E+01   -0.25162E-02   -0.88284E-02   912   0.187E+00    0.186E-01
DAV:   2    -0.942620308521E+01    0.72266E-03   -0.13938E-03   656   0.324E-01    0.101E-01
DAV:   3    -0.942585480818E+01    0.34828E-03   -0.83095E-04   864   0.171E-01    0.765E-03
DAV:   4    -0.942585737485E+01   -0.25667E-05   -0.24444E-05   608   0.444E-02
   2 F= -.94258574E+01 E0= -.94231740E+01  d E =-.144921E-02
 trial-energy change:   -0.001449  1 .order   -0.002759   -0.004560   -0.000959
 step:   1.2664(harm=  1.2664)  dis= 0.00000  next Energy=    -9.427295 (dE=-0.289E-02)
 bond charge predicted
       N       E                     dE             d eps       ncg     rms          rms(c)
DAV:   1    -0.942636370592E+01   -0.50890E-03   -0.61698E-03   912   0.494E-01    0.489E-02
DAV:   2    -0.942631414775E+01    0.49558E-04   -0.96059E-05   632   0.854E-02    0.268E-02
DAV:   3    -0.942629041534E+01    0.23732E-04   -0.57782E-05   824   0.450E-02    0.222E-03
DAV:   4    -0.942629059825E+01   -0.18291E-06   -0.17023E-06   336   0.118E-02
   3 F= -.94262906E+01 E0= -.94235068E+01  d E =-.188243E-02
 curvature:  -0.63 expect dE=-0.637E-03 dE for cont linesearch -0.637E-03
 ZBRENT: increasing intervall
 opt :   1.7992  next Energy=    -9.428061 (dE=-0.365E-02)
 bond charge predicted
       N       E                     dE             d eps       ncg     rms          rms(c)
DAV:   1    -0.942763146692E+01   -0.13411E-02   -0.24418E-02   896   0.983E-01    0.990E-02
DAV:   2    -0.942742827650E+01    0.20319E-03   -0.38669E-04   648   0.171E-01    0.540E-02
DAV:   3    -0.942733078940E+01    0.97487E-04   -0.23441E-04   864   0.905E-02    0.424E-03
DAV:   4    -0.942733148738E+01   -0.69798E-06   -0.66777E-06   368   0.235E-02
   4 F= -.94273315E+01 E0= -.94247230E+01  d E =-.292332E-02
 curvature:  -1.76 expect dE=-0.452E-03 dE for cont linesearch -0.452E-03
 ZBRENT: increasing intervall
 opt :   2.8647  next Energy=    -9.427356 (dE=-0.295E-02)
 bond charge predicted
       N       E                     dE             d eps       ncg     rms          rms(c)
DAV:   1    -0.942638046489E+01    0.95032E-03   -0.96221E-02   888   0.195E+00    0.196E-01
DAV:   2    -0.942561023778E+01    0.77023E-03   -0.14977E-03   632   0.335E-01    0.107E-01
DAV:   3    -0.942523786087E+01    0.37238E-03   -0.89029E-04   856   0.176E-01    0.830E-03
DAV:   4    -0.942524053960E+01   -0.26787E-05   -0.25834E-05   616   0.457E-02
   5 F= -.94252405E+01 E0= -.94237590E+01  d E =-.832376E-03
 curvature:  -0.09 expect dE=-0.675E-03 dE for cont linesearch -0.675E-03
 ZBRENT: bracketing found
 ZBRENT: interpolating
 opt :   1.9684  next Energy=    -9.427423 (dE=-0.301E-02)
 bond charge predicted
       N       E                     dE             d eps       ncg     rms          rms(c)
DAV:   1    -0.942828859132E+01   -0.30507E-02   -0.68259E-02   896   0.163E+00    0.166E-01
DAV:   2    -0.942772142033E+01    0.56717E-03   -0.10597E-03   648   0.282E-01    0.901E-02
DAV:   3    -0.942744932216E+01    0.27210E-03   -0.65232E-04   856   0.151E-01    0.686E-03
DAV:   4    -0.942745132450E+01   -0.20023E-05   -0.19027E-05   552   0.393E-02
   6 F= -.94274513E+01 E0= -.94249451E+01  d E =-.304316E-02
 curvature:  -0.01 expect dE=-0.283E-06 dE for cont linesearch -0.283E-06
 ZBRENT: interpolating
 opt :   2.0352  next Energy=    -9.427463 (dE=-0.305E-02)
 bond charge predicted
       N       E                     dE             d eps       ncg     rms          rms(c)
DAV:   1    -0.942746574893E+01   -0.16427E-04   -0.38254E-04   896   0.122E-01    0.131E-02
DAV:   2    -0.942746214943E+01    0.35995E-05   -0.61579E-06   440   0.216E-02
   7 F= -.94274621E+01 E0= -.94250114E+01  d E =-.305399E-02
 curvature:  -0.50 expect dE=-0.287E-06 dE for cont linesearch -0.287E-06
 trial: gam=-0.01104 g(F)=  0.258E-51 g(S)=  0.569E-06 ort = 0.509E-04 (trialstep = 0.121E+01)
 search vector abs. value=  0.171E-09
 reached required accuracy - stopping structural energy minimisation
 writing wavefunctions
