<?xml version="1.0" encoding="ISO-8859-1"?>
<modeling>
 <generator>
  <i name="program" type="string">vasp </i>
  <i name="version" type="string">5.4.1  </i>
  <i name="subversion" type="string">24Jun15 (build Jul 19 2016 16:50:41) complex                          parallel </i>
  <i name="platform" type="string">IFC91_ompi </i>
  <i name="date" type="string">2019 10 10 </i>
  <i name="time" type="string">11:12:18 </i>
 </generator>
 <incar>
  <i type="string" name="SYSTEM"> Si beta-tin</i>
  <i type="string" name="PREC">accurate</i>
  <i type="int" name="IBRION">     2</i>
  <i name="EDIFF">      0.00001000</i>
  <i name="EDIFFG">     -0.01000000</i>
  <i type="int" name="NSW">   100</i>
  <i type="int" name="ISIF">     4</i>
  <i name="ENMAX">    450.00000000</i>
  <i type="int" name="ISMEAR">     0</i>
  <i name="SIGMA">      0.10000000</i>
  <v type="int" name="KPOINT_BSE">    -1     0     0     0</v>
 </incar>
 <kpoints>
  <generation param="Monkhorst-Pack">
   <v type="int" name="divisions">       6        6        6 </v>
   <v name="usershift">      0.00000000       0.00000000       0.00000000 </v>
   <v name="genvec1">      0.16666667       0.00000000       0.00000000 </v>
   <v name="genvec2">      0.00000000       0.16666667       0.00000000 </v>
   <v name="genvec3">      0.00000000       0.00000000       0.16666667 </v>
   <v name="shift">      0.50000000       0.50000000       0.50000000 </v>
  </generation>
  <varray name="kpointlist" >
   <v>       0.08333333       0.08333333       0.08333333 </v>
   <v>       0.25000000       0.08333333       0.08333333 </v>
   <v>       0.41666667       0.08333333       0.08333333 </v>
   <v>      -0.41666667       0.08333333       0.08333333 </v>
   <v>      -0.25000000       0.08333333       0.08333333 </v>
   <v>      -0.08333333       0.08333333       0.08333333 </v>
   <v>       0.25000000       0.25000000       0.08333333 </v>
   <v>       0.41666667       0.25000000       0.08333333 </v>
   <v>      -0.41666667       0.25000000       0.08333333 </v>
   <v>      -0.25000000       0.25000000       0.08333333 </v>
   <v>       0.41666667       0.41666667       0.08333333 </v>
   <v>      -0.41666667       0.41666667       0.08333333 </v>
   <v>       0.08333333       0.08333333       0.25000000 </v>
   <v>       0.25000000       0.08333333       0.25000000 </v>
   <v>       0.41666667       0.08333333       0.25000000 </v>
   <v>      -0.41666667       0.08333333       0.25000000 </v>
   <v>      -0.25000000       0.08333333       0.25000000 </v>
   <v>      -0.08333333       0.08333333       0.25000000 </v>
   <v>       0.25000000       0.25000000       0.25000000 </v>
   <v>       0.41666667       0.25000000       0.25000000 </v>
   <v>      -0.41666667       0.25000000       0.25000000 </v>
   <v>      -0.25000000       0.25000000       0.25000000 </v>
   <v>       0.41666667       0.41666667       0.25000000 </v>
   <v>      -0.41666667       0.41666667       0.25000000 </v>
   <v>       0.08333333       0.08333333       0.41666667 </v>
   <v>       0.25000000       0.08333333       0.41666667 </v>
   <v>       0.41666667       0.08333333       0.41666667 </v>
   <v>      -0.41666667       0.08333333       0.41666667 </v>
   <v>      -0.25000000       0.08333333       0.41666667 </v>
   <v>      -0.08333333       0.08333333       0.41666667 </v>
   <v>       0.25000000       0.25000000       0.41666667 </v>
   <v>       0.41666667       0.25000000       0.41666667 </v>
   <v>      -0.41666667       0.25000000       0.41666667 </v>
   <v>      -0.25000000       0.25000000       0.41666667 </v>
   <v>       0.41666667       0.41666667       0.41666667 </v>
   <v>      -0.41666667       0.41666667       0.41666667 </v>
  </varray>
  <varray name="weights" >
   <v>       0.01851852 </v>
   <v>       0.03703704 </v>
   <v>       0.03703704 </v>
   <v>       0.03703704 </v>
   <v>       0.03703704 </v>
   <v>       0.01851852 </v>
   <v>       0.01851852 </v>
   <v>       0.03703704 </v>
   <v>       0.03703704 </v>
   <v>       0.01851852 </v>
   <v>       0.01851852 </v>
   <v>       0.01851852 </v>
   <v>       0.01851852 </v>
   <v>       0.03703704 </v>
   <v>       0.03703704 </v>
   <v>       0.03703704 </v>
   <v>       0.03703704 </v>
   <v>       0.01851852 </v>
   <v>       0.01851852 </v>
   <v>       0.03703704 </v>
   <v>       0.03703704 </v>
   <v>       0.01851852 </v>
   <v>       0.01851852 </v>
   <v>       0.01851852 </v>
   <v>       0.01851852 </v>
   <v>       0.03703704 </v>
   <v>       0.03703704 </v>
   <v>       0.03703704 </v>
   <v>       0.03703704 </v>
   <v>       0.01851852 </v>
   <v>       0.01851852 </v>
   <v>       0.03703704 </v>
   <v>       0.03703704 </v>
   <v>       0.01851852 </v>
   <v>       0.01851852 </v>
   <v>       0.01851852 </v>
  </varray>
 </kpoints>
 <parameters>
  <separator name="general" >
   <i type="string" name="SYSTEM">Si beta-tin</i>
   <i type="logical" name="LCOMPAT"> F  </i>
  </separator>
  <separator name="electronic" >
   <i type="string" name="PREC">accura</i>
   <i name="ENMAX">    450.00000000</i>
   <i name="ENAUG">    322.06900000</i>
   <i name="EDIFF">      0.00001000</i>
   <i type="int" name="IALGO">    38</i>
   <i type="int" name="IWAVPR">    11</i>
   <i type="int" name="NBANDS">     8</i>
   <i name="NELECT">      8.00000000</i>
   <i type="int" name="TURBO">     0</i>
   <i type="int" name="IRESTART">     0</i>
   <i type="int" name="NREBOOT">     0</i>
   <i type="int" name="NMIN">     0</i>
   <i name="EREF">      0.00000000</i>
   <separator name="electronic smearing" >
    <i type="int" name="ISMEAR">     0</i>
    <i name="SIGMA">      0.10000000</i>
    <i name="KSPACING">      0.50000000</i>
    <i type="logical" name="KGAMMA"> T  </i>
   </separator>
   <separator name="electronic projectors" >
    <i type="logical" name="LREAL"> F  </i>
    <v name="ROPT">      0.00000000</v>
    <i type="int" name="LMAXPAW">  -100</i>
    <i type="int" name="LMAXMIX">     2</i>
    <i type="logical" name="NLSPLINE"> F  </i>
   </separator>
   <separator name="electronic startup" >
    <i type="int" name="ISTART">     0</i>
    <i type="int" name="ICHARG">     2</i>
    <i type="int" name="INIWAV">     1</i>
   </separator>
   <separator name="electronic spin" >
    <i type="int" name="ISPIN">     1</i>
    <i type="logical" name="LNONCOLLINEAR"> F  </i>
    <v name="MAGMOM">      1.00000000      1.00000000</v>
    <i name="NUPDOWN">     -1.00000000</i>
    <i type="logical" name="LSORBIT"> F  </i>
    <v name="SAXIS">      0.00000000      0.00000000      1.00000000</v>
    <i type="logical" name="LSPIRAL"> F  </i>
    <v name="QSPIRAL">      0.00000000      0.00000000      0.00000000</v>
    <i type="logical" name="LZEROZ"> F  </i>
   </separator>
   <separator name="electronic exchange-correlation" >
    <i type="logical" name="LASPH"> F  </i>
    <i type="logical" name="LMETAGGA"> F  </i>
   </separator>
   <separator name="electronic convergence" >
    <i type="int" name="NELM">    60</i>
    <i type="int" name="NELMDL">    -5</i>
    <i type="int" name="NELMIN">     2</i>
    <i name="ENINI">    450.00000000</i>
    <separator name="electronic convergence detail" >
     <i type="logical" name="LDIAG"> T  </i>
     <i type="logical" name="LSUBROT"> F  </i>
     <i name="WEIMIN">      0.00100000</i>
     <i name="EBREAK">      0.00000031</i>
     <i name="DEPER">      0.30000000</i>
     <i type="int" name="NRMM">     4</i>
     <i name="TIME">      0.40000000</i>
    </separator>
   </separator>
   <separator name="electronic mixer" >
    <i name="AMIX">      0.40000000</i>
    <i name="BMIX">      1.00000000</i>
    <i name="AMIN">      0.10000000</i>
    <i name="AMIX_MAG">      1.60000000</i>
    <i name="BMIX_MAG">      1.00000000</i>
    <separator name="electronic mixer details" >
     <i type="int" name="IMIX">     4</i>
     <i type="logical" name="MIXFIRST"> F  </i>
     <i type="int" name="MAXMIX">   -45</i>
     <i name="WC">    100.00000000</i>
     <i type="int" name="INIMIX">     1</i>
     <i type="int" name="MIXPRE">     1</i>
     <i type="int" name="MREMOVE">     5</i>
    </separator>
   </separator>
   <separator name="electronic dipolcorrection" >
    <i type="logical" name="LDIPOL"> F  </i>
    <i type="logical" name="LMONO"> F  </i>
    <i type="int" name="IDIPOL">     0</i>
    <i name="EPSILON">      1.00000000</i>
    <v name="DIPOL">   -100.00000000   -100.00000000   -100.00000000</v>
    <i name="EFIELD">      0.00000000</i>
   </separator>
  </separator>
  <separator name="grids" >
   <i type="int" name="NGX">    18</i>
   <i type="int" name="NGY">    18</i>
   <i type="int" name="NGZ">    30</i>
   <i type="int" name="NGXF">    36</i>
   <i type="int" name="NGYF">    36</i>
   <i type="int" name="NGZF">    60</i>
   <i type="logical" name="ADDGRID"> F  </i>
  </separator>
  <separator name="ionic" >
   <i type="int" name="NSW">   100</i>
   <i type="int" name="IBRION">     2</i>
   <i type="int" name="ISIF">     4</i>
   <i name="PSTRESS">      0.00000000</i>
   <i name="EDIFFG">     -0.01000000</i>
   <i type="int" name="NFREE">     1</i>
   <i name="POTIM">      0.50000000</i>
   <i name="SMASS">     -3.00000000</i>
   <i name="SCALEE">      1.00000000</i>
  </separator>
  <separator name="ionic md" >
   <i name="TEBEG">      0.00010000</i>
   <i name="TEEND">      0.00010000</i>
   <i type="int" name="NBLOCK">     1</i>
   <i type="int" name="KBLOCK">   100</i>
   <i type="int" name="NPACO">   256</i>
   <i name="APACO">     16.00000000</i>
  </separator>
  <separator name="symmetry" >
   <i type="int" name="ISYM">     2</i>
   <i name="SYMPREC">      0.00001000</i>
  </separator>
  <separator name="dos" >
   <i type="logical" name="LORBIT"> F  </i>
   <v name="RWIGS">     -1.00000000</v>
   <i type="int" name="NEDOS">   301</i>
   <i name="EMIN">     10.00000000</i>
   <i name="EMAX">    -10.00000000</i>
   <i name="EFERMI">      0.00000000</i>
  </separator>
  <separator name="writing" >
   <i type="int" name="NWRITE">     2</i>
   <i type="logical" name="LWAVE"> T  </i>
   <i type="logical" name="LCHARG"> T  </i>
   <i type="logical" name="LPARD"> F  </i>
   <i type="logical" name="LVTOT"> F  </i>
   <i type="logical" name="LVHAR"> F  </i>
   <i type="logical" name="LELF"> F  </i>
   <i type="logical" name="LOPTICS"> F  </i>
   <v name="STM">      0.00000000      0.00000000      0.00000000      0.00000000      0.00000000      0.00000000      0.00000000</v>
  </separator>
  <separator name="performance" >
   <i type="int" name="NPAR">     4</i>
   <i type="int" name="NSIM">     4</i>
   <i type="int" name="NBLK">    -1</i>
   <i type="logical" name="LPLANE"> T  </i>
   <i type="logical" name="LSCALAPACK"> F  </i>
   <i type="logical" name="LSCAAWARE"> F  </i>
   <i type="logical" name="LSCALU"> F  </i>
   <i type="logical" name="LASYNC"> F  </i>
   <i type="logical" name="LORBITALREAL"> F  </i>
  </separator>
  <separator name="miscellaneous" >
   <i type="int" name="IDIOT">     3</i>
   <i type="logical" name="LMUSIC"> F  </i>
   <v name="POMASS">     28.08500000</v>
   <v name="DARWINR">      0.00000000</v>
   <v name="DARWINV">      1.00000000</v>
   <i type="logical" name="LCORR"> T  </i>
  </separator>
  <i type="logical" name="GGA_COMPAT"> T  </i>
  <i type="logical" name="LBERRY"> F  </i>
  <i type="int" name="ICORELEVEL">     0</i>
  <i type="logical" name="LDAU"> F  </i>
  <i type="int" name="I_CONSTRAINED_M">     0</i>
  <separator name="electronic exchange-correlation" >
   <i type="string" name="GGA">--</i>
   <i type="int" name="VOSKOWN">     0</i>
   <i type="logical" name="LHFCALC"> F  </i>
   <i type="string" name="PRECFOCK"></i>
   <i type="logical" name="LSYMGRAD"> F  </i>
   <i type="logical" name="LHFONE"> F  </i>
   <i type="logical" name="LRHFCALC"> F  </i>
   <i type="logical" name="LTHOMAS"> F  </i>
   <i type="logical" name="LMODELHF"> F  </i>
   <i name="ENCUT4O">     -1.00000000</i>
   <i type="int" name="EXXOEP">     0</i>
   <i type="int" name="FOURORBIT">     0</i>
   <i name="AEXX">      0.00000000</i>
   <i name="HFALPHA">      0.00000000</i>
   <i name="MCALPHA">      0.00000000</i>
   <i name="ALDAX">      1.00000000</i>
   <i name="AGGAX">      1.00000000</i>
   <i name="ALDAC">      1.00000000</i>
   <i name="AGGAC">      1.00000000</i>
   <i type="int" name="NKREDX">     1</i>
   <i type="int" name="NKREDY">     1</i>
   <i type="int" name="NKREDZ">     1</i>
   <i type="logical" name="SHIFTRED"> F  </i>
   <i type="logical" name="ODDONLY"> F  </i>
   <i type="logical" name="EVENONLY"> F  </i>
   <i type="int" name="LMAXFOCK">     0</i>
   <i type="int" name="NMAXFOCKAE">     0</i>
   <i type="logical" name="LFOCKAEDFT"> F  </i>
   <i name="HFSCREEN">      0.00000000</i>
   <i name="HFSCREENC">      0.00000000</i>
   <i type="int" name="NBANDSGWLOW">     0</i>
  </separator>
  <separator name="vdW DFT" >
   <i type="logical" name="LUSE_VDW"> F  </i>
   <i name="Zab_VDW">     -0.84910000</i>
   <i name="PARAM1">      0.12340000</i>
   <i name="PARAM2">      1.00000000</i>
   <i name="PARAM3">      0.00000000</i>
  </separator>
  <separator name="model GW" >
   <i type="int" name="MODEL_GW">     0</i>
   <i name="MODEL_EPS0">      6.95242899</i>
   <i name="MODEL_ALPHA">      1.00000000</i>
  </separator>
  <separator name="linear response parameters" >
   <i type="logical" name="LEPSILON"> F  </i>
   <i type="logical" name="LRPA"> F  </i>
   <i type="logical" name="LNABLA"> F  </i>
   <i type="logical" name="LVEL"> F  </i>
   <i type="int" name="KINTER">     0</i>
   <i name="CSHIFT">      0.10000000</i>
   <i name="OMEGAMAX">     -1.00000000</i>
   <i name="DEG_THRESHOLD">      0.00200000</i>
  </separator>
  <separator name="orbital magnetization" >
   <i type="logical" name="NUCIND"> F  </i>
   <v name="MAGPOS">      0.00000000      0.00000000      0.00000000</v>
   <i type="logical" name="LNICSALL"> T  </i>
   <i type="logical" name="ORBITALMAG"> F  </i>
   <i type="logical" name="LMAGBLOCH"> F  </i>
   <i type="logical" name="LCHIMAG"> F  </i>
   <i type="logical" name="LGAUGE"> T  </i>
   <i type="int" name="MAGATOM">     0</i>
   <v name="MAGDIPOL">      0.00000000      0.00000000      0.00000000</v>
   <v name="AVECCONST">      0.00000000      0.00000000      0.00000000</v>
  </separator>
  <separator name="response functions" >
   <i type="logical" name="LADDER"> F  </i>
   <i type="logical" name="LFXC"> F  </i>
   <i type="logical" name="LHARTREE"> T  </i>
   <i type="int" name="IBSE">     0</i>
   <v type="int" name="KPOINT">    -1     0     0     0</v>
   <i type="logical" name="LTCTE"> F  </i>
   <i type="logical" name="LTETE"> F  </i>
   <i type="logical" name="LTRIPLET"> F  </i>
   <i type="logical" name="LFXCEPS"> F  </i>
   <i type="logical" name="LFXHEG"> F  </i>
   <i type="int" name="NATURALO">     0</i>
   <i type="logical" name="L2ORDER"> F  </i>
   <i type="logical" name="LUSEW"> F  </i>
   <i name="ENCUTGW">     -2.00000000</i>
   <i name="ENCUTGWSOFT">     -2.00000000</i>
   <i name="ENCUTLF">     -1.00000000</i>
   <i type="int" name="LMAXMP2">    -1</i>
   <i name="SCISSOR">      0.00000000</i>
   <i type="int" name="NOMEGA">     0</i>
   <i type="int" name="NOMEGAR">     0</i>
   <i type="int" name="NBANDSGW">    -1</i>
   <i type="int" name="NBANDSO">    -1</i>
   <i type="int" name="NBANDSV">    -1</i>
   <i type="int" name="NELM">     1</i>
   <i type="int" name="NELMHF">     1</i>
   <i type="int" name="DIM">     3</i>
   <i type="int" name="ANTIRES">     0</i>
   <i name="OMEGAMAX">    -30.00000000</i>
   <i name="OMEGAMIN">    -30.00000000</i>
   <i name="OMEGATL">   -200.00000000</i>
   <i type="int" name="OMEGAGRID">     0</i>
   <i name="CSHIFT">     -0.10000000</i>
   <i type="logical" name="SELFENERGY"> F  </i>
   <i type="logical" name="LSPECTRAL"> F  </i>
   <i type="logical" name="LSPECTRALGW"> F  </i>
   <i type="logical" name="LSINGLES"> F  </i>
   <i type="logical" name="LFERMIGW"> F  </i>
   <i type="logical" name="ODDONLYGW"> F  </i>
   <i type="logical" name="EVENONLYGW"> F  </i>
   <i type="int" name="NKREDLFX">     1</i>
   <i type="int" name="NKREDLFY">     1</i>
   <i type="int" name="NKREDLFZ">     1</i>
   <i type="int" name="MAXMEM">  1800</i>
   <i type="int" name="TELESCOPE">     0</i>
   <i type="int" name="TAUPAR">     1</i>
   <i type="int" name="OMEGAPAR">    -1</i>
   <i name="LAMBDA">      1.00000000</i>
  </separator>
  <separator name="External order field" >
   <i name="OFIELD_KAPPA">      0.00000000</i>
   <v name="OFIELD_K">      0.00000000      0.00000000      0.00000000</v>
   <i name="OFIELD_Q6_NEAR">      0.00000000</i>
   <i name="OFIELD_Q6_FAR">      0.00000000</i>
   <i name="OFIELD_A">      0.00000000</i>
  </separator>
 </parameters>
 <atominfo>
  <atoms>       2 </atoms>
  <types>       1 </types>
  <array name="atoms" >
   <dimension dim="1">ion</dimension>
   <field type="string">element</field>
   <field type="int">atomtype</field>
   <set>
    <rc><c> S</c><c>   1</c></rc>
    <rc><c> S</c><c>   1</c></rc>
   </set>
  </array>
  <array name="atomtypes" >
   <dimension dim="1">type</dimension>
   <field type="int">atomspertype</field>
   <field type="string">element</field>
   <field>mass</field>
   <field>valence</field>
   <field type="string">pseudopotential</field>
   <set>
    <rc><c>   2</c><c> S</c><c>     28.08500000</c><c>      4.00000000</c><c>  PAW_PBE Si 05Jan2001                  </c></rc>
   </set>
  </array>
 </atominfo>
 <structure name="initialpos" >
  <crystal>
   <varray name="basis" >
    <v>       2.54000000       0.00000000       0.00000000 </v>
    <v>      -1.27000000       2.19970453       0.00000000 </v>
    <v>       0.00000000       0.00000000       4.14779460 </v>
   </varray>
   <i name="volume">     23.17476328 </i>
   <varray name="rec_basis" >
    <v>       0.39370079       0.22730326       0.00000000 </v>
    <v>       0.00000000       0.45460651       0.00000000 </v>
    <v>       0.00000000       0.00000000       0.24109198 </v>
   </varray>
  </crystal>
  <varray name="positions" >
   <v>       0.00000000       0.00000000       0.00000000 </v>
   <v>       0.33333333       0.66666667       0.50000000 </v>
  </varray>
 </structure>
 <calculation>
  <scstep>
   <time name="dav">    1.42    0.85</time>
   <time name="total">    1.46    0.88</time>
   <energy>
    <i name="alphaZ">      5.81030846 </i>
    <i name="ewald">   -294.06050558 </i>
    <i name="hartreedc">     -0.53735344 </i>
    <i name="XCdc">    -16.35970944 </i>
    <i name="pawpsdc">    176.24759923 </i>
    <i name="pawaedc">   -141.06103558 </i>
    <i name="eentropy">     -0.00594487 </i>
    <i name="bandstr">     67.34043680 </i>
    <i name="atom">    206.13192747 </i>
    <i name="e_fr_energy">      3.50572306 </i>
    <i name="e_wo_entrp">      3.51166793 </i>
    <i name="e_0_energy">      3.50869549 </i>
   </energy>
  </scstep>
  <scstep>
   <time name="dav">    2.25    1.42</time>
   <time name="total">    2.26    1.42</time>
   <energy>
    <i name="e_fr_energy">     -9.31142038 </i>
    <i name="e_wo_entrp">     -9.30964945 </i>
    <i name="e_0_energy">     -9.31053491 </i>
   </energy>
  </scstep>
  <scstep>
   <time name="dav">    1.49    0.95</time>
   <time name="total">    1.49    0.95</time>
   <energy>
    <i name="e_fr_energy">     -9.48344700 </i>
    <i name="e_wo_entrp">     -9.48028072 </i>
    <i name="e_0_energy">     -9.48186386 </i>
   </energy>
  </scstep>
  <scstep>
   <time name="dav">    2.01    1.21</time>
   <time name="total">    2.02    1.21</time>
   <energy>
    <i name="e_fr_energy">     -9.48379103 </i>
    <i name="e_wo_entrp">     -9.48061757 </i>
    <i name="e_0_energy">     -9.48220430 </i>
   </energy>
  </scstep>
  <scstep>
   <time name="dav">    1.70    1.02</time>
   <time name="total">    1.73    1.04</time>
   <energy>
    <i name="e_fr_energy">     -9.48379125 </i>
    <i name="e_wo_entrp">     -9.48061778 </i>
    <i name="e_0_energy">     -9.48220452 </i>
   </energy>
  </scstep>
  <scstep>
   <time name="dav">    1.75    1.05</time>
   <time name="total">    1.83    1.10</time>
   <energy>
    <i name="e_fr_energy">     -9.44675032 </i>
    <i name="e_wo_entrp">     -9.44369213 </i>
    <i name="e_0_energy">     -9.44522123 </i>
   </energy>
  </scstep>
  <scstep>
   <time name="dav">    1.37    0.82</time>
   <time name="total">    1.46    0.88</time>
   <energy>
    <i name="e_fr_energy">     -9.42462327 </i>
    <i name="e_wo_entrp">     -9.42171383 </i>
    <i name="e_0_energy">     -9.42316855 </i>
   </energy>
  </scstep>
  <scstep>
   <time name="dav">    2.11    1.30</time>
   <time name="total">    2.19    1.35</time>
   <energy>
    <i name="e_fr_energy">     -9.42440958 </i>
    <i name="e_wo_entrp">     -9.42150908 </i>
    <i name="e_0_energy">     -9.42295933 </i>
   </energy>
  </scstep>
  <scstep>
   <time name="dav">    1.17    0.73</time>
   <time name="total">    1.22    0.76</time>
   <energy>
    <i name="alphaZ">      5.81030846 </i>
    <i name="ewald">   -294.06050558 </i>
    <i name="hartreedc">     -0.51957393 </i>
    <i name="XCdc">    -16.10820088 </i>
    <i name="pawpsdc">   1027.84196566 </i>
    <i name="pawaedc">   -992.78808151 </i>
    <i name="eentropy">     -0.00289853 </i>
    <i name="bandstr">     54.27065067 </i>
    <i name="atom">    206.13192747 </i>
    <i name="e_fr_energy">     -9.42440816 </i>
    <i name="e_wo_entrp">     -9.42150963 </i>
    <i name="e_0_energy">     -9.42295890 </i>
   </energy>
  </scstep>
  <structure>
   <crystal>
    <varray name="basis" >
     <v>       2.54000000       0.00000000       0.00000000 </v>
     <v>      -1.27000000       2.19970453       0.00000000 </v>
     <v>       0.00000000       0.00000000       4.14779460 </v>
    </varray>
    <i name="volume">     23.17476328 </i>
    <varray name="rec_basis" >
     <v>       0.39370079       0.22730326       0.00000000 </v>
     <v>       0.00000000       0.45460651       0.00000000 </v>
     <v>       0.00000000       0.00000000       0.24109198 </v>
    </varray>
   </crystal>
   <varray name="positions" >
    <v>       0.00000000       0.00000000       0.00000000 </v>
    <v>       0.33333333       0.66666667       0.50000000 </v>
   </varray>
  </structure>
  <varray name="forces" >
   <v>      -0.00000000       0.00000000       0.00000000 </v>
   <v>       0.00000000      -0.00000000       0.00000000 </v>
  </varray>
  <varray name="stress" >
   <v>     320.20241941       0.00000000       0.00000000 </v>
   <v>      -0.00000000     320.20241941       0.00000000 </v>
   <v>      -0.00000000       0.00000000     283.38911415 </v>
  </varray>
  <energy>
   <i name="e_fr_energy">     -9.42440816 </i>
   <i name="e_wo_entrp">     -9.42295890 </i>
   <i name="e_0_energy">     -0.00289853 </i>
  </energy>
  <time name="totalsc">   16.37   10.13</time>
 </calculation>
 <calculation>
  <scstep>
   <time name="dav">    2.20    1.37</time>
   <time name="total">    2.27    1.42</time>
   <energy>
    <i name="alphaZ">      5.81030846 </i>
    <i name="ewald">   -294.05204848 </i>
    <i name="hartreedc">     -0.51963568 </i>
    <i name="XCdc">    -16.10851293 </i>
    <i name="pawpsdc">   1028.81869471 </i>
    <i name="pawaedc">   -993.76420051 </i>
    <i name="eentropy">     -0.00539268 </i>
    <i name="bandstr">     54.26193389 </i>
    <i name="atom">    206.13192747 </i>
    <i name="e_fr_energy">     -9.42692575 </i>
    <i name="e_wo_entrp">     -9.42153307 </i>
    <i name="e_0_energy">     -9.42422941 </i>
   </energy>
  </scstep>
  <scstep>
   <time name="dav">    1.58    0.98</time>
   <time name="total">    1.66    1.03</time>
   <energy>
    <i name="e_fr_energy">     -9.42620309 </i>
    <i name="e_wo_entrp">     -9.42082277 </i>
    <i name="e_0_energy">     -9.42351293 </i>
   </energy>
  </scstep>
  <scstep>
   <time name="dav">    2.31    1.44</time>
   <time name="total">    2.38    1.48</time>
   <energy>
    <i name="e_fr_energy">     -9.42585481 </i>
    <i name="e_wo_entrp">     -9.42048831 </i>
    <i name="e_0_energy">     -9.42317156 </i>
   </energy>
  </scstep>
  <scstep>
   <time name="dav">    1.30    0.83</time>
   <time name="total">    1.35    0.86</time>
   <energy>
    <i name="alphaZ">      5.81030846 </i>
    <i name="ewald">   -294.05204848 </i>
    <i name="hartreedc">     -0.52136557 </i>
    <i name="XCdc">    -16.10863968 </i>
    <i name="pawpsdc">   1028.08435071 </i>
    <i name="pawaedc">   -993.03022183 </i>
    <i name="eentropy">     -0.00536671 </i>
    <i name="bandstr">     54.26519825 </i>
    <i name="atom">    206.13192747 </i>
    <i name="e_fr_energy">     -9.42585737 </i>
    <i name="e_wo_entrp">     -9.42049067 </i>
    <i name="e_0_energy">     -9.42317402 </i>
   </energy>
  </scstep>
  <structure>
   <crystal>
    <varray name="basis" >
     <v>       2.55092174       0.00000000       0.00000000 </v>
     <v>      -1.27546087       2.20916303       0.00000000 </v>
     <v>      -0.00000000       0.00000000       4.11235316 </v>
    </varray>
    <i name="volume">     23.17476328 </i>
    <varray name="rec_basis" >
     <v>       0.39201516       0.22633006       0.00000000 </v>
     <v>       0.00000000       0.45266012       0.00000000 </v>
     <v>       0.00000000       0.00000000       0.24316978 </v>
    </varray>
   </crystal>
   <varray name="positions" >
    <v>      -0.00000000       0.00000000       0.00000000 </v>
    <v>       0.33333333       0.66666667       0.50000000 </v>
   </varray>
  </structure>
  <varray name="forces" >
   <v>       0.00000000       0.00000000       0.00000000 </v>
   <v>      -0.00000000       0.00000000       0.00000000 </v>
  </varray>
  <varray name="stress" >
   <v>     311.58143862       0.00000000       0.00000000 </v>
   <v>       0.00000000     311.58143862       0.00000000 </v>
   <v>      -0.00000000      -0.00000000     303.83766431 </v>
  </varray>
  <energy>
   <i name="e_fr_energy">     -9.42585737 </i>
   <i name="e_wo_entrp">     -9.42317402 </i>
   <i name="e_0_energy">     -0.00536671 </i>
  </energy>
  <time name="totalsc">    8.46    5.34</time>
 </calculation>
 <calculation>
  <scstep>
   <time name="dav">    2.01    1.23</time>
   <time name="total">    2.09    1.30</time>
   <energy>
    <i name="alphaZ">      5.81030846 </i>
    <i name="ewald">   -294.04755604 </i>
    <i name="hartreedc">     -0.52130175 </i>
    <i name="XCdc">    -16.10869243 </i>
    <i name="pawpsdc">   1028.08764626 </i>
    <i name="pawaedc">   -993.03351289 </i>
    <i name="eentropy">     -0.00557083 </i>
    <i name="bandstr">     54.26038806 </i>
    <i name="atom">    206.13192747 </i>
    <i name="e_fr_energy">     -9.42636371 </i>
    <i name="e_wo_entrp">     -9.42079287 </i>
    <i name="e_0_energy">     -9.42357829 </i>
   </energy>
  </scstep>
  <scstep>
   <time name="dav">    1.74    1.04</time>
   <time name="total">    1.83    1.09</time>
   <energy>
    <i name="e_fr_energy">     -9.42631415 </i>
    <i name="e_wo_entrp">     -9.42074497 </i>
    <i name="e_0_energy">     -9.42352956 </i>
   </energy>
  </scstep>
  <scstep>
   <time name="dav">    1.75    1.05</time>
   <time name="total">    1.86    1.12</time>
   <energy>
    <i name="e_fr_energy">     -9.42629042 </i>
    <i name="e_wo_entrp">     -9.42072298 </i>
    <i name="e_0_energy">     -9.42350670 </i>
   </energy>
  </scstep>
  <scstep>
   <time name="dav">    1.36    0.84</time>
   <time name="total">    1.41    0.88</time>
   <energy>
    <i name="alphaZ">      5.81030846 </i>
    <i name="ewald">   -294.04755604 </i>
    <i name="hartreedc">     -0.52226000 </i>
    <i name="XCdc">    -16.10871609 </i>
    <i name="pawpsdc">   1028.24039532 </i>
    <i name="pawaedc">   -993.18650498 </i>
    <i name="eentropy">     -0.00556751 </i>
    <i name="bandstr">     54.26168277 </i>
    <i name="atom">    206.13192747 </i>
    <i name="e_fr_energy">     -9.42629060 </i>
    <i name="e_wo_entrp">     -9.42072309 </i>
    <i name="e_0_energy">     -9.42350684 </i>
   </energy>
  </scstep>
  <structure>
   <crystal>
    <varray name="basis" >
     <v>       2.55384713       0.00000000       0.00000000 </v>
     <v>      -1.27692356       2.21169649       0.00000000 </v>
     <v>      -0.00000000       0.00000000       4.10293731 </v>
    </varray>
    <i name="volume">     23.17476328 </i>
    <varray name="rec_basis" >
     <v>       0.39156612       0.22607080       0.00000000 </v>
     <v>       0.00000000       0.45214160       0.00000000 </v>
     <v>       0.00000000       0.00000000       0.24372783 </v>
    </varray>
   </crystal>
   <varray name="positions" >
    <v>      -0.00000000       0.00000000       0.00000000 </v>
    <v>       0.33333333       0.66666667       0.50000000 </v>
   </varray>
  </structure>
  <varray name="forces" >
   <v>      -0.00000000       0.00000000       0.00000000 </v>
   <v>       0.00000000       0.00000000       0.00000000 </v>
  </varray>
  <varray name="stress" >
   <v>     315.39935152       0.00000000      -0.00000000 </v>
   <v>       0.00000000     315.39935152       0.00000000 </v>
   <v>      -0.00000000      -0.00000000     298.11200845 </v>
  </varray>
  <energy>
   <i name="e_fr_energy">     -9.42629060 </i>
   <i name="e_wo_entrp">     -9.42350684 </i>
   <i name="e_0_energy">     -0.00556751 </i>
  </energy>
  <time name="totalsc">    7.79    4.82</time>
 </calculation>
 <calculation>
  <scstep>
   <time name="dav">    1.89    1.19</time>
   <time name="total">    1.97    1.24</time>
   <energy>
    <i name="alphaZ">      5.81030846 </i>
    <i name="ewald">   -294.03580222 </i>
    <i name="hartreedc">     -0.52244925 </i>
    <i name="XCdc">    -16.10879457 </i>
    <i name="pawpsdc">   1028.29000820 </i>
    <i name="pawaedc">   -993.23611894 </i>
    <i name="eentropy">     -0.00521168 </i>
    <i name="bandstr">     54.24850106 </i>
    <i name="atom">    206.13192747 </i>
    <i name="e_fr_energy">     -9.42763147 </i>
    <i name="e_wo_entrp">     -9.42241978 </i>
    <i name="e_0_energy">     -9.42502562 </i>
   </energy>
  </scstep>
  <scstep>
   <time name="dav">    1.55    1.03</time>
   <time name="total">    1.65    1.09</time>
   <energy>
    <i name="e_fr_energy">     -9.42742828 </i>
    <i name="e_wo_entrp">     -9.42221425 </i>
    <i name="e_0_energy">     -9.42482126 </i>
   </energy>
  </scstep>
  <scstep>
   <time name="dav">    1.70    1.14</time>
   <time name="total">    1.79    1.18</time>
   <energy>
    <i name="e_fr_energy">     -9.42733079 </i>
    <i name="e_wo_entrp">     -9.42211372 </i>
    <i name="e_0_energy">     -9.42472225 </i>
   </energy>
  </scstep>
  <scstep>
   <time name="dav">    1.28    0.84</time>
   <time name="total">    1.33    0.87</time>
   <energy>
    <i name="alphaZ">      5.81030846 </i>
    <i name="ewald">   -294.03580222 </i>
    <i name="hartreedc">     -0.52559788 </i>
    <i name="XCdc">    -16.10869891 </i>
    <i name="pawpsdc">   1028.32502001 </i>
    <i name="pawaedc">   -993.27113800 </i>
    <i name="eentropy">     -0.00521701 </i>
    <i name="bandstr">     54.25186658 </i>
    <i name="atom">    206.13192747 </i>
    <i name="e_fr_energy">     -9.42733149 </i>
    <i name="e_wo_entrp">     -9.42211448 </i>
    <i name="e_0_energy">     -9.42472298 </i>
   </energy>
  </scstep>
  <structure>
   <crystal>
    <varray name="basis" >
     <v>       2.55971831       0.00000000       0.00000000 </v>
     <v>      -1.27985915       2.21678108       0.00000000 </v>
     <v>      -0.00000000       0.00000000       4.08413722 </v>
    </varray>
    <i name="volume">     23.17476328 </i>
    <varray name="rec_basis" >
     <v>       0.39066799       0.22555227       0.00000000 </v>
     <v>       0.00000000       0.45110454       0.00000000 </v>
     <v>       0.00000000       0.00000000       0.24484976 </v>
    </varray>
   </crystal>
   <varray name="positions" >
    <v>      -0.00000000       0.00000000       0.00000000 </v>
    <v>       0.33333333       0.66666667       0.50000000 </v>
   </varray>
  </structure>
  <varray name="forces" >
   <v>       0.00000000       0.00000000       0.00000000 </v>
   <v>      -0.00000000       0.00000000       0.00000000 </v>
  </varray>
  <varray name="stress" >
   <v>     313.12428252       0.00000000      -0.00000000 </v>
   <v>       0.00000000     313.12428252       0.00000000 </v>
   <v>      -0.00000000       0.00000000     304.38944367 </v>
  </varray>
  <energy>
   <i name="e_fr_energy">     -9.42733149 </i>
   <i name="e_wo_entrp">     -9.42472298 </i>
   <i name="e_0_energy">     -0.00521701 </i>
  </energy>
  <time name="totalsc">    7.35    4.80</time>
 </calculation>
 <calculation>
  <scstep>
   <time name="dav">    2.15    1.39</time>
   <time name="total">    2.27    1.45</time>
   <energy>
    <i name="alphaZ">      5.81030846 </i>
    <i name="ewald">   -294.00145852 </i>
    <i name="hartreedc">     -0.52610229 </i>
    <i name="XCdc">    -16.10890504 </i>
    <i name="pawpsdc">   1028.34916077 </i>
    <i name="pawaedc">   -993.29526563 </i>
    <i name="eentropy">     -0.00292436 </i>
    <i name="bandstr">     54.21687866 </i>
    <i name="atom">    206.13192747 </i>
    <i name="e_fr_energy">     -9.42638046 </i>
    <i name="e_wo_entrp">     -9.42345610 </i>
    <i name="e_0_energy">     -9.42491828 </i>
   </energy>
  </scstep>
  <scstep>
   <time name="dav">    1.41    0.87</time>
   <time name="total">    1.49    0.92</time>
   <energy>
    <i name="e_fr_energy">     -9.42561024 </i>
    <i name="e_wo_entrp">     -9.42266928 </i>
    <i name="e_0_energy">     -9.42413976 </i>
   </energy>
  </scstep>
  <scstep>
   <time name="dav">    1.98    1.25</time>
   <time name="total">    2.08    1.31</time>
   <energy>
    <i name="e_fr_energy">     -9.42523786 </i>
    <i name="e_wo_entrp">     -9.42227443 </i>
    <i name="e_0_energy">     -9.42375615 </i>
   </energy>
  </scstep>
  <scstep>
   <time name="dav">    1.49    0.96</time>
   <time name="total">    1.59    1.01</time>
   <energy>
    <i name="alphaZ">      5.81030846 </i>
    <i name="ewald">   -294.00145852 </i>
    <i name="hartreedc">     -0.53665755 </i>
    <i name="XCdc">    -16.10796036 </i>
    <i name="pawpsdc">   1028.70895638 </i>
    <i name="pawaedc">   -993.65498359 </i>
    <i name="eentropy">     -0.00296311 </i>
    <i name="bandstr">     54.22759027 </i>
    <i name="atom">    206.13192747 </i>
    <i name="e_fr_energy">     -9.42524054 </i>
    <i name="e_wo_entrp">     -9.42227742 </i>
    <i name="e_0_energy">     -9.42375898 </i>
   </energy>
  </scstep>
  <structure>
   <crystal>
    <varray name="basis" >
     <v>       2.57154342       0.00000000       0.00000000 </v>
     <v>      -1.28577171       2.22702193       0.00000000 </v>
     <v>      -0.00000000       0.00000000       4.04666220 </v>
    </varray>
    <i name="volume">     23.17476328 </i>
    <varray name="rec_basis" >
     <v>       0.38887152       0.22451508       0.00000000 </v>
     <v>       0.00000000       0.44903015       0.00000000 </v>
     <v>       0.00000000       0.00000000       0.24711724 </v>
    </varray>
   </crystal>
   <varray name="positions" >
    <v>      -0.00000000       0.00000000       0.00000000 </v>
    <v>       0.33333333       0.66666667       0.50000000 </v>
   </varray>
  </structure>
  <varray name="forces" >
   <v>       0.00000000       0.00000000       0.00000000 </v>
   <v>      -0.00000000       0.00000000       0.00000000 </v>
  </varray>
  <varray name="stress" >
   <v>     295.48330172       0.00000000       0.00000000 </v>
   <v>       0.00000000     295.48330172       0.00000000 </v>
   <v>      -0.00000000      -0.00000000     341.74107255 </v>
  </varray>
  <energy>
   <i name="e_fr_energy">     -9.42524054 </i>
   <i name="e_wo_entrp">     -9.42375898 </i>
   <i name="e_0_energy">     -0.00296311 </i>
  </energy>
  <time name="totalsc">    8.12    5.17</time>
 </calculation>
 <calculation>
  <scstep>
   <time name="dav">    2.23    1.39</time>
   <time name="total">    2.32    1.46</time>
   <energy>
    <i name="alphaZ">      5.81030846 </i>
    <i name="ewald">   -294.03130433 </i>
    <i name="hartreedc">     -0.53565765 </i>
    <i name="XCdc">    -16.10798324 </i>
    <i name="pawpsdc">   1028.78847553 </i>
    <i name="pawaedc">   -993.73444831 </i>
    <i name="eentropy">     -0.00503186 </i>
    <i name="bandstr">     54.25542534 </i>
    <i name="atom">    206.13192747 </i>
    <i name="e_fr_energy">     -9.42828859 </i>
    <i name="e_wo_entrp">     -9.42325673 </i>
    <i name="e_0_energy">     -9.42577266 </i>
   </energy>
  </scstep>
  <scstep>
   <time name="dav">    1.29    0.81</time>
   <time name="total">    1.38    0.87</time>
   <energy>
    <i name="e_fr_energy">     -9.42772142 </i>
    <i name="e_wo_entrp">     -9.42269852 </i>
    <i name="e_0_energy">     -9.42520997 </i>
   </energy>
  </scstep>
  <scstep>
   <time name="dav">    2.23    1.44</time>
   <time name="total">    2.35    1.51</time>
   <energy>
    <i name="e_fr_energy">     -9.42744932 </i>
    <i name="e_wo_entrp">     -9.42243697 </i>
    <i name="e_0_energy">     -9.42494314 </i>
   </energy>
  </scstep>
  <scstep>
   <time name="dav">    1.14    0.75</time>
   <time name="total">    1.19    0.78</time>
   <energy>
    <i name="alphaZ">      5.81030846 </i>
    <i name="ewald">   -294.03130433 </i>
    <i name="hartreedc">     -0.52651023 </i>
    <i name="XCdc">    -16.10874476 </i>
    <i name="pawpsdc">   1028.36716780 </i>
    <i name="pawaedc">   -993.31319823 </i>
    <i name="eentropy">     -0.00501255 </i>
    <i name="bandstr">     54.24791503 </i>
    <i name="atom">    206.13192747 </i>
    <i name="e_fr_energy">     -9.42745132 </i>
    <i name="e_wo_entrp">     -9.42243878 </i>
    <i name="e_0_energy">     -9.42494505 </i>
   </energy>
  </scstep>
  <structure>
   <crystal>
    <varray name="basis" >
     <v>       2.56158916       0.00000000       0.00000000 </v>
     <v>      -1.28079458       2.21840129       0.00000000 </v>
     <v>      -0.00000000       0.00000000       4.07817372 </v>
    </varray>
    <i name="volume">     23.17476328 </i>
    <varray name="rec_basis" >
     <v>       0.39038266       0.22538754       0.00000000 </v>
     <v>       0.00000000       0.45077507       0.00000000 </v>
     <v>       0.00000000       0.00000000       0.24520780 </v>
    </varray>
   </crystal>
   <varray name="positions" >
    <v>      -0.00000000       0.00000000       0.00000000 </v>
    <v>       0.33333333       0.66666667       0.50000000 </v>
   </varray>
  </structure>
  <varray name="forces" >
   <v>       0.00000000       0.00000000       0.00000000 </v>
   <v>      -0.00000000       0.00000000       0.00000000 </v>
  </varray>
  <varray name="stress" >
   <v>     311.20070059       0.00000000      -0.00000000 </v>
   <v>       0.00000000     311.20070059       0.00000000 </v>
   <v>       0.00000000       0.00000000     308.63107406 </v>
  </varray>
  <energy>
   <i name="e_fr_energy">     -9.42745132 </i>
   <i name="e_wo_entrp">     -9.42494505 </i>
   <i name="e_0_energy">     -0.00501255 </i>
  </energy>
  <time name="totalsc">    7.76    5.08</time>
 </calculation>
 <calculation>
  <scstep>
   <time name="dav">    1.51    1.03</time>
   <time name="total">    1.58    1.08</time>
   <energy>
    <i name="alphaZ">      5.81030846 </i>
    <i name="ewald">   -294.02942775 </i>
    <i name="hartreedc">     -0.52675134 </i>
    <i name="XCdc">    -16.10871194 </i>
    <i name="pawpsdc">   1028.32805679 </i>
    <i name="pawaedc">   -993.27411511 </i>
    <i name="eentropy">     -0.00490063 </i>
    <i name="bandstr">     54.24614829 </i>
    <i name="atom">    206.13192747 </i>
    <i name="e_fr_energy">     -9.42746575 </i>
    <i name="e_wo_entrp">     -9.42256512 </i>
    <i name="e_0_energy">     -9.42501543 </i>
   </energy>
  </scstep>
  <scstep>
   <time name="dav">    1.03    0.64</time>
   <time name="total">    1.09    0.68</time>
   <energy>
    <i name="alphaZ">      5.81030846 </i>
    <i name="ewald">   -294.02942775 </i>
    <i name="hartreedc">     -0.52704389 </i>
    <i name="XCdc">    -16.10868508 </i>
    <i name="pawpsdc">   1028.34935872 </i>
    <i name="pawaedc">   -993.29540285 </i>
    <i name="eentropy">     -0.00490142 </i>
    <i name="bandstr">     54.24640419 </i>
    <i name="atom">    206.13192747 </i>
    <i name="e_fr_energy">     -9.42746215 </i>
    <i name="e_wo_entrp">     -9.42256073 </i>
    <i name="e_0_energy">     -9.42501144 </i>
   </energy>
  </scstep>
  <structure>
   <crystal>
    <varray name="basis" >
     <v>       2.56232865       0.00000000       0.00000000 </v>
     <v>      -1.28116433       2.21904170       0.00000000 </v>
     <v>      -0.00000000       0.00000000       4.07582013 </v>
    </varray>
    <i name="volume">     23.17476328 </i>
    <varray name="rec_basis" >
     <v>       0.39027000       0.22532249       0.00000000 </v>
     <v>       0.00000000       0.45064498       0.00000000 </v>
     <v>       0.00000000       0.00000000       0.24534939 </v>
    </varray>
   </crystal>
   <varray name="positions" >
    <v>      -0.00000000       0.00000000       0.00000000 </v>
    <v>       0.33333333       0.66666667       0.50000000 </v>
   </varray>
  </structure>
  <varray name="forces" >
   <v>       0.00000000       0.00000000       0.00000000 </v>
   <v>      -0.00000000       0.00000000       0.00000000 </v>
  </varray>
  <varray name="stress" >
   <v>     310.52116230       0.00000000       0.00000000 </v>
   <v>       0.00000000     310.52116230       0.00000000 </v>
   <v>       0.00000000       0.00000000     310.11003226 </v>
  </varray>
  <energy>
   <i name="e_fr_energy">     -9.42746215 </i>
   <i name="e_wo_entrp">     -9.42501144 </i>
   <i name="e_0_energy">     -0.00490142 </i>
  </energy>
  <time name="totalsc">    3.08    2.13</time>
  <eigenvalues>
   <array>
    <dimension dim="1">band</dimension>
    <dimension dim="2">kpoint</dimension>
    <dimension dim="3">spin</dimension>
    <field>eigene</field>
    <field>occ</field>
    <set>
     <set comment="spin 1">
      <set comment="kpoint 1">
       <r>   -2.6280    1.0000 </r>
       <r>    4.4911    1.0000 </r>
       <r>    7.3043    1.0000 </r>
       <r>   18.1889    0.0000 </r>
       <r>   18.4069    0.0000 </r>
       <r>   24.3010    0.0000 </r>
       <r>   24.5416    0.0000 </r>
       <r>   24.8013    0.0000 </r>
      </set>
      <set comment="kpoint 2">
       <r>   -0.5981    1.0000 </r>
       <r>    6.4192    1.0000 </r>
       <r>    9.1295    1.0000 </r>
       <r>   11.3992    1.0000 </r>
       <r>   15.7044    0.0000 </r>
       <r>   18.0158    0.0000 </r>
       <r>   20.4200    0.0000 </r>
       <r>   22.5788    0.0000 </r>
      </set>
      <set comment="kpoint 3">
       <r>    2.9835    1.0000 </r>
       <r>    5.3643    1.0000 </r>
       <r>    9.9028    1.0000 </r>
       <r>   11.9572    1.0000 </r>
       <r>   12.9764    1.0000 </r>
       <r>   14.5123    0.0000 </r>
       <r>   15.4961    0.0000 </r>
       <r>   21.4067    0.0000 </r>
      </set>
      <set comment="kpoint 4">
       <r>    1.0078    1.0000 </r>
       <r>    7.6269    1.0000 </r>
       <r>    8.4271    1.0000 </r>
       <r>   10.8463    1.0000 </r>
       <r>   14.6075    0.0000 </r>
       <r>   15.4340    0.0000 </r>
       <r>   17.7061    0.0000 </r>
       <r>   21.7866    0.0000 </r>
      </set>
      <set comment="kpoint 5">
       <r>   -1.8131    1.0000 </r>
       <r>    5.2689    1.0000 </r>
       <r>    8.0637    1.0000 </r>
       <r>   14.6899    0.0000 </r>
       <r>   16.8460    0.0000 </r>
       <r>   21.1763    0.0000 </r>
       <r>   22.9449    0.0000 </r>
       <r>   23.8238    0.0000 </r>
      </set>
      <set comment="kpoint 6">
       <r>   -3.0369    1.0000 </r>
       <r>    4.1001    1.0000 </r>
       <r>    6.9196    1.0000 </r>
       <r>   20.0313    0.0000 </r>
       <r>   21.3235    0.0000 </r>
       <r>   23.3058    0.0000 </r>
       <r>   25.6910    0.0000 </r>
       <r>   26.1093    0.0000 </r>
      </set>
      <set comment="kpoint 7">
       <r>    2.2025    1.0000 </r>
       <r>    8.5223    1.0000 </r>
       <r>    9.4561    1.0000 </r>
       <r>    9.6216    1.0000 </r>
       <r>   12.0689    1.0000 </r>
       <r>   15.7133    0.0000 </r>
       <r>   16.5696    0.0000 </r>
       <r>   18.9665    0.0000 </r>
      </set>
      <set comment="kpoint 8">
       <r>    4.1631    1.0000 </r>
       <r>    6.5103    1.0000 </r>
       <r>    8.8186    1.0000 </r>
       <r>   11.1255    1.0000 </r>
       <r>   13.0480    1.0000 </r>
       <r>   14.1457    0.0000 </r>
       <r>   15.6677    0.0000 </r>
       <r>   17.0177    0.0000 </r>
      </set>
      <set comment="kpoint 9">
       <r>    0.6083    1.0000 </r>
       <r>    7.5311    1.0000 </r>
       <r>    9.7209    1.0000 </r>
       <r>   10.7507    1.0000 </r>
       <r>   12.4908    1.0000 </r>
       <r>   16.8599    0.0000 </r>
       <r>   18.7504    0.0000 </r>
       <r>   20.1856    0.0000 </r>
      </set>
      <set comment="kpoint 10">
       <r>   -1.4072    1.0000 </r>
       <r>    5.6548    1.0000 </r>
       <r>    8.4322    1.0000 </r>
       <r>   12.8475    1.0000 </r>
       <r>   18.5393    0.0000 </r>
       <r>   19.2723    0.0000 </r>
       <r>   20.7916    0.0000 </r>
       <r>   22.1401    0.0000 </r>
      </set>
      <set comment="kpoint 11">
       <r>    4.3655    1.0000 </r>
       <r>    4.7791    1.0000 </r>
       <r>   10.8693    1.0000 </r>
       <r>   11.6856    1.0000 </r>
       <r>   11.7388    1.0000 </r>
       <r>   14.3176    0.0000 </r>
       <r>   14.7337    0.0000 </r>
       <r>   18.7260    0.0000 </r>
      </set>
      <set comment="kpoint 12">
       <r>    1.8031    1.0000 </r>
       <r>    6.4827    1.0000 </r>
       <r>    8.8268    1.0000 </r>
       <r>   11.4973    1.0000 </r>
       <r>   13.5771    0.0133 </r>
       <r>   16.0942    0.0000 </r>
       <r>   17.1395    0.0000 </r>
       <r>   19.6268    0.0000 </r>
      </set>
      <set comment="kpoint 13">
       <r>   -2.1438    1.0000 </r>
       <r>    2.1549    1.0000 </r>
       <r>   10.4783    1.0000 </r>
       <r>   18.6067    0.0000 </r>
       <r>   18.7538    0.0000 </r>
       <r>   22.0400    0.0000 </r>
       <r>   22.5860    0.0000 </r>
       <r>   22.8886    0.0000 </r>
      </set>
      <set comment="kpoint 14">
       <r>   -0.1194    1.0000 </r>
       <r>    4.1249    1.0000 </r>
       <r>   11.4488    1.0000 </r>
       <r>   12.5801    1.0000 </r>
       <r>   15.5637    0.0000 </r>
       <r>   16.4963    0.0000 </r>
       <r>   20.1369    0.0000 </r>
       <r>   22.8541    0.0000 </r>
      </set>
      <set comment="kpoint 15">
       <r>    3.4498    1.0000 </r>
       <r>    5.7803    1.0000 </r>
       <r>    7.7423    1.0000 </r>
       <r>   10.0075    1.0000 </r>
       <r>   14.8523    0.0000 </r>
       <r>   16.0771    0.0000 </r>
       <r>   17.9234    0.0000 </r>
       <r>   19.5610    0.0000 </r>
      </set>
      <set comment="kpoint 16">
       <r>    1.4819    1.0000 </r>
       <r>    5.6567    1.0000 </r>
       <r>    8.6317    1.0000 </r>
       <r>   12.4932    1.0000 </r>
       <r>   14.0378    0.0000 </r>
       <r>   15.6565    0.0000 </r>
       <r>   19.2681    0.0000 </r>
       <r>   20.9496    0.0000 </r>
      </set>
      <set comment="kpoint 17">
       <r>   -1.3311    1.0000 </r>
       <r>    2.9470    1.0000 </r>
       <r>   11.1935    1.0000 </r>
       <r>   15.1280    0.0000 </r>
       <r>   17.2265    0.0000 </r>
       <r>   19.1273    0.0000 </r>
       <r>   21.2458    0.0000 </r>
       <r>   22.8028    0.0000 </r>
      </set>
      <set comment="kpoint 18">
       <r>   -2.5516    1.0000 </r>
       <r>    1.7572    1.0000 </r>
       <r>   10.1082    1.0000 </r>
       <r>   20.3510    0.0000 </r>
       <r>   21.7332    0.0000 </r>
       <r>   21.7510    0.0000 </r>
       <r>   23.9730    0.0000 </r>
       <r>   24.6187    0.0000 </r>
      </set>
      <set comment="kpoint 19">
       <r>    2.6726    1.0000 </r>
       <r>    6.7779    1.0000 </r>
       <r>    9.6594    1.0000 </r>
       <r>    9.8941    1.0000 </r>
       <r>   13.5806    0.0117 </r>
       <r>   13.7150    0.0000 </r>
       <r>   15.8849    0.0000 </r>
       <r>   21.6308    0.0000 </r>
      </set>
      <set comment="kpoint 20">
       <r>    4.6234    1.0000 </r>
       <r>    6.9086    1.0000 </r>
       <r>    8.6960    1.0000 </r>
       <r>    9.5674    1.0000 </r>
       <r>   11.2449    1.0000 </r>
       <r>   13.4016    0.6048 </r>
       <r>   17.3614    0.0000 </r>
       <r>   19.5150    0.0000 </r>
      </set>
      <set comment="kpoint 21">
       <r>    1.0836    1.0000 </r>
       <r>    5.2868    1.0000 </r>
       <r>   10.4829    1.0000 </r>
       <r>   12.6418    1.0000 </r>
       <r>   13.4271    0.4619 </r>
       <r>   15.0143    0.0000 </r>
       <r>   17.1001    0.0000 </r>
       <r>   22.5319    0.0000 </r>
      </set>
      <set comment="kpoint 22">
       <r>   -0.9262    1.0000 </r>
       <r>    3.3411    1.0000 </r>
       <r>   11.4919    1.0000 </r>
       <r>   13.3496    0.8414 </r>
       <r>   17.2400    0.0000 </r>
       <r>   18.9544    0.0000 </r>
       <r>   21.0228    0.0000 </r>
       <r>   22.6929    0.0000 </r>
      </set>
      <set comment="kpoint 23">
       <r>    4.8237    1.0000 </r>
       <r>    5.2269    1.0000 </r>
       <r>    8.9925    1.0000 </r>
       <r>    9.4562    1.0000 </r>
       <r>   12.1220    1.0000 </r>
       <r>   15.7079    0.0000 </r>
       <r>   17.4715    0.0000 </r>
       <r>   18.2326    0.0000 </r>
      </set>
      <set comment="kpoint 24">
       <r>    2.2744    1.0000 </r>
       <r>    6.2692    1.0000 </r>
       <r>    7.2621    1.0000 </r>
       <r>   11.1136    1.0000 </r>
       <r>   14.7815    0.0000 </r>
       <r>   17.5550    0.0000 </r>
       <r>   18.8043    0.0000 </r>
       <r>   20.1883    0.0000 </r>
      </set>
      <set comment="kpoint 25">
       <r>   -1.1794    1.0000 </r>
       <r>    0.2575    1.0000 </r>
       <r>   14.0259    0.0000 </r>
       <r>   17.7481    0.0000 </r>
       <r>   19.4139    0.0000 </r>
       <r>   19.9166    0.0000 </r>
       <r>   20.9126    0.0000 </r>
       <r>   21.2656    0.0000 </r>
      </set>
      <set comment="kpoint 26">
       <r>    0.8339    1.0000 </r>
       <r>    2.2534    1.0000 </r>
       <r>   12.5178    1.0000 </r>
       <r>   13.7791    0.0000 </r>
       <r>   15.9324    0.0000 </r>
       <r>   17.1294    0.0000 </r>
       <r>   18.5750    0.0000 </r>
       <r>   20.1681    0.0000 </r>
      </set>
      <set comment="kpoint 27">
       <r>    4.3709    1.0000 </r>
       <r>    5.6614    1.0000 </r>
       <r>    6.9532    1.0000 </r>
       <r>    8.2237    1.0000 </r>
       <r>   15.8889    0.0000 </r>
       <r>   17.0875    0.0000 </r>
       <r>   19.5701    0.0000 </r>
       <r>   21.4800    0.0000 </r>
      </set>
      <set comment="kpoint 28">
       <r>    2.4251    1.0000 </r>
       <r>    3.8262    1.0000 </r>
       <r>    9.5234    1.0000 </r>
       <r>   10.8604    1.0000 </r>
       <r>   16.1609    0.0000 </r>
       <r>   17.0778    0.0000 </r>
       <r>   18.3310    0.0000 </r>
       <r>   21.2949    0.0000 </r>
      </set>
      <set comment="kpoint 29">
       <r>   -0.3711    1.0000 </r>
       <r>    1.0591    1.0000 </r>
       <r>   14.5796    0.0000 </r>
       <r>   15.9643    0.0000 </r>
       <r>   17.2580    0.0000 </r>
       <r>   17.8913    0.0000 </r>
       <r>   19.3077    0.0000 </r>
       <r>   19.8279    0.0000 </r>
      </set>
      <set comment="kpoint 30">
       <r>   -1.5850    1.0000 </r>
       <r>   -0.1449    1.0000 </r>
       <r>   13.6863    0.0001 </r>
       <r>   17.5715    0.0000 </r>
       <r>   21.3674    0.0000 </r>
       <r>   22.5522    0.0000 </r>
       <r>   22.5645    0.0000 </r>
       <r>   23.7788    0.0000 </r>
      </set>
      <set comment="kpoint 31">
       <r>    3.6069    1.0000 </r>
       <r>    4.9906    1.0000 </r>
       <r>   10.4791    1.0000 </r>
       <r>   10.7032    1.0000 </r>
       <r>   12.0466    1.0000 </r>
       <r>   12.2373    1.0000 </r>
       <r>   18.9382    0.0000 </r>
       <r>   22.4371    0.0000 </r>
      </set>
      <set comment="kpoint 32">
       <r>    5.5289    1.0000 </r>
       <r>    6.7725    1.0000 </r>
       <r>    8.1164    1.0000 </r>
       <r>    9.2748    1.0000 </r>
       <r>   10.4918    1.0000 </r>
       <r>   11.7235    1.0000 </r>
       <r>   20.6512    0.0000 </r>
       <r>   22.5636    0.0000 </r>
      </set>
      <set comment="kpoint 33">
       <r>    2.0297    1.0000 </r>
       <r>    3.4368    1.0000 </r>
       <r>   11.3930    1.0000 </r>
       <r>   12.6343    1.0000 </r>
       <r>   13.7884    0.0000 </r>
       <r>   14.9408    0.0000 </r>
       <r>   17.6540    0.0000 </r>
       <r>   21.1984    0.0000 </r>
      </set>
      <set comment="kpoint 34">
       <r>    0.0316    1.0000 </r>
       <r>    1.4583    1.0000 </r>
       <r>   13.9066    0.0000 </r>
       <r>   14.8375    0.0000 </r>
       <r>   15.9652    0.0000 </r>
       <r>   19.0349    0.0000 </r>
       <r>   19.7852    0.0000 </r>
       <r>   21.0323    0.0000 </r>
      </set>
      <set comment="kpoint 35">
       <r>    5.7000    1.0000 </r>
       <r>    6.0425    1.0000 </r>
       <r>    7.3331    1.0000 </r>
       <r>    7.6833    1.0000 </r>
       <r>   13.0019    1.0000 </r>
       <r>   14.2935    0.0000 </r>
       <r>   20.7441    0.0000 </r>
       <r>   21.2486    0.0000 </r>
      </set>
      <set comment="kpoint 36">
       <r>    3.2109    1.0000 </r>
       <r>    4.5939    1.0000 </r>
       <r>    8.0097    1.0000 </r>
       <r>    9.3537    1.0000 </r>
       <r>   18.0423    0.0000 </r>
       <r>   18.3870    0.0000 </r>
       <r>   19.6373    0.0000 </r>
       <r>   20.1466    0.0000 </r>
      </set>
     </set>
    </set>
   </array>
  </eigenvalues>
  <separator name="orbital magnetization" >
   <v name="MAGDIPOLOUT">      0.00000000      0.00000000      0.00000000</v>
  </separator>
  <dos>
   <i name="efermi">     13.42037428 </i>
   <total>
    <array>
     <dimension dim="1">gridpoints</dimension>
     <dimension dim="2">spin</dimension>
     <field>energy</field>
     <field>total</field>
     <field>integrated</field>
     <set>
      <set comment="spin 1">
       <r>    -4.4942     0.0000     0.0000 </r>
       <r>    -4.3873     0.0000     0.0000 </r>
       <r>    -4.2804     0.0000     0.0000 </r>
       <r>    -4.1736     0.0000     0.0000 </r>
       <r>    -4.0667     0.0000     0.0000 </r>
       <r>    -3.9598     0.0000     0.0000 </r>
       <r>    -3.8530     0.0000     0.0000 </r>
       <r>    -3.7461     0.0000     0.0000 </r>
       <r>    -3.6392     0.0000     0.0000 </r>
       <r>    -3.5324     0.0000     0.0000 </r>
       <r>    -3.4255     0.0000     0.0000 </r>
       <r>    -3.3186     0.0000     0.0000 </r>
       <r>    -3.2118     0.0023     0.0002 </r>
       <r>    -3.1049     0.0559     0.0062 </r>
       <r>    -2.9980     0.1874     0.0262 </r>
       <r>    -2.8911     0.0942     0.0363 </r>
       <r>    -2.7843     0.0116     0.0376 </r>
       <r>    -2.6774     0.0922     0.0474 </r>
       <r>    -2.5705     0.3140     0.0810 </r>
       <r>    -2.4637     0.2415     0.1068 </r>
       <r>    -2.3568     0.0399     0.1110 </r>
       <r>    -2.2499     0.0237     0.1136 </r>
       <r>    -2.1431     0.1516     0.1298 </r>
       <r>    -2.0362     0.1502     0.1458 </r>
       <r>    -1.9293     0.0560     0.1518 </r>
       <r>    -1.8225     0.2760     0.1813 </r>
       <r>    -1.7156     0.3359     0.2172 </r>
       <r>    -1.6087     0.1741     0.2358 </r>
       <r>    -1.5018     0.2146     0.2587 </r>
       <r>    -1.3950     0.3279     0.2938 </r>
       <r>    -1.2881     0.5339     0.3508 </r>
       <r>    -1.1812     0.3403     0.3872 </r>
       <r>    -1.0744     0.1713     0.4055 </r>
       <r>    -0.9675     0.1141     0.4177 </r>
       <r>    -0.8606     0.1889     0.4379 </r>
       <r>    -0.7538     0.0682     0.4452 </r>
       <r>    -0.6469     0.1628     0.4626 </r>
       <r>    -0.5400     0.3865     0.5039 </r>
       <r>    -0.4332     0.2617     0.5319 </r>
       <r>    -0.3263     0.3887     0.5734 </r>
       <r>    -0.2194     0.2735     0.6026 </r>
       <r>    -0.1125     0.5206     0.6583 </r>
       <r>    -0.0057     0.4829     0.7099 </r>
       <r>     0.1012     0.2364     0.7351 </r>
       <r>     0.2081     0.1341     0.7495 </r>
       <r>     0.3149     0.1926     0.7701 </r>
       <r>     0.4218     0.0716     0.7777 </r>
       <r>     0.5287     0.0906     0.7874 </r>
       <r>     0.6355     0.3621     0.8261 </r>
       <r>     0.7424     0.2888     0.8570 </r>
       <r>     0.8493     0.3681     0.8963 </r>
       <r>     0.9561     0.4845     0.9481 </r>
       <r>     1.0630     0.9639     1.0511 </r>
       <r>     1.1699     0.7831     1.1348 </r>
       <r>     1.2768     0.1254     1.1482 </r>
       <r>     1.3836     0.1074     1.1596 </r>
       <r>     1.4905     0.5069     1.2138 </r>
       <r>     1.5974     0.3860     1.2551 </r>
       <r>     1.7042     0.1453     1.2706 </r>
       <r>     1.8111     0.3528     1.3083 </r>
       <r>     1.9180     0.2519     1.3352 </r>
       <r>     2.0248     0.3237     1.3698 </r>
       <r>     2.1317     0.5208     1.4255 </r>
       <r>     2.2386     0.7744     1.5082 </r>
       <r>     2.3454     0.7494     1.5883 </r>
       <r>     2.4523     0.4870     1.6404 </r>
       <r>     2.5592     0.2449     1.6665 </r>
       <r>     2.6661     0.1616     1.6838 </r>
       <r>     2.7729     0.1650     1.7014 </r>
       <r>     2.8798     0.1884     1.7216 </r>
       <r>     2.9867     0.6857     1.7949 </r>
       <r>     3.0935     0.4954     1.8478 </r>
       <r>     3.2004     0.1984     1.8690 </r>
       <r>     3.3073     0.3042     1.9015 </r>
       <r>     3.4141     0.6489     1.9709 </r>
       <r>     3.5210     0.8131     2.0577 </r>
       <r>     3.6279     0.3617     2.0964 </r>
       <r>     3.7347     0.1933     2.1171 </r>
       <r>     3.8416     0.3507     2.1545 </r>
       <r>     3.9485     0.2684     2.1832 </r>
       <r>     4.0554     0.2660     2.2117 </r>
       <r>     4.1622     0.8638     2.3040 </r>
       <r>     4.2691     0.6398     2.3723 </r>
       <r>     4.3760     0.5590     2.4321 </r>
       <r>     4.4828     0.5996     2.4962 </r>
       <r>     4.5897     0.5661     2.5567 </r>
       <r>     4.6966     0.6073     2.6216 </r>
       <r>     4.8034     0.4270     2.6672 </r>
       <r>     4.9103     0.3370     2.7032 </r>
       <r>     5.0172     0.2284     2.7276 </r>
       <r>     5.1240     0.1596     2.7447 </r>
       <r>     5.2309     0.5185     2.8001 </r>
       <r>     5.3378     1.1276     2.9206 </r>
       <r>     5.4447     0.7239     2.9980 </r>
       <r>     5.5515     0.5704     3.0589 </r>
       <r>     5.6584     1.1128     3.1778 </r>
       <r>     5.7653     1.2218     3.3084 </r>
       <r>     5.8721     0.5105     3.3630 </r>
       <r>     5.9790     0.1315     3.3770 </r>
       <r>     6.0859     0.1925     3.3976 </r>
       <r>     6.1927     0.1349     3.4120 </r>
       <r>     6.2996     0.2220     3.4357 </r>
       <r>     6.4065     0.4676     3.4857 </r>
       <r>     6.5133     0.8336     3.5748 </r>
       <r>     6.6202     0.4764     3.6257 </r>
       <r>     6.7271     0.3036     3.6581 </r>
       <r>     6.8340     0.7375     3.7370 </r>
       <r>     6.9408     1.0069     3.8446 </r>
       <r>     7.0477     0.6697     3.9161 </r>
       <r>     7.1546     0.1199     3.9290 </r>
       <r>     7.2614     0.2919     3.9602 </r>
       <r>     7.3683     0.5334     4.0172 </r>
       <r>     7.4752     0.3356     4.0530 </r>
       <r>     7.5820     0.5970     4.1168 </r>
       <r>     7.6889     0.8392     4.2065 </r>
       <r>     7.7958     0.6596     4.2770 </r>
       <r>     7.9026     0.2035     4.2987 </r>
       <r>     8.0095     0.3498     4.3361 </r>
       <r>     8.1164     0.8773     4.4299 </r>
       <r>     8.2233     0.7754     4.5127 </r>
       <r>     8.3301     0.4398     4.5597 </r>
       <r>     8.4370     0.5693     4.6206 </r>
       <r>     8.5439     0.6771     4.6929 </r>
       <r>     8.6507     0.6970     4.7674 </r>
       <r>     8.7576     0.8225     4.8553 </r>
       <r>     8.8645     0.7313     4.9335 </r>
       <r>     8.9713     0.3994     4.9762 </r>
       <r>     9.0782     0.3481     5.0134 </r>
       <r>     9.1851     0.4912     5.0659 </r>
       <r>     9.2919     0.5559     5.1253 </r>
       <r>     9.3988     0.6202     5.1916 </r>
       <r>     9.5057     0.8940     5.2871 </r>
       <r>     9.6126     1.1501     5.4100 </r>
       <r>     9.7194     0.9047     5.5067 </r>
       <r>     9.8263     0.5649     5.5671 </r>
       <r>     9.9332     0.7028     5.6422 </r>
       <r>    10.0400     0.7317     5.7204 </r>
       <r>    10.1469     0.4188     5.7651 </r>
       <r>    10.2538     0.1125     5.7772 </r>
       <r>    10.3606     0.0898     5.7868 </r>
       <r>    10.4675     0.7595     5.8679 </r>
       <r>    10.5744     1.0392     5.9790 </r>
       <r>    10.6812     0.4471     6.0268 </r>
       <r>    10.7881     0.8348     6.1160 </r>
       <r>    10.8950     1.1617     6.2401 </r>
       <r>    11.0019     0.5397     6.2978 </r>
       <r>    11.1087     0.5296     6.3544 </r>
       <r>    11.2156     1.0743     6.4692 </r>
       <r>    11.3225     0.9249     6.5681 </r>
       <r>    11.4293     1.2183     6.6982 </r>
       <r>    11.5362     1.1459     6.8207 </r>
       <r>    11.6431     0.4904     6.8731 </r>
       <r>    11.7499     0.7283     6.9509 </r>
       <r>    11.8568     0.4750     7.0017 </r>
       <r>    11.9637     0.4253     7.0472 </r>
       <r>    12.0705     0.6939     7.1213 </r>
       <r>    12.1774     0.5580     7.1809 </r>
       <r>    12.2843     0.2969     7.2127 </r>
       <r>    12.3912     0.2192     7.2361 </r>
       <r>    12.4980     0.9990     7.3429 </r>
       <r>    12.6049     1.6838     7.5228 </r>
       <r>    12.7118     1.1243     7.6430 </r>
       <r>    12.8186     0.3434     7.6797 </r>
       <r>    12.9255     0.4188     7.7244 </r>
       <r>    13.0324     0.8660     7.8170 </r>
       <r>    13.1392     0.5889     7.8799 </r>
       <r>    13.2461     0.1203     7.8928 </r>
       <r>    13.3530     0.4166     7.9373 </r>
       <r>    13.4598     0.9266     8.0363 </r>
       <r>    13.5667     0.6523     8.1060 </r>
       <r>    13.6736     0.6600     8.1766 </r>
       <r>    13.7805     1.0128     8.2848 </r>
       <r>    13.8873     0.8538     8.3760 </r>
       <r>    13.9942     0.5645     8.4364 </r>
       <r>    14.1011     0.7735     8.5190 </r>
       <r>    14.2079     0.6098     8.5842 </r>
       <r>    14.3148     0.4566     8.6330 </r>
       <r>    14.4217     0.3597     8.6714 </r>
       <r>    14.5285     0.6275     8.7385 </r>
       <r>    14.6354     1.1793     8.8645 </r>
       <r>    14.7423     1.0990     8.9820 </r>
       <r>    14.8491     1.0345     9.0925 </r>
       <r>    14.9560     1.0050     9.1999 </r>
       <r>    15.0629     0.8243     9.2880 </r>
       <r>    15.1698     0.5681     9.3487 </r>
       <r>    15.2766     0.1998     9.3701 </r>
       <r>    15.3835     0.2097     9.3925 </r>
       <r>    15.4904     0.7791     9.4758 </r>
       <r>    15.5972     1.1459     9.5982 </r>
       <r>    15.7041     1.6048     9.7697 </r>
       <r>    15.8110     1.1809     9.8959 </r>
       <r>    15.9178     1.1893    10.0230 </r>
       <r>    16.0247     1.4525    10.1782 </r>
       <r>    16.1316     1.0722    10.2928 </r>
       <r>    16.2384     0.6162    10.3587 </r>
       <r>    16.3453     0.1178    10.3713 </r>
       <r>    16.4522     0.1930    10.3919 </r>
       <r>    16.5591     0.5146    10.4469 </r>
       <r>    16.6659     0.2940    10.4783 </r>
       <r>    16.7728     0.2091    10.5006 </r>
       <r>    16.8797     0.7385    10.5796 </r>
       <r>    16.9865     0.8349    10.6688 </r>
       <r>    17.0934     1.6597    10.8462 </r>
       <r>    17.2003     1.9812    11.0579 </r>
       <r>    17.3071     1.3692    11.2042 </r>
       <r>    17.4140     0.7736    11.2869 </r>
       <r>    17.5209     0.5575    11.3465 </r>
       <r>    17.6277     0.7935    11.4313 </r>
       <r>    17.7346     0.9902    11.5371 </r>
       <r>    17.8415     0.7228    11.6143 </r>
       <r>    17.9484     0.9355    11.7143 </r>
       <r>    18.0552     0.9227    11.8129 </r>
       <r>    18.1621     0.5187    11.8683 </r>
       <r>    18.2690     0.5458    11.9267 </r>
       <r>    18.3758     0.7663    12.0086 </r>
       <r>    18.4827     0.6759    12.0808 </r>
       <r>    18.5896     0.7628    12.1623 </r>
       <r>    18.6964     0.8567    12.2539 </r>
       <r>    18.8033     0.9903    12.3597 </r>
       <r>    18.9102     0.7086    12.4354 </r>
       <r>    19.0170     0.7639    12.5171 </r>
       <r>    19.1239     0.6723    12.5889 </r>
       <r>    19.2308     0.7315    12.6671 </r>
       <r>    19.3377     1.0279    12.7769 </r>
       <r>    19.4445     0.7345    12.8554 </r>
       <r>    19.5514     1.1124    12.9743 </r>
       <r>    19.6583     1.2514    13.1080 </r>
       <r>    19.7651     0.6209    13.1744 </r>
       <r>    19.8720     0.6670    13.2457 </r>
       <r>    19.9789     0.4913    13.2982 </r>
       <r>    20.0857     0.6444    13.3671 </r>
       <r>    20.1926     1.4827    13.5255 </r>
       <r>    20.2995     0.9937    13.6317 </r>
       <r>    20.4063     0.5444    13.6899 </r>
       <r>    20.5132     0.4251    13.7353 </r>
       <r>    20.6201     0.2944    13.7668 </r>
       <r>    20.7270     0.5557    13.8262 </r>
       <r>    20.8338     0.5360    13.8834 </r>
       <r>    20.9407     0.6592    13.9539 </r>
       <r>    21.0476     0.8259    14.0422 </r>
       <r>    21.1544     0.8589    14.1339 </r>
       <r>    21.2613     1.7098    14.3167 </r>
       <r>    21.3682     1.6860    14.4968 </r>
       <r>    21.4750     1.0794    14.6122 </r>
       <r>    21.5819     0.5473    14.6707 </r>
       <r>    21.6888     0.4516    14.7190 </r>
       <r>    21.7957     0.7723    14.8015 </r>
       <r>    21.9025     0.4369    14.8482 </r>
       <r>    22.0094     0.1602    14.8653 </r>
       <r>    22.1163     0.2996    14.8973 </r>
       <r>    22.2231     0.2248    14.9213 </r>
       <r>    22.3300     0.0666    14.9285 </r>
       <r>    22.4369     0.2883    14.9593 </r>
       <r>    22.5437     1.2808    15.0961 </r>
       <r>    22.6506     1.6350    15.2709 </r>
       <r>    22.7575     0.7650    15.3526 </r>
       <r>    22.8643     0.9785    15.4572 </r>
       <r>    22.9712     0.9392    15.5576 </r>
       <r>    23.0781     0.3054    15.5902 </r>
       <r>    23.1850     0.0372    15.5942 </r>
       <r>    23.2918     0.1312    15.6082 </r>
       <r>    23.3987     0.1677    15.6261 </r>
       <r>    23.5056     0.0319    15.6295 </r>
       <r>    23.6124     0.0050    15.6301 </r>
       <r>    23.7193     0.1135    15.6422 </r>
       <r>    23.8262     0.5041    15.6961 </r>
       <r>    23.9330     0.4696    15.7463 </r>
       <r>    24.0399     0.2345    15.7713 </r>
       <r>    24.1468     0.0630    15.7781 </r>
       <r>    24.2536     0.0845    15.7871 </r>
       <r>    24.3605     0.1919    15.8076 </r>
       <r>    24.4674     0.1208    15.8205 </r>
       <r>    24.5743     0.2736    15.8498 </r>
       <r>    24.6811     0.3079    15.8827 </r>
       <r>    24.7880     0.2028    15.9043 </r>
       <r>    24.8949     0.1699    15.9225 </r>
       <r>    25.0017     0.0314    15.9258 </r>
       <r>    25.1086     0.0008    15.9259 </r>
       <r>    25.2155     0.0000    15.9259 </r>
       <r>    25.3223     0.0000    15.9259 </r>
       <r>    25.4292     0.0000    15.9259 </r>
       <r>    25.5361     0.0049    15.9265 </r>
       <r>    25.6429     0.0812    15.9351 </r>
       <r>    25.7498     0.1902    15.9555 </r>
       <r>    25.8567     0.0670    15.9626 </r>
       <r>    25.9636     0.0100    15.9637 </r>
       <r>    26.0704     0.0942    15.9738 </r>
       <r>    26.1773     0.1874    15.9938 </r>
       <r>    26.2842     0.0559    15.9998 </r>
       <r>    26.3910     0.0023    16.0000 </r>
       <r>    26.4979     0.0000    16.0000 </r>
       <r>    26.6048     0.0000    16.0000 </r>
       <r>    26.7116     0.0000    16.0000 </r>
       <r>    26.8185     0.0000    16.0000 </r>
       <r>    26.9254     0.0000    16.0000 </r>
       <r>    27.0322     0.0000    16.0000 </r>
       <r>    27.1391     0.0000    16.0000 </r>
       <r>    27.2460     0.0000    16.0000 </r>
       <r>    27.3529     0.0000    16.0000 </r>
       <r>    27.4597     0.0000    16.0000 </r>
       <r>    27.5666     0.0000    16.0000 </r>
      </set>
     </set>
    </array>
   </total>
  </dos>
 </calculation>
 <structure name="finalpos" >
  <crystal>
   <varray name="basis" >
    <v>       2.56232865       0.00000000       0.00000000 </v>
    <v>      -1.28116433       2.21904170       0.00000000 </v>
    <v>      -0.00000000       0.00000000       4.07582013 </v>
   </varray>
   <i name="volume">     23.17476328 </i>
   <varray name="rec_basis" >
    <v>       0.39027000       0.22532249       0.00000000 </v>
    <v>       0.00000000       0.45064498       0.00000000 </v>
    <v>       0.00000000       0.00000000       0.24534939 </v>
   </varray>
  </crystal>
  <varray name="positions" >
   <v>      -0.00000000       0.00000000       0.00000000 </v>
   <v>       0.33333333       0.66666667       0.50000000 </v>
  </varray>
 </structure>
</modeling>
