Si beta-tin                             
           1
     2.540000    0.000000    0.000000
    -1.270000    2.199705    0.000000
     0.000000    0.000000    4.147795
    S
   2
Direct configuration=     1
   0.00000000  0.00000000  0.00000000
   0.33333333  0.66666667  0.50000000
Direct configuration=     2
  -0.00000000  0.00000000  0.00000000
   0.33333333  0.66666667  0.50000000
Direct configuration=     3
  -0.00000000  0.00000000  0.00000000
   0.33333333  0.66666667  0.50000000
Direct configuration=     4
  -0.00000000  0.00000000  0.00000000
   0.33333333  0.66666667  0.50000000
Direct configuration=     5
  -0.00000000  0.00000000  0.00000000
   0.33333333  0.66666667  0.50000000
Direct configuration=     6
  -0.00000000  0.00000000  0.00000000
   0.33333333  0.66666667  0.50000000
Direct configuration=     7
  -0.00000000  0.00000000  0.00000000
   0.33333333  0.66666667  0.50000000
