Si beta-tin                             
   2.56000000000000     
     1.004378    0.000000    0.000000
    -0.502189    0.869817   -0.000000
    -0.000000    0.000000    1.618785
    S
     2
Direct
  0.000000  0.000000  0.000000
  0.333333  0.666667  0.500000
 
   36   36   60
 -4.1317     -3.7783     -2.7576     -1.1838     0.76913      2.8926      4.9740      6.8279      8.3195      9.3770    
  9.9923      10.212      10.125      9.8450      9.4920      9.1642      8.9039      8.7369      8.6794      8.7369    
  8.9039      9.1642      9.4920      9.8450      10.125      10.212      9.9923      9.3770      8.3195      6.8279    
  4.9740      2.8926     0.76913     -1.1838     -2.7576     -3.7783     -3.7783     -3.7783     -3.0896     -1.7900    
 -.25092E-01  2.0117      4.1078      6.0630      7.7175      8.9691      9.7798      10.171      10.212      10.007    
  9.6717      9.3223      9.0243      8.8080      8.6943      8.6943      8.8080      9.0243      9.3223      9.6717    
  10.007      10.212      10.171      9.7798      8.9691      7.7175      6.0630      4.1078      2.0117     -.25094E-01
 -1.7900     -3.0896     -2.7576     -3.0930     -2.7576     -1.7900     -.30098      1.5416      3.5376      5.4847    
  7.2075      8.5801      9.5370      10.073      10.236      10.113      9.8134      9.4543      9.1253      8.8648    
  8.6979      8.6405      8.6979      8.8648      9.1253      9.4543      9.8134      10.113      10.236      10.073    
  9.5370      8.5801      7.2075      5.4847      3.5376      1.5416     -.30098     -1.7900     -1.1838     -1.7996    
 -1.7996     -1.1838     -.25091E-01  1.5416      3.3388      5.1734      6.8663      8.2762      9.3152      9.9539    
  10.217      10.171      9.9154      9.5597      9.2067      8.9081      8.6921      8.5790      8.5790      8.6921    
  8.9081      9.2067      9.5597      9.9154      10.171      10.217      9.9539      9.3152      8.2762      6.8663    
  5.1734      3.3387      1.5416     -.25094E-01 0.76913     -.42477E-01 -.32454     -.42476E-01 0.76913      2.0117    
  3.5376      5.1734      6.7464      8.1097      9.1606      9.8493      10.178      10.195      9.9819      9.6389    
  9.2695      8.9394      8.6798      8.5142      8.4573      8.5142      8.6798      8.9394      9.2695      9.6389    
  9.9819      10.195      10.178      9.8493      9.1606      8.1097      6.7464      5.1734      3.5376      2.0117    
  2.8926      1.9863      1.5022      1.5022      1.9863      2.8926      4.1078      5.4847      6.8663      8.1097    
  9.1053      9.7888      10.144      10.200      10.020      9.6933      9.3154      8.9609      8.6643      8.4512    
  8.3399      8.3399      8.4512      8.6643      8.9609      9.3154      9.6933      10.020      10.200      10.144    
  9.7888      9.1053      8.1097      6.8663      5.4847      4.1078      4.9740      4.0752      3.4830      3.2763    
  3.4830      4.0752      4.9740      6.0630      7.2075      8.2762      9.1606      9.7888      10.131      10.199    
  10.039      9.7266      9.3464      8.9749      8.6488      8.3947      8.2334      8.1781      8.2334      8.3947    
  8.6488      8.9749      9.3464      9.7266      10.039      10.199      10.131      9.7888      9.1606      8.2762    
  7.2075      6.0630      6.8279      6.0250      5.4174      5.0903      5.0903      5.4174      6.0250      6.8279    
  7.7174      8.5801      9.3152      9.8493      10.144      10.199      10.045      9.7421      9.3643      8.9831    
  8.6358      8.3486      8.1438      8.0372      8.0372      8.1438      8.3486      8.6358      8.9831      9.3643    
  9.7421      10.045      10.199      10.144      9.8493      9.3152      8.5801      7.7175      8.3195      7.6759    
  7.1312      6.7668      6.6387      6.7668      7.1312      7.6759      8.3195      8.9691      9.5370      9.9539    
  10.178      10.200      10.039      9.7421      9.3702      8.9870      8.6273      8.3163      8.0762      7.9247    
  7.8729      7.9247      8.0762      8.3163      8.6273      8.9870      9.3702      9.7421      10.039      10.200    
  10.178      9.9539      9.5370      8.9691      9.3770      8.9258      8.4984      8.1654      7.9833      7.9833    
  8.1654      8.4984      8.9258      9.3770      9.7798      10.073      10.217      10.195      10.020      9.7266    
  9.3643      8.9870      8.6243      8.2996      8.0342      7.8462      7.7489      7.7489      7.8462      8.0342    
  8.2996      8.6243      8.9870      9.3643      9.7266      10.020      10.195      10.217      10.073      9.7798    
  9.9923      9.7361      9.4528      9.1980      9.0216      8.9587      9.0216      9.1980      9.4528      9.7361    
  9.9923      10.171      10.236      10.171      9.9819      9.6933      9.3464      8.9831      8.6273      8.2996    
  8.0199      7.8060      7.6717      7.6259      7.6717      7.8060      8.0199      8.2996      8.6273      8.9831    
  9.3464      9.6933      9.9819      10.171      10.236      10.171      10.212      10.128      9.9885      9.8337    
  9.7028      9.6282      9.6282      9.7028      9.8337      9.9885      10.128      10.212      10.212      10.113    
  9.9154      9.6389      9.3154      8.9749      8.6358      8.3163      8.0342      7.8060      7.6455      7.5626    
  7.5626      7.6455      7.8060      8.0342      8.3163      8.6358      8.9749      9.3154      9.6389      9.9154    
  10.113      10.212      10.125      10.170      10.152      10.096      10.028      9.9746      9.9547      9.9746    
  10.028      10.096      10.152      10.170      10.125      10.007      9.8134      9.5597      9.2694      8.9609    
  8.6488      8.3486      8.0762      7.8462      7.6717      7.5626      7.5255      7.5626      7.6717      7.8462    
  8.0762      8.3486      8.6488      8.9609      9.2695      9.5597      9.8134      10.007      9.8450      9.9642    
  10.029      10.050      10.043      10.025      10.011      10.011      10.025      10.043      10.050      10.029    
  9.9642      9.8450      9.6717      9.4543      9.2067      8.9394      8.6643      8.3947      8.1438      7.9247    
  7.7489      7.6259      7.5626      7.5626      7.6259      7.7489      7.9247      8.1438      8.3947      8.6643    
  8.9394      9.2067      9.4543      9.6717      9.4920      9.6297      9.7306      9.7947      9.8284      9.8414    
  9.8441      9.8441      9.8441      9.8414      9.8284      9.7947      9.7306      9.6297      9.4920      9.3223    
  9.1253      8.9081      8.6798      8.4512      8.2334      8.0372      7.8729      7.7489      7.6717      7.6455    
  7.6717      7.7489      7.8729      8.0372      8.2334      8.4512      8.6798      8.9081      9.1253      9.3223    
  9.1642      9.2806      9.3719      9.4392      9.4845      9.5114      9.5250      9.5303      9.5303      9.5250    
  9.5114      9.4845      9.4392      9.3719      9.2806      9.1642      9.0243      8.8648      8.6921      8.5142    
  8.3399      8.1781      8.0372      7.9247      7.8462      7.8060      7.8060      7.8462      7.9247      8.0372    
  8.1781      8.3399      8.5142      8.6921      8.8648      9.0243      8.9039      8.9827      9.0431      9.0862    
  9.1143      9.1310      9.1398      9.1437      9.1448      9.1437      9.1398      9.1310      9.1143      9.0862    
  9.0431      8.9827      8.9039      8.8080      8.6979      8.5790      8.4573      8.3399      8.2334      8.1438    
  8.0762      8.0342      8.0199      8.0342      8.0762      8.1438      8.2334      8.3399      8.4573      8.5790    
  8.6979      8.8080      8.7369      8.7664      8.7827      8.7874      8.7834      8.7745      8.7641      8.7554    
  8.7504      8.7504      8.7554      8.7641      8.7745      8.7834      8.7874      8.7827      8.7664      8.7369    
  8.6943      8.6405      8.5790      8.5142      8.4512      8.3947      8.3486      8.3163      8.2996      8.2996    
  8.3163      8.3486      8.3947      8.4512      8.5142      8.5790      8.6405      8.6943      8.6794      8.6528    
  8.6158      8.5712      8.5232      8.4763      8.4347      8.4023      8.3818      8.3748      8.3818      8.4023    
  8.4347      8.4763      8.5232      8.5712      8.6158      8.6528      8.6794      8.6943      8.6979      8.6921    
  8.6798      8.6643      8.6488      8.6358      8.6273      8.6243      8.6273      8.6358      8.6488      8.6643    
  8.6798      8.6921      8.6979      8.6943      8.7369      8.6528      8.5583      8.4579      8.3571      8.2620    
  8.1783      8.1109      8.0639      8.0398      8.0398      8.0639      8.1109      8.1783      8.2620      8.3572    
  8.4579      8.5583      8.6528      8.7369      8.8080      8.8648      8.9081      8.9394      8.9609      8.9749    
  8.9831      8.9870      8.9870      8.9831      8.9749      8.9609      8.9394      8.9081      8.8648      8.8080    
  8.9039      8.7664      8.6158      8.4579      8.3001      8.1501      8.0155      7.9033      7.8191      7.7669    
  7.7492      7.7669      7.8191      7.9033      8.0155      8.1501      8.3001      8.4579      8.6158      8.7664    
  8.9039      9.0243      9.1253      9.2067      9.2694      9.3154      9.3464      9.3643      9.3702      9.3643    
  9.3464      9.3154      9.2695      9.2067      9.1253      9.0243      9.1642      8.9827      8.7827      8.5712    
  8.3571      8.1501      7.9598      7.7954      7.6648      7.5741      7.5277      7.5277      7.5741      7.6648    
  7.7954      7.9598      8.1501      8.3572      8.5712      8.7827      8.9827      9.1642      9.3223      9.4543    
  9.5597      9.6389      9.6933      9.7266      9.7421      9.7421      9.7266      9.6933      9.6389      9.5597    
  9.4543      9.3223      9.4920      9.2806      9.0431      8.7874      8.5232      8.2620      8.0155      7.7954    
  7.6120      7.4743      7.3889      7.3600      7.3889      7.4743      7.6120      7.7954      8.0155      8.2620    
  8.5232      8.7874      9.0431      9.2806      9.4920      9.6717      9.8134      9.9154      9.9819      10.020    
  10.039      10.045      10.039      10.020      9.9819      9.9154      9.8134      9.6717      9.8450      9.6297    
  9.3719      9.0862      8.7834      8.4763      8.1783      7.9033      7.6648      7.4743      7.3417      7.2736    
  7.2736      7.3417      7.4743      7.6648      7.9033      8.1783      8.4763      8.7834      9.0862      9.3719    
  9.6297      9.8450      10.007      10.113      10.171      10.195      10.200      10.199      10.199      10.200    
  10.195      10.171      10.113      10.007      10.125      9.9642      9.7306      9.4392      9.1143      8.7745    
  8.4347      8.1109      7.8191      7.5741      7.3889      7.2736      7.2344      7.2736      7.3889      7.5741    
  7.8191      8.1109      8.4347      8.7745      9.1143      9.4392      9.7306      9.9642      10.125      10.212    
  10.236      10.217      10.178      10.144      10.131      10.144      10.178      10.217      10.236      10.212    
  10.212      10.170      10.029      9.7947      9.4845      9.1310      8.7641      8.4023      8.0639      7.7669    
  7.5277      7.3600      7.2736      7.2736      7.3600      7.5277      7.7669      8.0639      8.4023      8.7641    
  9.1310      9.4845      9.7947      10.029      10.170      10.212      10.171      10.073      9.9539      9.8493    
  9.7888      9.7888      9.8493      9.9539      10.073      10.171      9.9923      10.128      10.152      10.050    
  9.8284      9.5114      9.1398      8.7554      8.3818      8.0398      7.7492      7.5277      7.3889      7.3417    
  7.3889      7.5277      7.7492      8.0398      8.3818      8.7554      9.1398      9.5114      9.8284      10.050    
  10.152      10.128      9.9923      9.7798      9.5370      9.3152      9.1606      9.1053      9.1606      9.3152    
  9.5370      9.7798      9.3770      9.7361      9.9885      10.096      10.043      9.8414      9.5250      9.1437    
  8.7504      8.3748      8.0398      7.7669      7.5741      7.4743      7.4743      7.5741      7.7669      8.0398    
  8.3748      8.7504      9.1437      9.5250      9.8414      10.043      10.096      9.9885      9.7361      9.3770    
  8.9691      8.5801      8.2762      8.1097      8.1097      8.2762      8.5801      8.9691      8.3195      8.9258    
  9.4528      9.8337      10.028      10.025      9.8441      9.5303      9.1448      8.7504      8.3818      8.0639    
  7.8191      7.6648      7.6120      7.6648      7.8191      8.0639      8.3818      8.7504      9.1448      9.5303    
  9.8441      10.025      10.028      9.8337      9.4528      8.9258      8.3195      7.7174      7.2075      6.8663    
  6.7464      6.8663      7.2075      7.7175      6.8279      7.6759      8.4984      9.1980      9.7028      9.9746    
  10.011      9.8441      9.5303      9.1437      8.7554      8.4023      8.1109      7.9033      7.7954      7.7954    
  7.9033      8.1109      8.4023      8.7554      9.1437      9.5303      9.8441      10.011      9.9746      9.7028    
  9.1980      8.4984      7.6759      6.8279      6.0630      5.4847      5.1734      5.1734      5.4847      6.0630    
  4.9740      6.0250      7.1312      8.1654      9.0216      9.6283      9.9547      10.011      9.8441      9.5250    
  9.1398      8.7641      8.4347      8.1783      8.0155      7.9598      8.0155      8.1783      8.4347      8.7641    
  9.1398      9.5250      9.8441      10.011      9.9547      9.6282      9.0216      8.1654      7.1312      6.0250    
  4.9740      4.1078      3.5376      3.3388      3.5376      4.1078      2.8926      4.0752      5.4174      6.7668    
  7.9833      8.9587      9.6283      9.9746      10.025      9.8414      9.5114      9.1310      8.7745      8.4763    
  8.2620      8.1501      8.1501      8.2620      8.4763      8.7745      9.1310      9.5114      9.8414      10.025    
  9.9746      9.6282      8.9587      7.9833      6.7668      5.4174      4.0752      2.8926      2.0117      1.5416    
  1.5416      2.0117     0.76913      1.9863      3.4830      5.0903      6.6387      7.9833      9.0216      9.7028    
  10.028      10.043      9.8284      9.4845      9.1143      8.7834      8.5232      8.3571      8.3001      8.3571    
  8.5232      8.7834      9.1143      9.4845      9.8284      10.043      10.028      9.7028      9.0216      7.9833    
  6.6387      5.0903      3.4830      1.9863     0.76913     -.25091E-01 -.30098     -.25092E-01 -1.1838     -.42479E-01
  1.5022      3.2763      5.0903      6.7668      8.1654      9.1980      9.8337      10.096      10.050      9.7947    
  9.4392      9.0862      8.7874      8.5712      8.4579      8.4579      8.5712      8.7874      9.0862      9.4392    
  9.7947      10.050      10.096      9.8337      9.1980      8.1654      6.7668      5.0903      3.2763      1.5022    
 -.42476E-01 -1.1838     -1.7900     -1.7900     -2.7576     -1.7996     -.32455      1.5022      3.4830      5.4174    
  7.1312      8.4984      9.4528      9.9885      10.152      10.029      9.7306      9.3719      9.0431      8.7827    
  8.6158      8.5583      8.6158      8.7827      9.0431      9.3719      9.7306      10.029      10.152      9.9885    
  9.4528      8.4984      7.1312      5.4174      3.4830      1.5022     -.32454     -1.7996     -2.7576     -3.0896    
 -3.7783     -3.0930     -1.7996     -.42479E-01  1.9863      4.0752      6.0250      7.6759      8.9258      9.7361    
  10.128      10.170      9.9642      9.6297      9.2806      8.9827      8.7664      8.6528      8.6528      8.7664    
  8.9827      9.2806      9.6297      9.9642      10.170      10.128      9.7361      8.9258      7.6759      6.0250    
  4.0752      1.9863     -.42477E-01 -1.7996     -3.0930     -3.7783     -3.7866     -3.4401     -2.4395     -.89742    
  1.0150      3.0926      5.1266      6.9350      8.3861      9.4099      9.9990      10.200      10.101      9.8146    
  9.4596      9.1314      8.8710      8.7040      8.6465      8.7040      8.8710      9.1314      9.4596      9.8146    
  10.101      10.200      9.9990      9.4099      8.3861      6.9350      5.1266      3.0926      1.0150     -.89742    
 -2.4395     -3.4401     -3.4401     -3.4401     -2.7651     -1.4917     0.23665      2.2298      4.2790      6.1877    
  7.7993      9.0141      9.7952      10.164      10.191      9.9761      9.6374      9.2873      8.9890      8.7727    
  8.6591      8.6591      8.7727      8.9890      9.2873      9.6374      9.9761      10.191      10.164      9.7952    
  9.0141      7.7993      6.1877      4.2790      2.2298     0.23665     -1.4917     -2.7651     -2.4395     -2.7681    
 -2.4395     -1.4917     -.33789E-01  1.7693      3.7208      5.6221      7.3015      8.6356      9.5605      10.072    
  10.218      10.083      9.7781      9.4174      9.0881      8.8275      8.6607      8.6033      8.6607      8.8275    
  9.0881      9.4174      9.7781      10.083      10.218      10.072      9.5605      8.6356      7.3015      5.6221    
  3.7208      1.7692     -.33791E-01 -1.4917     -.89742     -1.5002     -1.5002     -.89742     0.23665      1.7693    
  3.5260      5.3176      6.9681      8.3393      9.3453      9.9577      10.201      10.143      9.8797      9.5213    
  9.1678      8.8691      8.6533      8.5402      8.5402      8.6533      8.8691      9.1678      9.5213      9.8797    
  10.143      10.201      9.9577      9.3453      8.3393      6.9681      5.3176      3.5260      1.7692     0.23665    
  1.0150     0.22122     -.54705E-01 0.22122      1.0150      2.2298      3.7208      5.3176      6.8509      8.1769    
  9.1950      9.8567      10.165      10.168      9.9462      9.5993      9.2292      8.8990      8.6396      8.4742    
  8.4174      8.4742      8.6396      8.8990      9.2292      9.5993      9.9462      10.168      10.165      9.8567    
  9.1950      8.1769      6.8509      5.3176      3.7208      2.2298      3.0926      2.2072      1.7342      1.7342    
  2.2072      3.0926      4.2790      5.6221      6.9681      8.1769      9.1411      9.7982      10.133      10.174    
  9.9850      9.6532      9.2740      8.9195      8.6231      8.4102      8.2991      8.2991      8.4102      8.6231    
  8.9195      9.2740      9.6532      9.9850      10.174      10.133      9.7982      9.1411      8.1769      6.9681    
  5.6221      4.2790      5.1266      4.2500      3.6722      3.4705      3.6722      4.2500      5.1266      6.1877    
  7.3015      8.3393      9.1950      9.7982      10.120      10.173      10.004      9.6861      9.3043      8.9327    
  8.6068      8.3530      8.1920      8.1369      8.1920      8.3530      8.6068      8.9327      9.3043      9.6861    
  10.004      10.173      10.120      9.7982      9.1950      8.3393      7.3015      6.1877      6.9350      6.1539    
  5.5623      5.2436      5.2436      5.5623      6.1539      6.9350      7.7993      8.6356      9.3453      9.8567    
  10.133      10.173      10.010      9.7015      9.3218      8.9404      8.5933      8.3066      8.1022      7.9959    
  7.9959      8.1022      8.3066      8.5933      8.9404      9.3218      9.7015      10.010      10.173      10.133    
  9.8567      9.3453      8.6356      7.7993      8.3861      7.7624      7.2336      6.8795      6.7550      6.8795    
  7.2336      7.7624      8.3861      9.0141      9.5605      9.9577      10.165      10.174      10.004      9.7015    
  9.3275      8.9440      8.5845      8.2740      8.0344      7.8833      7.8317      7.8833      8.0344      8.2740    
  8.5845      8.9440      9.3275      9.7015      10.004      10.174      10.165      9.9577      9.5605      9.0141    
  9.4099      8.9756      8.5629      8.2407      8.0644      8.0644      8.2407      8.5628      8.9756      9.4099    
  9.7952      10.072      10.201      10.168      9.9850      9.6861      9.3218      8.9440      8.5815      8.2571    
  7.9923      7.8049      7.7078      7.7078      7.8049      7.9923      8.2571      8.5815      8.9440      9.3218    
  9.6861      9.9850      10.168      10.201      10.072      9.7952      9.9990      9.7564      9.4857      9.2410    
  9.0714      9.0108      9.0714      9.2410      9.4857      9.7564      9.9990      10.164      10.218      10.143    
  9.9462      9.6532      9.3043      8.9404      8.5845      8.2571      7.9781      7.7647      7.6308      7.5852    
  7.6308      7.7647      7.9781      8.2571      8.5845      8.9404      9.3043      9.6532      9.9462      10.143    
  10.218      10.164      10.200      10.126      9.9969      9.8509      9.7266      9.6555      9.6555      9.7266    
  9.8509      9.9969      10.126      10.200      10.191      10.083      9.8797      9.5993      9.2740      8.9327    
  8.5933      8.2740      7.9923      7.7647      7.6047      7.5221      7.5221      7.6047      7.7647      7.9923    
  8.2740      8.5933      8.9327      9.2740      9.5993      9.8797      10.083      10.191      10.101      10.153    
  10.143      10.094      10.032      9.9824      9.9638      9.9824      10.032      10.094      10.143      10.153    
  10.101      9.9761      9.7781      9.5213      9.2292      8.9195      8.6068      8.3066      8.0344      7.8049    
  7.6308      7.5221      7.4851      7.5221      7.6308      7.8049      8.0344      8.3066      8.6068      8.9195    
  9.2292      9.5213      9.7781      9.9761      9.8146      9.9387      10.009      10.036      10.033      10.019    
  10.007      10.007      10.019      10.033      10.036      10.009      9.9387      9.8146      9.6374      9.4174    
  9.1678      8.8990      8.6231      8.3530      8.1022      7.8833      7.7078      7.5852      7.5221      7.5221    
  7.5852      7.7078      7.8833      8.1022      8.3530      8.6231      8.8990      9.1678      9.4174      9.6374    
  9.4596      9.6004      9.7049      9.7729      9.8103      9.8264      9.8312      9.8319      9.8312      9.8264    
  9.8103      9.7729      9.7049      9.6004      9.4596      9.2873      9.0881      8.8691      8.6396      8.4102    
  8.1920      7.9959      7.8317      7.7078      7.6308      7.6047      7.6308      7.7078      7.8317      7.9959    
  8.1920      8.4102      8.6396      8.8691      9.0881      9.2873      9.1314      9.2504      9.3446      9.4147    
  9.4628      9.4921      9.5076      9.5140      9.5140      9.5076      9.4921      9.4628      9.4147      9.3446    
  9.2504      9.1314      8.9890      8.8275      8.6533      8.4742      8.2991      8.1369      7.9959      7.8833    
  7.8049      7.7647      7.7647      7.8049      7.8833      7.9959      8.1369      8.2991      8.4742      8.6533    
  8.8275      8.9890      8.8710      8.9523      9.0154      9.0612      9.0919      9.1109      9.1214      9.1264    
  9.1279      9.1264      9.1214      9.1109      9.0919      9.0612      9.0154      8.9523      8.8710      8.7727    
  8.6607      8.5402      8.4174      8.2991      8.1920      8.1022      8.0344      7.9923      7.9781      7.9923    
  8.0344      8.1022      8.1920      8.2991      8.4174      8.5402      8.6607      8.7727      8.7040      8.7360    
  8.7549      8.7624      8.7611      8.7545      8.7460      8.7386      8.7344      8.7344      8.7386      8.7460    
  8.7545      8.7611      8.7624      8.7549      8.7360      8.7040      8.6591      8.6033      8.5402      8.4742    
  8.4102      8.3530      8.3066      8.2740      8.2571      8.2571      8.2740      8.3066      8.3530      8.4102    
  8.4742      8.5402      8.6033      8.6591      8.6465      8.6224      8.5881      8.5463      8.5010      8.4566    
  8.4172      8.3864      8.3669      8.3602      8.3669      8.3864      8.4172      8.4566      8.5010      8.5463    
  8.5881      8.6224      8.6465      8.6591      8.6607      8.6533      8.6396      8.6231      8.6068      8.5933    
  8.5845      8.5815      8.5845      8.5933      8.6068      8.6231      8.6396      8.6533      8.6607      8.6591    
  8.7040      8.6224      8.5307      8.4331      8.3352      8.2426      8.1612      8.0958      8.0501      8.0266    
  8.0266      8.0501      8.0958      8.1612      8.2426      8.3352      8.4331      8.5307      8.6224      8.7040    
  8.7727      8.8275      8.8691      8.8990      8.9195      8.9327      8.9404      8.9440      8.9440      8.9404    
  8.9327      8.9195      8.8990      8.8691      8.8275      8.7727      8.8710      8.7360      8.5881      8.4331    
  8.2782      8.1309      7.9989      7.8888      7.8062      7.7550      7.7377      7.7550      7.8062      7.8888    
  7.9989      8.1309      8.2782      8.4331      8.5881      8.7360      8.8710      8.9890      9.0881      9.1678    
  9.2292      9.2740      9.3043      9.3218      9.3275      9.3218      9.3043      9.2740      9.2292      9.1678    
  9.0881      8.9890      9.1314      8.9523      8.7549      8.5463      8.3352      8.1309      7.9433      7.7812    
  7.6524      7.5631      7.5174      7.5174      7.5631      7.6524      7.7812      7.9433      8.1309      8.3352    
  8.5463      8.7549      8.9523      9.1314      9.2873      9.4174      9.5213      9.5993      9.6532      9.6861    
  9.7015      9.7015      9.6861      9.6532      9.5993      9.5213      9.4174      9.2873      9.4596      9.2504    
  9.0154      8.7624      8.5010      8.2426      7.9989      7.7812      7.5999      7.4638      7.3794      7.3508    
  7.3794      7.4638      7.5999      7.7812      7.9989      8.2426      8.5010      8.7624      9.0154      9.2504    
  9.4596      9.6374      9.7781      9.8797      9.9462      9.9850      10.004      10.010      10.004      9.9850    
  9.9462      9.8797      9.7781      9.6374      9.8146      9.6004      9.3446      9.0612      8.7611      8.4566    
  8.1612      7.8888      7.6524      7.4638      7.3324      7.2649      7.2649      7.3324      7.4638      7.6524    
  7.8888      8.1612      8.4566      8.7611      9.0612      9.3446      9.6004      9.8146      9.9761      10.083    
  10.143      10.168      10.174      10.173      10.173      10.174      10.168      10.143      10.083      9.9761    
  10.101      9.9387      9.7049      9.4147      9.0919      8.7545      8.4172      8.0958      7.8062      7.5631    
  7.3794      7.2649      7.2261      7.2649      7.3794      7.5631      7.8062      8.0958      8.4172      8.7545    
  9.0919      9.4147      9.7049      9.9387      10.101      10.191      10.218      10.201      10.165      10.133    
  10.120      10.133      10.165      10.201      10.218      10.191      10.200      10.153      10.009      9.7729    
  9.4628      9.1109      8.7460      8.3864      8.0501      7.7550      7.5174      7.3508      7.2649      7.2649    
  7.3508      7.5174      7.7550      8.0501      8.3864      8.7460      9.1109      9.4628      9.7729      10.009    
  10.153      10.200      10.164      10.072      9.9577      9.8567      9.7982      9.7982      9.8567      9.9577    
  10.072      10.164      9.9990      10.126      10.143      10.036      9.8103      9.4921      9.1214      8.7386    
  8.3669      8.0266      7.7377      7.5174      7.3794      7.3324      7.3794      7.5174      7.7377      8.0266    
  8.3669      8.7386      9.1214      9.4921      9.8103      10.036      10.143      10.126      9.9990      9.7952    
  9.5605      9.3453      9.1950      9.1411      9.1950      9.3453      9.5605      9.7952      9.4099      9.7564    
  9.9969      10.094      10.033      9.8264      9.5076      9.1264      8.7344      8.3602      8.0266      7.7550    
  7.5631      7.4638      7.4638      7.5631      7.7550      8.0266      8.3602      8.7344      9.1264      9.5076    
  9.8264      10.033      10.094      9.9969      9.7564      9.4099      9.0141      8.6356      8.3393      8.1769    
  8.1769      8.3393      8.6356      9.0141      8.3861      8.9756      9.4857      9.8509      10.032      10.019    
  9.8312      9.5140      9.1279      8.7344      8.3669      8.0501      7.8062      7.6524      7.5999      7.6524    
  7.8062      8.0501      8.3669      8.7344      9.1279      9.5140      9.8312      10.019      10.032      9.8509    
  9.4857      8.9756      8.3861      7.7993      7.3015      6.9681      6.8509      6.9681      7.3015      7.7993    
  6.9350      7.7624      8.5629      9.2410      9.7266      9.9824      10.007      9.8319      9.5140      9.1264    
  8.7386      8.3864      8.0958      7.8888      7.7812      7.7812      7.8888      8.0958      8.3864      8.7386    
  9.1264      9.5140      9.8319      10.007      9.9824      9.7266      9.2410      8.5628      7.7624      6.9350    
  6.1877      5.6221      5.3176      5.3176      5.6221      6.1877      5.1266      6.1539      7.2336      8.2407    
  9.0714      9.6555      9.9638      10.007      9.8312      9.5076      9.1214      8.7460      8.4172      8.1612    
  7.9989      7.9433      7.9989      8.1612      8.4172      8.7460      9.1214      9.5076      9.8312      10.007    
  9.9638      9.6555      9.0714      8.2407      7.2336      6.1539      5.1266      4.2790      3.7208      3.5260    
  3.7208      4.2790      3.0926      4.2500      5.5623      6.8795      8.0644      9.0108      9.6555      9.9824    
  10.019      9.8264      9.4921      9.1109      8.7545      8.4566      8.2426      8.1309      8.1309      8.2426    
  8.4566      8.7545      9.1109      9.4921      9.8264      10.019      9.9824      9.6555      9.0108      8.0644    
  6.8795      5.5623      4.2500      3.0926      2.2298      1.7693      1.7693      2.2298      1.0150      2.2072    