Si beta-tin                             
   2.56000000000000     
     1.008956    0.000000    0.000000
    -0.504478    0.873781   -0.000000
    -0.000000    0.000000    1.604129
    S
     2
Direct
  0.000000  0.000000  0.000000
  0.333333  0.666667  0.500000
 
   36   36   60
 -.41312918002E+01 -.37723667637E+01 -.27369902438E+01 -.11440185262E+01 0.82643030032E+00
 0.29593026954E+01 0.50372671171E+01 0.68727174563E+01 0.83317565278E+01 0.93459176330E+01
 0.99118327551E+01 0.10081996643E+02 0.99501912990E+01 0.96341391149E+01 0.92570636057E+01
 0.89123499871E+01 0.86397342883E+01 0.84652616735E+01 0.84052548145E+01 0.84652616992E+01
 0.86397343128E+01 0.89123499734E+01 0.92570635312E+01 0.96341389908E+01 0.99501911737E+01
 0.10081996586E+02 0.99118328266E+01 0.93459178561E+01 0.83317568724E+01 0.68727178463E+01
 0.50372674583E+01 0.29593029119E+01 0.82643036434E+00 -.11440185850E+01 -.27369903538E+01
 -.37723668447E+01 -.37723668447E+01 -.37723665717E+01 -.30742840148E+01 -.17590251522E+01
 0.22432116472E-01 0.20705916022E+01 0.41675150167E+01 0.61098107722E+01 0.77369952220E+01
 0.89492278598E+01 0.97125404765E+01 0.10053558283E+02 0.10047294890E+02 0.98010879889E+01
 0.94367191894E+01 0.90680843765E+01 0.87556053169E+01 0.85294989313E+01 0.84109762417E+01
 0.84109761766E+01 0.85294987360E+01 0.87556049977E+01 0.90680839592E+01 0.94367187295E+01
 0.98010875672E+01 0.10047294589E+02 0.10053558153E+02 0.97125405033E+01 0.89492279523E+01
 0.77369952343E+01 0.61098105520E+01 0.41675144675E+01 0.20705907330E+01 0.22431057467E-01
 -.17590261788E+01 -.30742847611E+01 -.27369903538E+01 -.30763352275E+01 -.27369895251E+01
 -.17590247036E+01 -.25718235479E+00 0.15954679338E+01 0.35934983547E+01 0.55306416841E+01
 0.72301194161E+01 0.85670155514E+01 0.94789864613E+01 0.99656740493E+01 0.10079781941E+02
 0.99130805694E+01 0.95797064101E+01 0.91981100706E+01 0.88529282503E+01 0.85806869625E+01
 0.84067230835E+01 0.83469329268E+01 0.84067228696E+01 0.85806865712E+01 0.88529277519E+01
 0.91981095599E+01 0.95797059876E+01 0.99130803121E+01 0.10079781870E+02 0.99656741082E+01
 0.94789865125E+01 0.85670154063E+01 0.72301188908E+01 0.55306406669E+01 0.35934968628E+01
 0.15954661353E+01 -.25718416631E+00 -.17590261788E+01 -.11440185850E+01 -.17647661498E+01
 -.17647656829E+01 -.11440172789E+01 0.22432943737E-01 0.15954682449E+01 0.33929989426E+01
 0.52182657184E+01 0.68898157317E+01 0.82665491243E+01 0.92629805733E+01 0.98534436067E+01
 0.10067084815E+02 0.99766627478E+01 0.96837118557E+01 0.93018903418E+01 0.89313006093E+01
 0.86193547220E+01 0.83944883410E+01 0.82768504945E+01 0.82768504011E+01 0.83944880911E+01
 0.86193543987E+01 0.89313003256E+01 0.93018902073E+01 0.96837119392E+01 0.99766630458E+01
 0.10067085236E+02 0.98534439797E+01 0.92629806834E+01 0.82665487691E+01 0.68898147851E+01
 0.52182641838E+01 0.33929969756E+01 0.15954661353E+01 0.22431057467E-01 0.82643036434E+00
 0.12081687672E-01 -.27122304176E+00 0.12082452929E-01 0.82643172901E+00 0.20705924096E+01
 0.35934985168E+01 0.52182655161E+01 0.67699932201E+01 0.81014595199E+01 0.91114540263E+01
 0.97532075169E+01 0.10033475321E+02 0.10004630375E+02 0.97522619100E+01 0.93801853134E+01
 0.89916820540E+01 0.86470939894E+01 0.83771652638E+01 0.82053468122E+01 0.81463978847E+01
 0.82053467807E+01 0.83771652381E+01 0.86470940342E+01 0.89916822426E+01 0.93801857013E+01
 0.97522625078E+01 0.10004631128E+02 0.10033476103E+02 0.97532081459E+01 0.91114543044E+01
 0.81014592864E+01 0.67699924065E+01 0.52182641838E+01 0.35934968628E+01 0.20705907330E+01
 0.29593029119E+01 0.20555511357E+01 0.15721245200E+01 0.15721247418E+01 0.20555517258E+01
 0.29593036719E+01 0.41675151460E+01 0.55306410458E+01 0.68898147481E+01 0.81014588454E+01
 0.90570501115E+01 0.96947320761E+01 0.10002161047E+02 0.10012048719E+02 0.97925587076E+01
 0.94344422173E+01 0.90358120720E+01 0.86660041994E+01 0.83579610892E+01 0.81372961702E+01
 0.80222401536E+01 0.80222402372E+01 0.81372964006E+01 0.83579614174E+01 0.86660045766E+01
 0.90358124785E+01 0.94344426748E+01 0.97925592637E+01 0.10012049411E+02 0.10002161860E+02
 0.96947329216E+01 0.90570508384E+01 0.81014592864E+01 0.68898147851E+01 0.55306406669E+01
 0.41675144675E+01 0.50372674583E+01 0.41484487324E+01 0.35614267792E+01 0.33563082813E+01
 0.35614267065E+01 0.41484484941E+01 0.50372669238E+01 0.61098096367E+01 0.72301176247E+01
 0.82665473151E+01 0.91114529136E+01 0.96947318421E+01 0.99897223140E+01 0.10011990034E+02
 0.98126188494E+01 0.94677301522E+01 0.90656243461E+01 0.86781745882E+01 0.83398640616E+01
 0.80772375903E+01 0.79109406829E+01 0.78540228607E+01 0.79109409824E+01 0.80772380572E+01
 0.83398644960E+01 0.86781748207E+01 0.90656243239E+01 0.94677299727E+01 0.98126187250E+01
 0.10011990202E+02 0.99897229333E+01 0.96947329216E+01 0.91114543044E+01 0.82665487691E+01
 0.72301188908E+01 0.61098105520E+01 0.68727178463E+01 0.60878588193E+01 0.54916256148E+01
 0.51699003349E+01 0.51699000107E+01 0.54916246520E+01 0.60878572631E+01 0.68727158143E+01
 0.77369929459E+01 0.85670131756E+01 0.92629788616E+01 0.97532070268E+01 0.10002161582E+02
 0.10011990692E+02 0.98185501590E+01 0.94833449205E+01 0.90827805015E+01 0.86853202374E+01
 0.83252833304E+01 0.80289532055E+01 0.78182375150E+01 0.77088047582E+01 0.77088049218E+01
 0.78182379098E+01 0.80289535879E+01 0.83252834207E+01 0.86853198522E+01 0.90827796492E+01
 0.94833438199E+01 0.98185491725E+01 0.10011990202E+02 0.10002161860E+02 0.97532081459E+01
 0.92629806834E+01 0.85670154063E+01 0.77369952343E+01 0.83317568724E+01 0.77134275171E+01
 0.71865330514E+01 0.68327464793E+01 0.67081625616E+01 0.68327453485E+01 0.71865309967E+01
 0.77134249119E+01 0.83317541834E+01 0.89492256459E+01 0.94789849611E+01 0.98534433874E+01
 0.10033476468E+02 0.10012050539E+02 0.98126202843E+01 0.94833454311E+01 0.90883733065E+01
 0.86886052852E+01 0.83158980724E+01 0.79952588475E+01 0.77487241007E+01 0.75935009406E+01
 0.75405128883E+01 0.75935011061E+01 0.77487243016E+01 0.79952588731E+01 0.83158977139E+01
 0.86886044227E+01 0.90883719709E+01 0.94833438199E+01 0.98126187250E+01 0.10012049411E+02
 0.10033476103E+02 0.98534439797E+01 0.94789865125E+01 0.89492279523E+01 0.93459178561E+01
 0.89251371710E+01 0.85211727165E+01 0.82041187694E+01 0.80300344237E+01 0.80300337516E+01
 0.82041169549E+01 0.85211702958E+01 0.89251348354E+01 0.93459162287E+01 0.97125399539E+01
 0.99656746687E+01 0.10067086637E+02 0.10004632931E+02 0.97925610273E+01 0.94677313872E+01
 0.90827805972E+01 0.86886049552E+01 0.83126667859E+01 0.79779719130E+01 0.77057014813E+01
 0.75135261780E+01 0.74141285250E+01 0.74141285026E+01 0.75135261205E+01 0.77057014010E+01
 0.79779717873E+01 0.83126665280E+01 0.86886044227E+01 0.90827796492E+01 0.94677299727E+01
 0.97925592637E+01 0.10004631128E+02 0.10067085236E+02 0.99656741082E+01 0.97125405033E+01
 0.99118328266E+01 0.96886610028E+01 0.94326614217E+01 0.91980902085E+01 0.90342587919E+01
 0.89755421892E+01 0.90342578401E+01 0.91980887491E+01 0.94326601548E+01 0.96886605896E+01
 0.99118336152E+01 0.10053560040E+02 0.10079784355E+02 0.99766654417E+01 0.97522642210E+01
 0.94344434210E+01 0.90656241996E+01 0.86853192395E+01 0.83158970754E+01 0.79779714536E+01
 0.76911422532E+01 0.74725946659E+01 0.73357525099E+01 0.72891606856E+01 0.73357522799E+01
 0.74725943960E+01 0.76911422052E+01 0.79779717873E+01 0.83158977139E+01 0.86853198522E+01
 0.90656243239E+01 0.94344426748E+01 0.97522625078E+01 0.99766630458E+01 0.10079781870E+02
 0.10053558153E+02 0.10081996586E+02 0.10030233894E+02 0.99199014550E+01 0.97880761326E+01
 0.96732283540E+01 0.96069294301E+01 0.96069293365E+01 0.96732282359E+01 0.97880763902E+01
 0.99199025031E+01 0.10030235914E+02 0.10081999374E+02 0.10047297579E+02 0.99130827714E+01
 0.96837132525E+01 0.93801856171E+01 0.90358112070E+01 0.86781729379E+01 0.83252816248E+01
 0.79952577011E+01 0.77057010339E+01 0.74725946357E+01 0.73091950126E+01 0.72250103160E+01
 0.72250101208E+01 0.73091945920E+01 0.74725943960E+01 0.77057014010E+01 0.79952588731E+01
 0.83252834207E+01 0.86781748207E+01 0.90358124785E+01 0.93801857013E+01 0.96837119392E+01
 0.99130803121E+01 0.10047294589E+02 0.99501911737E+01 0.10024561586E+02 0.10034918861E+02
 0.10002223002E+02 0.99525337246E+01 0.99107535913E+01 0.98946789996E+01 0.99107544058E+01
 0.99525353434E+01 0.10002225348E+02 0.10034921718E+02 0.10024564558E+02 0.99501937341E+01
 0.98010891850E+01 0.95797063006E+01 0.93018891656E+01 0.89916801549E+01 0.86660020266E+01
 0.83398621514E+01 0.80289519728E+01 0.77487236252E+01 0.75135262312E+01 0.73357527664E+01
 0.72250105158E+01 0.71873987422E+01 0.72250101208E+01 0.73357522799E+01 0.75135261205E+01
 0.77487243016E+01 0.80289535879E+01 0.83398644960E+01 0.86660045766E+01 0.89916822426E+01
 0.93018902073E+01 0.95797059876E+01 0.98010875672E+01 0.96341389908E+01 0.97788056956E+01
 0.98690254141E+01 0.99125040972E+01 0.99234839656E+01 0.99185225771E+01 0.99119252244E+01
 0.99119259814E+01 0.99185246636E+01 0.99234868778E+01 0.99125071446E+01 0.98690278974E+01
 0.97788070799E+01 0.96341390267E+01 0.94367174925E+01 0.91981074037E+01 0.89312977686E+01
 0.86470916163E+01 0.83579595658E+01 0.80772369970E+01 0.78182376353E+01 0.75935014151E+01
 0.74141290772E+01 0.72891611953E+01 0.72250105158E+01 0.72250103160E+01 0.72891606856E+01
 0.74141285026E+01 0.75935011061E+01 0.78182379098E+01 0.80772380572E+01 0.83579614174E+01
 0.86470940342E+01 0.89313003256E+01 0.91981095599E+01 0.94367187295E+01 0.92570635312E+01
 0.94146940940E+01 0.95361499320E+01 0.96200087852E+01 0.96709553763E+01 0.96974632278E+01
 0.97087060476E+01 0.97116013357E+01 0.97087075184E+01 0.96974656067E+01 0.96709577515E+01
 0.96200102381E+01 0.95361498705E+01 0.94146924497E+01 0.92570607518E+01 0.90680808127E+01
 0.88529250333E+01 0.86193526615E+01 0.83771646517E+01 0.81372967704E+01 0.79109418994E+01
 0.77088059573E+01 0.75405137429E+01 0.74141290772E+01 0.73357527664E+01 0.73091950126E+01
 0.73357525099E+01 0.74141285250E+01 0.75405128883E+01 0.77088049218E+01 0.79109409824E+01
 0.81372964006E+01 0.83771652381E+01 0.86193543987E+01 0.88529277519E+01 0.90680839592E+01
 0.89123499734E+01 0.90461500386E+01 0.91547305695E+01 0.92382631946E+01 0.92984479480E+01
 0.93378077921E+01 0.93604579143E+01 0.93705243674E+01 0.93705248151E+01 0.93604589768E+01
 0.93378087576E+01 0.92984480052E+01 0.92382618168E+01 0.91547277786E+01 0.90461464321E+01
 0.89123465028E+01 0.87556025981E+01 0.85806858044E+01 0.83944889558E+01 0.82053487607E+01
 0.80222425549E+01 0.78540248087E+01 0.77088059573E+01 0.75935014151E+01 0.75135262312E+01
 0.74725946357E+01 0.74725946659E+01 0.75135261780E+01 0.75935009406E+01 0.77088047582E+01
 0.78540228607E+01 0.80222402372E+01 0.82053467807E+01 0.83944880911E+01 0.85806865712E+01
 0.87556049977E+01 0.86397343128E+01 0.87336584935E+01 0.88094994236E+01 0.88674428006E+01
 0.89092321902E+01 0.89375276484E+01 0.89551977666E+01 0.89647067844E+01 0.89676871586E+01
 0.89647066548E+01 0.89551972325E+01 0.89375263361E+01 0.89092298890E+01 0.88674396746E+01
 0.88094960551E+01 0.87336557208E+01 0.86397329228E+01 0.85294991452E+01 0.84067249386E+01
 0.82768534734E+01 0.81464010375E+01 0.80222425549E+01 0.79109418994E+01 0.78182376353E+01
 0.77487236252E+01 0.77057010339E+01 0.76911422532E+01 0.77057014813E+01 0.77487241007E+01
 0.78182375150E+01 0.79109406829E+01 0.80222401536E+01 0.81463978847E+01 0.82768504011E+01
 0.84067228696E+01 0.85294987360E+01 0.84652616992E+01 0.85075020194E+01 0.85371096105E+01
 0.85551213599E+01 0.85638029476E+01 0.85660574606E+01 0.85648126762E+01 0.85625385210E+01
 0.85609635289E+01 0.85609630723E+01 0.85625371826E+01 0.85648105742E+01 0.85660548498E+01
 0.85638002501E+01 0.85551191282E+01 0.85371084065E+01 0.85075022383E+01 0.84652634057E+01
 0.84109790312E+01 0.83469362515E+01 0.82768534734E+01 0.82053487607E+01 0.81372967704E+01
 0.80772369970E+01 0.80289519728E+01 0.79952577011E+01 0.79779714536E+01 0.79779719130E+01
 0.79952588475E+01 0.80289532055E+01 0.80772375903E+01 0.81372961702E+01 0.82053468122E+01
 0.82768504945E+01 0.83469329268E+01 0.84109761766E+01 0.84052548145E+01 0.83889412853E+01
 0.83630087755E+01 0.83299002796E+01 0.82931016887E+01 0.82565353111E+01 0.82239489619E+01
 0.81984542016E+01 0.81822859258E+01 0.81767537630E+01 0.81822847489E+01 0.81984522028E+01
 0.82239467492E+01 0.82565335727E+01 0.82931009989E+01 0.83299009394E+01 0.83630107327E+01
 0.83889441530E+01 0.84052579797E+01 0.84109790312E+01 0.84067249386E+01 0.83944889558E+01
 0.83771646517E+01 0.83579595658E+01 0.83398621514E+01 0.83252816248E+01 0.83158970754E+01
 0.83126667859E+01 0.83158980724E+01 0.83252833304E+01 0.83398640616E+01 0.83579610892E+01
 0.83771652638E+01 0.83944883410E+01 0.84067230835E+01 0.84109762417E+01 0.84652616735E+01
 0.83889411920E+01 0.83031648131E+01 0.82120527996E+01 0.81207480044E+01 0.80347672808E+01
 0.79593437620E+01 0.78989121704E+01 0.78568184836E+01 0.78352418061E+01 0.78352413094E+01
 0.78568172482E+01 0.78989108539E+01 0.79593431517E+01 0.80347679660E+01 0.81207501290E+01
 0.82120559933E+01 0.83031683228E+01 0.83889441530E+01 0.84652634057E+01 0.85294991452E+01
 0.85806858044E+01 0.86193526615E+01 0.86470916163E+01 0.86660020266E+01 0.86781729379E+01
 0.86853192395E+01 0.86886049552E+01 0.86886052852E+01 0.86853202374E+01 0.86781745882E+01
 0.86660041994E+01 0.86470939894E+01 0.86193547220E+01 0.85806869625E+01 0.85294989313E+01
 0.86397342883E+01 0.85075017652E+01 0.83630085181E+01 0.82120526918E+01 0.80616085598E+01
 0.79191241185E+01 0.77917972638E+01 0.76859729597E+01 0.76067439070E+01 0.75577606760E+01
 0.75411936579E+01 0.75577602751E+01 0.76067435352E+01 0.76859732523E+01 0.77917987193E+01
 0.79191268016E+01 0.80616119927E+01 0.82120559933E+01 0.83630107327E+01 0.85075022383E+01
 0.86397329228E+01 0.87556025981E+01 0.88529250333E+01 0.89312977686E+01 0.89916801549E+01
 0.90358112070E+01 0.90656241996E+01 0.90827805972E+01 0.90883733065E+01 0.90827805015E+01
 0.90656243461E+01 0.90358120720E+01 0.89916820540E+01 0.89313006093E+01 0.88529282503E+01
 0.87556053169E+01 0.89123499871E+01 0.87336581464E+01 0.85371091625E+01 0.83298999888E+01
 0.81207479704E+01 0.79191242210E+01 0.77344526930E+01 0.75754051145E+01 0.74493657298E+01
 0.73620791270E+01 0.73174506255E+01 0.73174506613E+01 0.73620793669E+01 0.74493664812E+01
 0.75754066354E+01 0.77344549566E+01 0.79191268016E+01 0.81207501290E+01 0.83299009394E+01
 0.85371084065E+01 0.87336557208E+01 0.89123465028E+01 0.90680808127E+01 0.91981074037E+01
 0.93018891656E+01 0.93801856171E+01 0.94344434210E+01 0.94677313872E+01 0.94833454311E+01
 0.94833449205E+01 0.94677301522E+01 0.94344422173E+01 0.93801853134E+01 0.93018903418E+01
 0.91981100706E+01 0.90680843765E+01 0.92570636057E+01 0.90461496840E+01 0.88094988990E+01
 0.85551209769E+01 0.82931016359E+01 0.80347675436E+01 0.77917976292E+01 0.75754053269E+01
 0.73956549383E+01 0.72609226715E+01 0.71774874148E+01 0.71492370056E+01 0.71774878325E+01
 0.72609234997E+01 0.73956561075E+01 0.75754066354E+01 0.77917987193E+01 0.80347679660E+01
 0.82931009989E+01 0.85551191282E+01 0.88094960551E+01 0.90461464321E+01 0.92570607518E+01
 0.94367174925E+01 0.95797063006E+01 0.96837132525E+01 0.97522642210E+01 0.97925610273E+01
 0.98126202843E+01 0.98185501590E+01 0.98126188494E+01 0.97925587076E+01 0.97522619100E+01
 0.96837118557E+01 0.95797064101E+01 0.94367191894E+01 0.96341391149E+01 0.94146938040E+01
 0.91547300965E+01 0.88674424518E+01 0.85638029136E+01 0.82565356277E+01 0.79593443042E+01
 0.76859734722E+01 0.74493659902E+01 0.72609226872E+01 0.71298560969E+01 0.70626482825E+01
 0.70626485587E+01 0.71298568042E+01 0.72609234997E+01 0.74493664812E+01 0.76859732523E+01
 0.79593431517E+01 0.82565335727E+01 0.85638002501E+01 0.88674396746E+01 0.91547277786E+01
 0.94146924497E+01 0.96341390267E+01 0.98010891850E+01 0.99130827714E+01 0.99766654417E+01
 0.10004632931E+02 0.10012050539E+02 0.10011990692E+02 0.10011990034E+02 0.10012048719E+02
 0.10004630375E+02 0.99766627478E+01 0.99130805694E+01 0.98010879889E+01 0.99501912990E+01
 0.97788055025E+01 0.95361496137E+01 0.92382630091E+01 0.89092322405E+01 0.85660577291E+01
 0.82239494001E+01 0.78989126667E+01 0.76067442600E+01 0.73620791783E+01 0.71774872158E+01
 0.70626480693E+01 0.70236720263E+01 0.70626485587E+01 0.71774878325E+01 0.73620793669E+01
 0.76067435352E+01 0.78989108539E+01 0.82239467492E+01 0.85660548498E+01 0.89092298890E+01
 0.92382618168E+01 0.95361498705E+01 0.97788070799E+01 0.99501937341E+01 0.10047297579E+02
 0.10079784355E+02 0.10067086637E+02 0.10033476468E+02 0.10002161582E+02 0.99897223140E+01
 0.10002161047E+02 0.10033475321E+02 0.10067084815E+02 0.10079781941E+02 0.10047294890E+02
 0.10081996643E+02 0.10024561470E+02 0.98690252943E+01 0.96200088545E+01 0.92984481686E+01
 0.89375278413E+01 0.85648127829E+01 0.81984543218E+01 0.78568186575E+01 0.75577607578E+01
 0.73174504357E+01 0.71492365546E+01 0.70626480693E+01 0.70626482825E+01 0.71492370056E+01
 0.73174506613E+01 0.75577602751E+01 0.78568172482E+01 0.81984522028E+01 0.85648105742E+01
 0.89375263361E+01 0.92984480052E+01 0.96200102381E+01 0.98690278974E+01 0.10024564558E+02
 0.10081999374E+02 0.10053560040E+02 0.99656746687E+01 0.98534433874E+01 0.97532070268E+01
 0.96947318421E+01 0.96947320761E+01 0.97532075169E+01 0.98534436067E+01 0.99656740493E+01
 0.10053558283E+02 0.99118327551E+01 0.10030233788E+02 0.10034918905E+02 0.99125044396E+01
 0.96709558465E+01 0.93378079881E+01 0.89551974933E+01 0.85625380340E+01 0.81822856508E+01
 0.78352418660E+01 0.75411937603E+01 0.73174504357E+01 0.71774872158E+01 0.71298560969E+01
 0.71774874148E+01 0.73174506255E+01 0.75411936579E+01 0.78352413094E+01 0.81822847489E+01
 0.85625371826E+01 0.89551972325E+01 0.93378087576E+01 0.96709577515E+01 0.99125071446E+01
 0.10034921718E+02 0.10030235914E+02 0.99118336152E+01 0.97125399539E+01 0.94789849611E+01
 0.92629788616E+01 0.91114529136E+01 0.90570501115E+01 0.91114540263E+01 0.92629805733E+01
 0.94789864613E+01 0.97125404765E+01 0.93459176330E+01 0.96886608157E+01 0.99199015506E+01
 0.10002223540E+02 0.99234847158E+01 0.96974635847E+01 0.93604574336E+01 0.89647057083E+01
 0.85609626457E+01 0.81767536738E+01 0.78352418660E+01 0.75577607578E+01 0.73620791783E+01
 0.72609226872E+01 0.72609226715E+01 0.73620791270E+01 0.75577606760E+01 0.78352418061E+01
 0.81767537630E+01 0.85609630723E+01 0.89647066548E+01 0.93604589768E+01 0.96974656067E+01
 0.99234868778E+01 0.10002225348E+02 0.99199025031E+01 0.96886605896E+01 0.93459162287E+01
 0.89492256459E+01 0.85670131756E+01 0.82665473151E+01 0.81014588454E+01 0.81014595199E+01
 0.82665491243E+01 0.85670155514E+01 0.89492278598E+01 0.83317565278E+01 0.89251368150E+01
 0.94326614063E+01 0.97880766993E+01 0.99525346963E+01 0.99185232517E+01 0.97087056905E+01
 0.93705229845E+01 0.89676856913E+01 0.85609626457E+01 0.81822856508E+01 0.78568186575E+01
 0.76067442600E+01 0.74493659902E+01 0.73956549383E+01 0.74493657298E+01 0.76067439070E+01
 0.78568184836E+01 0.81822859258E+01 0.85609635289E+01 0.89676871586E+01 0.93705248151E+01
 0.97087075184E+01 0.99185246636E+01 0.99525353434E+01 0.97880763902E+01 0.94326601548E+01
 0.89251348354E+01 0.83317541834E+01 0.77369929459E+01 0.72301176247E+01 0.68898147481E+01
 0.67699932201E+01 0.68898157317E+01 0.72301194161E+01 0.77369952220E+01 0.68727174563E+01
 0.77134269373E+01 0.85211724194E+01 0.91980905761E+01 0.96732293831E+01 0.99107546445E+01
 0.99119253374E+01 0.97116000964E+01 0.93705229845E+01 0.89647057083E+01 0.85625380340E+01
 0.81984543218E+01 0.78989126667E+01 0.76859734722E+01 0.75754053269E+01 0.75754051145E+01
 0.76859729597E+01 0.78989121704E+01 0.81984542016E+01 0.85625385210E+01 0.89647067844E+01
 0.93705243674E+01 0.97116013357E+01 0.99119259814E+01 0.99107544058E+01 0.96732282359E+01
 0.91980887491E+01 0.85211702958E+01 0.77134249119E+01 0.68727158143E+01 0.61098096367E+01
 0.55306410458E+01 0.52182655161E+01 0.52182657184E+01 0.55306416841E+01 0.61098107722E+01
 0.50372671171E+01 0.60878580120E+01 0.71865323452E+01 0.82041187101E+01 0.90342596323E+01
 0.96069307632E+01 0.98946797876E+01 0.99119253374E+01 0.97087056905E+01 0.93604574336E+01
 0.89551974933E+01 0.85648127829E+01 0.82239494001E+01 0.79593443042E+01 0.77917976292E+01
 0.77344526930E+01 0.77917972638E+01 0.79593437620E+01 0.82239489619E+01 0.85648126762E+01
 0.89551977666E+01 0.93604579143E+01 0.97087060476E+01 0.99119252244E+01 0.98946789996E+01
 0.96069293365E+01 0.90342578401E+01 0.82041169549E+01 0.71865309967E+01 0.60878572631E+01
 0.50372669238E+01 0.41675151460E+01 0.35934985168E+01 0.33929989426E+01 0.35934983547E+01
 0.41675150167E+01 0.29593026954E+01 0.41484477494E+01 0.54916244601E+01 0.68327458346E+01
 0.80300348122E+01 0.89755435494E+01 0.96069307632E+01 0.99107546445E+01 0.99185232517E+01
 0.96974635847E+01 0.93378079881E+01 0.89375278413E+01 0.85660577291E+01 0.82565356277E+01
 0.80347675436E+01 0.79191242210E+01 0.79191241185E+01 0.80347672808E+01 0.82565353111E+01
 0.85660574606E+01 0.89375276484E+01 0.93378077921E+01 0.96974632278E+01 0.99185225771E+01
 0.99107535913E+01 0.96069294301E+01 0.89755421892E+01 0.80300337516E+01 0.68327453485E+01
 0.54916246520E+01 0.41484484941E+01 0.29593036719E+01 0.20705924096E+01 0.15954682449E+01
 0.15954679338E+01 0.20705916022E+01 0.82643030032E+00 0.20555500754E+01 0.35614252497E+01
 0.51698990764E+01 0.67081623072E+01 0.80300348122E+01 0.90342596323E+01 0.96732293831E+01
 0.99525346963E+01 0.99234847158E+01 0.96709558465E+01 0.92984481686E+01 0.89092322405E+01
 0.85638029136E+01 0.82931016359E+01 0.81207479704E+01 0.80616085598E+01 0.81207480044E+01
 0.82931016887E+01 0.85638029476E+01 0.89092321902E+01 0.92984479480E+01 0.96709553763E+01
 0.99234839656E+01 0.99525337246E+01 0.96732283540E+01 0.90342587919E+01 0.80300344237E+01
 0.67081625616E+01 0.51699000107E+01 0.35614267065E+01 0.20555517258E+01 0.82643172901E+00
 0.22432943737E-01 -.25718235479E+00 0.22432116472E-01 -.11440185262E+01 0.12080675185E-01
 0.15721227993E+01 0.33563065412E+01 0.51698990764E+01 0.68327458346E+01 0.82041187101E+01
 0.91980905761E+01 0.97880766993E+01 0.10002223540E+02 0.99125044396E+01 0.96200088545E+01
 0.92382630091E+01 0.88674424518E+01 0.85551209769E+01 0.83298999888E+01 0.82120526918E+01
 0.82120527996E+01 0.83299002796E+01 0.85551213599E+01 0.88674428006E+01 0.92382631946E+01
 0.96200087852E+01 0.99125040972E+01 0.10002223002E+02 0.97880761326E+01 0.91980902085E+01
 0.82041187694E+01 0.68327464793E+01 0.51699003349E+01 0.33563082813E+01 0.15721247418E+01
 0.12082452929E-01 -.11440172789E+01 -.17590247036E+01 -.17590251522E+01 -.27369902438E+01
 -.17647669860E+01 -.27122469382E+00 0.15721227993E+01 0.35614252497E+01 0.54916244601E+01
 0.71865323452E+01 0.85211724194E+01 0.94326614063E+01 0.99199015506E+01 0.10034918905E+02
 0.98690252943E+01 0.95361496137E+01 0.91547300965E+01 0.88094988990E+01 0.85371091625E+01
 0.83630085181E+01 0.83031648131E+01 0.83630087755E+01 0.85371096105E+01 0.88094994236E+01
 0.91547305695E+01 0.95361499320E+01 0.98690254141E+01 0.10034918861E+02 0.99199014550E+01
 0.94326614217E+01 0.85211727165E+01 0.71865330514E+01 0.54916256148E+01 0.35614267792E+01
 0.15721245200E+01 -.27122304176E+00 -.17647656829E+01 -.27369895251E+01 -.30742840148E+01
 -.37723667637E+01 -.30763357780E+01 -.17647669860E+01 0.12080675185E-01 0.20555500754E+01
 0.41484477494E+01 0.60878580120E+01 0.77134269373E+01 0.89251368150E+01 0.96886608157E+01
 0.10030233788E+02 0.10024561470E+02 0.97788055025E+01 0.94146938040E+01 0.90461496840E+01
 0.87336581464E+01 0.85075017652E+01 0.83889411920E+01 0.83889412853E+01 0.85075020194E+01
 0.87336584935E+01 0.90461500386E+01 0.94146940940E+01 0.97788056956E+01 0.10024561586E+02
 0.10030233894E+02 0.96886610028E+01 0.89251371710E+01 0.77134275171E+01 0.60878588193E+01
 0.41484487324E+01 0.20555511357E+01 0.12081687672E-01 -.17647661498E+01 -.30763352275E+01
 -.37723665717E+01 -.37964456252E+01 -.34441760511E+01 -.24282385809E+01 -.86589952333E+00
 0.10653322597E+01 0.31538066379E+01 0.51859345132E+01 0.69776149765E+01 0.83977214750E+01
 0.93795594987E+01 0.99205260410E+01 0.10073031994E+02 0.99301412437E+01 0.96084295781E+01
 0.92296731106E+01 0.88846096852E+01 0.86119400393E+01 0.84375127428E+01 0.83775338290E+01
 0.84375127732E+01 0.86119400726E+01 0.88846096831E+01 0.92296730486E+01 0.96084294653E+01
 0.99301411264E+01 0.10073031940E+02 0.99205261101E+01 0.93795597146E+01 0.83977218093E+01
 0.69776153556E+01 0.51859348453E+01 0.31538068488E+01 0.10653323219E+01 -.86589958103E+00
 -.24282386886E+01 -.34441761304E+01 -.34441761304E+01 -.34441758623E+01 -.27593286007E+01
 -.14694394160E+01 0.27669133025E+00 0.22826710164E+01 0.43342241411E+01 0.62316386233E+01
 0.78175765992E+01 0.89944354221E+01 0.97294611579E+01 0.10049566111E+02 0.10029322432E+02
 0.97751091175E+01 0.94074223329E+01 0.90381574178E+01 0.87255330650E+01 0.84994602412E+01
 0.83809932182E+01 0.83809931615E+01 0.84994600686E+01 0.87255327759E+01 0.90381570292E+01
 0.94074218924E+01 0.97751087009E+01 0.10029322122E+02 0.10049565961E+02 0.97294611604E+01
 0.89944354935E+01 0.78175765992E+01 0.62316384025E+01 0.43342236025E+01 0.22826701658E+01
 0.27669029297E+00 -.14694404228E+01 -.27593293332E+01 -.24282386886E+01 -.27610040672E+01
 -.24282378740E+01 -.14694389739E+01 0.23460499552E-02 0.18167505200E+01 0.37717658417E+01
 0.56647829284E+01 0.73223715813E+01 0.86222109857E+01 0.95035839200E+01 0.99668046429E+01
 0.10064452663E+02 0.98875791221E+01 0.95491968799E+01 0.91662816607E+01 0.88208571183E+01
 0.85486378982E+01 0.83747654869E+01 0.83150188385E+01 0.83747652909E+01 0.85486375363E+01
 0.88208566500E+01 0.91662811696E+01 0.95491964591E+01 0.98875788475E+01 0.10064452562E+02
 0.99668046670E+01 0.95035839429E+01 0.86222108273E+01 0.73223710612E+01 0.56647819334E+01
 0.37717643835E+01 0.18167487595E+01 0.23442734763E-02 -.14694404228E+01 -.86589958103E+00
 -.14741353889E+01 -.14741349287E+01 -.86589829496E+00 0.27669214709E+00 0.18167508278E+01
 0.35752450293E+01 0.53588870127E+01 0.69895983029E+01 0.83290884817E+01 0.92938273415E+01
 0.98591802939E+01 0.10054501345E+02 0.99521051447E+01 0.96526118244E+01 0.92684626945E+01
 0.88975274230E+01 0.85855930437E+01 0.83608646076E+01 0.82433350554E+01 0.82433349677E+01
 0.83608643717E+01 0.85855927351E+01 0.88975271456E+01 0.92684625513E+01 0.96526118830E+01
 0.99521054067E+01 0.10054501728E+02 0.98591806382E+01 0.92938274404E+01 0.83290881362E+01
 0.69895973848E+01 0.53588855190E+01 0.35752431072E+01 0.18167487595E+01 0.27669029297E+00
 0.10653323219E+01 0.26821291239E+00 -.91530995590E-02 0.26821366895E+00 0.10653336686E+01
 0.22826718149E+01 0.37717660020E+01 0.53588868120E+01 0.68723775805E+01 0.81678891610E+01
 0.91463821011E+01 0.97624168336E+01 0.10023271002E+02 0.99811626269E+01 0.97210081317E+01
 0.93455879928E+01 0.89565112371E+01 0.86119204922E+01 0.83421829366E+01 0.81705579265E+01
 0.81116867375E+01 0.81705578955E+01 0.83421829091E+01 0.86119205284E+01 0.89565114068E+01
 0.93455883513E+01 0.97210086941E+01 0.99811633455E+01 0.10023271759E+02 0.97624174540E+01
 0.91463823892E+01 0.81678889538E+01 0.68723768034E+01 0.53588855190E+01 0.37717643835E+01
 0.22826701658E+01 0.31538068488E+01 0.22703415179E+01 0.17976160396E+01 0.17976162604E+01
 0.22703421046E+01 0.31538076017E+01 0.43342242694E+01 0.56647822964E+01 0.69895973294E+01
 0.81678884953E+01 0.90933965031E+01 0.97058065859E+01 0.99935665005E+01 0.99895108088E+01
 0.97613844657E+01 0.93991152456E+01 0.89995510545E+01 0.86297143947E+01 0.83219124879E+01
 0.81015382756E+01 0.79866675104E+01 0.79866675917E+01 0.81015384990E+01 0.83219128039E+01
 0.86297147547E+01 0.89995514402E+01 0.93991156812E+01 0.97613850023E+01 0.99895114872E+01
 0.99935673089E+01 0.97058074363E+01 0.90933972429E+01 0.81678889538E+01 0.69895973848E+01
 0.56647819334E+01 0.43342236025E+01 0.51859348453E+01 0.43186039139E+01 0.37454816920E+01
 0.35451726737E+01 0.37454816232E+01 0.43186036837E+01 0.51859343232E+01 0.62316375030E+01
 0.73223698122E+01 0.83290866978E+01 0.91463810091E+01 0.97058063603E+01 0.99816963780E+01
 0.99899825898E+01 0.97815759943E+01 0.94319976726E+01 0.90285824012E+01 0.86410559966E+01
 0.83030193345E+01 0.80407780600E+01 0.78747913038E+01 0.78179903548E+01 0.78747915990E+01
 0.80407785206E+01 0.83030197640E+01 0.86410562288E+01 0.90285823846E+01 0.94319975038E+01
 0.97815758824E+01 0.99899827681E+01 0.99816970016E+01 0.97058074363E+01 0.91463823892E+01
 0.83290881362E+01 0.73223710612E+01 0.62316384025E+01 0.69776153556E+01 0.62136997638E+01
 0.56328659545E+01 0.53193036363E+01 0.53193033163E+01 0.56328650053E+01 0.62136982329E+01
 0.69776133619E+01 0.78175743597E+01 0.86222086492E+01 0.92938256645E+01 0.97624163633E+01
 0.99935670349E+01 0.99899832368E+01 0.97875658663E+01 0.94474362175E+01 0.90452688273E+01
 0.86476531795E+01 0.82878896761E+01 0.79920170177E+01 0.77817342897E+01 0.76725580107E+01
 0.76725581720E+01 0.77817346804E+01 0.79920174010E+01 0.82878897795E+01 0.86476528234E+01
 0.90452680176E+01 0.94474351644E+01 0.97875649199E+01 0.99899827681E+01 0.99935673089E+01
 0.97624174540E+01 0.92938274404E+01 0.86222108273E+01 0.78175765992E+01 0.83977218093E+01
 0.77984087748E+01 0.72868542803E+01 0.69430443796E+01 0.68219223465E+01 0.69430432612E+01
 0.72868522528E+01 0.77984062140E+01 0.83977191804E+01 0.89944332559E+01 0.95035824565E+01
 0.98591800922E+01 0.10023272140E+02 0.99895125957E+01 0.97815773918E+01 0.94474367098E+01
 0.90507048166E+01 0.86506651813E+01 0.82781834798E+01 0.79580310321E+01 0.77120259229E+01
 0.75571979123E+01 0.75043549410E+01 0.75571980695E+01 0.77120261149E+01 0.79580310601E+01
 0.82781831450E+01 0.86506643662E+01 0.90507035450E+01 0.94474351644E+01 0.97815758824E+01
 0.99895114872E+01 0.10023271759E+02 0.98591806382E+01 0.95035839429E+01 0.89944354935E+01
 0.93795597146E+01 0.89749761248E+01 0.85850784089E+01 0.82784288789E+01 0.81098797634E+01
 0.81098790990E+01 0.82784270874E+01 0.85850760260E+01 0.89749738390E+01 0.93795581425E+01