   2   2   0   0
  0.1186326E+02  0.2560000E-09  0.2560000E-09  0.4180454E-09  0.5000000E-15
  1.000000000000000E-004
  CAR 
 Si beta-tin                             
     27.03090313     -4.59419410  301     13.04853864      1.00000000
     -4.594  0.0000E+00  0.0000E+00
     -4.489  0.0000E+00  0.0000E+00
     -4.383  0.0000E+00  0.0000E+00
     -4.278  0.0000E+00  0.0000E+00
     -4.173  0.0000E+00  0.0000E+00
     -4.067  0.0000E+00  0.0000E+00
     -3.962  0.0000E+00  0.0000E+00
     -3.856  0.0000E+00  0.0000E+00
     -3.751  0.0000E+00  0.0000E+00
     -3.645  0.8395E-14  0.8850E-15
     -3.540  0.1040E-09  0.1096E-10
     -3.435  0.1489E-06  0.1571E-07
     -3.329  0.2569E-04  0.2723E-05
     -3.224  0.5763E-03  0.6348E-04
     -3.118  0.1879E-02  0.2615E-03
     -3.013  0.9590E-03  0.3626E-03
     -2.908  0.1278E-03  0.3761E-03
     -2.802  0.9622E-03  0.4775E-03
     -2.697  0.3166E-02  0.8112E-03
     -2.591  0.2425E-02  0.1067E-02
     -2.486  0.4134E-03  0.1110E-02
     -2.380  0.2583E-03  0.1138E-02
     -2.275  0.1544E-02  0.1300E-02
     -2.170  0.1498E-02  0.1458E-02
     -2.064  0.6104E-03  0.1523E-02
     -1.959  0.2857E-02  0.1824E-02
     -1.853  0.3331E-02  0.2175E-02
     -1.748  0.1768E-02  0.2361E-02
     -1.643  0.2195E-02  0.2593E-02
     -1.537  0.3433E-02  0.2955E-02
     -1.432  0.5355E-02  0.3519E-02
     -1.326  0.3391E-02  0.3877E-02
     -1.221  0.1710E-02  0.4057E-02
     -1.115  0.1209E-02  0.4184E-02
     -1.010  0.1880E-02  0.4383E-02
     -0.905  0.6859E-03  0.4455E-02
     -0.799  0.1794E-02  0.4644E-02
     -0.694  0.3868E-02  0.5052E-02
     -0.588  0.2652E-02  0.5331E-02
     -0.483  0.3915E-02  0.5744E-02
     -0.378  0.2815E-02  0.6041E-02
     -0.272  0.5373E-02  0.6607E-02
     -0.167  0.4776E-02  0.7111E-02
     -0.061  0.2329E-02  0.7356E-02
      0.044  0.1368E-02  0.7500E-02
      0.150  0.1925E-02  0.7703E-02
      0.255  0.7134E-03  0.7779E-02
      0.360  0.1078E-02  0.7892E-02
      0.466  0.3732E-02  0.8286E-02
      0.571  0.2837E-02  0.8585E-02
      0.677  0.3815E-02  0.8987E-02
      0.782  0.5115E-02  0.9526E-02
      0.887  0.9938E-02  0.1057E-01
      0.993  0.7478E-02  0.1136E-01
      1.098  0.1150E-02  0.1148E-01
      1.204  0.1274E-02  0.1162E-01
      1.309  0.5282E-02  0.1217E-01
      1.415  0.3642E-02  0.1256E-01
      1.520  0.1531E-02  0.1272E-01
      1.625  0.3643E-02  0.1310E-01
      1.731  0.2492E-02  0.1337E-01
      1.836  0.3437E-02  0.1373E-01
      1.942  0.5337E-02  0.1429E-01
      2.047  0.8037E-02  0.1514E-01
      2.152  0.7402E-02  0.1592E-01
      2.258  0.4841E-02  0.1643E-01
      2.363  0.2333E-02  0.1668E-01
      2.469  0.1719E-02  0.1686E-01
      2.574  0.1568E-02  0.1702E-01
      2.680  0.2153E-02  0.1725E-01
      2.785  0.7193E-02  0.1801E-01
      2.890  0.4633E-02  0.1850E-01
      2.996  0.2018E-02  0.1871E-01
      3.101  0.3166E-02  0.1904E-01
      3.207  0.6996E-02  0.1978E-01
      3.312  0.7965E-02  0.2062E-01
      3.417  0.3432E-02  0.2098E-01
      3.523  0.1940E-02  0.2119E-01
      3.628  0.3612E-02  0.2157E-01
      3.734  0.2579E-02  0.2184E-01
      3.839  0.2962E-02  0.2215E-01
      3.945  0.9057E-02  0.2311E-01
      4.050  0.6480E-02  0.2379E-01
      4.155  0.5944E-02  0.2441E-01
      4.261  0.5473E-02  0.2499E-01
      4.366  0.5964E-02  0.2562E-01
      4.472  0.5941E-02  0.2625E-01
      4.577  0.4328E-02  0.2670E-01
      4.683  0.3312E-02  0.2705E-01
      4.788  0.2208E-02  0.2728E-01
      4.893  0.1477E-02  0.2744E-01
      4.999  0.5107E-02  0.2798E-01
      5.104  0.1163E-01  0.2920E-01
      5.210  0.7542E-02  0.3000E-01
      5.315  0.5878E-02  0.3062E-01
      5.420  0.1105E-01  0.3178E-01
      5.526  0.1220E-01  0.3307E-01
      5.631  0.5187E-02  0.3362E-01
      5.737  0.1168E-02  0.3374E-01
      5.842  0.1751E-02  0.3392E-01
      5.948  0.1613E-02  0.3409E-01
      6.053  0.2167E-02  0.3432E-01
      6.158  0.5011E-02  0.3485E-01
      6.264  0.8626E-02  0.3576E-01
      6.369  0.4707E-02  0.3626E-01
      6.475  0.2757E-02  0.3655E-01
      6.580  0.7935E-02  0.3738E-01
      6.685  0.1131E-01  0.3858E-01
      6.791  0.5929E-02  0.3920E-01
      6.896  0.1348E-02  0.3934E-01
      7.002  0.4113E-02  0.3978E-01
      7.107  0.4651E-02  0.4027E-01
      7.213  0.2343E-02  0.4051E-01
      7.318  0.5545E-02  0.4110E-01
      7.423  0.9491E-02  0.4210E-01
      7.529  0.6970E-02  0.4283E-01
      7.634  0.1735E-02  0.4302E-01
      7.740  0.4511E-02  0.4349E-01
      7.845  0.9413E-02  0.4449E-01
      7.950  0.7059E-02  0.4523E-01
      8.056  0.4300E-02  0.4568E-01
      8.161  0.5998E-02  0.4632E-01
      8.267  0.6114E-02  0.4696E-01
      8.372  0.7283E-02  0.4773E-01
      8.478  0.7798E-02  0.4855E-01
      8.583  0.7513E-02  0.4934E-01
      8.688  0.4489E-02  0.4981E-01
      8.794  0.3136E-02  0.5015E-01
      8.899  0.4860E-02  0.5066E-01
      9.005  0.6007E-02  0.5129E-01
      9.110  0.6421E-02  0.5197E-01
      9.215  0.1085E-01  0.5311E-01
      9.321  0.1217E-01  0.5439E-01
      9.426  0.6462E-02  0.5508E-01
      9.532  0.5499E-02  0.5566E-01
      9.637  0.7638E-02  0.5646E-01
      9.743  0.7516E-02  0.5725E-01
      9.848  0.3915E-02  0.5767E-01
      9.953  0.1057E-02  0.5778E-01
     10.059  0.1948E-02  0.5798E-01
     10.164  0.9792E-02  0.5901E-01
     10.270  0.8579E-02  0.5992E-01
     10.375  0.4849E-02  0.6043E-01
     10.480  0.9463E-02  0.6143E-01
     10.586  0.1046E-01  0.6253E-01
     10.691  0.4724E-02  0.6303E-01
     10.797  0.6480E-02  0.6371E-01
     10.902  0.1124E-01  0.6490E-01
     11.008  0.9962E-02  0.6595E-01
     11.113  0.1183E-01  0.6719E-01
     11.218  0.9979E-02  0.6825E-01
     11.324  0.5661E-02  0.6884E-01
     11.429  0.7746E-02  0.6966E-01
     11.535  0.4134E-02  0.7009E-01
     11.640  0.6018E-02  0.7073E-01
     11.745  0.7187E-02  0.7149E-01
     11.851  0.3823E-02  0.7189E-01
     11.956  0.2479E-02  0.7215E-01
     12.062  0.3502E-02  0.7252E-01
     12.167  0.1261E-01  0.7385E-01
     12.273  0.1499E-01  0.7543E-01
     12.378  0.9693E-02  0.7645E-01
     12.483  0.4077E-02  0.7688E-01
     12.589  0.4127E-02  0.7732E-01
     12.694  0.8897E-02  0.7825E-01
     12.800  0.5437E-02  0.7883E-01
     12.905  0.1705E-02  0.7901E-01
     13.010  0.6026E-02  0.7964E-01
     13.116  0.8526E-02  0.8054E-01
     13.221  0.5420E-02  0.8111E-01
     13.327  0.8077E-02  0.8196E-01
     13.432  0.1077E-01  0.8310E-01
     13.538  0.6808E-02  0.8382E-01
     13.643  0.5297E-02  0.8437E-01
     13.748  0.8849E-02  0.8531E-01
     13.854  0.6035E-02  0.8594E-01
     13.959  0.3917E-02  0.8636E-01
     14.065  0.3374E-02  0.8671E-01
     14.170  0.6681E-02  0.8742E-01
     14.275  0.1447E-01  0.8894E-01
     14.381  0.1116E-01  0.9012E-01
     14.486  0.9472E-02  0.9112E-01
     14.592  0.1176E-01  0.9236E-01
     14.697  0.7776E-02  0.9318E-01
     14.803  0.4151E-02  0.9361E-01
     14.908  0.1786E-02  0.9380E-01
     15.013  0.6128E-02  0.9445E-01
     15.119  0.8058E-02  0.9530E-01
     15.224  0.1246E-01  0.9661E-01
     15.330  0.1541E-01  0.9824E-01
     15.435  0.9484E-02  0.9924E-01
     15.540  0.1310E-01  0.1006E+00
     15.646  0.1432E-01  0.1021E+00
     15.751  0.9211E-02  0.1031E+00
     15.857  0.4946E-02  0.1036E+00
     15.962  0.1880E-02  0.1038E+00
     16.068  0.4139E-02  0.1043E+00
     16.173  0.3856E-02  0.1047E+00
     16.278  0.1585E-02  0.1048E+00
     16.384  0.3472E-02  0.1052E+00
     16.489  0.8348E-02  0.1061E+00
     16.595  0.1052E-01  0.1072E+00
     16.700  0.2003E-01  0.1093E+00
     16.805  0.1635E-01  0.1110E+00
     16.911  0.1319E-01  0.1124E+00
     17.016  0.7652E-02  0.1132E+00
     17.122  0.5274E-02  0.1138E+00
     17.227  0.9086E-02  0.1147E+00
     17.333  0.8517E-02  0.1156E+00
     17.438  0.7534E-02  0.1164E+00
     17.543  0.9886E-02  0.1175E+00
     17.649  0.7948E-02  0.1183E+00
     17.754  0.5598E-02  0.1189E+00
     17.860  0.6643E-02  0.1196E+00
     17.965  0.7672E-02  0.1204E+00
     18.070  0.7020E-02  0.1211E+00
     18.176  0.8272E-02  0.1220E+00
     18.281  0.7716E-02  0.1228E+00
     18.387  0.9407E-02  0.1238E+00
     18.492  0.8997E-02  0.1248E+00
     18.598  0.6462E-02  0.1254E+00
     18.703  0.6378E-02  0.1261E+00
     18.808  0.7915E-02  0.1270E+00
     18.914  0.1049E-01  0.1281E+00
     19.019  0.8854E-02  0.1290E+00
     19.125  0.1404E-01  0.1305E+00
     19.230  0.9755E-02  0.1315E+00
     19.335  0.6447E-02  0.1322E+00
     19.441  0.4638E-02  0.1327E+00
     19.546  0.4751E-02  0.1332E+00
     19.652  0.1087E-01  0.1343E+00
     19.757  0.1458E-01  0.1359E+00
     19.863  0.6379E-02  0.1365E+00
     19.968  0.5372E-02  0.1371E+00
     20.073  0.3768E-02  0.1375E+00
     20.179  0.4864E-02  0.1380E+00
     20.284  0.5208E-02  0.1385E+00
     20.390  0.5437E-02  0.1391E+00
     20.495  0.7312E-02  0.1399E+00
     20.600  0.7568E-02  0.1407E+00
     20.706  0.1138E-01  0.1419E+00
     20.811  0.1942E-01  0.1439E+00
     20.917  0.1508E-01  0.1455E+00
     21.022  0.8936E-02  0.1465E+00
     21.128  0.4834E-02  0.1470E+00
     21.233  0.5219E-02  0.1475E+00
     21.338  0.7048E-02  0.1483E+00
     21.444  0.2414E-02  0.1485E+00
     21.549  0.2269E-02  0.1488E+00
     21.655  0.3662E-02  0.1492E+00
     21.760  0.1053E-02  0.1493E+00
     21.865  0.1405E-02  0.1494E+00
     21.971  0.8193E-02  0.1503E+00
     22.076  0.1731E-01  0.1521E+00
     22.182  0.1008E-01  0.1532E+00
     22.287  0.6840E-02  0.1539E+00
     22.393  0.1016E-01  0.1550E+00
     22.498  0.7262E-02  0.1557E+00
     22.603  0.1855E-02  0.1559E+00
     22.709  0.3149E-03  0.1559E+00
     22.814  0.1484E-02  0.1561E+00
     22.920  0.1551E-02  0.1563E+00
     23.025  0.2560E-03  0.1563E+00
     23.130  0.3446E-03  0.1563E+00
     23.236  0.3188E-02  0.1567E+00
     23.341  0.5354E-02  0.1572E+00
     23.447  0.2028E-02  0.1574E+00
     23.552  0.1875E-02  0.1576E+00
     23.658  0.1366E-02  0.1578E+00
     23.763  0.1587E-02  0.1580E+00
     23.868  0.1822E-02  0.1581E+00
     23.974  0.2696E-02  0.1584E+00
     24.079  0.3522E-02  0.1588E+00
     24.185  0.9777E-03  0.1589E+00
     24.290  0.1439E-02  0.1591E+00
     24.395  0.1614E-02  0.1592E+00
     24.501  0.2851E-03  0.1593E+00
     24.606  0.7078E-05  0.1593E+00
     24.712  0.2226E-07  0.1593E+00
     24.817  0.1607E-07  0.1593E+00
     24.923  0.5647E-05  0.1593E+00
     25.028  0.2504E-03  0.1593E+00
     25.133  0.1551E-02  0.1594E+00
     25.239  0.1483E-02  0.1596E+00
     25.344  0.2190E-03  0.1596E+00
     25.450  0.7760E-04  0.1596E+00
     25.555  0.9586E-03  0.1597E+00
     25.660  0.1879E-02  0.1599E+00
     25.766  0.5763E-03  0.1600E+00
     25.871  0.2569E-04  0.1600E+00
     25.977  0.1489E-06  0.1600E+00
     26.082  0.1040E-09  0.1600E+00
     26.188  0.8395E-14  0.1600E+00
     26.293  0.0000E+00  0.1600E+00
     26.398  0.0000E+00  0.1600E+00
     26.504  0.0000E+00  0.1600E+00
     26.609  0.0000E+00  0.1600E+00
     26.715  0.0000E+00  0.1600E+00
     26.820  0.0000E+00  0.1600E+00
     26.925  0.0000E+00  0.1600E+00
     27.031  0.0000E+00  0.1600E+00
