    2    2  100    1
  0.1186326E+02  0.2560000E-09  0.2560000E-09  0.4180454E-09  0.5000000E-15
  1.000000000000000E-004
  CAR 
 Si beta-tin                             
      8     36      8
 
  0.8333333E-01  0.8333333E-01  0.8333333E-01  0.1851852E-01
    1       -2.754225   1.000000
    2        4.269603   1.000000
    3        7.034344   1.000000
    4       17.709874   0.000000
    5       17.981986   0.000000
    6       23.766440   0.000000
    7       23.993842   0.000000
    8       24.297610   0.000000
 
  0.2500000E+00  0.8333333E-01  0.8333333E-01  0.3703704E-01
    1       -0.755727   1.000000
    2        6.173023   1.000000
    3        8.847962   1.000000
    4       11.034543   1.000000
    5       15.302796   0.000000
    6       17.578832   0.000000
    7       19.948258   0.000000
    8       22.059913   0.000000
 
  0.4166667E+00  0.8333333E-01  0.8333333E-01  0.3703704E-01
    1        2.770113   1.000000
    2        5.128284   1.000000
    3        9.596479   1.000000
    4       11.616045   1.000000
    5       12.645955   1.000000
    6       14.153534   0.000000
    7       15.020154   0.000000
    8       20.910351   0.000000
 
 -0.4166667E+00  0.8333333E-01  0.8333333E-01  0.3703704E-01
    1        0.825666   1.000000
    2        7.384454   1.000000
    3        8.123362   1.000000
    4       10.504750   1.000000
    5       14.258432   0.000000
    6       15.007136   0.000000
    7       17.256920   0.000000
    8       21.282896   0.000000
 
 -0.2500000E+00  0.8333333E-01  0.8333333E-01  0.3703704E-01
    1       -1.952050   1.000000
    2        5.037002   1.000000
    3        7.784977   1.000000
    4       14.288426   0.000000
    5       16.422116   0.000000
    6       20.694849   0.000000
    7       22.446215   0.000000
    8       23.282477   0.000000
 
 -0.8333333E-01  0.8333333E-01  0.8333333E-01  0.1851852E-01
    1       -3.156690   1.000000
    2        3.883883   1.000000
    3        6.654642   1.000000
    4       19.546093   0.000000
    5       20.810268   0.000000
    6       22.816759   0.000000
    7       25.130847   0.000000
    8       25.593399   0.000000
 
  0.2500000E+00  0.2500000E+00  0.8333333E-01  0.1851852E-01
    1        2.002469   1.000000
    2        8.266017   1.000000
    3        9.181066   1.000000
    4        9.285742   1.000000
    5       11.688401   1.000000
    6       15.309502   0.000000
    7       16.149927   0.000000
    8       18.436583   0.000000
 
  0.4166667E+00  0.2500000E+00  0.8333333E-01  0.3703704E-01
    1        3.932569   1.000000
    2        6.255251   1.000000
    3        8.545691   1.000000
    4       10.789999   1.000000
    5       12.695306   1.000000
    6       13.757555   0.000000
    7       15.224488   0.000000
    8       16.586023   0.000000
 
 -0.4166667E+00  0.2500000E+00  0.8333333E-01  0.3703704E-01
    1        0.432325   1.000000
    2        7.274387   1.000000
    3        9.446091   1.000000
    4       10.391287   1.000000
    5       12.118892   1.000000
    6       16.440149   0.000000
    7       18.295144   0.000000
    8       19.695080   0.000000
 
 -0.2500000E+00  0.2500000E+00  0.8333333E-01  0.1851852E-01
    1       -1.552378   1.000000
    2        5.417902   1.000000
    3        8.150688   1.000000
    4       12.471317   1.000000
    5       18.067687   0.000000
    6       18.856727   0.000000
    7       20.343593   0.000000
    8       21.574725   0.000000
 
  0.4166667E+00  0.4166667E+00  0.8333333E-01  0.1851852E-01
    1        4.114506   1.000000
    2        4.567512   1.000000
    3       10.573839   1.000000
    4       11.361730   1.000000
    5       11.392212   1.000000
    6       13.974868   0.000000
    7       14.242663   0.000000
    8       18.278500   0.000000
 
 -0.4166667E+00  0.4166667E+00  0.8333333E-01  0.1851852E-01
    1        1.608693   1.000000
    2        6.234906   1.000000
    3        8.532133   1.000000
    4       11.151045   1.000000
    5       13.228259   0.005517
    6       15.710827   0.000000
    7       16.685379   0.000000
    8       19.117683   0.000000
 
  0.8333333E-01  0.8333333E-01  0.2500000E+00  0.1851852E-01
    1       -2.277025   1.000000
    2        1.961860   1.000000
    3       10.170118   1.000000
    4       18.124543   0.000000
    5       18.326761   0.000000
    6       21.584293   0.000000
    7       22.036653   0.000000
    8       22.390454   0.000000
 
  0.2500000E+00  0.8333333E-01  0.2500000E+00  0.3703704E-01
    1       -0.283685   1.000000
    2        3.904297   1.000000
    3       11.141221   1.000000
    4       12.203448   1.000000
    5       15.200183   0.000000
    6       16.034617   0.000000
    7       19.665769   0.000000
    8       22.336534   0.000000
 
  0.4166667E+00  0.8333333E-01  0.2500000E+00  0.3703704E-01
    1        3.230825   1.000000
    2        5.545429   1.000000
    3        7.449481   1.000000
    4        9.698615   1.000000
    5       14.491433   0.000000
    6       15.643766   0.000000
    7       17.478085   0.000000
    8       19.094297   0.000000
 
 -0.4166667E+00  0.8333333E-01  0.2500000E+00  0.3703704E-01
    1        1.293347   1.000000
    2        5.418608   1.000000
    3        8.332460   1.000000
    4       12.146428   1.000000
    5       13.692768   0.000000
    6       15.213455   0.000000
    7       18.809234   0.000000
    8       20.471628   0.000000
 
 -0.2500000E+00  0.8333333E-01  0.2500000E+00  0.3703704E-01
    1       -1.476922   1.000000
    2        2.742606   1.000000
    3       10.880206   1.000000
    4       14.720506   0.000000
    5       16.804132   0.000000
    6       18.663765   0.000000
    7       20.763898   0.000000
    8       22.291269   0.000000
 
 -0.8333333E-01  0.8333333E-01  0.2500000E+00  0.1851852E-01
    1       -2.678449   1.000000
    2        1.569892   1.000000
    3        9.804068   1.000000
    4       19.871496   0.000000
    5       21.215409   0.000000
    6       21.276587   0.000000
    7       23.526890   0.000000
    8       23.995354   0.000000
 
  0.2500000E+00  0.2500000E+00  0.2500000E+00  0.1851852E-01
    1        2.466444   1.000000
    2        6.528829   1.000000
    3        9.316108   1.000000
    4        9.615043   1.000000
    5       13.238624   0.003592
    6       13.313298   0.000090
    7       15.453532   0.000000
    8       21.082486   0.000000
 
  0.4166667E+00  0.2500000E+00  0.2500000E+00  0.3703704E-01
    1        4.387859   1.000000
    2        6.656434   1.000000
    3        8.421897   1.000000
    4        9.240815   1.000000
    5       10.897297   1.000000
    6       13.038231   0.557948
    7       16.905915   0.000000
    8       19.041284   0.000000
 
 -0.4166667E+00  0.2500000E+00  0.2500000E+00  0.3703704E-01
    1        0.901121   1.000000
    2        5.051271   1.000000
    3       10.163490   1.000000
    4       12.319469   1.000000
    5       13.050503   0.488921
    6       14.587812   0.000000
    7       16.671577   0.000000
    8       21.996938   0.000000
 
 -0.2500000E+00  0.2500000E+00  0.2500000E+00  0.1851852E-01
    1       -1.078244   1.000000
    2        3.131156   1.000000
    3       11.183392   1.000000
    4       12.959100   0.897038
    5       16.830300   0.000000
    6       18.478015   0.000000
    7       20.557524   0.000000
    8       22.167934   0.000000
 
  0.4166667E+00  0.4166667E+00  0.2500000E+00  0.1851852E-01
    1        4.568586   1.000000
    2        5.011216   1.000000
    3        8.682507   1.000000
    4        9.166464   1.000000
    5       11.767837   1.000000
    6       15.318458   0.000000
    7       16.984756   0.000000
    8       17.809776   0.000000
 
 -0.4166667E+00  0.4166667E+00  0.2500000E+00  0.1851852E-01
    1        2.073861   1.000000
    2        6.039615   1.000000
    3        6.963566   1.000000
    4       10.787040   1.000000
    5       14.409186   0.000000
    6       17.096231   0.000000
    7       18.422587   0.000000
    8       19.639272   0.000000
 
  0.8333333E-01  0.8333333E-01  0.4166667E+00  0.1851852E-01
    1       -1.326392   1.000000
    2        0.090273   1.000000
    3       13.672779   0.000000
    4       17.346680   0.000000
    5       18.932268   0.000000
    6       19.491172   0.000000
    7       20.368370   0.000000
    8       20.777857   0.000000
 
  0.2500000E+00  0.8333333E-01  0.4166667E+00  0.3703704E-01
    1        0.656481   1.000000
    2        2.056818   1.000000
    3       12.171387   1.000000
    4       13.413609   0.000000
    5       15.560210   0.000000
    6       16.677781   0.000000
    7       18.122940   0.000000
    8       19.686917   0.000000
 
  0.4166667E+00  0.8333333E-01  0.4166667E+00  0.3703704E-01
    1        4.142203   1.000000
    2        5.430340   1.000000
    3        6.666438   1.000000
    4        7.934652   1.000000
    5       15.486335   0.000000
    6       16.667776   0.000000
    7       19.098150   0.000000
    8       20.985134   0.000000
 
 -0.4166667E+00  0.8333333E-01  0.4166667E+00  0.3703704E-01
    1        2.224163   1.000000
    2        3.607741   1.000000
    3        9.214410   1.000000
    4       10.535169   1.000000
    5       15.770413   0.000000
    6       16.652318   0.000000
    7       17.868031   0.000000
    8       20.803058   0.000000
 
 -0.2500000E+00  0.8333333E-01  0.4166667E+00  0.3703704E-01
    1       -0.530410   1.000000
    2        0.879935   1.000000
    3       14.231431   0.000000
    4       15.547642   0.000000
    5       16.857320   0.000000
    6       17.453815   0.000000
    7       18.852365   0.000000
    8       19.319456   0.000000
 
 -0.8333333E-01  0.8333333E-01  0.4166667E+00  0.1851852E-01
    1       -1.725761   1.000000
    2       -0.306016   1.000000
    3       13.335463   0.000025
    4       17.169413   0.000000
    5       20.864620   0.000000
    6       22.025117   0.000000
    7       22.057624   0.000000
    8       23.236685   0.000000
 
  0.2500000E+00  0.2500000E+00  0.4166667E+00  0.1851852E-01
    1        3.389093   1.000000
    2        4.756886   1.000000
    3       10.139158   1.000000
    4       10.421195   1.000000
    5       11.654162   1.000000
    6       11.901633   1.000000
    7       18.472472   0.000000
    8       21.904566   0.000000
 
  0.4166667E+00  0.2500000E+00  0.4166667E+00  0.3703704E-01
    1        5.285186   1.000000
    2        6.529519   1.000000
    3        7.813934   1.000000
    4        8.984365   1.000000
    5       10.143973   1.000000
    6       11.376893   1.000000
    7       20.150468   0.000000
    8       22.020148   0.000000
 
 -0.4166667E+00  0.2500000E+00  0.4166667E+00  0.3703704E-01
    1        1.834545   1.000000
    2        3.223509   1.000000
    3       11.059617   1.000000
    4       12.296409   1.000000
    5       13.408975   0.000000
    6       14.551357   0.000000
    7       17.201587   0.000000
    8       20.703059   0.000000
 
 -0.2500000E+00  0.2500000E+00  0.4166667E+00  0.1851852E-01
    1       -0.133837   1.000000
    2        1.273263   1.000000
    3       13.555875   0.000000
    4       14.447493   0.000000
    5       15.564615   0.000000
    6       18.606216   0.000000
    7       19.299091   0.000000
    8       20.530692   0.000000
 
  0.4166667E+00  0.4166667E+00  0.4166667E+00  0.1851852E-01
    1        5.443403   1.000000
    2        5.825244   1.000000
    3        7.024766   1.000000
    4        7.409868   1.000000
    5       12.636259   1.000000
    6       13.911770   0.000000
    7       20.220909   0.000000
    8       20.778484   0.000000
 
 -0.4166667E+00  0.4166667E+00  0.4166667E+00  0.1851852E-01
    1        2.998664   1.000000
    2        4.366445   1.000000
    3        7.719513   1.000000
    4        9.048884   1.000000
    5       17.640924   0.000000
    6       17.918842   0.000000
    7       19.154228   0.000000
    8       19.723105   0.000000
