Automatically generated mesh
      36
Reciprocal lattice
    0.08333333333333    0.08333333333333    0.08333333333333            96
    0.25000000000000    0.08333333333333    0.08333333333333           192
    0.41666666666667    0.08333333333333    0.08333333333333           192
   -0.41666666666667    0.08333333333333    0.08333333333333           192
   -0.25000000000000    0.08333333333333    0.08333333333333           192
   -0.08333333333333    0.08333333333333    0.08333333333333            96
    0.25000000000000    0.25000000000000    0.08333333333333            96
    0.41666666666667    0.25000000000000    0.08333333333333           192
   -0.41666666666667    0.25000000000000    0.08333333333333           192
   -0.25000000000000    0.25000000000000    0.08333333333333            96
    0.41666666666667    0.41666666666667    0.08333333333333            96
   -0.41666666666667    0.41666666666667    0.08333333333333            96
    0.08333333333333    0.08333333333333    0.25000000000000            96
    0.25000000000000    0.08333333333333    0.25000000000000           192
    0.41666666666667    0.08333333333333    0.25000000000000           192
   -0.41666666666667    0.08333333333333    0.25000000000000           192
   -0.25000000000000    0.08333333333333    0.25000000000000           192
   -0.08333333333333    0.08333333333333    0.25000000000000            96
    0.25000000000000    0.25000000000000    0.25000000000000            96
    0.41666666666667    0.25000000000000    0.25000000000000           192
   -0.41666666666667    0.25000000000000    0.25000000000000           192
   -0.25000000000000    0.25000000000000    0.25000000000000            96
    0.41666666666667    0.41666666666667    0.25000000000000            96
   -0.41666666666667    0.41666666666667    0.25000000000000            96
    0.08333333333333    0.08333333333333    0.41666666666667            96
    0.25000000000000    0.08333333333333    0.41666666666667           192
    0.41666666666667    0.08333333333333    0.41666666666667           192
   -0.41666666666667    0.08333333333333    0.41666666666667           192
   -0.25000000000000    0.08333333333333    0.41666666666667           192
   -0.08333333333333    0.08333333333333    0.41666666666667            96
    0.25000000000000    0.25000000000000    0.41666666666667            96
    0.41666666666667    0.25000000000000    0.41666666666667           192
   -0.41666666666667    0.25000000000000    0.41666666666667           192
   -0.25000000000000    0.25000000000000    0.41666666666667            96
    0.41666666666667    0.41666666666667    0.41666666666667            96
   -0.41666666666667    0.41666666666667    0.41666666666667            96
