 vasp.5.4.1 24Jun15 (build Jul 19 2016 16:50:41) complex                        
  
 executed on           IFC91_ompi date 2019.10.10  11:12:58
 running on    4 total cores
 distrk:  each k-point on    4 cores,    1 groups
 distr:  one band on NCORES_PER_BAND=   1 cores,    4 groups


--------------------------------------------------------------------------------------------------------


 INCAR:
 POTCAR:    PAW_PBE Si 05Jan2001                  
 POTCAR:    PAW_PBE Si 05Jan2001                  
   VRHFIN = Si: s2p2                                                            
   LEXCH  = PE                                                                  
   EATOM  =   103.0669 eV,    7.5752 Ry                                         
                                                                                
   TITEL  = PAW_PBE Si 05Jan2001                                                
   LULTRA =        F    use ultrasoft PP ?                                      
   IUNSCR =        1    unscreen: 0-lin 1-nonlin 2-no                           
   RPACOR =    1.500    partial core radius                                     
   POMASS =   28.085; ZVAL   =    4.000    mass and valenz                      
   RCORE  =    1.900    outmost cutoff radius                                   
   RWIGS  =    2.480; RWIGS  =    1.312    wigner-seitz radius (au A)           
   ENMAX  =  245.345; ENMIN  =  184.009 eV                                      
   ICORE  =        2    local potential                                         
   LCOR   =        T    correct aug charges                                     
   LPAW   =        T    paw PP                                                  
   EAUG   =  322.069                                                            
   DEXC   =    0.000                                                            
   RMAX   =    1.950    core radius for proj-oper                               
   RAUG   =    1.300    factor for augmentation sphere                          
   RDEP   =    1.993    radius for radial grids                                 
   RDEPT  =    1.837    core radius for aug-charge                              
                                                                                
   Atomic configuration                                                         
    6 entries                                                                   
     n  l   j            E        occ.                                          
     1  0  0.50     -1785.8828   2.0000                                         
     2  0  0.50      -139.4969   2.0000                                         
     2  1  1.50       -95.5546   6.0000                                         
     3  0  0.50       -10.8127   2.0000                                         
     3  1  0.50        -4.0811   2.0000                                         
     3  2  1.50        -4.0817   0.0000                                         
   Description                                                                  
     l       E           TYP  RCUT    TYP  RCUT                                 
     0    -10.8127223     23  1.900                                             
     0     -7.6451159     23  1.900                                             
     1     -4.0811372     23  1.900                                             
     1      2.4879257     23  1.900                                             
     2     -4.0817478      7  1.900                                             
  local pseudopotential read in
  partial core-charges read in
  partial kinetic energy density read in
  atomic valenz-charges read in
  non local Contribution for L=           0  read in
    real space projection operators read in
  non local Contribution for L=           0  read in
    real space projection operators read in
  non local Contribution for L=           1  read in
    real space projection operators read in
  non local Contribution for L=           1  read in
    real space projection operators read in
    PAW grid and wavefunctions read in
 
   number of l-projection  operators is LMAX  =           4
   number of lm-projection operators is LMMAX =           8
 
  PAW_PBE Si 05Jan2001                  :
 energy of atom  1       EATOM= -103.0669
 kinetic energy error for atom=    0.0009 (will be added to EATOM!!)
 
 
 POSCAR: Si HCP                                  
  positions in direct lattice
  No initial velocities read in
 exchange correlation table for  LEXCH =        8
   RHO(1)=    0.500       N(1)  =     2000
   RHO(2)=  100.500       N(2)  =     4000
 


--------------------------------------------------------------------------------------------------------


 ion  position               nearest neighbor table
   1  0.000  0.000  0.000-   2 2.56   2 2.56   2 2.56   2 2.56   2 2.56   2 2.56
   2  0.333  0.667  0.500-   1 2.56   1 2.56   1 2.56   1 2.56   1 2.56   1 2.56
 
  LATTYP: Found a hexagonal cell.
 ALAT       =     2.5600000000
 C/A-ratio  =     1.6329900000
  
  Lattice vectors:
  
 A1 = (   2.5600000000,   0.0000000000,   0.0000000000)
 A2 = (  -1.2800000000,   2.2170250337,   0.0000000000)
 A3 = (   0.0000000000,   0.0000000000,   4.1804544000)


Analysis of symmetry for initial positions (statically):
=====================================================================
 Subroutine PRICEL returns:
 Original cell was already a primitive cell.
 

 Routine SETGRP: Setting up the symmetry group for a 
 hexagonal supercell.


 Subroutine GETGRP returns: Found 24 space group operations
 (whereof 12 operations were pure point group operations)
 out of a pool of 24 trial point group operations.


The static configuration has the point symmetry D_3h.
 The point group associated with its full space group is D_6h.


Analysis of symmetry for dynamics (positions and initial velocities):
=====================================================================
 Subroutine PRICEL returns:
 Original cell was already a primitive cell.
 

 Routine SETGRP: Setting up the symmetry group for a 
 hexagonal supercell.


 Subroutine GETGRP returns: Found 24 space group operations
 (whereof 12 operations were pure point group operations)
 out of a pool of 24 trial point group operations.


The dynamic configuration has the point symmetry D_3h.
 The point group associated with its full space group is D_6h.


 Subroutine INISYM returns: Found 24 space group operations
 (whereof 12 operations are pure point group operations),
 and found     1 'primitive' translations

 
 
 KPOINTS: K-Points                                

Automatic generation of k-mesh.
Space group operators:
 irot       det(A)        alpha          n_x          n_y          n_z        tau_x        tau_y        tau_z
    1     1.000000     0.000000     1.000000     0.000000     0.000000     0.000000     0.000000     0.000000
    2    -1.000000    60.000000     0.000000     0.000000    -1.000000     0.000000     0.000000     0.000000
    3     1.000000   120.000000     0.000000     0.000000    -1.000000     0.000000     0.000000     0.000000
    4    -1.000000   180.000000     0.000000     0.000000     1.000000     0.000000     0.000000     0.000000
    5     1.000000   120.000000     0.000000     0.000000     1.000000     0.000000     0.000000     0.000000
    6    -1.000000    60.000000     0.000000     0.000000     1.000000     0.000000     0.000000     0.000000
    7    -1.000000   179.999999     1.000000     0.000000     0.000000     0.000000     0.000000     0.000000
    8     1.000000   180.000000     0.866025    -0.500000     0.000000     0.000000     0.000000     0.000000
    9    -1.000000   180.000000     0.500000    -0.866025     0.000000     0.000000     0.000000     0.000000
   10     1.000000   180.000000     0.000000     1.000000     0.000000     0.000000     0.000000     0.000000
   11    -1.000000   180.000000    -0.500000    -0.866025     0.000000     0.000000     0.000000     0.000000
   12     1.000000   180.000000     0.866025     0.500000     0.000000     0.000000     0.000000     0.000000
   13    -1.000000     0.000000     1.000000     0.000000     0.000000     0.333333     0.666667     0.500000
   14     1.000000    60.000000     0.000000     0.000000    -1.000000     0.333333     0.666667     0.500000
   15    -1.000000   120.000000     0.000000     0.000000    -1.000000     0.333333     0.666667     0.500000
   16     1.000000   180.000000     0.000000     0.000000     1.000000     0.333333     0.666667     0.500000
   17    -1.000000   120.000000     0.000000     0.000000     1.000000     0.333333     0.666667     0.500000
   18     1.000000    60.000000     0.000000     0.000000     1.000000     0.333333     0.666667     0.500000
   19     1.000000   179.999999     1.000000     0.000000     0.000000     0.333333     0.666667     0.500000
   20    -1.000000   180.000000     0.866025    -0.500000     0.000000     0.333333     0.666667     0.500000
   21     1.000000   180.000000     0.500000    -0.866025     0.000000     0.333333     0.666667     0.500000
   22    -1.000000   180.000000     0.000000     1.000000     0.000000     0.333333     0.666667     0.500000
   23     1.000000   180.000000    -0.500000    -0.866025     0.000000     0.333333     0.666667     0.500000
   24    -1.000000   180.000000     0.866025     0.500000     0.000000     0.333333     0.666667     0.500000
 
 Subroutine IBZKPT returns following result:
 ===========================================
 
 Found     36 irreducible k-points:
 
 Following reciprocal coordinates:
            Coordinates               Weight
  0.083333  0.083333  0.083333     96.000000
  0.250000  0.083333  0.083333    192.000000
  0.416667  0.083333  0.083333    192.000000
 -0.416667  0.083333  0.083333    192.000000
 -0.250000  0.083333  0.083333    192.000000
 -0.083333  0.083333  0.083333     96.000000
  0.250000  0.250000  0.083333     96.000000
  0.416667  0.250000  0.083333    192.000000
 -0.416667  0.250000  0.083333    192.000000
 -0.250000  0.250000  0.083333     96.000000
  0.416667  0.416667  0.083333     96.000000
 -0.416667  0.416667  0.083333     96.000000
  0.083333  0.083333  0.250000     96.000000
  0.250000  0.083333  0.250000    192.000000
  0.416667  0.083333  0.250000    192.000000
 -0.416667  0.083333  0.250000    192.000000
 -0.250000  0.083333  0.250000    192.000000
 -0.083333  0.083333  0.250000     96.000000
  0.250000  0.250000  0.250000     96.000000
  0.416667  0.250000  0.250000    192.000000
 -0.416667  0.250000  0.250000    192.000000
 -0.250000  0.250000  0.250000     96.000000
  0.416667  0.416667  0.250000     96.000000
 -0.416667  0.416667  0.250000     96.000000
  0.083333  0.083333  0.416667     96.000000
  0.250000  0.083333  0.416667    192.000000
  0.416667  0.083333  0.416667    192.000000
 -0.416667  0.083333  0.416667    192.000000
 -0.250000  0.083333  0.416667    192.000000
 -0.083333  0.083333  0.416667     96.000000
  0.250000  0.250000  0.416667     96.000000
  0.416667  0.250000  0.416667    192.000000
 -0.416667  0.250000  0.416667    192.000000
 -0.250000  0.250000  0.416667     96.000000
  0.416667  0.416667  0.416667     96.000000
 -0.416667  0.416667  0.416667     96.000000
 
 Following cartesian coordinates:
            Coordinates               Weight
  0.083333  0.144338  0.051031     96.000000
  0.250000  0.240563  0.051031    192.000000
  0.416667  0.336788  0.051031    192.000000
 -0.416667 -0.144338  0.051031    192.000000
 -0.250000 -0.048113  0.051031    192.000000
 -0.083333  0.048113  0.051031     96.000000
  0.250000  0.433013  0.051031     96.000000
  0.416667  0.529238  0.051031    192.000000
 -0.416667  0.048113  0.051031    192.000000
 -0.250000  0.144338  0.051031     96.000000
  0.416667  0.721688  0.051031     96.000000
 -0.416667  0.240563  0.051031     96.000000
  0.083333  0.144338  0.153093     96.000000
  0.250000  0.240563  0.153093    192.000000
  0.416667  0.336788  0.153093    192.000000
 -0.416667 -0.144338  0.153093    192.000000
 -0.250000 -0.048113  0.153093    192.000000
 -0.083333  0.048113  0.153093     96.000000
  0.250000  0.433013  0.153093     96.000000
  0.416667  0.529238  0.153093    192.000000
 -0.416667  0.048113  0.153093    192.000000
 -0.250000  0.144338  0.153093     96.000000
  0.416667  0.721688  0.153093     96.000000
 -0.416667  0.240563  0.153093     96.000000
  0.083333  0.144338  0.255156     96.000000
  0.250000  0.240563  0.255156    192.000000
  0.416667  0.336788  0.255156    192.000000
 -0.416667 -0.144338  0.255156    192.000000
 -0.250000 -0.048113  0.255156    192.000000
 -0.083333  0.048113  0.255156     96.000000
  0.250000  0.433013  0.255156     96.000000
  0.416667  0.529238  0.255156    192.000000
 -0.416667  0.048113  0.255156    192.000000
 -0.250000  0.144338  0.255156     96.000000
  0.416667  0.721688  0.255156     96.000000
 -0.416667  0.240563  0.255156     96.000000
 


--------------------------------------------------------------------------------------------------------




 Dimension of arrays:
   k-points           NKPTS =     36   k-points in BZ     NKDIM =     36   number of bands    NBANDS=      8
   number of dos      NEDOS =    301   number of ions     NIONS =      2
   non local maximal  LDIM  =      4   non local SUM 2l+1 LMDIM =      8
   total plane-waves  NPLWV =   9720
   max r-space proj   IRMAX =      1   max aug-charges    IRDMAX=  13895
   dimension x,y,z NGX =    18 NGY =   18 NGZ =   30
   dimension x,y,z NGXF=    36 NGYF=   36 NGZF=   60
   support grid    NGXF=    36 NGYF=   36 NGZF=   60
   ions per type =               2
 NGX,Y,Z   is equivalent  to a cutoff of  11.69, 11.69, 11.93 a.u.
 NGXF,Y,Z  is equivalent  to a cutoff of  23.38, 23.38, 23.86 a.u.


 I would recommend the setting:
   dimension x,y,z NGX =    18 NGY =   18 NGZ =   29
 SYSTEM =  Si beta-tin                             
 POSCAR =  Si HCP                                  

 Startparameter for this run:
   NWRITE =      2    write-flag & timer
   PREC   = accura    normal or accurate (medium, high low for compatibility)
   ISTART =      0    job   : 0-new  1-cont  2-samecut
   ICHARG =      2    charge: 1-file 2-atom 10-const
   ISPIN  =      1    spin polarized calculation?
   LNONCOLLINEAR =      F non collinear calculations
   LSORBIT =      F    spin-orbit coupling
   INIWAV =      1    electr: 0-lowe 1-rand  2-diag
   LASPH  =      F    aspherical Exc in radial PAW
   METAGGA=      F    non-selfconsistent MetaGGA calc.

 Electronic Relaxation 1
   ENCUT  =  450.0 eV  33.07 Ry    5.75 a.u.   4.43  4.43  7.23*2*pi/ulx,y,z
   ENINI  =  450.0     initial cutoff
   ENAUG  =  322.1 eV  augmentation charge cutoff
   NELM   =     60;   NELMIN=  2; NELMDL= -5     # of ELM steps 
   EDIFF  = 0.1E-04   stopping-criterion for ELM
   LREAL  =      F    real-space projection
   NLSPLINE    = F    spline interpolate recip. space projectors
   LCOMPAT=      F    compatible to vasp.4.4
   GGA_COMPAT  = T    GGA compatible to vasp.4.4-vasp.4.6
   LMAXPAW     = -100 max onsite density
   LMAXMIX     =    2 max onsite mixed and CHGCAR
   VOSKOWN=      0    Vosko Wilk Nusair interpolation
   ROPT   =    0.00000
 Ionic relaxation
   EDIFFG = -.1E-01   stopping-criterion for IOM
   NSW    =    100    number of steps for IOM
   NBLOCK =      1;   KBLOCK =    100    inner block; outer block 
   IBRION =      2    ionic relax: 0-MD 1-quasi-New 2-CG
   NFREE  =      1    steps in history (QN), initial steepest desc. (CG)
   ISIF   =      4    stress and relaxation
   IWAVPR =     11    prediction:  0-non 1-charg 2-wave 3-comb
   ISYM   =      2    0-nonsym 1-usesym 2-fastsym
   LCORR  =      T    Harris-Foulkes like correction to forces

   POTIM  = 0.5000    time-step for ionic-motion
   TEIN   =    0.0    initial temperature
   TEBEG  =    0.0;   TEEND  =   0.0 temperature during run
   SMASS  =  -3.00    Nose mass-parameter (am)
   estimated Nose-frequenzy (Omega)   =  0.10E-29 period in steps =****** mass=  -0.150E-27a.u.
   SCALEE = 1.0000    scale energy and forces
   NPACO  =    256;   APACO  = 16.0  distance and # of slots for P.C.
   PSTRESS=    0.0 pullay stress

  Mass of Ions in am
   POMASS =  28.09
  Ionic Valenz
   ZVAL   =   4.00
  Atomic Wigner-Seitz radii
   RWIGS  =  -1.00
  virtual crystal weights 
   VCA    =   1.00
   NELECT =       8.0000    total number of electrons
   NUPDOWN=      -1.0000    fix difference up-down

 DOS related values:
   EMIN   =  10.00;   EMAX   =-10.00  energy-range for DOS
   EFERMI =   0.00
   ISMEAR =     0;   SIGMA  =   0.10  broadening in eV -4-tet -1-fermi 0-gaus

 Electronic relaxation 2 (details)
   IALGO  =     38    algorithm
   LDIAG  =      T    sub-space diagonalisation (order eigenvalues)
   LSUBROT=      F    optimize rotation matrix (better conditioning)
   TURBO    =      0    0=normal 1=particle mesh
   IRESTART =      0    0=no restart 2=restart with 2 vectors
   NREBOOT  =      0    no. of reboots
   NMIN     =      0    reboot dimension
   EREF     =   0.00    reference energy to select bands
   IMIX   =      4    mixing-type and parameters
     AMIX     =   0.40;   BMIX     =  1.00
     AMIX_MAG =   1.60;   BMIX_MAG =  1.00
     AMIN     =   0.10
     WC   =   100.;   INIMIX=   1;  MIXPRE=   1;  MAXMIX= -45

 Intra band minimization:
   WEIMIN = 0.0010     energy-eigenvalue tresh-hold
   EBREAK =  0.31E-06  absolut break condition
   DEPER  =   0.30     relativ break condition  

   TIME   =   0.40     timestep for ELM

  volume/ion in A,a.u.               =      11.86        80.06
  Fermi-wavevector in a.u.,A,eV,Ry     =   1.139445  2.153239 17.664928  1.298336
  Thomas-Fermi vector in A             =   2.276149
 
 Write flags
   LWAVE  =      T    write WAVECAR
   LCHARG =      T    write CHGCAR
   LVTOT  =      F    write LOCPOT, total local potential
   LVHAR  =      F    write LOCPOT, Hartree potential only
   LELF   =      F    write electronic localiz. function (ELF)
   LORBIT =      0    0 simple, 1 ext, 2 COOP (PROOUT)


 Dipole corrections
   LMONO  =      F    monopole corrections only (constant potential shift)
   LDIPOL =      F    correct potential (dipole corrections)
   IDIPOL =      0    1-x, 2-y, 3-z, 4-all directions 
   EPSILON=  1.0000000 bulk dielectric constant

 Exchange correlation treatment:
   GGA     =    --    GGA type
   LEXCH   =     8    internal setting for exchange type
   VOSKOWN=      0    Vosko Wilk Nusair interpolation
   LHFCALC =     F    Hartree Fock is set to
   LHFONE  =     F    Hartree Fock one center treatment
   AEXX    =    0.0000 exact exchange contribution

 Linear response parameters
   LEPSILON=     F    determine dielectric tensor
   LRPA    =     F    only Hartree local field effects (RPA)
   LNABLA  =     F    use nabla operator in PAW spheres
   LVEL    =     F    velocity operator in full k-point grid
   LINTERFAST=   F  fast interpolation
   KINTER  =     0    interpolate to denser k-point grid
   CSHIFT  =0.1000    complex shift for real part using Kramers Kronig
   OMEGAMAX=  -1.0    maximum frequency
   DEG_THRESHOLD= 0.2000000E-02 threshold for treating states as degnerate
   RTIME   =    0.100 relaxation time in fs

 Orbital magnetization related:
   ORBITALMAG=     F  switch on orbital magnetization
   LCHIMAG   =     F  perturbation theory with respect to B field
   DQ        =  0.001000  dq finite difference perturbation B field



--------------------------------------------------------------------------------------------------------


 conjugate gradient relaxation of ions
 charge density and potential will be updated during run
 non-spin polarized calculation
 Variant of blocked Davidson
 Davidson routine will perform the subspace rotation
 perform sub-space diagonalisation
    after iterative eigenvector-optimisation
 modified Broyden-mixing scheme, WC =      100.0
 initial mixing is a Kerker type mixing with AMIX =  0.4000 and BMIX =      1.0000
 Hartree-type preconditioning will be used
 using additional bands            4
 reciprocal scheme for non local part
 use partial core corrections
 calculate Harris-corrections to forces 
   (improved forces if not selfconsistent)
 use gradient corrections 
 use of overlap-Matrix (Vanderbilt PP)
 Gauss-broadening in eV      SIGMA  =   0.10


--------------------------------------------------------------------------------------------------------


  energy-cutoff  :      450.00
  volume of cell :       23.73
      direct lattice vectors                 reciprocal lattice vectors
     2.560000000  0.000000000  0.000000000     0.390625000  0.225527449  0.000000000
    -1.280000000  2.217025034  0.000000000     0.000000000  0.451054898  0.000000000
     0.000000000  0.000000000  4.180454400     0.000000000  0.000000000  0.239208446

  length of vectors
     2.560000000  2.560000000  4.180454400     0.451054898  0.451054898  0.239208446


 
 k-points in units of 2pi/SCALE and weight: K-Points                                
   0.08333333  0.14433757  0.05103114       0.019
   0.25000000  0.24056261  0.05103114       0.037
   0.41666667  0.33678766  0.05103114       0.037
  -0.41666667 -0.14433757  0.05103114       0.037
  -0.25000000 -0.04811252  0.05103114       0.037
  -0.08333333  0.04811252  0.05103114       0.019
   0.25000000  0.43301270  0.05103114       0.019
   0.41666667  0.52923775  0.05103114       0.037
  -0.41666667  0.04811252  0.05103114       0.037
  -0.25000000  0.14433757  0.05103114       0.019
   0.41666667  0.72168784  0.05103114       0.019
  -0.41666667  0.24056261  0.05103114       0.019
   0.08333333  0.14433757  0.15309341       0.019
   0.25000000  0.24056261  0.15309341       0.037
   0.41666667  0.33678766  0.15309341       0.037
  -0.41666667 -0.14433757  0.15309341       0.037
  -0.25000000 -0.04811252  0.15309341       0.037
  -0.08333333  0.04811252  0.15309341       0.019
   0.25000000  0.43301270  0.15309341       0.019
   0.41666667  0.52923775  0.15309341       0.037
  -0.41666667  0.04811252  0.15309341       0.037
  -0.25000000  0.14433757  0.15309341       0.019
   0.41666667  0.72168784  0.15309341       0.019
  -0.41666667  0.24056261  0.15309341       0.019
   0.08333333  0.14433757  0.25515568       0.019
   0.25000000  0.24056261  0.25515568       0.037
   0.41666667  0.33678766  0.25515568       0.037
  -0.41666667 -0.14433757  0.25515568       0.037
  -0.25000000 -0.04811252  0.25515568       0.037
  -0.08333333  0.04811252  0.25515568       0.019
   0.25000000  0.43301270  0.25515568       0.019
   0.41666667  0.52923775  0.25515568       0.037
  -0.41666667  0.04811252  0.25515568       0.037
  -0.25000000  0.14433757  0.25515568       0.019
   0.41666667  0.72168784  0.25515568       0.019
  -0.41666667  0.24056261  0.25515568       0.019
 
 k-points in reciprocal lattice and weights: K-Points                                
   0.08333333  0.08333333  0.08333333       0.019
   0.25000000  0.08333333  0.08333333       0.037
   0.41666667  0.08333333  0.08333333       0.037
  -0.41666667  0.08333333  0.08333333       0.037
  -0.25000000  0.08333333  0.08333333       0.037
  -0.08333333  0.08333333  0.08333333       0.019
   0.25000000  0.25000000  0.08333333       0.019
   0.41666667  0.25000000  0.08333333       0.037
  -0.41666667  0.25000000  0.08333333       0.037
  -0.25000000  0.25000000  0.08333333       0.019
   0.41666667  0.41666667  0.08333333       0.019
  -0.41666667  0.41666667  0.08333333       0.019
   0.08333333  0.08333333  0.25000000       0.019
   0.25000000  0.08333333  0.25000000       0.037
   0.41666667  0.08333333  0.25000000       0.037
  -0.41666667  0.08333333  0.25000000       0.037
  -0.25000000  0.08333333  0.25000000       0.037
  -0.08333333  0.08333333  0.25000000       0.019
   0.25000000  0.25000000  0.25000000       0.019
   0.41666667  0.25000000  0.25000000       0.037
  -0.41666667  0.25000000  0.25000000       0.037
  -0.25000000  0.25000000  0.25000000       0.019
   0.41666667  0.41666667  0.25000000       0.019
  -0.41666667  0.41666667  0.25000000       0.019
   0.08333333  0.08333333  0.41666667       0.019
   0.25000000  0.08333333  0.41666667       0.037
   0.41666667  0.08333333  0.41666667       0.037
  -0.41666667  0.08333333  0.41666667       0.037
  -0.25000000  0.08333333  0.41666667       0.037
  -0.08333333  0.08333333  0.41666667       0.019
   0.25000000  0.25000000  0.41666667       0.019
   0.41666667  0.25000000  0.41666667       0.037
  -0.41666667  0.25000000  0.41666667       0.037
  -0.25000000  0.25000000  0.41666667       0.019
   0.41666667  0.41666667  0.41666667       0.019
  -0.41666667  0.41666667  0.41666667       0.019
 
 position of ions in fractional coordinates (direct lattice) 
   0.00000000  0.00000000  0.00000000
   0.33333333  0.66666667  0.50000000
 
 position of ions in cartesian coordinates  (Angst):
   0.00000000  0.00000000  0.00000000
  -0.00000000  1.47801669  2.09022720
 


--------------------------------------------------------------------------------------------------------


 k-point  1 :   0.0833 0.0833 0.0833  plane waves:     527
 k-point  2 :   0.2500 0.0833 0.0833  plane waves:     515
 k-point  3 :   0.4167 0.0833 0.0833  plane waves:     506
 k-point  4 :  -0.4167 0.0833 0.0833  plane waves:     512
 k-point  5 :  -0.2500 0.0833 0.0833  plane waves:     517
 k-point  6 :  -0.0833 0.0833 0.0833  plane waves:     536
 k-point  7 :   0.2500 0.2500 0.0833  plane waves:     509
 k-point  8 :   0.4167 0.2500 0.0833  plane waves:     511
 k-point  9 :  -0.4167 0.2500 0.0833  plane waves:     512
 k-point 10 :  -0.2500 0.2500 0.0833  plane waves:     515
 k-point 11 :   0.4167 0.4167 0.0833  plane waves:     510
 k-point 12 :  -0.4167 0.4167 0.0833  plane waves:     502
 k-point 13 :   0.0833 0.0833 0.2500  plane waves:     526
 k-point 14 :   0.2500 0.0833 0.2500  plane waves:     513
 k-point 15 :   0.4167 0.0833 0.2500  plane waves:     508
 k-point 16 :  -0.4167 0.0833 0.2500  plane waves:     512
 k-point 17 :  -0.2500 0.0833 0.2500  plane waves:     523
 k-point 18 :  -0.0833 0.0833 0.2500  plane waves:     525
 k-point 19 :   0.2500 0.2500 0.2500  plane waves:     513
 k-point 20 :   0.4167 0.2500 0.2500  plane waves:     508
 k-point 21 :  -0.4167 0.2500 0.2500  plane waves:     514
 k-point 22 :  -0.2500 0.2500 0.2500  plane waves:     518
 k-point 23 :   0.4167 0.4167 0.2500  plane waves:     505
 k-point 24 :  -0.4167 0.4167 0.2500  plane waves:     512
 k-point 25 :   0.0833 0.0833 0.4167  plane waves:     516
 k-point 26 :   0.2500 0.0833 0.4167  plane waves:     518
 k-point 27 :   0.4167 0.0833 0.4167  plane waves:     510
 k-point 28 :  -0.4167 0.0833 0.4167  plane waves:     512
 k-point 29 :  -0.2500 0.0833 0.4167  plane waves:     514
 k-point 30 :  -0.0833 0.0833 0.4167  plane waves:     514
 k-point 31 :   0.2500 0.2500 0.4167  plane waves:     519
 k-point 32 :   0.4167 0.2500 0.4167  plane waves:     515
 k-point 33 :  -0.4167 0.2500 0.4167  plane waves:     516
 k-point 34 :  -0.2500 0.2500 0.4167  plane waves:     518
 k-point 35 :   0.4167 0.4167 0.4167  plane waves:     507
 k-point 36 :  -0.4167 0.4167 0.4167  plane waves:     509

 maximum and minimum number of plane-waves per node :       536      502

 maximum number of plane-waves:       536
 maximum index in each direction: 
   IXMAX=    4   IYMAX=    4   IZMAX=    7
   IXMIN=   -4   IYMIN=   -4   IZMIN=   -7

 NGX is ok and might be reduce to  18
 NGY is ok and might be reduce to  18
 NGZ is ok and might be reduce to  30

 serial   3D FFT for wavefunctions
 parallel 3D FFT for charge:
    minimum data exchange during FFTs selected (reduces bandwidth)


 total amount of memory used by VASP on root node    33954. kBytes
========================================================================

   base      :      30000. kBytes
   nonl-proj :       1252. kBytes
   fftplans  :        714. kBytes
   grid      :       1347. kBytes
   one-center:          6. kBytes
   wavefun   :        635. kBytes
 
     INWAV:  cpu time    0.0000: real time    0.0000
 Broyden mixing: mesh for mixing (old mesh)
   NGX =  9   NGY =  9   NGZ = 15
  (NGX  = 36   NGY  = 36   NGZ  = 60)
  gives a total of   1215 points

 initial charge density was supplied:
 charge density of overlapping atoms calculated
 number of electron       8.0000000 magnetization 
 keeping initial charge density in first step


--------------------------------------------------------------------------------------------------------


 Maximum index for augmentation-charges         3299 (set IRDMAX)


--------------------------------------------------------------------------------------------------------


 First call to EWALD:  gamma=   0.617
 Maximum number of real-space cells 3x 3x 2
 Maximum number of reciprocal cells 3x 3x 4

 FEWALD executed in parallel
    FEWALD:  cpu time    0.0010: real time    0.0013


----------------------------------------- Iteration    1(   1)  ---------------------------------------


    POTLOK:  cpu time    0.0320: real time    0.0251
    SETDIJ:  cpu time    0.0080: real time    0.0060
     EDDAV:  cpu time    1.3218: real time    0.8717
       DOS:  cpu time    0.0020: real time    0.0008
    --------------------------------------------
      LOOP:  cpu time    1.3668: real time    0.9059

 eigenvalue-minimisations  :   584
 total energy-change (2. order) : 0.4935766E+01  (-0.3378300E+03)
 number of electron       8.0000000 magnetization 
 augmentation part        8.0000000 magnetization 

 Free energy of the ion-electron system (eV)
  ---------------------------------------------------
  alpha Z        PSCENC =         5.67519049
  Ewald energy   TEWEN  =      -291.76315788
  -Hartree energ DENC   =        -0.58336147
  -exchange      EXHF   =         0.00000000
  -V(xc)+E(xc)   XCENC  =       -16.49886874
  PAW double counting   =       176.24759923     -141.06103558
  entropy T*S    EENTRO =        -0.00348760
  eigenvalues    EBANDS =        66.79096023
  atomic energy  EATOM  =       206.13192747
  Solvation  Ediel_sol  =         0.00000000
  ---------------------------------------------------
  free energy    TOTEN  =         4.93576616 eV

  energy without entropy =        4.93925375  energy(sigma->0) =        4.93750996


--------------------------------------------------------------------------------------------------------




----------------------------------------- Iteration    1(   2)  ---------------------------------------


     EDDAV:  cpu time    2.0797: real time    1.3543
       DOS:  cpu time    0.0020: real time    0.0011
    --------------------------------------------
      LOOP:  cpu time    2.0847: real time    1.3578

 eigenvalue-minimisations  :   888
 total energy-change (2. order) :-0.1432921E+02  (-0.1384051E+02)
 number of electron       8.0000000 magnetization 
 augmentation part        8.0000000 magnetization 

 Free energy of the ion-electron system (eV)
  ---------------------------------------------------
  alpha Z        PSCENC =         5.67519049
  Ewald energy   TEWEN  =      -291.76315788
  -Hartree energ DENC   =        -0.58336147
  -exchange      EXHF   =         0.00000000
  -V(xc)+E(xc)   XCENC  =       -16.49886874
  PAW double counting   =       176.24759923     -141.06103558
  entropy T*S    EENTRO =        -0.00534754
  eigenvalues    EBANDS =        52.46360937
  atomic energy  EATOM  =       206.13192747
  Solvation  Ediel_sol  =         0.00000000
  ---------------------------------------------------
  free energy    TOTEN  =        -9.39344464 eV

  energy without entropy =       -9.38809710  energy(sigma->0) =       -9.39077087


--------------------------------------------------------------------------------------------------------




----------------------------------------- Iteration    1(   3)  ---------------------------------------


     EDDAV:  cpu time    1.4058: real time    0.9676
       DOS:  cpu time    0.0020: real time    0.0011
    --------------------------------------------
      LOOP:  cpu time    1.4108: real time    0.9710

 eigenvalue-minimisations  :   704
 total energy-change (2. order) :-0.1842037E+00  (-0.1828453E+00)
 number of electron       8.0000000 magnetization 
 augmentation part        8.0000000 magnetization 

 Free energy of the ion-electron system (eV)
  ---------------------------------------------------
  alpha Z        PSCENC =         5.67519049
  Ewald energy   TEWEN  =      -291.76315788
  -Hartree energ DENC   =        -0.58336147
  -exchange      EXHF   =         0.00000000
  -V(xc)+E(xc)   XCENC  =       -16.49886874
  PAW double counting   =       176.24759923     -141.06103558
  entropy T*S    EENTRO =        -0.00270107
  eigenvalues    EBANDS =        52.27675924
  atomic energy  EATOM  =       206.13192747
  Solvation  Ediel_sol  =         0.00000000
  ---------------------------------------------------
  free energy    TOTEN  =        -9.57764830 eV

  energy without entropy =       -9.57494723  energy(sigma->0) =       -9.57629776


--------------------------------------------------------------------------------------------------------




----------------------------------------- Iteration    1(   4)  ---------------------------------------


     EDDAV:  cpu time    2.3116: real time    1.4845
       DOS:  cpu time    0.0020: real time    0.0011
    --------------------------------------------
      LOOP:  cpu time    2.3176: real time    1.4881

 eigenvalue-minimisations  :   944
 total energy-change (2. order) :-0.8724103E-03  (-0.8723541E-03)
 number of electron       8.0000000 magnetization 
 augmentation part        8.0000000 magnetization 

 Free energy of the ion-electron system (eV)
  ---------------------------------------------------
  alpha Z        PSCENC =         5.67519049
  Ewald energy   TEWEN  =      -291.76315788
  -Hartree energ DENC   =        -0.58336147
  -exchange      EXHF   =         0.00000000
  -V(xc)+E(xc)   XCENC  =       -16.49886874
  PAW double counting   =       176.24759923     -141.06103558
  entropy T*S    EENTRO =        -0.00268271
  eigenvalues    EBANDS =        52.27586848
  atomic energy  EATOM  =       206.13192747
  Solvation  Ediel_sol  =         0.00000000
  ---------------------------------------------------
  free energy    TOTEN  =        -9.57852071 eV

  energy without entropy =       -9.57583800  energy(sigma->0) =       -9.57717935


--------------------------------------------------------------------------------------------------------




----------------------------------------- Iteration    1(   5)  ---------------------------------------


     EDDAV:  cpu time    1.6897: real time    1.0676
       DOS:  cpu time    0.0020: real time    0.0011
    CHARGE:  cpu time    0.0230: real time    0.0146
    MIXING:  cpu time    0.0030: real time    0.0015
    --------------------------------------------
      LOOP:  cpu time    1.7207: real time    1.0872

 eigenvalue-minimisations  :   704
 total energy-change (2. order) :-0.1581539E-06  (-0.1575750E-06)
 number of electron       7.9999999 magnetization 
 augmentation part       -0.4659743 magnetization 

 Broyden mixing:
  rms(total) = 0.55102E+00    rms(broyden)= 0.55102E+00
  rms(prec ) = 0.60367E+00
  weight for this iteration     100.00

 Free energy of the ion-electron system (eV)
  ---------------------------------------------------
  alpha Z        PSCENC =         5.67519049
  Ewald energy   TEWEN  =      -291.76315788
  -Hartree energ DENC   =        -0.58336147
  -exchange      EXHF   =         0.00000000
  -V(xc)+E(xc)   XCENC  =       -16.49886874
  PAW double counting   =       176.24759923     -141.06103558
  entropy T*S    EENTRO =        -0.00268271
  eigenvalues    EBANDS =        52.27586832
  atomic energy  EATOM  =       206.13192747
  Solvation  Ediel_sol  =         0.00000000
  ---------------------------------------------------
  free energy    TOTEN  =        -9.57852087 eV

  energy without entropy =       -9.57583815  energy(sigma->0) =       -9.57717951


--------------------------------------------------------------------------------------------------------




----------------------------------------- Iteration    1(   6)  ---------------------------------------


    POTLOK:  cpu time    0.0420: real time    0.0252
    SETDIJ:  cpu time    0.0070: real time    0.0051
     EDDAV:  cpu time    2.1977: real time    1.3897
       DOS:  cpu time    0.0020: real time    0.0011
    CHARGE:  cpu time    0.0220: real time    0.0140
    MIXING:  cpu time    0.0010: real time    0.0008
    --------------------------------------------
      LOOP:  cpu time    2.2757: real time    1.4384

 eigenvalue-minimisations  :   752
 total energy-change (2. order) : 0.3534790E-01  (-0.7044124E-03)
 number of electron       7.9999999 magnetization 
 augmentation part       -0.4698119 magnetization 

 Broyden mixing:
  rms(total) = 0.30715E+00    rms(broyden)= 0.30715E+00
  rms(prec ) = 0.34127E+00
  weight for this iteration     100.00

 eigenvalues of (default mixing * dielectric matrix)
  average eigenvalue GAMMA=   2.2519
  2.2519

 Free energy of the ion-electron system (eV)
  ---------------------------------------------------
  alpha Z        PSCENC =         5.67519049
  Ewald energy   TEWEN  =      -291.76315788
  -Hartree energ DENC   =        -0.53188901
  -exchange      EXHF   =         0.00000000
  -V(xc)+E(xc)   XCENC  =       -16.41380767
  PAW double counting   =       440.79450522     -405.64609456
  entropy T*S    EENTRO =        -0.00258928
  eigenvalues    EBANDS =        52.21274226
  atomic energy  EATOM  =       206.13192747
  Solvation  Ediel_sol  =         0.00000000
  ---------------------------------------------------
  free energy    TOTEN  =        -9.54317296 eV

  energy without entropy =       -9.54058368  energy(sigma->0) =       -9.54187832


--------------------------------------------------------------------------------------------------------




----------------------------------------- Iteration    1(   7)  ---------------------------------------


    POTLOK:  cpu time    0.0290: real time    0.0176
    SETDIJ:  cpu time    0.0020: real time    0.0018
     EDDAV:  cpu time    1.7297: real time    1.1623
       DOS:  cpu time    0.0030: real time    0.0011
    CHARGE:  cpu time    0.0270: real time    0.0164
    MIXING:  cpu time    0.0020: real time    0.0016
    --------------------------------------------
      LOOP:  cpu time    1.7977: real time    1.2032

 eigenvalue-minimisations  :   704
 total energy-change (2. order) : 0.2101902E-01  (-0.1423148E-02)
 number of electron       7.9999999 magnetization 
 augmentation part       -0.4753890 magnetization 

 Broyden mixing:
  rms(total) = 0.18147E-01    rms(broyden)= 0.18147E-01
  rms(prec ) = 0.22931E-01
  weight for this iteration     100.00

 eigenvalues of (default mixing * dielectric matrix)
  average eigenvalue GAMMA=   2.4915
  2.4915  2.4915

 Free energy of the ion-electron system (eV)
  ---------------------------------------------------
  alpha Z        PSCENC =         5.67519049
  Ewald energy   TEWEN  =      -291.76315788
  -Hartree energ DENC   =        -0.52162248
  -exchange      EXHF   =         0.00000000
  -V(xc)+E(xc)   XCENC  =       -16.28341134
  PAW double counting   =       992.42415715     -957.33638234
  entropy T*S    EENTRO =        -0.00247066
  eigenvalues    EBANDS =        52.15361565
  atomic energy  EATOM  =       206.13192747
  Solvation  Ediel_sol  =         0.00000000
  ---------------------------------------------------
  free energy    TOTEN  =        -9.52215394 eV

  energy without entropy =       -9.51968328  energy(sigma->0) =       -9.52091861


--------------------------------------------------------------------------------------------------------




----------------------------------------- Iteration    1(   8)  ---------------------------------------


    POTLOK:  cpu time    0.0360: real time    0.0210
    SETDIJ:  cpu time    0.0080: real time    0.0053
     EDDAV:  cpu time    2.2607: real time    1.4825
       DOS:  cpu time    0.0020: real time    0.0010
    CHARGE:  cpu time    0.0340: real time    0.0203
    MIXING:  cpu time    0.0020: real time    0.0009
    --------------------------------------------
      LOOP:  cpu time    2.3456: real time    1.5337

 eigenvalue-minimisations  :   960
 total energy-change (2. order) : 0.2018047E-03  (-0.1249922E-04)
 number of electron       7.9999999 magnetization 
 augmentation part       -0.4757741 magnetization 

 Broyden mixing:
  rms(total) = 0.19372E-02    rms(broyden)= 0.19372E-02
  rms(prec ) = 0.27733E-02
  weight for this iteration     100.00

 eigenvalues of (default mixing * dielectric matrix)
  average eigenvalue GAMMA=   2.0213
  0.9515  2.6982  2.4141

 Free energy of the ion-electron system (eV)
  ---------------------------------------------------
  alpha Z        PSCENC =         5.67519049
  Ewald energy   TEWEN  =      -291.76315788
  -Hartree energ DENC   =        -0.53066909
  -exchange      EXHF   =         0.00000000
  -V(xc)+E(xc)   XCENC  =       -16.26674250
  PAW double counting   =       966.18893158     -931.11744211
  entropy T*S    EENTRO =        -0.00246367
  eigenvalues    EBANDS =        52.16247358
  atomic energy  EATOM  =       206.13192747
  Solvation  Ediel_sol  =         0.00000000
  ---------------------------------------------------
  free energy    TOTEN  =        -9.52195213 eV

  energy without entropy =       -9.51948847  energy(sigma->0) =       -9.52072030


--------------------------------------------------------------------------------------------------------




----------------------------------------- Iteration    1(   9)  ---------------------------------------


    POTLOK:  cpu time    0.0350: real time    0.0211
    SETDIJ:  cpu time    0.0230: real time    0.0137
     EDDAV:  cpu time    1.4308: real time    0.9722
       DOS:  cpu time    0.0020: real time    0.0009
    --------------------------------------------
      LOOP:  cpu time    1.4938: real time    1.0102

 eigenvalue-minimisations  :   496
 total energy-change (2. order) : 0.8335809E-06  (-0.2491366E-06)
 number of electron       7.9999999 magnetization 
 augmentation part       -0.4757741 magnetization 

 Free energy of the ion-electron system (eV)
  ---------------------------------------------------
  alpha Z        PSCENC =         5.67519049
  Ewald energy   TEWEN  =      -291.76315788
  -Hartree energ DENC   =        -0.53191990
  -exchange      EXHF   =         0.00000000
  -V(xc)+E(xc)   XCENC  =       -16.26419711
  PAW double counting   =       965.70958469     -930.63993874
  entropy T*S    EENTRO =        -0.00246225
  eigenvalues    EBANDS =        52.16302192
  atomic energy  EATOM  =       206.13192747
  Solvation  Ediel_sol  =         0.00000000
  ---------------------------------------------------
  free energy    TOTEN  =        -9.52195130 eV

  energy without entropy =       -9.51948905  energy(sigma->0) =       -9.52072018


--------------------------------------------------------------------------------------------------------




 average (electrostatic) potential at core
  the test charge radii are     0.9892
  (the norm of the test charge is              1.0000)
       1 -77.0274       2 -77.0274
 
 
 
 E-fermi :  12.9852     XC(G=0): -12.0162     alpha+bet :-20.2175


 k-point     1 :       0.0833    0.0833    0.0833
  band No.  band energies     occupation 
      1      -2.7432      2.00000
      2       4.0454      2.00000
      3       6.6953      2.00000
      4      18.1179      0.00000
      5      18.3153      0.00000
      6      23.9423      0.00000
      7      24.1191      0.00000
      8      24.3507      0.00000

 k-point     2 :       0.2500    0.0833    0.0833
  band No.  band energies     occupation 
      1      -0.7083      2.00000
      2       5.9898      2.00000
      3       8.5668      2.00000
      4      11.2619      2.00000
      5      15.6100      0.00000
      6      17.6279      0.00000
      7      19.8865      0.00000
      8      22.1026      0.00000

 k-point     3 :       0.4167    0.0833    0.0833
  band No.  band energies     occupation 
      1       2.8843      2.00000
      2       5.2651      2.00000
      3       9.5026      2.00000
      4      11.4603      2.00000
      5      12.4988      2.00000
      6      14.2046      0.00000
      7      15.0693      0.00000
      8      20.9681      0.00000

 k-point     4 :      -0.4167    0.0833    0.0833
  band No.  band energies     occupation 
      1       0.9019      2.00000
      2       7.3268      2.00000
      3       8.2150      2.00000
      4      10.2439      2.00000
      5      14.3386      0.00000
      6      15.2046      0.00000
      7      17.1326      0.00000
      8      21.3388      0.00000

 k-point     5 :      -0.2500    0.0833    0.0833
  band No.  band energies     occupation 
      1      -1.9264      2.00000
      2       4.8293      2.00000
      3       7.4620      2.00000
      4      14.5961      0.00000
      5      16.7612      0.00000
      6      20.7883      0.00000
      7      22.4988      0.00000
      8      23.4629      0.00000

 k-point     6 :      -0.0833    0.0833    0.0833
  band No.  band energies     occupation 
      1      -3.1530      2.00000
      2       3.6512      2.00000
      3       6.3083      2.00000
      4      19.9556      0.00000
      5      21.2699      0.00000
      6      23.0740      0.00000
      7      25.0769      0.00000
      8      25.6275      0.00000

 k-point     7 :       0.2500    0.2500    0.0833
  band No.  band energies     occupation 
      1       2.0999      2.00000
      2       8.2807      2.00000
      3       9.3500      2.00000
      4       9.3768      2.00000
      5      11.4536      2.00000
      6      15.3901      0.00000
      7      16.0363      0.00000
      8      18.2808      0.00000

 k-point     8 :       0.4167    0.2500    0.0833
  band No.  band energies     occupation 
      1       4.0675      2.00000
      2       6.4165      2.00000
      3       8.7177      2.00000
      4      10.7376      2.00000
      5      12.5530      2.00000
      6      13.6787      0.00000
      7      15.0884      0.00000
      8      16.4608      0.00000

 k-point     9 :      -0.4167    0.2500    0.0833
  band No.  band energies     occupation 
      1       0.5012      2.00000
      2       7.1174      2.00000
      3       9.4256      2.00000
      4      10.3726      2.00000
      5      12.3588      2.00000
      6      16.4777      0.00000
      7      18.2513      0.00000
      8      19.6210      0.00000

 k-point    10 :      -0.2500    0.2500    0.0833
  band No.  band energies     occupation 
      1      -1.5194      2.00000
      2       5.2184      2.00000
      3       7.8378      2.00000
      4      12.7415      1.99943
      5      18.4775      0.00000
      6      18.9068      0.00000
      7      20.6252      0.00000
      8      21.5530      0.00000

 k-point    11 :       0.4167    0.4167    0.0833
  band No.  band energies     occupation 
      1       4.2825      2.00000
      2       4.6670      2.00000
      3      10.5942      2.00000
      4      11.1921      2.00000
      5      11.5702      2.00000
      6      13.8106      0.00000
      7      14.0588      0.00000
      8      18.2776      0.00000

 k-point    12 :      -0.4167    0.4167    0.0833
  band No.  band energies     occupation 
      1       1.6996      2.00000
      2       6.3801      2.00000
      3       8.4220      2.00000
      4      10.8972      2.00000
      5      13.1609      0.01297
      6      15.5542      0.00000
      7      17.0745      0.00000
      8      19.4187      0.00000

 k-point    13 :       0.0833    0.0833    0.2500
  band No.  band energies     occupation 
      1      -2.2828      2.00000
      2       1.8099      2.00000
      3       9.7348      2.00000
      4      18.5152      0.00000
      5      18.5853      0.00000
      6      21.0953      0.00000
      7      22.1508      0.00000
      8      22.5710      0.00000

 k-point    14 :       0.2500    0.0833    0.2500
  band No.  band energies     occupation 
      1      -0.2530      2.00000
      2       3.7905      2.00000
      3      11.1651      2.00000
      4      12.0268      2.00000
      5      15.3282      0.00000
      6      16.3006      0.00000
      7      19.8195      0.00000
      8      22.1419      0.00000

 k-point    15 :       0.4167    0.0833    0.2500
  band No.  band energies     occupation 
      1       3.3281      2.00000
      2       5.6567      2.00000
      3       7.4237      2.00000
      4       9.6819      2.00000
      5      14.6117      0.00000
      6      15.4949      0.00000
      7      17.2787      0.00000
      8      19.1643      0.00000

 k-point    16 :      -0.4167    0.0833    0.2500
  band No.  band energies     occupation 
      1       1.3529      2.00000
      2       5.3358      2.00000
      3       8.5076      2.00000
      4      12.1183      2.00000
      5      13.4372      0.00000
      6      15.4768      0.00000
      7      18.8906      0.00000
      8      20.3138      0.00000

 k-point    17 :      -0.2500    0.0833    0.2500
  band No.  band energies     occupation 
      1      -1.4680      2.00000
      2       2.6060      2.00000
      3      10.4675      2.00000
      4      15.0041      0.00000
      5      17.1132      0.00000
      6      18.8249      0.00000
      7      20.9179      0.00000
      8      21.7567      0.00000

 k-point    18 :      -0.0833    0.0833    0.2500
  band No.  band energies     occupation 
      1      -2.6916      2.00000
      2       1.4102      2.00000
      3       9.3597      2.00000
      4      20.0167      0.00000
      5      20.8539      0.00000
      6      21.6592      0.00000
      7      23.7728      0.00000
      8      24.3104      0.00000

 k-point    19 :       0.2500    0.2500    0.2500
  band No.  band energies     occupation 
      1       2.5472      2.00000
      2       6.4706      2.00000
      3       9.5429      2.00000
      4       9.7654      2.00000
      5      13.1391      0.02949
      6      13.4321      0.00000
      7      15.2189      0.00000
      8      20.8394      0.00000

 k-point    20 :       0.4167    0.2500    0.2500
  band No.  band energies     occupation 
      1       4.5058      2.00000
      2       6.7911      2.00000
      3       8.4416      2.00000
      4       9.3816      2.00000
      5      10.9261      2.00000
      6      13.0720      0.21954
      7      16.6116      0.00000
      8      18.7724      0.00000

 k-point    21 :      -0.4167    0.2500    0.2500
  band No.  band energies     occupation 
      1       0.9534      2.00000
      2       4.9600      2.00000
      3      10.3636      2.00000
      4      12.3956      2.00000
      5      12.9023      1.75909
      6      14.6503      0.00000
      7      16.7473      0.00000
      8      21.7367      0.00000

 k-point    22 :      -0.2500    0.2500    0.2500
  band No.  band energies     occupation 
      1      -1.0620      2.00000
      2       3.0022      2.00000
      3      10.8021      2.00000
      4      13.1884      0.00406
      5      16.9462      0.00000
      6      18.8721      0.00000
      7      20.6631      0.00000
      8      22.4128      0.00000

 k-point    23 :       0.4167    0.4167    0.2500
  band No.  band energies     occupation 
      1       4.7190      2.00000
      2       5.0928      2.00000
      3       8.7089      2.00000
      4       9.1038      2.00000
      5      11.9976      2.00000
      6      15.3252      0.00000
      7      16.6996      0.00000
      8      17.5893      0.00000

 k-point    24 :      -0.4167    0.4167    0.2500
  band No.  band energies     occupation 
      1       2.1480      2.00000
      2       5.9984      2.00000
      3       7.0876      2.00000
      4      10.7870      2.00000
      5      14.0757      0.00000
      6      17.4698      0.00000
      7      18.2556      0.00000
      8      19.8232      0.00000

 k-point    25 :       0.0833    0.0833    0.4167
  band No.  band energies     occupation 
      1      -1.3655      2.00000
      2       0.0020      2.00000
      3      13.1310      0.03916
      4      16.7635      0.00000
      5      19.2855      0.00000
      6      19.7320      0.00000
      7      20.6683      0.00000
      8      21.0331      0.00000

 k-point    26 :       0.2500    0.0833    0.4167
  band No.  band energies     occupation 
      1       0.6541      2.00000
      2       2.0058      2.00000
      3      12.3543      2.00000
      4      13.5100      0.00000
      5      15.1992      0.00000
      6      16.8646      0.00000
      7      18.2778      0.00000
      8      19.1977      0.00000

 k-point    27 :       0.4167    0.0833    0.4167
  band No.  band energies     occupation 
      1       4.2058      2.00000
      2       5.4472      2.00000
      3       6.7636      2.00000
      4       7.9843      2.00000
      5      15.7288      0.00000
      6      16.8224      0.00000
      7      18.7301      0.00000
      8      20.6133      0.00000

 k-point    28 :      -0.4167    0.0833    0.4167
  band No.  band energies     occupation 
      1       2.2507      2.00000
      2       3.5858      2.00000
      3       9.3598      2.00000
      4      10.6305      2.00000
      5      15.8967      0.00000
      6      16.5719      0.00000
      7      17.8242      0.00000
      8      20.3119      0.00000

 k-point    29 :      -0.2500    0.0833    0.4167
  band No.  band energies     occupation 
      1      -0.5547      2.00000
      2       0.8067      2.00000
      3      13.7618      0.00000
      4      15.7240      0.00000
      5      17.0448      0.00000
      6      17.3681      0.00000
      7      18.7466      0.00000
      8      19.4837      0.00000

 k-point    30 :      -0.0833    0.0833    0.4167
  band No.  band energies     occupation 
      1      -1.7723      2.00000
      2      -0.4018      2.00000
      3      12.7798      1.99632
      4      16.5104      0.00000
      5      21.2314      0.00000
      6      22.3806      0.00000
      7      22.4368      0.00000
      8      23.5988      0.00000

 k-point    31 :       0.2500    0.2500    0.4167
  band No.  band energies     occupation 
      1       3.4369      2.00000
      2       4.7566      2.00000
      3      10.3334      2.00000
      4      10.5333      2.00000
      5      11.8288      2.00000
      6      11.9769      2.00000
      7      18.0274      0.00000
      8      21.3458      0.00000

 k-point    32 :       0.4167    0.2500    0.4167
  band No.  band energies     occupation 
      1       5.3695      2.00000
      2       6.5703      2.00000
      3       7.9283      2.00000
      4       9.0522      2.00000
      5      10.3064      2.00000
      6      11.4862      2.00000
      7      19.7284      0.00000
      8      21.5895      0.00000

 k-point    33 :      -0.4167    0.2500    0.4167
  band No.  band energies     occupation 
      1       1.8538      2.00000
      2       3.1943      2.00000
      3      11.2366      2.00000
      4      12.4223      2.00000
      5      13.5940      0.00000
      6      14.6617      0.00000
      7      16.8101      0.00000
      8      20.1211      0.00000

 k-point    34 :      -0.2500    0.2500    0.4167
  band No.  band energies     occupation 
      1      -0.1508      2.00000
      2       1.2074      2.00000
      3      13.6121      0.00000
      4      14.2950      0.00000
      5      15.5307      0.00000
      6      18.0567      0.00000
      7      19.6615      0.00000
      8      20.8444      0.00000

 k-point    35 :       0.4167    0.4167    0.4167
  band No.  band energies     occupation 
      1       5.5549      2.00000
      2       5.8706      2.00000
      3       7.1093      2.00000
      4       7.4238      2.00000
      5      12.8390      1.96129
      6      14.0615      0.00000
      7      19.8103      0.00000
      8      20.3582      0.00000

 k-point    36 :      -0.4167    0.4167    0.4167
  band No.  band energies     occupation 
      1       3.0398      2.00000
      2       4.3592      2.00000
      3       7.8392      2.00000
      4       9.1196      2.00000
      5      17.2303      0.00000
      6      18.2612      0.00000
      7      19.4488      0.00000
      8      19.7503      0.00000


--------------------------------------------------------------------------------------------------------


 soft charge-density along one line, spin component           1
         0         1         2         3         4         5         6         7         8         9
 total charge-density along one line
 
 pseudopotential strength for first ion, spin component:           1
 17.650  24.621   0.000   0.000  -0.000   0.000   0.000  -0.000
 24.621  34.349   0.000   0.000  -0.000   0.000   0.000  -0.000
  0.000   0.000   4.055  -0.000   0.000   7.551  -0.000   0.000
  0.000   0.000  -0.000   4.055   0.000  -0.000   7.551   0.000
 -0.000  -0.000   0.000   0.000   4.055   0.000   0.000   7.551
  0.000   0.000   7.551  -0.000   0.000  14.073  -0.000   0.000
  0.000   0.000  -0.000   7.551   0.000  -0.000  14.073   0.000
 -0.000  -0.000   0.000   0.000   7.551   0.000   0.000  14.073
 total augmentation occupancy for first ion, spin component:           1
  6.701  -3.081  -0.000   0.000   0.000  -0.000   0.000  -0.000
 -3.081   1.810   0.000   0.000  -0.000   0.000   0.000   0.000
  0.000   0.000   3.115   0.000  -0.000  -0.812   0.000   0.000
  0.000   0.000   0.000   3.115   0.000   0.000  -0.812   0.000
  0.000  -0.000   0.000  -0.000   3.115   0.000  -0.000  -0.812
 -0.000  -0.000  -0.812  -0.000   0.000   0.230   0.000   0.000
  0.000   0.000   0.000  -0.812   0.000   0.000   0.230   0.000
 -0.000   0.000   0.000  -0.000  -0.812   0.000  -0.000   0.230


------------------------ aborting loop because EDIFF is reached ----------------------------------------


    CHARGE:  cpu time    0.0190: real time    0.0138
    FORLOC:  cpu time    0.0020: real time    0.0006
    FORNL :  cpu time    0.0460: real time    0.0312
    STRESS:  cpu time    0.2540: real time    0.1639
    FORCOR:  cpu time    0.0420: real time    0.0259
    FORHAR:  cpu time    0.0200: real time    0.0118
    MIXING:  cpu time    0.0030: real time    0.0013
    OFIELD:  cpu time    0.0000: real time    0.0000

  FORCE on cell =-STRESS in cart. coord.  units (eV):
  Direction    XX          YY          ZZ          XY          YZ          ZX
  --------------------------------------------------------------------------------------
  Alpha Z     5.67519     5.67519     5.67519
  Ewald     -97.32101   -97.32101   -97.12135    -0.00000     0.00000     0.00000
  Hartree     0.17218     0.17218     0.18752    -0.00000    -0.00000    -0.00000
  E(xc)     -26.80258   -26.80258   -26.83010    -0.00000    -0.00000    -0.00000
  Local      -6.79809    -6.79809    -7.10345    -0.00001    -0.00000    -0.00000
  n-local    74.72362    79.45624    77.73049    -1.40603     0.20168    -0.82550
  augment   -12.07043   -12.07042   -12.06399     0.00001     0.00000     0.00000
  Kinetic    80.90956    47.22687    62.99699    11.30604     0.05923     0.15705
  Fock        0.00000     0.00000     0.00000     0.00000     0.00000     0.00000
  -------------------------------------------------------------------------------------
  Total       4.01341     4.01341     3.47130    -0.00000     0.00000     0.00000
  in kB     271.01284   271.01284   234.40622    -0.00000     0.00000     0.00000
  external pressure =      258.81 kB  Pullay stress =        0.00 kB


 VOLUME and BASIS-vectors are now :
 -----------------------------------------------------------------------------
  energy-cutoff  :      450.00
  volume of cell :       23.73
      direct lattice vectors                 reciprocal lattice vectors
     2.560000000  0.000000000  0.000000000     0.390625000  0.225527449  0.000000000
    -1.280000000  2.217025034  0.000000000     0.000000000  0.451054898  0.000000000
     0.000000000  0.000000000  4.180454400     0.000000000  0.000000000  0.239208446

  length of vectors
     2.560000000  2.560000000  4.180454400     0.451054898  0.451054898  0.239208446


 FORCES acting on ions
    electron-ion (+dipol)            ewald-force                    non-local-force                 convergence-correction
 -----------------------------------------------------------------------------------------------
   -.308E-08 0.178E-08 0.494E-14   -.103E-12 0.725E-13 -.456E-14   0.208E-16 0.503E-16 0.000E+00   0.640E-09 -.370E-09 0.298E-14
   0.308E-08 -.178E-08 -.208E-13   0.104E-12 -.730E-13 0.456E-14   -.607E-17 -.520E-16 0.000E+00   -.640E-09 0.370E-09 -.296E-14
 -----------------------------------------------------------------------------------------------
   -.535E-14 -.206E-14 -.159E-13   0.104E-14 -.476E-15 0.000E+00   0.147E-16 -.173E-17 0.000E+00   0.140E-15 0.807E-16 0.115E-16
 
 
 POSITION                                       TOTAL-FORCE (eV/Angst)
 -----------------------------------------------------------------------------------
      0.00000      0.00000      0.00000         0.000000      0.000000      0.000000
     -0.00000      1.47802      2.09023        -0.000000      0.000000      0.000000
 -----------------------------------------------------------------------------------
    total drift:                               -0.000000     -0.000000     -0.000000


--------------------------------------------------------------------------------------------------------



  FREE ENERGIE OF THE ION-ELECTRON SYSTEM (eV)
  ---------------------------------------------------
  free  energy   TOTEN  =        -9.52195130 eV

  energy  without entropy=       -9.51948905  energy(sigma->0) =       -9.52072018
 


--------------------------------------------------------------------------------------------------------


    POTLOK:  cpu time    0.0560: real time    0.0340


--------------------------------------------------------------------------------------------------------




--------------------------------------------------------------------------------------------------------


    WAVPRE:  cpu time    0.0020: real time    0.0024
 FEWALD executed in parallel
    FEWALD:  cpu time    0.0000: real time    0.0003
    GENKIN:  cpu time    0.0060: real time    0.0069
    ORTHCH:  cpu time    0.2030: real time    0.1377
     LOOP+:  cpu time   17.5803: real time   11.5350


----------------------------------------- Iteration    2(   1)  ---------------------------------------


    POTLOK:  cpu time    0.0380: real time    0.0261
    SETDIJ:  cpu time    0.0070: real time    0.0041
     EDDAV:  cpu time    2.0437: real time    1.2753
       DOS:  cpu time    0.0020: real time    0.0012
    CHARGE:  cpu time    0.0260: real time    0.0181
    MIXING:  cpu time    0.0020: real time    0.0014
    --------------------------------------------
      LOOP:  cpu time    2.1227: real time    1.3275

 eigenvalue-minimisations  :   912
 total energy-change (2. order) :-0.2974162E-02  (-0.9047948E-02)
 number of electron       7.9999999 magnetization 
 augmentation part       -0.4761642 magnetization 

 Broyden mixing:
  rms(total) = 0.18682E-01    rms(broyden)= 0.18682E-01
  rms(prec ) = 0.43706E-01
  weight for this iteration     100.00

 Free energy of the ion-electron system (eV)
  ---------------------------------------------------
  alpha Z        PSCENC =         5.67519049
  Ewald energy   TEWEN  =      -291.75449386
  -Hartree energ DENC   =        -0.53196373
  -exchange      EXHF   =         0.00000000
  -V(xc)+E(xc)   XCENC  =       -16.26453216
  PAW double counting   =       966.70822620     -931.63792071
  entropy T*S    EENTRO =        -0.00508884
  eigenvalues    EBANDS =        52.15372885
  atomic energy  EATOM  =       206.13192747
  Solvation  Ediel_sol  =         0.00000000
  ---------------------------------------------------
  free energy    TOTEN  =        -9.52492630 eV

  energy without entropy =       -9.51983746  energy(sigma->0) =       -9.52238188


--------------------------------------------------------------------------------------------------------




----------------------------------------- Iteration    2(   2)  ---------------------------------------


    POTLOK:  cpu time    0.0470: real time    0.0281
    SETDIJ:  cpu time    0.0100: real time    0.0048
     EDDAV:  cpu time    2.0987: real time    1.3092
       DOS:  cpu time    0.0020: real time    0.0009
    CHARGE:  cpu time    0.0270: real time    0.0161
    MIXING:  cpu time    0.0020: real time    0.0007
    --------------------------------------------
      LOOP:  cpu time    2.1897: real time    1.3624

 eigenvalue-minimisations  :   672
 total energy-change (2. order) : 0.7366298E-03  (-0.1451278E-03)
 number of electron       7.9999999 magnetization 
 augmentation part       -0.4762215 magnetization 

 Broyden mixing:
  rms(total) = 0.10188E-01    rms(broyden)= 0.10188E-01
  rms(prec ) = 0.24303E-01
  weight for this iteration     100.00

 eigenvalues of (default mixing * dielectric matrix)
  average eigenvalue GAMMA=   2.0298
  2.0298

 Free energy of the ion-electron system (eV)
  ---------------------------------------------------
  alpha Z        PSCENC =         5.67519049
  Ewald energy   TEWEN  =      -291.75449386
  -Hartree energ DENC   =        -0.53255503
  -exchange      EXHF   =         0.00000000
  -V(xc)+E(xc)   XCENC  =       -16.26456064
  PAW double counting   =       966.67082404     -931.60062565
  entropy T*S    EENTRO =        -0.00507775
  eigenvalues    EBANDS =        52.15518126
  atomic energy  EATOM  =       206.13192747
  Solvation  Ediel_sol  =         0.00000000
  ---------------------------------------------------
  free energy    TOTEN  =        -9.52418967 eV

  energy without entropy =       -9.51911191  energy(sigma->0) =       -9.52165079


--------------------------------------------------------------------------------------------------------




----------------------------------------- Iteration    2(   3)  ---------------------------------------


    POTLOK:  cpu time    0.0330: real time    0.0185
    SETDIJ:  cpu time    0.0040: real time    0.0020
     EDDAV:  cpu time    2.2007: real time    1.3551
       DOS:  cpu time    0.0020: real time    0.0011
    CHARGE:  cpu time    0.0250: real time    0.0156
    MIXING:  cpu time    0.0020: real time    0.0009
    --------------------------------------------
      LOOP:  cpu time    2.2697: real time    1.3959

 eigenvalue-minimisations  :   856
 total energy-change (2. order) : 0.3591432E-03  (-0.8571804E-04)
 number of electron       7.9999999 magnetization 
 augmentation part       -0.4761895 magnetization 

 Broyden mixing:
  rms(total) = 0.78292E-03    rms(broyden)= 0.78290E-03
  rms(prec ) = 0.12325E-02
  weight for this iteration     100.00

 eigenvalues of (default mixing * dielectric matrix)
  average eigenvalue GAMMA=   1.6270
  1.0506  2.2034

 Free energy of the ion-electron system (eV)
  ---------------------------------------------------
  alpha Z        PSCENC =         5.67519049
  Ewald energy   TEWEN  =      -291.75449386
  -Hartree energ DENC   =        -0.53403590
  -exchange      EXHF   =         0.00000000
  -V(xc)+E(xc)   XCENC  =       -16.26461110
  PAW double counting   =       966.00661012     -930.93677634
  entropy T*S    EENTRO =        -0.00506543
  eigenvalues    EBANDS =        52.15742403
  atomic energy  EATOM  =       206.13192747
  Solvation  Ediel_sol  =         0.00000000
  ---------------------------------------------------
  free energy    TOTEN  =        -9.52383052 eV

  energy without entropy =       -9.51876509  energy(sigma->0) =       -9.52129781


--------------------------------------------------------------------------------------------------------




----------------------------------------- Iteration    2(   4)  ---------------------------------------


    POTLOK:  cpu time    0.0320: real time    0.0194
    SETDIJ:  cpu time    0.0050: real time    0.0025
     EDDAV:  cpu time    1.1918: real time    0.7466
       DOS:  cpu time    0.0020: real time    0.0009
    --------------------------------------------
      LOOP:  cpu time    1.2348: real time    0.7718

 eigenvalue-minimisations  :   624
 total energy-change (2. order) :-0.2695104E-05  (-0.2570159E-05)
 number of electron       7.9999999 magnetization 
 augmentation part       -0.4761895 magnetization 

 Free energy of the ion-electron system (eV)
  ---------------------------------------------------
  alpha Z        PSCENC =         5.67519049
  Ewald energy   TEWEN  =      -291.75449386
  -Hartree energ DENC   =        -0.53383011
  -exchange      EXHF   =         0.00000000
  -V(xc)+E(xc)   XCENC  =       -16.26464543
  PAW double counting   =       966.04815459     -930.97832155
  entropy T*S    EENTRO =        -0.00506569
  eigenvalues    EBANDS =        52.15725087
  atomic energy  EATOM  =       206.13192747
  Solvation  Ediel_sol  =         0.00000000
  ---------------------------------------------------
  free energy    TOTEN  =        -9.52383322 eV

  energy without entropy =       -9.51876753  energy(sigma->0) =       -9.52130037


--------------------------------------------------------------------------------------------------------




 average (electrostatic) potential at core
  the test charge radii are     0.9892
  (the norm of the test charge is              1.0000)
       1 -77.0271       2 -77.0271
 
 
 
 E-fermi :  13.0248     XC(G=0): -12.0162     alpha+bet :-20.2175


 k-point     1 :       0.0833    0.0833    0.0833
  band No.  band energies     occupation 
      1      -2.7483      2.00000
      2       4.1559      2.00000
      3       6.8586      2.00000
      4      17.9178      0.00000
      5      18.1526      0.00000
      6      23.8603      0.00000
      7      24.0953      0.00000
      8      24.3258      0.00000

 k-point     2 :       0.2500    0.0833    0.0833
  band No.  band energies     occupation 
      1      -0.7313      2.00000
      2       6.0802      2.00000
      3       8.7030      2.00000
      4      11.1492      2.00000
      5      15.4602      0.00000
      6      17.6040      0.00000
      7      19.9138      0.00000
      8      22.0831      0.00000

 k-point     3 :       0.4167    0.0833    0.0833
  band No.  band energies     occupation 
      1       2.8287      2.00000
      2       5.1982      2.00000
      3       9.5494      2.00000
      4      11.5362      2.00000
      5      12.5704      2.00000
      6      14.1932      0.00000
      7      15.0262      0.00000
      8      20.9407      0.00000

 k-point     4 :      -0.4167    0.0833    0.0833
  band No.  band energies     occupation 
      1       0.8648      2.00000
      2       7.3629      2.00000
      3       8.1634      2.00000
      4      10.3683      2.00000
      5      14.3080      0.00000
      6      15.0999      0.00000
      7      17.1899      0.00000
      8      21.3124      0.00000

 k-point     5 :      -0.2500    0.0833    0.0833
  band No.  band energies     occupation 
      1      -1.9387      2.00000
      2       4.9317      2.00000
      3       7.6174      2.00000
      4      14.4454      0.00000
      5      16.5950      0.00000
      6      20.7443      0.00000
      7      22.4723      0.00000
      8      23.4469      0.00000

 k-point     6 :      -0.0833    0.0833    0.0833
  band No.  band energies     occupation 
      1      -3.1545      2.00000
      2       3.7659      2.00000
      3       6.4752      2.00000
      4      19.7557      0.00000
      5      21.0446      0.00000
      6      22.9629      0.00000
      7      25.3550      0.00000
      8      25.3817      0.00000

 k-point     7 :       0.2500    0.2500    0.0833
  band No.  band energies     occupation 
      1       2.0524      2.00000
      2       8.2820      2.00000
      3       9.2672      2.00000
      4       9.3252      2.00000
      5      11.5647      2.00000
      6      15.3500      0.00000
      7      16.0920      0.00000
      8      18.3551      0.00000

 k-point     8 :       0.4167    0.2500    0.0833
  band No.  band energies     occupation 
      1       4.0017      2.00000
      2       6.3379      2.00000
      3       8.6340      2.00000
      4      10.7635      2.00000
      5      12.6230      2.00000
      6      13.7142      0.00000
      7      15.1530      0.00000
      8      16.5206      0.00000

 k-point     9 :      -0.4167    0.2500    0.0833
  band No.  band energies     occupation 
      1       0.4677      2.00000
      2       7.1952      2.00000
      3       9.4510      2.00000
      4      10.3643      2.00000
      5      12.2402      2.00000
      6      16.4602      0.00000
      7      18.2708      0.00000
      8      19.6561      0.00000

 k-point    10 :      -0.2500    0.2500    0.0833
  band No.  band energies     occupation 
      1      -1.5353      2.00000
      2       5.3168      2.00000
      3       7.9884      2.00000
      4      12.6089      2.00000
      5      18.2764      0.00000
      6      18.8839      0.00000
      7      20.4896      0.00000
      8      21.5592      0.00000

 k-point    11 :       0.4167    0.4167    0.0833
  band No.  band energies     occupation 
      1       4.2004      2.00000
      2       4.6185      2.00000
      3      10.5865      2.00000
      4      11.2762      2.00000
      5      11.4817      2.00000
      6      13.8874      0.00000
      7      14.1451      0.00000
      8      18.2784      0.00000

 k-point    12 :      -0.4167    0.4167    0.0833
  band No.  band energies     occupation 
      1       1.6553      2.00000
      2       6.3098      2.00000
      3       8.4758      2.00000
      4      11.0187      2.00000
      5      13.1943      0.01652
      6      15.6281      0.00000
      7      16.8834      0.00000
      8      19.2707      0.00000

 k-point    13 :       0.0833    0.0833    0.2500
  band No.  band energies     occupation 
      1      -2.2797      2.00000
      2       1.8843      2.00000
      3       9.9459      2.00000
      4      18.3236      0.00000
      5      18.4645      0.00000
      6      21.3707      0.00000
      7      22.0573      0.00000
      8      22.4825      0.00000

 k-point    14 :       0.2500    0.0833    0.2500
  band No.  band energies     occupation 
      1      -0.2678      2.00000
      2       3.8462      2.00000
      3      11.1758      2.00000
      4      12.0892      2.00000
      5      15.2675      0.00000
      6      16.1677      0.00000
      7      19.7441      0.00000
      8      22.2929      0.00000

 k-point    15 :       0.4167    0.0833    0.2500
  band No.  band energies     occupation 
      1       3.2807      2.00000
      2       5.6026      2.00000
      3       7.4359      2.00000
      4       9.6897      2.00000
      5      14.5703      0.00000
      6      15.5491      0.00000
      7      17.3768      0.00000
      8      19.1260      0.00000

 k-point    16 :      -0.4167    0.0833    0.2500
  band No.  band energies     occupation 
      1       1.3239      2.00000
      2       5.3764      2.00000
      3       8.4218      2.00000
      4      12.1351      2.00000
      5      13.5600      0.00000
      6      15.3445      0.00000
      7      18.8532      0.00000
      8      20.3877      0.00000

 k-point    17 :      -0.2500    0.0833    0.2500
  band No.  band energies     occupation 
      1      -1.4721      2.00000
      2       2.6729      2.00000
      3      10.6679      2.00000
      4      14.8652      0.00000
      5      16.9622      0.00000
      6      18.7467      0.00000
      7      20.8461      0.00000
      8      22.0287      0.00000

 k-point    18 :      -0.0833    0.0833    0.2500
  band No.  band energies     occupation 
      1      -2.6849      2.00000
      2       1.4884      2.00000
      3       9.5752      2.00000
      4      19.9973      0.00000
      5      21.0162      0.00000
      6      21.4417      0.00000
      7      23.6498      0.00000
      8      24.1504      0.00000

 k-point    19 :       0.2500    0.2500    0.2500
  band No.  band energies     occupation 
      1       2.5078      2.00000
      2       6.4992      2.00000
      3       9.4318      2.00000
      4       9.6916      2.00000
      5      13.1897      0.01970
      6      13.3733      0.00000
      7      15.3289      0.00000
      8      20.9570      0.00000

 k-point    20 :       0.4167    0.2500    0.2500
  band No.  band energies     occupation 
      1       4.4483      2.00000
      2       6.7257      2.00000
      3       8.4327      2.00000
      4       9.3118      2.00000
      5      10.9112      2.00000
      6      13.0545      0.67461
      7      16.7533      0.00000
      8      18.9017      0.00000

 k-point    21 :      -0.4167    0.2500    0.2500
  band No.  band energies     occupation 
      1       0.9280      2.00000
      2       5.0047      2.00000
      3      10.2664      2.00000
      4      12.3822      2.00000
      5      12.9514      1.70055
      6      14.6166      0.00000
      7      16.7087      0.00000
      8      21.8648      0.00000

 k-point    22 :      -0.2500    0.2500    0.2500
  band No.  band energies     occupation 
      1      -1.0697      2.00000
      2       3.0653      2.00000
      3      10.9891      2.00000
      4      13.0737      0.48921
      5      16.8894      0.00000
      6      18.6787      0.00000
      7      20.6300      0.00000
      8      22.2924      0.00000

 k-point    23 :       0.4167    0.4167    0.2500
  band No.  band energies     occupation 
      1       4.6455      2.00000
      2       5.0530      2.00000
      3       8.6956      2.00000
      4       9.1344      2.00000
      5      11.8850      2.00000
      6      15.3236      0.00000
      7      16.8368      0.00000
      8      17.6925      0.00000

 k-point    24 :      -0.4167    0.4167    0.2500
  band No.  band energies     occupation 
      1       2.1119      2.00000
      2       6.0200      2.00000
      3       7.0254      2.00000
      4      10.7868      2.00000
      5      14.2368      0.00000
      6      17.2863      0.00000
      7      18.3424      0.00000
      8      19.7270      0.00000

 k-point    25 :       0.0833    0.0833    0.4167
  band No.  band energies     occupation 
      1      -1.3462      2.00000
      2       0.0453      2.00000
      3      13.3944      0.00000
      4      17.0535      0.00000
      5      19.1123      0.00000
      6      19.6099      0.00000
      7      20.5187      0.00000
      8      20.9076      0.00000

 k-point    26 :       0.2500    0.0833    0.4167
  band No.  band energies     occupation 
      1       0.6554      2.00000
      2       2.0308      2.00000
      3      12.2656      2.00000
      4      13.4664      0.00000
      5      15.3760      0.00000
      6      16.7734      0.00000
      7      18.2042      0.00000
      8      19.4262      0.00000

 k-point    27 :       0.4167    0.0833    0.4167
  band No.  band energies     occupation 
      1       4.1749      2.00000
      2       5.4391      2.00000
      3       6.7157      2.00000
      4       7.9596      2.00000
      5      15.6107      0.00000
      6      16.7495      0.00000
      7      18.9055      0.00000
      8      20.7974      0.00000

 k-point    28 :      -0.4167    0.0833    0.4167
  band No.  band energies     occupation 
      1       2.2378      2.00000
      2       3.5966      2.00000
      3       9.2885      2.00000
      4      10.5837      2.00000
[...]

 k-point     2 :       0.2500    0.0833    0.0833
  band No.  band energies     occupation 
      1      -0.7557      2.00000
      2       6.1730      2.00000
      3       8.8480      2.00000
      4      11.0345      2.00000
      5      15.3028      0.00000
      6      17.5788      0.00000
      7      19.9483      0.00000
      8      22.0599      0.00000

 k-point     3 :       0.4167    0.0833    0.0833
  band No.  band energies     occupation 
      1       2.7701      2.00000
      2       5.1283      2.00000
      3       9.5965      2.00000
      4      11.6160      2.00000
      5      12.6460      2.00000
      6      14.1535      0.00000
      7      15.0202      0.00000
      8      20.9104      0.00000

 k-point     4 :      -0.4167    0.0833    0.0833
  band No.  band energies     occupation 
      1       0.8257      2.00000
      2       7.3845      2.00000
      3       8.1234      2.00000
      4      10.5047      2.00000
      5      14.2584      0.00000
      6      15.0071      0.00000
      7      17.2569      0.00000
      8      21.2829      0.00000

 k-point     5 :      -0.2500    0.0833    0.0833
  band No.  band energies     occupation 
      1      -1.9520      2.00000
      2       5.0370      2.00000
      3       7.7850      2.00000
      4      14.2884      0.00000
      5      16.4221      0.00000
      6      20.6948      0.00000
      7      22.4462      0.00000
      8      23.2825      0.00000

 k-point     6 :      -0.0833    0.0833    0.0833
  band No.  band energies     occupation 
      1      -3.1567      2.00000
      2       3.8839      2.00000
      3       6.6546      2.00000
      4      19.5461      0.00000
      5      20.8103      0.00000
      6      22.8168      0.00000
      7      25.1308      0.00000
      8      25.5934      0.00000

 k-point     7 :       0.2500    0.2500    0.0833
  band No.  band energies     occupation 
      1       2.0025      2.00000
      2       8.2660      2.00000
      3       9.1811      2.00000
      4       9.2857      2.00000
      5      11.6884      2.00000
      6      15.3095      0.00000
      7      16.1499      0.00000
      8      18.4366      0.00000

 k-point     8 :       0.4167    0.2500    0.0833
  band No.  band energies     occupation 
      1       3.9326      2.00000
      2       6.2553      2.00000
      3       8.5457      2.00000
      4      10.7900      2.00000
      5      12.6953      2.00000
      6      13.7576      0.00000
      7      15.2245      0.00000
      8      16.5860      0.00000

 k-point     9 :      -0.4167    0.2500    0.0833
  band No.  band energies     occupation 
      1       0.4323      2.00000
      2       7.2744      2.00000
      3       9.4461      2.00000
      4      10.3913      2.00000
      5      12.1189      2.00000
      6      16.4401      0.00000
      7      18.2951      0.00000
      8      19.6951      0.00000

 k-point    10 :      -0.2500    0.2500    0.0833
  band No.  band energies     occupation 
      1      -1.5524      2.00000
      2       5.4179      2.00000
      3       8.1507      2.00000
      4      12.4713      2.00000
      5      18.0677      0.00000
      6      18.8567      0.00000
      7      20.3436      0.00000
      8      21.5747      0.00000

 k-point    11 :       0.4167    0.4167    0.0833
  band No.  band energies     occupation 
      1       4.1145      2.00000
      2       4.5675      2.00000
      3      10.5738      2.00000
      4      11.3617      2.00000
      5      11.3922      2.00000
      6      13.9749      0.00000
      7      14.2427      0.00000
      8      18.2785      0.00000

 k-point    12 :      -0.4167    0.4167    0.0833
  band No.  band energies     occupation 
      1       1.6087      2.00000
      2       6.2349      2.00000
      3       8.5321      2.00000
      4      11.1510      2.00000
      5      13.2283      0.01103
      6      15.7108      0.00000
      7      16.6854      0.00000
      8      19.1177      0.00000

 k-point    13 :       0.0833    0.0833    0.2500
  band No.  band energies     occupation 
      1      -2.2770      2.00000
      2       1.9619      2.00000
      3      10.1701      2.00000
      4      18.1245      0.00000
      5      18.3268      0.00000
      6      21.5843      0.00000
      7      22.0367      0.00000
      8      22.3905      0.00000

 k-point    14 :       0.2500    0.0833    0.2500
  band No.  band energies     occupation 
      1      -0.2837      2.00000
      2       3.9043      2.00000
      3      11.1412      2.00000
      4      12.2034      2.00000
      5      15.2002      0.00000
      6      16.0346      0.00000
      7      19.6658      0.00000
      8      22.3365      0.00000

 k-point    15 :       0.4167    0.0833    0.2500
  band No.  band energies     occupation 
      1       3.2308      2.00000
      2       5.5454      2.00000
      3       7.4495      2.00000
      4       9.6986      2.00000
      5      14.4914      0.00000
      6      15.6438      0.00000
      7      17.4781      0.00000
      8      19.0943      0.00000

 k-point    16 :      -0.4167    0.0833    0.2500
  band No.  band energies     occupation 
      1       1.2933      2.00000
      2       5.4186      2.00000
      3       8.3325      2.00000
      4      12.1464      2.00000
      5      13.6928      0.00000
      6      15.2135      0.00000
      7      18.8092      0.00000
      8      20.4716      0.00000

 k-point    17 :      -0.2500    0.0833    0.2500
  band No.  band energies     occupation 
      1      -1.4769      2.00000
      2       2.7426      2.00000
      3      10.8802      2.00000
      4      14.7205      0.00000
      5      16.8041      0.00000
      6      18.6638      0.00000
      7      20.7639      0.00000
      8      22.2913      0.00000

 k-point    18 :      -0.0833    0.0833    0.2500
  band No.  band energies     occupation 
      1      -2.6784      2.00000
      2       1.5699      2.00000
      3       9.8041      2.00000
      4      19.8715      0.00000
      5      21.2154      0.00000
      6      21.2766      0.00000
      7      23.5269      0.00000
      8      23.9954      0.00000

 k-point    19 :       0.2500    0.2500    0.2500
  band No.  band energies     occupation 
      1       2.4664      2.00000
      2       6.5288      2.00000
      3       9.3161      2.00000
      4       9.6150      2.00000
      5      13.2386      0.00718
      6      13.3133      0.00018
      7      15.4535      0.00000
      8      21.0825      0.00000

 k-point    20 :       0.4167    0.2500    0.2500
  band No.  band energies     occupation 
      1       4.3879      2.00000
      2       6.6564      2.00000
      3       8.4219      2.00000
      4       9.2408      2.00000
      5      10.8973      2.00000
      6      13.0382      1.11590
      7      16.9059      0.00000
      8      19.0413      0.00000

 k-point    21 :      -0.4167    0.2500    0.2500
  band No.  band energies     occupation 
      1       0.9011      2.00000
      2       5.0513      2.00000
      3      10.1635      2.00000
      4      12.3195      2.00000
      5      13.0505      0.97784
      6      14.5878      0.00000
      7      16.6716      0.00000
      8      21.9969      0.00000

 k-point    22 :      -0.2500    0.2500    0.2500
  band No.  band energies     occupation 
      1      -1.0782      2.00000
      2       3.1312      2.00000
      3      11.1834      2.00000
      4      12.9591      1.79408
      5      16.8303      0.00000
      6      18.4780      0.00000
      7      20.5575      0.00000
      8      22.1679      0.00000

 k-point    23 :       0.4167    0.4167    0.2500
  band No.  band energies     occupation 
      1       4.5686      2.00000
      2       5.0112      2.00000
      3       8.6825      2.00000
      4       9.1665      2.00000
      5      11.7678      2.00000
      6      15.3185      0.00000
      7      16.9848      0.00000
      8      17.8098      0.00000

 k-point    24 :      -0.4167    0.4167    0.2500
  band No.  band energies     occupation 
      1       2.0739      2.00000
      2       6.0396      2.00000
      3       6.9636      2.00000
      4      10.7870      2.00000
      5      14.4092      0.00000
      6      17.0962      0.00000
      7      18.4226      0.00000
      8      19.6393      0.00000

 k-point    25 :       0.0833    0.0833    0.4167
  band No.  band energies     occupation 
      1      -1.3264      2.00000
      2       0.0903      2.00000
      3      13.6728      0.00000
      4      17.3467      0.00000
      5      18.9323      0.00000
      6      19.4912      0.00000
      7      20.3684      0.00000
      8      20.7779      0.00000

 k-point    26 :       0.2500    0.0833    0.4167
  band No.  band energies     occupation 
      1       0.6565      2.00000
      2       2.0568      2.00000
      3      12.1714      2.00000
      4      13.4136      0.00000
      5      15.5602      0.00000
      6      16.6778      0.00000
      7      18.1229      0.00000
      8      19.6869      0.00000

 k-point    27 :       0.4167    0.0833    0.4167
  band No.  band energies     occupation 
      1       4.1422      2.00000
      2       5.4303      2.00000
      3       6.6664      2.00000
      4       7.9347      2.00000
      5      15.4863      0.00000
      6      16.6678      0.00000
      7      19.0982      0.00000
      8      20.9851      0.00000

 k-point    28 :      -0.4167    0.0833    0.4167
  band No.  band energies     occupation 
      1       2.2242      2.00000
      2       3.6077      2.00000
      3       9.2144      2.00000
      4      10.5352      2.00000
      5      15.7704      0.00000
      6      16.6523      0.00000
      7      17.8680      0.00000
      8      20.8031      0.00000

 k-point    29 :      -0.2500    0.0833    0.4167
  band No.  band energies     occupation 
      1      -0.5304      2.00000
      2       0.8799      2.00000
      3      14.2314      0.00000
      4      15.5476      0.00000
      5      16.8573      0.00000
      6      17.4538      0.00000
      7      18.8524      0.00000
      8      19.3195      0.00000

 k-point    30 :      -0.0833    0.0833    0.4167
  band No.  band energies     occupation 
      1      -1.7258      2.00000
      2      -0.3060      2.00000
      3      13.3355      0.00005
      4      17.1694      0.00000
      5      20.8646      0.00000
      6      22.0251      0.00000
      7      22.0576      0.00000
      8      23.2367      0.00000

 k-point    31 :       0.2500    0.2500    0.4167
  band No.  band energies     occupation 
      1       3.3891      2.00000
      2       4.7569      2.00000
      3      10.1392      2.00000
      4      10.4212      2.00000
      5      11.6542      2.00000
      6      11.9016      2.00000
      7      18.4725      0.00000
      8      21.9046      0.00000

 k-point    32 :       0.4167    0.2500    0.4167
  band No.  band energies     occupation 
      1       5.2852      2.00000
      2       6.5295      2.00000
      3       7.8139      2.00000
      4       8.9844      2.00000
      5      10.1440      2.00000
      6      11.3769      2.00000
      7      20.1505      0.00000
      8      22.0201      0.00000

 k-point    33 :      -0.4167    0.2500    0.4167
  band No.  band energies     occupation 
      1       1.8345      2.00000
      2       3.2235      2.00000
      3      11.0596      2.00000
      4      12.2964      2.00000
      5      13.4090      0.00000
      6      14.5514      0.00000
      7      17.2016      0.00000
      8      20.7031      0.00000

 k-point    34 :      -0.2500    0.2500    0.4167
  band No.  band energies     occupation 
      1      -0.1338      2.00000
      2       1.2733      2.00000
      3      13.5559      0.00000
      4      14.4475      0.00000
      5      15.5646      0.00000
      6      18.6062      0.00000
      7      19.2991      0.00000
      8      20.5307      0.00000

 k-point    35 :       0.4167    0.4167    0.4167
  band No.  band energies     occupation 
      1       5.4434      2.00000
      2       5.8252      2.00000
      3       7.0248      2.00000
      4       7.4099      2.00000
      5      12.6363      2.00000
      6      13.9118      0.00000
      7      20.2209      0.00000
      8      20.7785      0.00000

 k-point    36 :      -0.4167    0.4167    0.4167
  band No.  band energies     occupation 
      1       2.9987      2.00000
      2       4.3664      2.00000
      3       7.7195      2.00000
      4       9.0489      2.00000
      5      17.6409      0.00000
      6      17.9188      0.00000
      7      19.1542      0.00000
      8      19.7231      0.00000


--------------------------------------------------------------------------------------------------------


 soft charge-density along one line, spin component           1
         0         1         2         3         4         5         6         7         8         9
 total charge-density along one line
 
 pseudopotential strength for first ion, spin component:           1
 17.650  24.621   0.000   0.000  -0.000   0.000   0.000  -0.000
 24.621  34.350   0.000   0.000  -0.000   0.000   0.000  -0.000
  0.000   0.000   4.055  -0.000  -0.000   7.551  -0.000  -0.000
  0.000   0.000  -0.000   4.055   0.000  -0.000   7.552   0.000
 -0.000  -0.000  -0.000   0.000   4.055  -0.000   0.000   7.551
  0.000   0.000   7.551  -0.000  -0.000  14.073  -0.000  -0.000
  0.000   0.000  -0.000   7.552   0.000  -0.000  14.074   0.000
 -0.000  -0.000  -0.000   0.000   7.551  -0.000   0.000  14.073
 total augmentation occupancy for first ion, spin component:           1
  6.699  -3.081   0.000   0.000   0.000   0.000   0.000  -0.000
 -3.081   1.813   0.000   0.000   0.000   0.000   0.000   0.000
 -0.000   0.000   3.071   0.000  -0.000  -0.798   0.000  -0.000
  0.000   0.000   0.000   3.198   0.000   0.000  -0.839   0.000
  0.000  -0.000  -0.000  -0.000   3.071   0.000  -0.000  -0.798
  0.000   0.000  -0.798   0.000  -0.000   0.226   0.000   0.000
  0.000   0.000   0.000  -0.839   0.000   0.000   0.238   0.000
 -0.000   0.000   0.000   0.000  -0.798   0.000  -0.000   0.226


------------------------ aborting loop because EDIFF is reached ----------------------------------------


    CHARGE:  cpu time    0.0320: real time    0.0214
    FORLOC:  cpu time    0.0010: real time    0.0005
    FORNL :  cpu time    0.0440: real time    0.0302
    STRESS:  cpu time    0.2740: real time    0.1819
    FORCOR:  cpu time    0.0250: real time    0.0251
    FORHAR:  cpu time    0.0150: real time    0.0149
    MIXING:  cpu time    0.0000: real time    0.0008
    OFIELD:  cpu time    0.0000: real time    0.0000

  FORCE on cell =-STRESS in cart. coord.  units (eV):
  Direction    XX          YY          ZZ          XY          YZ          ZX
  --------------------------------------------------------------------------------------
  Alpha Z     5.67519     5.67519     5.67519
  Ewald     -98.35321   -98.35321   -95.02503    -0.00000     0.00000     0.00000
  Hartree     0.15075     0.15075     0.23900    -0.00000    -0.00000    -0.00000
  E(xc)     -26.79033   -26.79033   -26.86276    -0.00000     0.00000     0.00000
  Local      -5.78226    -5.78227    -9.21099    -0.00001    -0.00000    -0.00000
  n-local    74.64391    79.17056    78.32830    -1.23814     0.16279    -0.77508
  augment   -12.07432   -12.07431   -12.11480     0.00001     0.00000    -0.00000
  Kinetic    80.56736    47.70668    62.83245    10.43748     0.11336     0.64573
  Fock        0.00000     0.00000     0.00000     0.00000     0.00000     0.00000
  -------------------------------------------------------------------------------------
  Total       3.87008     3.87008     3.86136     0.00000     0.00000     0.00000
  in kB     261.33448   261.33448   260.74569     0.00000     0.00000     0.00000
  external pressure =      261.14 kB  Pullay stress =        0.00 kB


 VOLUME and BASIS-vectors are now :
 -----------------------------------------------------------------------------
  energy-cutoff  :      450.00
  volume of cell :       23.73
      direct lattice vectors                 reciprocal lattice vectors
     2.582926755  0.000000000  0.000000000     0.387157707  0.223525606  0.000000000
    -1.291463377  2.236880186 -0.000000000     0.000000000  0.447051213  0.000000000
    -0.000000000  0.000000000  4.106570088     0.000000000  0.000000000  0.243512220

  length of vectors
     2.582926755  2.582926755  4.106570088     0.447051213  0.447051213  0.243512220


 FORCES acting on ions
    electron-ion (+dipol)            ewald-force                    non-local-force                 convergence-correction
 -----------------------------------------------------------------------------------------------
   -.148E-08 0.852E-09 0.619E-14   -.106E-12 0.977E-13 -.390E-14   0.824E-16 -.295E-16 0.000E+00   0.225E-09 -.130E-09 -.283E-15
   0.148E-08 -.852E-09 -.219E-13   0.106E-12 -.984E-13 0.389E-14   -.107E-15 0.208E-16 0.000E+00   -.225E-09 0.130E-09 0.304E-15
 -----------------------------------------------------------------------------------------------
   -.680E-14 -.558E-15 -.158E-13   -.274E-15 -.618E-15 -.348E-17   -.243E-16 -.867E-17 0.000E+00   0.120E-15 0.104E-15 0.207E-16
 
 
 POSITION                                       TOTAL-FORCE (eV/Angst)
 -----------------------------------------------------------------------------------
      0.00000      0.00000      0.00000         0.000000      0.000000     -0.000000
     -0.00000      1.49125      2.05329        -0.000000      0.000000      0.000000
 -----------------------------------------------------------------------------------
    total drift:                               -0.000000     -0.000000     -0.000000


--------------------------------------------------------------------------------------------------------



  FREE ENERGIE OF THE ION-ELECTRON SYSTEM (eV)
  ---------------------------------------------------
  free  energy   TOTEN  =        -9.52583238 eV

  energy  without entropy=       -9.52113585  energy(sigma->0) =       -9.52348412
 
 d Force = 0.0000000E+00[ 0.000E+00, 0.000E+00]  d Energy = 0.2684304E-04-0.268E-04
 d Force = 0.0000000E+00[ 0.000E+00, 0.000E+00]  d Ewald  =-0.2947207E-02 0.295E-02


--------------------------------------------------------------------------------------------------------


    POTLOK:  cpu time    0.0230: real time    0.0272


--------------------------------------------------------------------------------------------------------




--------------------------------------------------------------------------------------------------------


  
 reached required accuracy - stopping structural energy minimisation
 writing wavefunctions
     LOOP+:  cpu time    4.0664: real time    2.5335
    4ORBIT:  cpu time    0.0000: real time    0.0000

 total amount of memory used by VASP on root node    33954. kBytes
========================================================================

   base      :      30000. kBytes
   nonl-proj :       1252. kBytes
   fftplans  :        714. kBytes
   grid      :       1347. kBytes
   one-center:          6. kBytes
   wavefun   :        635. kBytes
 
  
  
 General timing and accounting informations for this job:
 ========================================================
  
                  Total CPU time used (sec):       54.374
                            User time (sec):       49.791
                          System time (sec):        4.582
                         Elapsed time (sec):       35.849
  
                   Maximum memory used (kb):       38688.
                   Average memory used (kb):           0.
  
                          Minor page faults:        54167
                          Major page faults:            7
                 Voluntary context switches:         1007
