 running on    4 total cores
 distrk:  each k-point on    4 cores,    1 groups
 distr:  one band on    1 cores,    4 groups
 using from now: INCAR     
 vasp.5.4.1 24Jun15 (build Jul 19 2016 16:50:41) complex                        
  
 POSCAR found :  1 types and       2 ions
 LDA part: xc-table for Pade appr. of Perdew
 POSCAR, INCAR and KPOINTS ok, starting setup
 FFT: planning ...
 WAVECAR not read
 entering main loop
       N       E                     dE             d eps       ncg     rms          rms(c)
DAV:   1     0.493576615741E+01    0.49358E+01   -0.33783E+03   584   0.729E+02
DAV:   2    -0.939344464023E+01   -0.14329E+02   -0.13841E+02   888   0.789E+01
DAV:   3    -0.957764829658E+01   -0.18420E+00   -0.18285E+00   704   0.105E+01
DAV:   4    -0.957852070691E+01   -0.87241E-03   -0.87235E-03   944   0.573E-01
DAV:   5    -0.957852086507E+01   -0.15815E-06   -0.15757E-06   704   0.671E-03    0.551E+00
DAV:   6    -0.954317296284E+01    0.35348E-01   -0.70441E-03   752   0.556E-01    0.307E+00
DAV:   7    -0.952215393923E+01    0.21019E-01   -0.14231E-02   704   0.794E-01    0.181E-01
DAV:   8    -0.952195213454E+01    0.20180E-03   -0.12499E-04   960   0.103E-01    0.194E-02
DAV:   9    -0.952195130096E+01    0.83358E-06   -0.24914E-06   496   0.124E-02
   1 F= -.95219513E+01 E0= -.95207202E+01  d E =-.952195E+01
 curvature:   0.00 expect dE= 0.000E+00 dE for cont linesearch  0.000E+00
 trial: gam= 0.00000 g(F)=  0.363E-52 g(S)=  0.473E-02 ort = 0.000E+00 (trialstep = 0.100E+01)
 search vector abs. value=  0.473E-02
 bond charge predicted
       N       E                     dE             d eps       ncg     rms          rms(c)
DAV:   1    -0.952492629629E+01   -0.29742E-02   -0.90479E-02   912   0.189E+00    0.187E-01
DAV:   2    -0.952418966646E+01    0.73663E-03   -0.14513E-03   672   0.329E-01    0.102E-01
DAV:   3    -0.952383052330E+01    0.35914E-03   -0.85718E-04   856   0.172E-01    0.783E-03
DAV:   4    -0.952383321840E+01   -0.26951E-05   -0.25702E-05   624   0.450E-02
   2 F= -.95238332E+01 E0= -.95213004E+01  d E =-.188192E-02
 trial-energy change:   -0.001882  1 .order   -0.003327   -0.004726   -0.001928
 step:   1.6889(harm=  1.6889)  dis= 0.00000  next Energy=    -9.525942 (dE=-0.399E-02)
 bond charge predicted
       N       E                     dE             d eps       ncg     rms          rms(c)
DAV:   1    -0.952604387382E+01   -0.22134E-02   -0.41909E-02   904   0.129E+00    0.128E-01
DAV:   2    -0.952570168537E+01    0.34219E-03   -0.67120E-04   648   0.224E-01    0.701E-02
DAV:   3    -0.952553535215E+01    0.16633E-03   -0.40039E-04   848   0.118E-01    0.565E-03
DAV:   4    -0.952553659311E+01   -0.12410E-05   -0.11867E-05   480   0.309E-02
   3 F= -.95255366E+01 E0= -.95230345E+01  d E =-.358529E-02
 curvature:  -0.84 expect dE=-0.490E-03 dE for cont linesearch -0.490E-03
 ZBRENT: increasing intervall
 opt :   3.0668  next Energy=    -9.527443 (dE=-0.549E-02)
 bond charge predicted
       N       E                     dE             d eps       ncg     rms          rms(c)
DAV:   1    -0.952402035071E+01    0.15150E-02   -0.16449E-01   896   0.255E+00    0.255E-01
DAV:   2    -0.952271590926E+01    0.13044E-02   -0.25812E-03   648   0.438E-01    0.139E-01
DAV:   3    -0.952207991410E+01    0.63600E-03   -0.15148E-03   856   0.229E-01    0.109E-02
DAV:   4    -0.952208460319E+01   -0.46891E-05   -0.45058E-05   608   0.600E-02
   4 F= -.95220846E+01 E0= -.95207669E+01  d E =-.133302E-03
 curvature:  -3.29 expect dE=-0.410E-01 dE for cont linesearch -0.410E-01
 ZBRENT: bracketing found
 ZBRENT: interpolating
 opt :   1.9333  next Energy=    -9.525739 (dE=-0.379E-02)
 bond charge predicted
       N       E                     dE             d eps       ncg     rms          rms(c)
DAV:   1    -0.952717248574E+01   -0.50926E-02   -0.11174E-01   888   0.208E+00    0.211E-01
DAV:   2    -0.952624939994E+01    0.92309E-03   -0.17569E-03   664   0.361E-01    0.115E-01
DAV:   3    -0.952580213738E+01    0.44726E-03   -0.10732E-03   856   0.193E-01    0.878E-03
DAV:   4    -0.952580553583E+01   -0.33984E-05   -0.32188E-05   608   0.506E-02
   5 F= -.95258055E+01 E0= -.95233899E+01  d E =-.385423E-02
 curvature:  -0.02 expect dE=-0.905E-06 dE for cont linesearch -0.905E-06
 ZBRENT: interpolating
 opt :   2.0363  next Energy=    -9.525834 (dE=-0.388E-02)
 bond charge predicted
       N       E                     dE             d eps       ncg     rms          rms(c)
DAV:   1    -0.952584091685E+01   -0.38779E-04   -0.93233E-04   888   0.190E-01    0.202E-02
DAV:   2    -0.952583237887E+01    0.85380E-05   -0.15149E-05   536   0.336E-02
   6 F= -.95258324E+01 E0= -.95234841E+01  d E =-.388108E-02
 curvature:  -0.50 expect dE=-0.616E-06 dE for cont linesearch -0.616E-06
 trial: gam=-0.01583 g(F)=  0.991E-62 g(S)=  0.122E-05 ort = 0.760E-04 (trialstep = 0.121E+01)
 search vector abs. value=  0.416E-09
 reached required accuracy - stopping structural energy minimisation
 writing wavefunctions
