<?xml version="1.0" encoding="ISO-8859-1"?>
<modeling>
 <generator>
  <i name="program" type="string">vasp </i>
  <i name="version" type="string">5.4.1  </i>
  <i name="subversion" type="string">24Jun15 (build Jul 19 2016 16:50:41) complex                          parallel </i>
  <i name="platform" type="string">IFC91_ompi </i>
  <i name="date" type="string">2019 10 10 </i>
  <i name="time" type="string">11:12:58 </i>
 </generator>
 <incar>
  <i type="string" name="SYSTEM"> Si beta-tin</i>
  <i type="string" name="PREC">accurate</i>
  <i type="int" name="IBRION">     2</i>
  <i name="EDIFF">      0.00001000</i>
  <i name="EDIFFG">     -0.01000000</i>
  <i type="int" name="NSW">   100</i>
  <i type="int" name="ISIF">     4</i>
  <i name="ENMAX">    450.00000000</i>
  <i type="int" name="ISMEAR">     0</i>
  <i name="SIGMA">      0.10000000</i>
  <v type="int" name="KPOINT_BSE">    -1     0     0     0</v>
 </incar>
 <kpoints>
  <generation param="Monkhorst-Pack">
   <v type="int" name="divisions">       6        6        6 </v>
   <v name="usershift">      0.00000000       0.00000000       0.00000000 </v>
   <v name="genvec1">      0.16666667       0.00000000       0.00000000 </v>
   <v name="genvec2">      0.00000000       0.16666667       0.00000000 </v>
   <v name="genvec3">      0.00000000       0.00000000       0.16666667 </v>
   <v name="shift">      0.50000000       0.50000000       0.50000000 </v>
  </generation>
  <varray name="kpointlist" >
   <v>       0.08333333       0.08333333       0.08333333 </v>
   <v>       0.25000000       0.08333333       0.08333333 </v>
   <v>       0.41666667       0.08333333       0.08333333 </v>
   <v>      -0.41666667       0.08333333       0.08333333 </v>
   <v>      -0.25000000       0.08333333       0.08333333 </v>
   <v>      -0.08333333       0.08333333       0.08333333 </v>
   <v>       0.25000000       0.25000000       0.08333333 </v>
   <v>       0.41666667       0.25000000       0.08333333 </v>
   <v>      -0.41666667       0.25000000       0.08333333 </v>
   <v>      -0.25000000       0.25000000       0.08333333 </v>
   <v>       0.41666667       0.41666667       0.08333333 </v>
   <v>      -0.41666667       0.41666667       0.08333333 </v>
   <v>       0.08333333       0.08333333       0.25000000 </v>
   <v>       0.25000000       0.08333333       0.25000000 </v>
   <v>       0.41666667       0.08333333       0.25000000 </v>
   <v>      -0.41666667       0.08333333       0.25000000 </v>
   <v>      -0.25000000       0.08333333       0.25000000 </v>
   <v>      -0.08333333       0.08333333       0.25000000 </v>
   <v>       0.25000000       0.25000000       0.25000000 </v>
   <v>       0.41666667       0.25000000       0.25000000 </v>
   <v>      -0.41666667       0.25000000       0.25000000 </v>
   <v>      -0.25000000       0.25000000       0.25000000 </v>
   <v>       0.41666667       0.41666667       0.25000000 </v>
   <v>      -0.41666667       0.41666667       0.25000000 </v>
   <v>       0.08333333       0.08333333       0.41666667 </v>
   <v>       0.25000000       0.08333333       0.41666667 </v>
   <v>       0.41666667       0.08333333       0.41666667 </v>
   <v>      -0.41666667       0.08333333       0.41666667 </v>
   <v>      -0.25000000       0.08333333       0.41666667 </v>
   <v>      -0.08333333       0.08333333       0.41666667 </v>
   <v>       0.25000000       0.25000000       0.41666667 </v>
   <v>       0.41666667       0.25000000       0.41666667 </v>
   <v>      -0.41666667       0.25000000       0.41666667 </v>
   <v>      -0.25000000       0.25000000       0.41666667 </v>
   <v>       0.41666667       0.41666667       0.41666667 </v>
   <v>      -0.41666667       0.41666667       0.41666667 </v>
  </varray>
  <varray name="weights" >
   <v>       0.01851852 </v>
   <v>       0.03703704 </v>
   <v>       0.03703704 </v>
   <v>       0.03703704 </v>
   <v>       0.03703704 </v>
   <v>       0.01851852 </v>
   <v>       0.01851852 </v>
   <v>       0.03703704 </v>
   <v>       0.03703704 </v>
   <v>       0.01851852 </v>
   <v>       0.01851852 </v>
   <v>       0.01851852 </v>
   <v>       0.01851852 </v>
   <v>       0.03703704 </v>
   <v>       0.03703704 </v>
   <v>       0.03703704 </v>
   <v>       0.03703704 </v>
   <v>       0.01851852 </v>
   <v>       0.01851852 </v>
   <v>       0.03703704 </v>
   <v>       0.03703704 </v>
   <v>       0.01851852 </v>
   <v>       0.01851852 </v>
   <v>       0.01851852 </v>
   <v>       0.01851852 </v>
   <v>       0.03703704 </v>
   <v>       0.03703704 </v>
   <v>       0.03703704 </v>
   <v>       0.03703704 </v>
   <v>       0.01851852 </v>
   <v>       0.01851852 </v>
   <v>       0.03703704 </v>
   <v>       0.03703704 </v>
   <v>       0.01851852 </v>
   <v>       0.01851852 </v>
   <v>       0.01851852 </v>
  </varray>
 </kpoints>
 <parameters>
  <separator name="general" >
   <i type="string" name="SYSTEM">Si beta-tin</i>
   <i type="logical" name="LCOMPAT"> F  </i>
  </separator>
  <separator name="electronic" >
   <i type="string" name="PREC">accura</i>
   <i name="ENMAX">    450.00000000</i>
   <i name="ENAUG">    322.06900000</i>
   <i name="EDIFF">      0.00001000</i>
   <i type="int" name="IALGO">    38</i>
   <i type="int" name="IWAVPR">    11</i>
   <i type="int" name="NBANDS">     8</i>
   <i name="NELECT">      8.00000000</i>
   <i type="int" name="TURBO">     0</i>
   <i type="int" name="IRESTART">     0</i>
   <i type="int" name="NREBOOT">     0</i>
   <i type="int" name="NMIN">     0</i>
   <i name="EREF">      0.00000000</i>
   <separator name="electronic smearing" >
    <i type="int" name="ISMEAR">     0</i>
    <i name="SIGMA">      0.10000000</i>
    <i name="KSPACING">      0.50000000</i>
    <i type="logical" name="KGAMMA"> T  </i>
   </separator>
   <separator name="electronic projectors" >
    <i type="logical" name="LREAL"> F  </i>
    <v name="ROPT">      0.00000000</v>
    <i type="int" name="LMAXPAW">  -100</i>
    <i type="int" name="LMAXMIX">     2</i>
    <i type="logical" name="NLSPLINE"> F  </i>
   </separator>
   <separator name="electronic startup" >
    <i type="int" name="ISTART">     0</i>
    <i type="int" name="ICHARG">     2</i>
    <i type="int" name="INIWAV">     1</i>
   </separator>
   <separator name="electronic spin" >
    <i type="int" name="ISPIN">     1</i>
    <i type="logical" name="LNONCOLLINEAR"> F  </i>
    <v name="MAGMOM">      1.00000000      1.00000000</v>
    <i name="NUPDOWN">     -1.00000000</i>
    <i type="logical" name="LSORBIT"> F  </i>
    <v name="SAXIS">      0.00000000      0.00000000      1.00000000</v>
    <i type="logical" name="LSPIRAL"> F  </i>
    <v name="QSPIRAL">      0.00000000      0.00000000      0.00000000</v>
    <i type="logical" name="LZEROZ"> F  </i>
   </separator>
   <separator name="electronic exchange-correlation" >
    <i type="logical" name="LASPH"> F  </i>
    <i type="logical" name="LMETAGGA"> F  </i>
   </separator>
   <separator name="electronic convergence" >
    <i type="int" name="NELM">    60</i>
    <i type="int" name="NELMDL">    -5</i>
    <i type="int" name="NELMIN">     2</i>
    <i name="ENINI">    450.00000000</i>
    <separator name="electronic convergence detail" >
     <i type="logical" name="LDIAG"> T  </i>
     <i type="logical" name="LSUBROT"> F  </i>
     <i name="WEIMIN">      0.00100000</i>
     <i name="EBREAK">      0.00000031</i>
     <i name="DEPER">      0.30000000</i>
     <i type="int" name="NRMM">     4</i>
     <i name="TIME">      0.40000000</i>
    </separator>
   </separator>
   <separator name="electronic mixer" >
    <i name="AMIX">      0.40000000</i>
    <i name="BMIX">      1.00000000</i>
    <i name="AMIN">      0.10000000</i>
    <i name="AMIX_MAG">      1.60000000</i>
    <i name="BMIX_MAG">      1.00000000</i>
    <separator name="electronic mixer details" >
     <i type="int" name="IMIX">     4</i>
     <i type="logical" name="MIXFIRST"> F  </i>
     <i type="int" name="MAXMIX">   -45</i>
     <i name="WC">    100.00000000</i>
     <i type="int" name="INIMIX">     1</i>
     <i type="int" name="MIXPRE">     1</i>
     <i type="int" name="MREMOVE">     5</i>
    </separator>
   </separator>
   <separator name="electronic dipolcorrection" >
    <i type="logical" name="LDIPOL"> F  </i>
    <i type="logical" name="LMONO"> F  </i>
    <i type="int" name="IDIPOL">     0</i>
    <i name="EPSILON">      1.00000000</i>
    <v name="DIPOL">   -100.00000000   -100.00000000   -100.00000000</v>
    <i name="EFIELD">      0.00000000</i>
   </separator>
  </separator>
  <separator name="grids" >
   <i type="int" name="NGX">    18</i>
   <i type="int" name="NGY">    18</i>
   <i type="int" name="NGZ">    30</i>
   <i type="int" name="NGXF">    36</i>
   <i type="int" name="NGYF">    36</i>
   <i type="int" name="NGZF">    60</i>
   <i type="logical" name="ADDGRID"> F  </i>
  </separator>
  <separator name="ionic" >
   <i type="int" name="NSW">   100</i>
   <i type="int" name="IBRION">     2</i>
   <i type="int" name="ISIF">     4</i>
   <i name="PSTRESS">      0.00000000</i>
   <i name="EDIFFG">     -0.01000000</i>
   <i type="int" name="NFREE">     1</i>
   <i name="POTIM">      0.50000000</i>
   <i name="SMASS">     -3.00000000</i>
   <i name="SCALEE">      1.00000000</i>
  </separator>
  <separator name="ionic md" >
   <i name="TEBEG">      0.00010000</i>
   <i name="TEEND">      0.00010000</i>
   <i type="int" name="NBLOCK">     1</i>
   <i type="int" name="KBLOCK">   100</i>
   <i type="int" name="NPACO">   256</i>
   <i name="APACO">     16.00000000</i>
  </separator>
  <separator name="symmetry" >
   <i type="int" name="ISYM">     2</i>
   <i name="SYMPREC">      0.00001000</i>
  </separator>
  <separator name="dos" >
   <i type="logical" name="LORBIT"> F  </i>
   <v name="RWIGS">     -1.00000000</v>
   <i type="int" name="NEDOS">   301</i>
   <i name="EMIN">     10.00000000</i>
   <i name="EMAX">    -10.00000000</i>
   <i name="EFERMI">      0.00000000</i>
  </separator>
  <separator name="writing" >
   <i type="int" name="NWRITE">     2</i>
   <i type="logical" name="LWAVE"> T  </i>
   <i type="logical" name="LCHARG"> T  </i>
   <i type="logical" name="LPARD"> F  </i>
   <i type="logical" name="LVTOT"> F  </i>
   <i type="logical" name="LVHAR"> F  </i>
   <i type="logical" name="LELF"> F  </i>
   <i type="logical" name="LOPTICS"> F  </i>
   <v name="STM">      0.00000000      0.00000000      0.00000000      0.00000000      0.00000000      0.00000000      0.00000000</v>
  </separator>
  <separator name="performance" >
   <i type="int" name="NPAR">     4</i>
   <i type="int" name="NSIM">     4</i>
   <i type="int" name="NBLK">    -1</i>
   <i type="logical" name="LPLANE"> T  </i>
   <i type="logical" name="LSCALAPACK"> F  </i>
   <i type="logical" name="LSCAAWARE"> F  </i>
   <i type="logical" name="LSCALU"> F  </i>
   <i type="logical" name="LASYNC"> F  </i>
   <i type="logical" name="LORBITALREAL"> F  </i>
  </separator>
  <separator name="miscellaneous" >
   <i type="int" name="IDIOT">     3</i>
   <i type="logical" name="LMUSIC"> F  </i>
   <v name="POMASS">     28.08500000</v>
   <v name="DARWINR">      0.00000000</v>
   <v name="DARWINV">      1.00000000</v>
   <i type="logical" name="LCORR"> T  </i>
  </separator>
  <i type="logical" name="GGA_COMPAT"> T  </i>
  <i type="logical" name="LBERRY"> F  </i>
  <i type="int" name="ICORELEVEL">     0</i>
  <i type="logical" name="LDAU"> F  </i>
  <i type="int" name="I_CONSTRAINED_M">     0</i>
  <separator name="electronic exchange-correlation" >
   <i type="string" name="GGA">--</i>
   <i type="int" name="VOSKOWN">     0</i>
   <i type="logical" name="LHFCALC"> F  </i>
   <i type="string" name="PRECFOCK"></i>
   <i type="logical" name="LSYMGRAD"> F  </i>
   <i type="logical" name="LHFONE"> F  </i>
   <i type="logical" name="LRHFCALC"> F  </i>
   <i type="logical" name="LTHOMAS"> F  </i>
   <i type="logical" name="LMODELHF"> F  </i>
   <i name="ENCUT4O">     -1.00000000</i>
   <i type="int" name="EXXOEP">     0</i>
   <i type="int" name="FOURORBIT">     0</i>
   <i name="AEXX">      0.00000000</i>
   <i name="HFALPHA">      0.00000000</i>
   <i name="MCALPHA">      0.00000000</i>
   <i name="ALDAX">      1.00000000</i>
   <i name="AGGAX">      1.00000000</i>
   <i name="ALDAC">      1.00000000</i>
   <i name="AGGAC">      1.00000000</i>
   <i type="int" name="NKREDX">     1</i>
   <i type="int" name="NKREDY">     1</i>
   <i type="int" name="NKREDZ">     1</i>
   <i type="logical" name="SHIFTRED"> F  </i>
   <i type="logical" name="ODDONLY"> F  </i>
   <i type="logical" name="EVENONLY"> F  </i>
   <i type="int" name="LMAXFOCK">     0</i>
   <i type="int" name="NMAXFOCKAE">     0</i>
   <i type="logical" name="LFOCKAEDFT"> F  </i>
   <i name="HFSCREEN">      0.00000000</i>
   <i name="HFSCREENC">      0.00000000</i>
   <i type="int" name="NBANDSGWLOW">     0</i>
  </separator>
  <separator name="vdW DFT" >
   <i type="logical" name="LUSE_VDW"> F  </i>
   <i name="Zab_VDW">     -0.84910000</i>
   <i name="PARAM1">      0.12340000</i>
   <i name="PARAM2">      1.00000000</i>
   <i name="PARAM3">      0.00000000</i>
  </separator>
  <separator name="model GW" >
   <i type="int" name="MODEL_GW">     0</i>
   <i name="MODEL_EPS0">      7.11795614</i>
   <i name="MODEL_ALPHA">      1.00000000</i>
  </separator>
  <separator name="linear response parameters" >
   <i type="logical" name="LEPSILON"> F  </i>
   <i type="logical" name="LRPA"> F  </i>
   <i type="logical" name="LNABLA"> F  </i>
   <i type="logical" name="LVEL"> F  </i>
   <i type="int" name="KINTER">     0</i>
   <i name="CSHIFT">      0.10000000</i>
   <i name="OMEGAMAX">     -1.00000000</i>
   <i name="DEG_THRESHOLD">      0.00200000</i>
  </separator>
  <separator name="orbital magnetization" >
   <i type="logical" name="NUCIND"> F  </i>
   <v name="MAGPOS">      0.00000000      0.00000000      0.00000000</v>
   <i type="logical" name="LNICSALL"> T  </i>
   <i type="logical" name="ORBITALMAG"> F  </i>
   <i type="logical" name="LMAGBLOCH"> F  </i>
   <i type="logical" name="LCHIMAG"> F  </i>
   <i type="logical" name="LGAUGE"> T  </i>
   <i type="int" name="MAGATOM">     0</i>
   <v name="MAGDIPOL">      0.00000000      0.00000000      0.00000000</v>
   <v name="AVECCONST">      0.00000000      0.00000000      0.00000000</v>
  </separator>
  <separator name="response functions" >
   <i type="logical" name="LADDER"> F  </i>
   <i type="logical" name="LFXC"> F  </i>
   <i type="logical" name="LHARTREE"> T  </i>
   <i type="int" name="IBSE">     0</i>
   <v type="int" name="KPOINT">    -1     0     0     0</v>
   <i type="logical" name="LTCTE"> F  </i>
   <i type="logical" name="LTETE"> F  </i>
   <i type="logical" name="LTRIPLET"> F  </i>
   <i type="logical" name="LFXCEPS"> F  </i>
   <i type="logical" name="LFXHEG"> F  </i>
   <i type="int" name="NATURALO">     0</i>
   <i type="logical" name="L2ORDER"> F  </i>
   <i type="logical" name="LUSEW"> F  </i>
   <i name="ENCUTGW">     -2.00000000</i>
   <i name="ENCUTGWSOFT">     -2.00000000</i>
   <i name="ENCUTLF">     -1.00000000</i>
   <i type="int" name="LMAXMP2">    -1</i>
   <i name="SCISSOR">      0.00000000</i>
   <i type="int" name="NOMEGA">     0</i>
   <i type="int" name="NOMEGAR">     0</i>
   <i type="int" name="NBANDSGW">    -1</i>
   <i type="int" name="NBANDSO">    -1</i>
   <i type="int" name="NBANDSV">    -1</i>
   <i type="int" name="NELM">     1</i>
   <i type="int" name="NELMHF">     1</i>
   <i type="int" name="DIM">     3</i>
   <i type="int" name="ANTIRES">     0</i>
   <i name="OMEGAMAX">    -30.00000000</i>
   <i name="OMEGAMIN">    -30.00000000</i>
   <i name="OMEGATL">   -200.00000000</i>
   <i type="int" name="OMEGAGRID">     0</i>
   <i name="CSHIFT">     -0.10000000</i>
   <i type="logical" name="SELFENERGY"> F  </i>
   <i type="logical" name="LSPECTRAL"> F  </i>
   <i type="logical" name="LSPECTRALGW"> F  </i>
   <i type="logical" name="LSINGLES"> F  </i>
   <i type="logical" name="LFERMIGW"> F  </i>
   <i type="logical" name="ODDONLYGW"> F  </i>
   <i type="logical" name="EVENONLYGW"> F  </i>
   <i type="int" name="NKREDLFX">     1</i>
   <i type="int" name="NKREDLFY">     1</i>
   <i type="int" name="NKREDLFZ">     1</i>
   <i type="int" name="MAXMEM">  1800</i>
   <i type="int" name="TELESCOPE">     0</i>
   <i type="int" name="TAUPAR">     1</i>
   <i type="int" name="OMEGAPAR">    -1</i>
   <i name="LAMBDA">      1.00000000</i>
  </separator>
  <separator name="External order field" >
   <i name="OFIELD_KAPPA">      0.00000000</i>
   <v name="OFIELD_K">      0.00000000      0.00000000      0.00000000</v>
   <i name="OFIELD_Q6_NEAR">      0.00000000</i>
   <i name="OFIELD_Q6_FAR">      0.00000000</i>
   <i name="OFIELD_A">      0.00000000</i>
  </separator>
 </parameters>
 <atominfo>
  <atoms>       2 </atoms>
  <types>       1 </types>
  <array name="atoms" >
   <dimension dim="1">ion</dimension>
   <field type="string">element</field>
   <field type="int">atomtype</field>
   <set>
    <rc><c> S</c><c>   1</c></rc>
    <rc><c> S</c><c>   1</c></rc>
   </set>
  </array>
  <array name="atomtypes" >
   <dimension dim="1">type</dimension>
   <field type="int">atomspertype</field>
   <field type="string">element</field>
   <field>mass</field>
   <field>valence</field>
   <field type="string">pseudopotential</field>
   <set>
    <rc><c>   2</c><c> S</c><c>     28.08500000</c><c>      4.00000000</c><c>  PAW_PBE Si 05Jan2001                  </c></rc>
   </set>
  </array>
 </atominfo>
 <structure name="initialpos" >
  <crystal>
   <varray name="basis" >
    <v>       2.56000000       0.00000000       0.00000000 </v>
    <v>      -1.28000000       2.21702503       0.00000000 </v>
    <v>       0.00000000       0.00000000       4.18045440 </v>
   </varray>
   <i name="volume">     23.72652047 </i>
   <varray name="rec_basis" >
    <v>       0.39062500       0.22552745       0.00000000 </v>
    <v>       0.00000000       0.45105490       0.00000000 </v>
    <v>       0.00000000       0.00000000       0.23920845 </v>
   </varray>
  </crystal>
  <varray name="positions" >
   <v>       0.00000000       0.00000000       0.00000000 </v>
   <v>       0.33333333       0.66666667       0.50000000 </v>
  </varray>
 </structure>
 <calculation>
  <scstep>
   <time name="dav">    1.32    0.87</time>
   <time name="total">    1.37    0.91</time>
   <energy>
    <i name="alphaZ">      5.67519049 </i>
    <i name="ewald">   -291.76315788 </i>
    <i name="hartreedc">     -0.58336147 </i>
    <i name="XCdc">    -16.49886874 </i>
    <i name="pawpsdc">    176.24759923 </i>
    <i name="pawaedc">   -141.06103558 </i>
    <i name="eentropy">     -0.00348760 </i>
    <i name="bandstr">     66.79096023 </i>
    <i name="atom">    206.13192747 </i>
    <i name="e_fr_energy">      4.93576616 </i>
    <i name="e_wo_entrp">      4.93925375 </i>
    <i name="e_0_energy">      4.93750996 </i>
   </energy>
  </scstep>
  <scstep>
   <time name="dav">    2.08    1.35</time>
   <time name="total">    2.08    1.36</time>
   <energy>
    <i name="e_fr_energy">     -9.39344464 </i>
    <i name="e_wo_entrp">     -9.38809710 </i>
    <i name="e_0_energy">     -9.39077087 </i>
   </energy>
  </scstep>
  <scstep>
   <time name="dav">    1.41    0.97</time>
   <time name="total">    1.41    0.97</time>
   <energy>
    <i name="e_fr_energy">     -9.57764830 </i>
    <i name="e_wo_entrp">     -9.57494723 </i>
    <i name="e_0_energy">     -9.57629776 </i>
   </energy>
  </scstep>
  <scstep>
   <time name="dav">    2.31    1.48</time>
   <time name="total">    2.32    1.49</time>
   <energy>
    <i name="e_fr_energy">     -9.57852071 </i>
    <i name="e_wo_entrp">     -9.57583800 </i>
    <i name="e_0_energy">     -9.57717935 </i>
   </energy>
  </scstep>
  <scstep>
   <time name="dav">    1.69    1.07</time>
   <time name="total">    1.72    1.09</time>
   <energy>
    <i name="e_fr_energy">     -9.57852087 </i>
    <i name="e_wo_entrp">     -9.57583815 </i>
    <i name="e_0_energy">     -9.57717951 </i>
   </energy>
  </scstep>
  <scstep>
   <time name="dav">    2.20    1.39</time>
   <time name="total">    2.28    1.44</time>
   <energy>
    <i name="e_fr_energy">     -9.54317296 </i>
    <i name="e_wo_entrp">     -9.54058368 </i>
    <i name="e_0_energy">     -9.54187832 </i>
   </energy>
  </scstep>
  <scstep>
   <time name="dav">    1.73    1.16</time>
   <time name="total">    1.80    1.20</time>
   <energy>
    <i name="e_fr_energy">     -9.52215394 </i>
    <i name="e_wo_entrp">     -9.51968328 </i>
    <i name="e_0_energy">     -9.52091861 </i>
   </energy>
  </scstep>
  <scstep>
   <time name="dav">    2.26    1.48</time>
   <time name="total">    2.35    1.53</time>
   <energy>
    <i name="e_fr_energy">     -9.52195213 </i>
    <i name="e_wo_entrp">     -9.51948847 </i>
    <i name="e_0_energy">     -9.52072030 </i>
   </energy>
  </scstep>
  <scstep>
   <time name="dav">    1.43    0.97</time>
   <time name="total">    1.49    1.01</time>
   <energy>
    <i name="alphaZ">      5.67519049 </i>
    <i name="ewald">   -291.76315788 </i>
    <i name="hartreedc">     -0.53191990 </i>
    <i name="XCdc">    -16.26419711 </i>
    <i name="pawpsdc">    965.70958469 </i>
    <i name="pawaedc">   -930.63993874 </i>
    <i name="eentropy">     -0.00246225 </i>
    <i name="bandstr">     52.16302192 </i>
    <i name="atom">    206.13192747 </i>
    <i name="e_fr_energy">     -9.52195130 </i>
    <i name="e_wo_entrp">     -9.51948905 </i>
    <i name="e_0_energy">     -9.52072018 </i>
   </energy>
  </scstep>
  <structure>
   <crystal>
    <varray name="basis" >
     <v>       2.56000000       0.00000000       0.00000000 </v>
     <v>      -1.28000000       2.21702503       0.00000000 </v>
     <v>       0.00000000       0.00000000       4.18045440 </v>
    </varray>
    <i name="volume">     23.72652047 </i>
    <varray name="rec_basis" >
     <v>       0.39062500       0.22552745       0.00000000 </v>
     <v>       0.00000000       0.45105490       0.00000000 </v>
     <v>       0.00000000       0.00000000       0.23920845 </v>
    </varray>
   </crystal>
   <varray name="positions" >
    <v>       0.00000000       0.00000000       0.00000000 </v>
    <v>       0.33333333       0.66666667       0.50000000 </v>
   </varray>
  </structure>
  <varray name="forces" >
   <v>       0.00000000       0.00000000       0.00000000 </v>
   <v>      -0.00000000       0.00000000       0.00000000 </v>
  </varray>
  <varray name="stress" >
   <v>     271.01283867       0.00000000       0.00000000 </v>
   <v>      -0.00000000     271.01283867      -0.00000000 </v>
   <v>      -0.00000000       0.00000000     234.40621543 </v>
  </varray>
  <energy>
   <i name="e_fr_energy">     -9.52195130 </i>
   <i name="e_wo_entrp">     -9.52072018 </i>
   <i name="e_0_energy">     -0.00246225 </i>
  </energy>
  <time name="totalsc">   17.58   11.54</time>
 </calculation>
 <calculation>
  <scstep>
   <time name="dav">    2.04    1.28</time>
   <time name="total">    2.12    1.33</time>
   <energy>
    <i name="alphaZ">      5.67519049 </i>
    <i name="ewald">   -291.75449386 </i>
    <i name="hartreedc">     -0.53196373 </i>
    <i name="XCdc">    -16.26453216 </i>
    <i name="pawpsdc">    966.70822620 </i>
    <i name="pawaedc">   -931.63792071 </i>
    <i name="eentropy">     -0.00508884 </i>
    <i name="bandstr">     52.15372885 </i>
    <i name="atom">    206.13192747 </i>
    <i name="e_fr_energy">     -9.52492630 </i>
    <i name="e_wo_entrp">     -9.51983746 </i>
    <i name="e_0_energy">     -9.52238188 </i>
   </energy>
  </scstep>
  <scstep>
   <time name="dav">    2.10    1.31</time>
   <time name="total">    2.19    1.36</time>
   <energy>
    <i name="e_fr_energy">     -9.52418967 </i>
    <i name="e_wo_entrp">     -9.51911191 </i>
    <i name="e_0_energy">     -9.52165079 </i>
   </energy>
  </scstep>
  <scstep>
   <time name="dav">    2.20    1.36</time>
   <time name="total">    2.27    1.40</time>
   <energy>
    <i name="e_fr_energy">     -9.52383052 </i>
    <i name="e_wo_entrp">     -9.51876509 </i>
    <i name="e_0_energy">     -9.52129781 </i>
   </energy>
  </scstep>
  <scstep>
   <time name="dav">    1.19    0.75</time>
   <time name="total">    1.23    0.77</time>
   <energy>
    <i name="alphaZ">      5.67519049 </i>
    <i name="ewald">   -291.75449386 </i>
    <i name="hartreedc">     -0.53383011 </i>
    <i name="XCdc">    -16.26464543 </i>
    <i name="pawpsdc">    966.04815459 </i>
    <i name="pawaedc">   -930.97832155 </i>
    <i name="eentropy">     -0.00506569 </i>
    <i name="bandstr">     52.15725087 </i>
    <i name="atom">    206.13192747 </i>
    <i name="e_fr_energy">     -9.52383322 </i>
    <i name="e_wo_entrp">     -9.51876753 </i>
    <i name="e_0_energy">     -9.52130037 </i>
   </energy>
  </scstep>
  <structure>
   <crystal>
    <varray name="basis" >
     <v>       2.57120742       0.00000000       0.00000000 </v>
     <v>      -1.28560371       2.22673095      -0.00000000 </v>
     <v>      -0.00000000       0.00000000       4.14409016 </v>
    </varray>
    <i name="volume">     23.72652047 </i>
    <varray name="rec_basis" >
     <v>       0.38892234       0.22454442       0.00000000 </v>
     <v>       0.00000000       0.44908883       0.00000000 </v>
     <v>       0.00000000       0.00000000       0.24130749 </v>
    </varray>
   </crystal>
   <varray name="positions" >
    <v>       0.00000000       0.00000000       0.00000000 </v>
    <v>       0.33333333       0.66666667       0.50000000 </v>
   </varray>
  </structure>
  <varray name="forces" >
   <v>      -0.00000000       0.00000000      -0.00000000 </v>
   <v>       0.00000000      -0.00000000       0.00000000 </v>
  </varray>
  <varray name="stress" >
   <v>     264.99752984       0.00000000      -0.00000000 </v>
   <v>      -0.00000000     264.99752984       0.00000000 </v>
   <v>      -0.00000000       0.00000000     250.06536065 </v>
  </varray>
  <energy>
   <i name="e_fr_energy">     -9.52383322 </i>
   <i name="e_wo_entrp">     -9.52130037 </i>
   <i name="e_0_energy">     -0.00506569 </i>
  </energy>
  <time name="totalsc">    8.46    5.27</time>
 </calculation>
 <calculation>
  <scstep>
   <time name="dav">    2.37    1.58</time>
   <time name="total">    2.45    1.63</time>
   <energy>
    <i name="alphaZ">      5.67519049 </i>
    <i name="ewald">   -291.74062390 </i>
    <i name="hartreedc">     -0.53397370 </i>
    <i name="XCdc">    -16.26476126 </i>
    <i name="pawpsdc">    966.09603969 </i>
    <i name="pawaedc">   -931.02619775 </i>
    <i name="eentropy">     -0.00500567 </i>
    <i name="bandstr">     52.14136075 </i>
    <i name="atom">    206.13192747 </i>
    <i name="e_fr_energy">     -9.52604387 </i>
    <i name="e_wo_entrp">     -9.52103821 </i>
    <i name="e_0_energy">     -9.52354104 </i>
   </energy>
  </scstep>
  <scstep>
   <time name="dav">    1.98    1.29</time>
   <time name="total">    2.06    1.34</time>
   <energy>
    <i name="e_fr_energy">     -9.52570169 </i>
    <i name="e_wo_entrp">     -9.52069672 </i>
    <i name="e_0_energy">     -9.52319920 </i>
   </energy>
  </scstep>
  <scstep>
   <time name="dav">    2.09    1.29</time>
   <time name="total">    2.18    1.35</time>
   <energy>
    <i name="e_fr_energy">     -9.52553535 </i>
    <i name="e_wo_entrp">     -9.52053111 </i>
    <i name="e_0_energy">     -9.52303323 </i>
   </energy>
  </scstep>
  <scstep>
   <time name="dav">    1.41    0.88</time>
   <time name="total">    1.48    0.92</time>
   <energy>
    <i name="alphaZ">      5.67519049 </i>
    <i name="ewald">   -291.74062390 </i>
    <i name="hartreedc">     -0.53763497 </i>
    <i name="XCdc">    -16.26465737 </i>
    <i name="pawpsdc">    966.24592270 </i>
    <i name="pawaedc">   -931.17628055 </i>
    <i name="eentropy">     -0.00500425 </i>
    <i name="bandstr">     52.14562378 </i>
    <i name="atom">    206.13192747 </i>
    <i name="e_fr_energy">     -9.52553659 </i>
    <i name="e_wo_entrp">     -9.52053235 </i>
    <i name="e_0_energy">     -9.52303447 </i>
   </energy>
  </scstep>
  <structure>
   <crystal>
    <varray name="basis" >
     <v>       2.57898626       0.00000000       0.00000000 </v>
     <v>      -1.28949313       2.23346761      -0.00000000 </v>
     <v>      -0.00000000       0.00000000       4.11912874 </v>
    </varray>
    <i name="volume">     23.72652047 </i>
    <varray name="rec_basis" >
     <v>       0.38774926       0.22386714       0.00000000 </v>
     <v>       0.00000000       0.44773427       0.00000000 </v>
     <v>       0.00000000       0.00000000       0.24276979 </v>
    </varray>
   </crystal>
   <varray name="positions" >
    <v>       0.00000000       0.00000000       0.00000000 </v>
    <v>       0.33333333       0.66666667       0.50000000 </v>
   </varray>
  </structure>
  <varray name="forces" >
   <v>      -0.00000000       0.00000000       0.00000000 </v>
   <v>       0.00000000       0.00000000      -0.00000000 </v>
  </varray>
  <varray name="stress" >
   <v>     265.21397221       0.00000000       0.00000000 </v>
   <v>       0.00000000     265.21397221       0.00000000 </v>
   <v>       0.00000000      -0.00000000     252.38835380 </v>
  </varray>
  <energy>
   <i name="e_fr_energy">     -9.52553659 </i>
   <i name="e_wo_entrp">     -9.52303447 </i>
   <i name="e_0_energy">     -0.00500425 </i>
  </energy>
  <time name="totalsc">    8.76    5.72</time>
 </calculation>
 <calculation>
  <scstep>
   <time name="dav">    2.10    1.33</time>
   <time name="total">    2.21    1.40</time>
   <energy>
    <i name="alphaZ">      5.67519049 </i>
    <i name="ewald">   -291.69423588 </i>
    <i name="hartreedc">     -0.53839025 </i>
    <i name="XCdc">    -16.26494519 </i>
    <i name="pawpsdc">    966.31656260 </i>
    <i name="pawaedc">   -931.24690321 </i>
    <i name="eentropy">     -0.00264846 </i>
    <i name="bandstr">     52.09942208 </i>
    <i name="atom">    206.13192747 </i>
    <i name="e_fr_energy">     -9.52402035 </i>
    <i name="e_wo_entrp">     -9.52137189 </i>
    <i name="e_0_energy">     -9.52269612 </i>
   </energy>
  </scstep>
  <scstep>
   <time name="dav">    1.60    0.96</time>
   <time name="total">    1.72    1.04</time>
   <energy>
    <i name="e_fr_energy">     -9.52271591 </i>
    <i name="e_wo_entrp">     -9.52007624 </i>
    <i name="e_0_energy">     -9.52139607 </i>
   </energy>
  </scstep>
  <scstep>
   <time name="dav">    1.65    0.99</time>
   <time name="total">    1.72    1.03</time>
   <energy>
    <i name="e_fr_energy">     -9.52207991 </i>
    <i name="e_wo_entrp">     -9.51944458 </i>
    <i name="e_0_energy">     -9.52076225 </i>
   </energy>
  </scstep>
  <scstep>
   <time name="dav">    1.71    1.03</time>
   <time name="total">    1.76    1.06</time>
   <energy>
    <i name="alphaZ">      5.67519049 </i>
    <i name="ewald">   -291.69423588 </i>
    <i name="hartreedc">     -0.55300312 </i>
    <i name="XCdc">    -16.26350557 </i>
    <i name="pawpsdc">    966.87642304 </i>
    <i name="pawaedc">   -931.80670506 </i>
    <i name="eentropy">     -0.00263548 </i>
    <i name="bandstr">     52.11445950 </i>
    <i name="atom">    206.13192747 </i>
    <i name="e_fr_energy">     -9.52208460 </i>
    <i name="e_wo_entrp">     -9.51944913 </i>
    <i name="e_0_energy">     -9.52076686 </i>
   </energy>
  </scstep>
  <structure>
   <crystal>
    <varray name="basis" >
     <v>       2.59468839       0.00000000       0.00000000 </v>
     <v>      -1.29734420       2.24706606      -0.00000000 </v>
     <v>      -0.00000000       0.00000000       4.06942457 </v>
    </varray>
    <i name="volume">     23.72652047 </i>
    <varray name="rec_basis" >
     <v>       0.38540273       0.22251237       0.00000000 </v>
     <v>       0.00000000       0.44502474       0.00000000 </v>
     <v>       0.00000000       0.00000000       0.24573499 </v>
    </varray>
   </crystal>
   <varray name="positions" >
    <v>       0.00000000       0.00000000       0.00000000 </v>
    <v>       0.33333333       0.66666667       0.50000000 </v>
   </varray>
  </structure>
  <varray name="forces" >
   <v>       0.00000000       0.00000000       0.00000000 </v>
   <v>      -0.00000000       0.00000000      -0.00000000 </v>
  </varray>
  <varray name="stress" >
   <v>     241.85293456       0.00000000       0.00000000 </v>
   <v>       0.00000000     241.85293456      -0.00000000 </v>
   <v>      -0.00000000      -0.00000000     301.34846294 </v>
  </varray>
  <energy>
   <i name="e_fr_energy">     -9.52208460 </i>
   <i name="e_wo_entrp">     -9.52076686 </i>
   <i name="e_0_energy">     -0.00263548 </i>
  </energy>
  <time name="totalsc">    8.02    4.94</time>
 </calculation>
 <calculation>
  <scstep>
   <time name="dav">    2.01    1.22</time>
   <time name="total">    2.10    1.28</time>
   <energy>
    <i name="alphaZ">      5.67519049 </i>
    <i name="ewald">   -291.73419063 </i>
    <i name="hartreedc">     -0.55149459 </i>
    <i name="XCdc">    -16.26356927 </i>
    <i name="pawpsdc">    966.96770116 </i>
    <i name="pawaedc">   -931.89790151 </i>
    <i name="eentropy">     -0.00484216 </i>
    <i name="bandstr">     52.15000657 </i>
    <i name="atom">    206.13192747 </i>
    <i name="e_fr_energy">     -9.52717249 </i>
    <i name="e_wo_entrp">     -9.52233032 </i>
    <i name="e_0_energy">     -9.52475140 </i>
   </energy>
  </scstep>
  <scstep>
   <time name="dav">    1.20    0.74</time>
   <time name="total">    1.27    0.78</time>
   <energy>
    <i name="e_fr_energy">     -9.52624940 </i>
    <i name="e_wo_entrp">     -9.52141226 </i>
    <i name="e_0_energy">     -9.52383083 </i>
   </energy>
  </scstep>
  <scstep>
   <time name="dav">    1.31    0.79</time>
   <time name="total">    1.39    0.85</time>
   <energy>
    <i name="e_fr_energy">     -9.52580214 </i>
    <i name="e_wo_entrp">     -9.52097099 </i>
    <i name="e_0_energy">     -9.52338656 </i>
   </energy>
  </scstep>
  <scstep>
   <time name="dav">    1.30    0.84</time>
   <time name="total">    1.35    0.86</time>
   <energy>
    <i name="alphaZ">      5.67519049 </i>
    <i name="ewald">   -291.73419063 </i>
    <i name="hartreedc">     -0.53904559 </i>
    <i name="XCdc">    -16.26468808 </i>
    <i name="pawpsdc">    966.33819980 </i>
    <i name="pawaedc">   -931.26843306 </i>
    <i name="eentropy">     -0.00483129 </i>
    <i name="bandstr">     52.14006535 </i>
    <i name="atom">    206.13192747 </i>
    <i name="e_fr_energy">     -9.52580554 </i>
    <i name="e_wo_entrp">     -9.52097425 </i>
    <i name="e_0_energy">     -9.52338989 </i>
   </energy>
  </scstep>
  <structure>
   <crystal>
    <varray name="basis" >
     <v>       2.58175677       0.00000000       0.00000000 </v>
     <v>      -1.29087838       2.23586695      -0.00000000 </v>
     <v>      -0.00000000       0.00000000       4.11029292 </v>
    </varray>
    <i name="volume">     23.72652047 </i>
    <varray name="rec_basis" >
     <v>       0.38733316       0.22362690       0.00000000 </v>
     <v>       0.00000000       0.44725381       0.00000000 </v>
     <v>       0.00000000       0.00000000       0.24329166 </v>
    </varray>
   </crystal>
   <varray name="positions" >
    <v>       0.00000000       0.00000000       0.00000000 </v>
    <v>       0.33333333       0.66666667       0.50000000 </v>
   </varray>
  </structure>
  <varray name="forces" >
   <v>      -0.00000000       0.00000000       0.00000000 </v>
   <v>       0.00000000       0.00000000      -0.00000000 </v>
  </varray>
  <varray name="stress" >
   <v>     262.41972518       0.00000000      -0.00000000 </v>
   <v>       0.00000000     262.41972518       0.00000000 </v>
   <v>      -0.00000000       0.00000000     258.44028921 </v>
  </varray>
  <energy>
   <i name="e_fr_energy">     -9.52580554 </i>
   <i name="e_wo_entrp">     -9.52338989 </i>
   <i name="e_0_energy">     -0.00483129 </i>
  </energy>
  <time name="totalsc">    6.79    4.21</time>
 </calculation>
 <calculation>
  <scstep>
   <time name="dav">    2.06    1.27</time>
   <time name="total">    2.17    1.33</time>
   <energy>
    <i name="alphaZ">      5.67519049 </i>
    <i name="ewald">   -291.73124343 </i>
    <i name="hartreedc">     -0.53937778 </i>
    <i name="XCdc">    -16.26465214 </i>
    <i name="pawpsdc">    966.28454148 </i>
    <i name="pawaedc">   -931.21481410 </i>
    <i name="eentropy">     -0.00469588 </i>
    <i name="bandstr">     52.13728297 </i>
    <i name="atom">    206.13192747 </i>
    <i name="e_fr_energy">     -9.52584092 </i>
    <i name="e_wo_entrp">     -9.52114503 </i>
    <i name="e_0_energy">     -9.52349298 </i>
   </energy>
  </scstep>
  <scstep>
   <time name="dav">    1.37    0.81</time>
   <time name="total">    1.44    0.85</time>
   <energy>
    <i name="alphaZ">      5.67519049 </i>
    <i name="ewald">   -291.73124343 </i>
    <i name="hartreedc">     -0.53982920 </i>
    <i name="XCdc">    -16.26460875 </i>
    <i name="pawpsdc">    966.31774305 </i>
    <i name="pawaedc">   -931.24799401 </i>
    <i name="eentropy">     -0.00469653 </i>
    <i name="bandstr">     52.13767852 </i>
    <i name="atom">    206.13192747 </i>
    <i name="e_fr_energy">     -9.52583238 </i>
    <i name="e_wo_entrp">     -9.52113585 </i>
    <i name="e_0_energy">     -9.52348412 </i>
   </energy>
  </scstep>
  <structure>
   <crystal>
    <varray name="basis" >
     <v>       2.58292675       0.00000000       0.00000000 </v>
     <v>      -1.29146338       2.23688019      -0.00000000 </v>
     <v>      -0.00000000       0.00000000       4.10657009 </v>
    </varray>
    <i name="volume">     23.72652047 </i>
    <varray name="rec_basis" >
     <v>       0.38715771       0.22352561       0.00000000 </v>
     <v>       0.00000000       0.44705121       0.00000000 </v>
     <v>       0.00000000       0.00000000       0.24351222 </v>
    </varray>
   </crystal>
   <varray name="positions" >
    <v>       0.00000000       0.00000000       0.00000000 </v>
    <v>       0.33333333       0.66666667       0.50000000 </v>
   </varray>
  </structure>
  <varray name="forces" >
   <v>       0.00000000       0.00000000      -0.00000000 </v>
   <v>      -0.00000000       0.00000000       0.00000000 </v>
  </varray>
  <varray name="stress" >
   <v>     261.33447899       0.00000000       0.00000000 </v>
   <v>       0.00000000     261.33447899       0.00000000 </v>
   <v>       0.00000000       0.00000000     260.74568889 </v>
  </varray>
  <energy>
   <i name="e_fr_energy">     -9.52583238 </i>
   <i name="e_wo_entrp">     -9.52348412 </i>
   <i name="e_0_energy">     -0.00469653 </i>
  </energy>
  <time name="totalsc">    4.07    2.53</time>
  <eigenvalues>
   <array>
    <dimension dim="1">band</dimension>
    <dimension dim="2">kpoint</dimension>
    <dimension dim="3">spin</dimension>
    <field>eigene</field>
    <field>occ</field>
    <set>
     <set comment="spin 1">
      <set comment="kpoint 1">
       <r>   -2.7542    1.0000 </r>
       <r>    4.2696    1.0000 </r>
       <r>    7.0343    1.0000 </r>
       <r>   17.7099    0.0000 </r>
       <r>   17.9820    0.0000 </r>
       <r>   23.7664    0.0000 </r>
       <r>   23.9938    0.0000 </r>
       <r>   24.2976    0.0000 </r>
      </set>
      <set comment="kpoint 2">
       <r>   -0.7557    1.0000 </r>
       <r>    6.1730    1.0000 </r>
       <r>    8.8480    1.0000 </r>
       <r>   11.0345    1.0000 </r>
       <r>   15.3028    0.0000 </r>
       <r>   17.5788    0.0000 </r>
       <r>   19.9483    0.0000 </r>
       <r>   22.0599    0.0000 </r>
      </set>
      <set comment="kpoint 3">
       <r>    2.7701    1.0000 </r>
       <r>    5.1283    1.0000 </r>
       <r>    9.5965    1.0000 </r>
       <r>   11.6160    1.0000 </r>
       <r>   12.6460    1.0000 </r>
       <r>   14.1535    0.0000 </r>
       <r>   15.0202    0.0000 </r>
       <r>   20.9104    0.0000 </r>
      </set>
      <set comment="kpoint 4">
       <r>    0.8257    1.0000 </r>
       <r>    7.3845    1.0000 </r>
       <r>    8.1234    1.0000 </r>
       <r>   10.5047    1.0000 </r>
       <r>   14.2584    0.0000 </r>
       <r>   15.0071    0.0000 </r>
       <r>   17.2569    0.0000 </r>
       <r>   21.2829    0.0000 </r>
      </set>
      <set comment="kpoint 5">
       <r>   -1.9520    1.0000 </r>
       <r>    5.0370    1.0000 </r>
       <r>    7.7850    1.0000 </r>
       <r>   14.2884    0.0000 </r>
       <r>   16.4221    0.0000 </r>
       <r>   20.6948    0.0000 </r>
       <r>   22.4462    0.0000 </r>
       <r>   23.2825    0.0000 </r>
      </set>
      <set comment="kpoint 6">
       <r>   -3.1567    1.0000 </r>
       <r>    3.8839    1.0000 </r>
       <r>    6.6546    1.0000 </r>
       <r>   19.5461    0.0000 </r>
       <r>   20.8103    0.0000 </r>
       <r>   22.8168    0.0000 </r>
       <r>   25.1308    0.0000 </r>
       <r>   25.5934    0.0000 </r>
      </set>
      <set comment="kpoint 7">
       <r>    2.0025    1.0000 </r>
       <r>    8.2660    1.0000 </r>
       <r>    9.1811    1.0000 </r>
       <r>    9.2857    1.0000 </r>
       <r>   11.6884    1.0000 </r>
       <r>   15.3095    0.0000 </r>
       <r>   16.1499    0.0000 </r>
       <r>   18.4366    0.0000 </r>
      </set>
      <set comment="kpoint 8">
       <r>    3.9326    1.0000 </r>
       <r>    6.2553    1.0000 </r>
       <r>    8.5457    1.0000 </r>
       <r>   10.7900    1.0000 </r>
       <r>   12.6953    1.0000 </r>
       <r>   13.7576    0.0000 </r>
       <r>   15.2245    0.0000 </r>
       <r>   16.5860    0.0000 </r>
      </set>
      <set comment="kpoint 9">
       <r>    0.4323    1.0000 </r>
       <r>    7.2744    1.0000 </r>
       <r>    9.4461    1.0000 </r>
       <r>   10.3913    1.0000 </r>
       <r>   12.1189    1.0000 </r>
       <r>   16.4401    0.0000 </r>
       <r>   18.2951    0.0000 </r>
       <r>   19.6951    0.0000 </r>
      </set>
      <set comment="kpoint 10">
       <r>   -1.5524    1.0000 </r>
       <r>    5.4179    1.0000 </r>
       <r>    8.1507    1.0000 </r>
       <r>   12.4713    1.0000 </r>
       <r>   18.0677    0.0000 </r>
       <r>   18.8567    0.0000 </r>
       <r>   20.3436    0.0000 </r>
       <r>   21.5747    0.0000 </r>
      </set>
      <set comment="kpoint 11">
       <r>    4.1145    1.0000 </r>
       <r>    4.5675    1.0000 </r>
       <r>   10.5738    1.0000 </r>
       <r>   11.3617    1.0000 </r>
       <r>   11.3922    1.0000 </r>
       <r>   13.9749    0.0000 </r>
       <r>   14.2427    0.0000 </r>
       <r>   18.2785    0.0000 </r>
      </set>
      <set comment="kpoint 12">
       <r>    1.6087    1.0000 </r>
       <r>    6.2349    1.0000 </r>
       <r>    8.5321    1.0000 </r>
       <r>   11.1510    1.0000 </r>
       <r>   13.2283    0.0055 </r>
       <r>   15.7108    0.0000 </r>
       <r>   16.6854    0.0000 </r>
       <r>   19.1177    0.0000 </r>
      </set>
      <set comment="kpoint 13">
       <r>   -2.2770    1.0000 </r>
       <r>    1.9619    1.0000 </r>
       <r>   10.1701    1.0000 </r>
       <r>   18.1245    0.0000 </r>
       <r>   18.3268    0.0000 </r>
       <r>   21.5843    0.0000 </r>
       <r>   22.0367    0.0000 </r>
       <r>   22.3905    0.0000 </r>
      </set>
      <set comment="kpoint 14">
       <r>   -0.2837    1.0000 </r>
       <r>    3.9043    1.0000 </r>
       <r>   11.1412    1.0000 </r>
       <r>   12.2034    1.0000 </r>
       <r>   15.2002    0.0000 </r>
       <r>   16.0346    0.0000 </r>
       <r>   19.6658    0.0000 </r>
       <r>   22.3365    0.0000 </r>
      </set>
      <set comment="kpoint 15">
       <r>    3.2308    1.0000 </r>
       <r>    5.5454    1.0000 </r>
       <r>    7.4495    1.0000 </r>
       <r>    9.6986    1.0000 </r>
       <r>   14.4914    0.0000 </r>
       <r>   15.6438    0.0000 </r>
       <r>   17.4781    0.0000 </r>
       <r>   19.0943    0.0000 </r>
      </set>
      <set comment="kpoint 16">
       <r>    1.2933    1.0000 </r>
       <r>    5.4186    1.0000 </r>
       <r>    8.3325    1.0000 </r>
       <r>   12.1464    1.0000 </r>
       <r>   13.6928    0.0000 </r>
       <r>   15.2135    0.0000 </r>
       <r>   18.8092    0.0000 </r>
       <r>   20.4716    0.0000 </r>
      </set>
      <set comment="kpoint 17">
       <r>   -1.4769    1.0000 </r>
       <r>    2.7426    1.0000 </r>
       <r>   10.8802    1.0000 </r>
       <r>   14.7205    0.0000 </r>
       <r>   16.8041    0.0000 </r>
       <r>   18.6638    0.0000 </r>
       <r>   20.7639    0.0000 </r>
       <r>   22.2913    0.0000 </r>
      </set>
      <set comment="kpoint 18">
       <r>   -2.6784    1.0000 </r>
       <r>    1.5699    1.0000 </r>
       <r>    9.8041    1.0000 </r>
       <r>   19.8715    0.0000 </r>
       <r>   21.2154    0.0000 </r>
       <r>   21.2766    0.0000 </r>
       <r>   23.5269    0.0000 </r>
       <r>   23.9954    0.0000 </r>
      </set>
      <set comment="kpoint 19">
       <r>    2.4664    1.0000 </r>
       <r>    6.5288    1.0000 </r>
       <r>    9.3161    1.0000 </r>
       <r>    9.6150    1.0000 </r>
       <r>   13.2386    0.0036 </r>
       <r>   13.3133    0.0001 </r>
       <r>   15.4535    0.0000 </r>
       <r>   21.0825    0.0000 </r>
      </set>
      <set comment="kpoint 20">
       <r>    4.3879    1.0000 </r>
       <r>    6.6564    1.0000 </r>
       <r>    8.4219    1.0000 </r>
       <r>    9.2408    1.0000 </r>
       <r>   10.8973    1.0000 </r>
       <r>   13.0382    0.5579 </r>
       <r>   16.9059    0.0000 </r>
       <r>   19.0413    0.0000 </r>
      </set>
      <set comment="kpoint 21">
       <r>    0.9011    1.0000 </r>
       <r>    5.0513    1.0000 </r>
       <r>   10.1635    1.0000 </r>
       <r>   12.3195    1.0000 </r>
       <r>   13.0505    0.4889 </r>
       <r>   14.5878    0.0000 </r>
       <r>   16.6716    0.0000 </r>
       <r>   21.9969    0.0000 </r>
      </set>
      <set comment="kpoint 22">
       <r>   -1.0782    1.0000 </r>
       <r>    3.1312    1.0000 </r>
       <r>   11.1834    1.0000 </r>
       <r>   12.9591    0.8970 </r>
       <r>   16.8303    0.0000 </r>
       <r>   18.4780    0.0000 </r>
       <r>   20.5575    0.0000 </r>
       <r>   22.1679    0.0000 </r>
      </set>
      <set comment="kpoint 23">
       <r>    4.5686    1.0000 </r>
       <r>    5.0112    1.0000 </r>
       <r>    8.6825    1.0000 </r>
       <r>    9.1665    1.0000 </r>
       <r>   11.7678    1.0000 </r>
       <r>   15.3185    0.0000 </r>
       <r>   16.9848    0.0000 </r>
       <r>   17.8098    0.0000 </r>
      </set>
      <set comment="kpoint 24">
       <r>    2.0739    1.0000 </r>
       <r>    6.0396    1.0000 </r>
       <r>    6.9636    1.0000 </r>
       <r>   10.7870    1.0000 </r>
       <r>   14.4092    0.0000 </r>
       <r>   17.0962    0.0000 </r>
       <r>   18.4226    0.0000 </r>
       <r>   19.6393    0.0000 </r>
      </set>
      <set comment="kpoint 25">
       <r>   -1.3264    1.0000 </r>
       <r>    0.0903    1.0000 </r>
       <r>   13.6728    0.0000 </r>
       <r>   17.3467    0.0000 </r>
       <r>   18.9323    0.0000 </r>
       <r>   19.4912    0.0000 </r>
       <r>   20.3684    0.0000 </r>
       <r>   20.7779    0.0000 </r>
      </set>
      <set comment="kpoint 26">
       <r>    0.6565    1.0000 </r>
       <r>    2.0568    1.0000 </r>
       <r>   12.1714    1.0000 </r>
       <r>   13.4136    0.0000 </r>
       <r>   15.5602    0.0000 </r>
       <r>   16.6778    0.0000 </r>
       <r>   18.1229    0.0000 </r>
       <r>   19.6869    0.0000 </r>
      </set>
      <set comment="kpoint 27">
       <r>    4.1422    1.0000 </r>
       <r>    5.4303    1.0000 </r>
       <r>    6.6664    1.0000 </r>
       <r>    7.9347    1.0000 </r>
       <r>   15.4863    0.0000 </r>
       <r>   16.6678    0.0000 </r>
       <r>   19.0982    0.0000 </r>
       <r>   20.9851    0.0000 </r>
      </set>
      <set comment="kpoint 28">
       <r>    2.2242    1.0000 </r>
       <r>    3.6077    1.0000 </r>
       <r>    9.2144    1.0000 </r>
       <r>   10.5352    1.0000 </r>
       <r>   15.7704    0.0000 </r>
       <r>   16.6523    0.0000 </r>
       <r>   17.8680    0.0000 </r>
       <r>   20.8031    0.0000 </r>
      </set>
      <set comment="kpoint 29">
       <r>   -0.5304    1.0000 </r>
       <r>    0.8799    1.0000 </r>
       <r>   14.2314    0.0000 </r>
       <r>   15.5476    0.0000 </r>
       <r>   16.8573    0.0000 </r>
       <r>   17.4538    0.0000 </r>
       <r>   18.8524    0.0000 </r>
       <r>   19.3195    0.0000 </r>
      </set>
      <set comment="kpoint 30">
       <r>   -1.7258    1.0000 </r>
       <r>   -0.3060    1.0000 </r>
       <r>   13.3355    0.0000 </r>
       <r>   17.1694    0.0000 </r>
       <r>   20.8646    0.0000 </r>
       <r>   22.0251    0.0000 </r>
       <r>   22.0576    0.0000 </r>
       <r>   23.2367    0.0000 </r>
      </set>
      <set comment="kpoint 31">
       <r>    3.3891    1.0000 </r>
       <r>    4.7569    1.0000 </r>
       <r>   10.1392    1.0000 </r>
       <r>   10.4212    1.0000 </r>
       <r>   11.6542    1.0000 </r>
       <r>   11.9016    1.0000 </r>
       <r>   18.4725    0.0000 </r>
       <r>   21.9046    0.0000 </r>
      </set>
      <set comment="kpoint 32">
       <r>    5.2852    1.0000 </r>
       <r>    6.5295    1.0000 </r>
       <r>    7.8139    1.0000 </r>
       <r>    8.9844    1.0000 </r>
       <r>   10.1440    1.0000 </r>
       <r>   11.3769    1.0000 </r>
       <r>   20.1505    0.0000 </r>
       <r>   22.0201    0.0000 </r>
      </set>
      <set comment="kpoint 33">
       <r>    1.8345    1.0000 </r>
       <r>    3.2235    1.0000 </r>
       <r>   11.0596    1.0000 </r>
       <r>   12.2964    1.0000 </r>
       <r>   13.4090    0.0000 </r>
       <r>   14.5514    0.0000 </r>
       <r>   17.2016    0.0000 </r>
       <r>   20.7031    0.0000 </r>
      </set>
      <set comment="kpoint 34">
       <r>   -0.1338    1.0000 </r>
       <r>    1.2733    1.0000 </r>
       <r>   13.5559    0.0000 </r>
       <r>   14.4475    0.0000 </r>
       <r>   15.5646    0.0000 </r>
       <r>   18.6062    0.0000 </r>
       <r>   19.2991    0.0000 </r>
       <r>   20.5307    0.0000 </r>
      </set>
      <set comment="kpoint 35">
       <r>    5.4434    1.0000 </r>
       <r>    5.8252    1.0000 </r>
       <r>    7.0248    1.0000 </r>
       <r>    7.4099    1.0000 </r>
       <r>   12.6363    1.0000 </r>
       <r>   13.9118    0.0000 </r>
       <r>   20.2209    0.0000 </r>
       <r>   20.7785    0.0000 </r>
      </set>
      <set comment="kpoint 36">
       <r>    2.9987    1.0000 </r>
       <r>    4.3664    1.0000 </r>
       <r>    7.7195    1.0000 </r>
       <r>    9.0489    1.0000 </r>
       <r>   17.6409    0.0000 </r>
       <r>   17.9188    0.0000 </r>
       <r>   19.1542    0.0000 </r>
       <r>   19.7231    0.0000 </r>
      </set>
     </set>
    </set>
   </array>
  </eigenvalues>
  <separator name="orbital magnetization" >
   <v name="MAGDIPOLOUT">      0.00000000      0.00000000      0.00000000</v>
  </separator>
  <dos>
   <i name="efermi">     13.04853864 </i>
   <total>
    <array>
     <dimension dim="1">gridpoints</dimension>
     <dimension dim="2">spin</dimension>
     <field>energy</field>
     <field>total</field>
     <field>integrated</field>
     <set>
      <set comment="spin 1">
       <r>    -4.5942     0.0000     0.0000 </r>
       <r>    -4.4888     0.0000     0.0000 </r>
       <r>    -4.3834     0.0000     0.0000 </r>
       <r>    -4.2779     0.0000     0.0000 </r>
       <r>    -4.1725     0.0000     0.0000 </r>
       <r>    -4.0671     0.0000     0.0000 </r>
       <r>    -3.9617     0.0000     0.0000 </r>
       <r>    -3.8563     0.0000     0.0000 </r>
       <r>    -3.7509     0.0000     0.0000 </r>
       <r>    -3.6454     0.0000     0.0000 </r>
       <r>    -3.5400     0.0000     0.0000 </r>
       <r>    -3.4346     0.0000     0.0000 </r>
       <r>    -3.3292     0.0026     0.0003 </r>
       <r>    -3.2238     0.0576     0.0063 </r>
       <r>    -3.1184     0.1879     0.0262 </r>
       <r>    -3.0129     0.0959     0.0363 </r>
       <r>    -2.9075     0.0128     0.0376 </r>
       <r>    -2.8021     0.0962     0.0478 </r>
       <r>    -2.6967     0.3166     0.0811 </r>
       <r>    -2.5913     0.2425     0.1067 </r>
       <r>    -2.4859     0.0413     0.1110 </r>
       <r>    -2.3804     0.0258     0.1138 </r>
       <r>    -2.2750     0.1544     0.1300 </r>
       <r>    -2.1696     0.1498     0.1458 </r>
       <r>    -2.0642     0.0610     0.1523 </r>
       <r>    -1.9588     0.2857     0.1824 </r>
       <r>    -1.8534     0.3331     0.2175 </r>
       <r>    -1.7479     0.1768     0.2361 </r>
       <r>    -1.6425     0.2195     0.2593 </r>
       <r>    -1.5371     0.3433     0.2955 </r>
       <r>    -1.4317     0.5355     0.3519 </r>
       <r>    -1.3263     0.3391     0.3877 </r>
       <r>    -1.2209     0.1710     0.4057 </r>
       <r>    -1.1154     0.1209     0.4184 </r>
       <r>    -1.0100     0.1880     0.4383 </r>
       <r>    -0.9046     0.0686     0.4455 </r>
       <r>    -0.7992     0.1794     0.4644 </r>
       <r>    -0.6938     0.3868     0.5052 </r>
       <r>    -0.5883     0.2652     0.5331 </r>
       <r>    -0.4829     0.3915     0.5744 </r>
       <r>    -0.3775     0.2815     0.6041 </r>
       <r>    -0.2721     0.5373     0.6607 </r>
       <r>    -0.1667     0.4776     0.7111 </r>
       <r>    -0.0613     0.2329     0.7356 </r>
       <r>     0.0442     0.1368     0.7500 </r>
       <r>     0.1496     0.1925     0.7703 </r>
       <r>     0.2550     0.0713     0.7779 </r>
       <r>     0.3604     0.1078     0.7892 </r>
       <r>     0.4658     0.3732     0.8286 </r>
       <r>     0.5712     0.2837     0.8585 </r>
       <r>     0.6767     0.3815     0.8987 </r>
       <r>     0.7821     0.5115     0.9526 </r>
       <r>     0.8875     0.9938     1.0574 </r>
       <r>     0.9929     0.7478     1.1362 </r>
       <r>     1.0983     0.1150     1.1483 </r>
       <r>     1.2037     0.1274     1.1618 </r>
       <r>     1.3092     0.5282     1.2175 </r>
       <r>     1.4146     0.3642     1.2558 </r>
       <r>     1.5200     0.1531     1.2720 </r>
       <r>     1.6254     0.3643     1.3104 </r>
       <r>     1.7308     0.2492     1.3366 </r>
       <r>     1.8362     0.3437     1.3729 </r>
       <r>     1.9417     0.5337     1.4291 </r>
       <r>     2.0471     0.8037     1.5139 </r>
       <r>     2.1525     0.7402     1.5919 </r>
       <r>     2.2579     0.4841     1.6429 </r>
       <r>     2.3633     0.2333     1.6675 </r>
       <r>     2.4687     0.1719     1.6857 </r>
       <r>     2.5742     0.1568     1.7022 </r>
       <r>     2.6796     0.2153     1.7249 </r>
       <r>     2.7850     0.7193     1.8007 </r>
       <r>     2.8904     0.4633     1.8495 </r>
       <r>     2.9958     0.2018     1.8708 </r>
       <r>     3.1012     0.3166     1.9042 </r>
       <r>     3.2067     0.6996     1.9780 </r>
       <r>     3.3121     0.7965     2.0619 </r>
       <r>     3.4175     0.3432     2.0981 </r>
       <r>     3.5229     0.1940     2.1186 </r>
       <r>     3.6283     0.3612     2.1566 </r>
       <r>     3.7337     0.2579     2.1838 </r>
       <r>     3.8392     0.2962     2.2150 </r>
       <r>     3.9446     0.9057     2.3105 </r>
       <r>     4.0500     0.6480     2.3788 </r>
       <r>     4.1554     0.5944     2.4415 </r>
       <r>     4.2608     0.5473     2.4992 </r>
       <r>     4.3663     0.5964     2.5621 </r>
       <r>     4.4717     0.5941     2.6247 </r>
       <r>     4.5771     0.4328     2.6703 </r>
       <r>     4.6825     0.3312     2.7052 </r>
       <r>     4.7879     0.2208     2.7285 </r>
       <r>     4.8933     0.1477     2.7441 </r>
       <r>     4.9988     0.5107     2.7979 </r>
       <r>     5.1042     1.1628     2.9205 </r>
       <r>     5.2096     0.7542     3.0000 </r>
       <r>     5.3150     0.5878     3.0619 </r>
       <r>     5.4204     1.1047     3.1784 </r>
       <r>     5.5258     1.2201     3.3070 </r>
       <r>     5.6313     0.5187     3.3617 </r>
       <r>     5.7367     0.1168     3.3740 </r>
       <r>     5.8421     0.1751     3.3925 </r>
       <r>     5.9475     0.1613     3.4095 </r>
       <r>     6.0529     0.2167     3.4323 </r>
       <r>     6.1583     0.5011     3.4851 </r>
       <r>     6.2638     0.8626     3.5761 </r>
       <r>     6.3692     0.4707     3.6257 </r>
       <r>     6.4746     0.2757     3.6548 </r>
       <r>     6.5800     0.7935     3.7384 </r>
       <r>     6.6854     1.1314     3.8577 </r>
       <r>     6.7908     0.5929     3.9202 </r>
       <r>     6.8963     0.1348     3.9344 </r>
       <r>     7.0017     0.4113     3.9777 </r>
       <r>     7.1071     0.4651     4.0268 </r>
       <r>     7.2125     0.2343     4.0515 </r>
       <r>     7.3179     0.5545     4.1099 </r>
       <r>     7.4233     0.9491     4.2100 </r>
       <r>     7.5288     0.6970     4.2835 </r>
       <r>     7.6342     0.1735     4.3018 </r>
       <r>     7.7396     0.4511     4.3493 </r>
       <r>     7.8450     0.9413     4.4485 </r>
       <r>     7.9504     0.7059     4.5230 </r>
       <r>     8.0558     0.4300     4.5683 </r>
       <r>     8.1613     0.5998     4.6315 </r>
       <r>     8.2667     0.6114     4.6960 </r>
       <r>     8.3721     0.7283     4.7727 </r>
       <r>     8.4775     0.7798     4.8549 </r>
       <r>     8.5829     0.7513     4.9341 </r>
       <r>     8.6883     0.4489     4.9815 </r>
       <r>     8.7938     0.3136     5.0145 </r>
       <r>     8.8992     0.4860     5.0658 </r>
       <r>     9.0046     0.6007     5.1291 </r>
       <r>     9.1100     0.6421     5.1968 </r>
       <r>     9.2154     1.0851     5.3112 </r>
       <r>     9.3208     1.2169     5.4394 </r>
       <r>     9.4263     0.6462     5.5076 </r>
       <r>     9.5317     0.5499     5.5655 </r>
       <r>     9.6371     0.7638     5.6460 </r>
       <r>     9.7425     0.7516     5.7253 </r>
       <r>     9.8479     0.3915     5.7666 </r>
       <r>     9.9534     0.1057     5.7777 </r>
       <r>    10.0588     0.1948     5.7982 </r>
       <r>    10.1642     0.9792     5.9015 </r>
       <r>    10.2696     0.8579     5.9919 </r>
       <r>    10.3750     0.4849     6.0430 </r>
       <r>    10.4804     0.9463     6.1428 </r>
       <r>    10.5859     1.0463     6.2531 </r>
       <r>    10.6913     0.4724     6.3029 </r>
       <r>    10.7967     0.6480     6.3712 </r>
       <r>    10.9021     1.1239     6.4897 </r>
       <r>    11.0075     0.9962     6.5947 </r>
       <r>    11.1129     1.1827     6.7193 </r>
       <r>    11.2184     0.9979     6.8245 </r>
       <r>    11.3238     0.5661     6.8842 </r>
       <r>    11.4292     0.7746     6.9659 </r>
       <r>    11.5346     0.4134     7.0095 </r>
       <r>    11.6400     0.6018     7.0729 </r>
       <r>    11.7454     0.7187     7.1487 </r>
       <r>    11.8509     0.3823     7.1890 </r>
       <r>    11.9563     0.2479     7.2151 </r>
       <r>    12.0617     0.3502     7.2520 </r>
       <r>    12.1671     1.2606     7.3849 </r>
       <r>    12.2725     1.4991     7.5429 </r>
       <r>    12.3779     0.9693     7.6451 </r>
       <r>    12.4834     0.4077     7.6881 </r>
       <r>    12.5888     0.4127     7.7316 </r>
       <r>    12.6942     0.8897     7.8254 </r>
       <r>    12.7996     0.5437     7.8827 </r>
       <r>    12.9050     0.1705     7.9007 </r>
       <r>    13.0104     0.6026     7.9642 </r>
       <r>    13.1159     0.8526     8.0541 </r>
       <r>    13.2213     0.5420     8.1112 </r>
       <r>    13.3267     0.8077     8.1963 </r>
       <r>    13.4321     1.0768     8.3099 </r>
       <r>    13.5375     0.6808     8.3816 </r>
       <r>    13.6429     0.5297     8.4375 </r>
       <r>    13.7484     0.8849     8.5307 </r>
       <r>    13.8538     0.6035     8.5944 </r>
       <r>    13.9592     0.3917     8.6357 </r>
       <r>    14.0646     0.3374     8.6712 </r>
       <r>    14.1700     0.6681     8.7416 </r>
       <r>    14.2754     1.4473     8.8942 </r>
       <r>    14.3809     1.1155     9.0118 </r>
       <r>    14.4863     0.9472     9.1117 </r>
       <r>    14.5917     1.1760     9.2356 </r>
       <r>    14.6971     0.7776     9.3176 </r>
       <r>    14.8025     0.4151     9.3614 </r>
       <r>    14.9079     0.1786     9.3802 </r>
       <r>    15.0134     0.6128     9.4448 </r>
       <r>    15.1188     0.8058     9.5297 </r>
       <r>    15.2242     1.2461     9.6611 </r>
       <r>    15.3296     1.5410     9.8235 </r>
       <r>    15.4350     0.9484     9.9235 </r>
       <r>    15.5405     1.3096    10.0616 </r>
       <r>    15.6459     1.4318    10.2125 </r>
       <r>    15.7513     0.9211    10.3096 </r>
       <r>    15.8567     0.4946    10.3618 </r>
       <r>    15.9621     0.1880    10.3816 </r>
       <r>    16.0675     0.4139    10.4252 </r>
       <r>    16.1730     0.3856    10.4658 </r>
       <r>    16.2784     0.1585    10.4826 </r>
       <r>    16.3838     0.3472    10.5192 </r>
       <r>    16.4892     0.8348    10.6072 </r>
       <r>    16.5946     1.0521    10.7181 </r>
       <r>    16.7000     2.0034    10.9293 </r>
       <r>    16.8055     1.6351    11.1016 </r>
       <r>    16.9109     1.3189    11.2407 </r>
       <r>    17.0163     0.7652    11.3213 </r>
       <r>    17.1217     0.5274    11.3769 </r>
       <r>    17.2271     0.9086    11.4727 </r>
       <r>    17.3325     0.8517    11.5625 </r>
       <r>    17.4380     0.7534    11.6419 </r>
       <r>    17.5434     0.9886    11.7461 </r>
       <r>    17.6488     0.7948    11.8299 </r>
       <r>    17.7542     0.5598    11.8889 </r>
       <r>    17.8596     0.6643    11.9590 </r>
       <r>    17.9650     0.7672    12.0398 </r>
       <r>    18.0705     0.7020    12.1138 </r>
       <r>    18.1759     0.8272    12.2010 </r>
       <r>    18.2813     0.7716    12.2824 </r>
       <r>    18.3867     0.9407    12.3815 </r>
       <r>    18.4921     0.8997    12.4764 </r>
       <r>    18.5975     0.6462    12.5445 </r>
       <r>    18.7030     0.6378    12.6117 </r>
       <r>    18.8084     0.7915    12.6952 </r>
       <r>    18.9138     1.0494    12.8058 </r>
       <r>    19.0192     0.8854    12.8991 </r>
       <r>    19.1246     1.4038    13.0471 </r>
       <r>    19.2300     0.9755    13.1499 </r>
       <r>    19.3355     0.6447    13.2179 </r>
       <r>    19.4409     0.4638    13.2668 </r>
       <r>    19.5463     0.4751    13.3169 </r>
       <r>    19.6517     1.0868    13.4314 </r>
       <r>    19.7571     1.4578    13.5851 </r>
       <r>    19.8625     0.6379    13.6524 </r>
       <r>    19.9680     0.5372    13.7090 </r>
       <r>    20.0734     0.3768    13.7487 </r>
       <r>    20.1788     0.4864    13.8000 </r>
       <r>    20.2842     0.5208    13.8549 </r>
       <r>    20.3896     0.5437    13.9122 </r>
       <r>    20.4950     0.7312    13.9893 </r>
       <r>    20.6005     0.7568    14.0691 </r>
       <r>    20.7059     1.1384    14.1891 </r>
       <r>    20.8113     1.9419    14.3938 </r>
       <r>    20.9167     1.5084    14.5528 </r>
       <r>    21.0221     0.8936    14.6470 </r>
       <r>    21.1276     0.4834    14.6979 </r>
       <r>    21.2330     0.5219    14.7530 </r>
       <r>    21.3384     0.7048    14.8273 </r>
       <r>    21.4438     0.2414    14.8527 </r>
       <r>    21.5492     0.2269    14.8766 </r>
       <r>    21.6546     0.3662    14.9152 </r>
       <r>    21.7601     0.1053    14.9263 </r>
       <r>    21.8655     0.1405    14.9411 </r>
       <r>    21.9709     0.8193    15.0275 </r>
       <r>    22.0763     1.7308    15.2100 </r>
       <r>    22.1817     1.0085    15.3163 </r>
       <r>    22.2871     0.6840    15.3884 </r>
       <r>    22.3926     1.0162    15.4955 </r>
       <r>    22.4980     0.7262    15.5721 </r>
       <r>    22.6034     0.1855    15.5916 </r>
       <r>    22.7088     0.0315    15.5949 </r>
       <r>    22.8142     0.1484    15.6106 </r>
       <r>    22.9196     0.1551    15.6269 </r>
       <r>    23.0251     0.0256    15.6296 </r>
       <r>    23.1305     0.0345    15.6333 </r>
       <r>    23.2359     0.3188    15.6669 </r>
       <r>    23.3413     0.5354    15.7233 </r>
       <r>    23.4467     0.2028    15.7447 </r>
       <r>    23.5521     0.1875    15.7645 </r>
       <r>    23.6576     0.1366    15.7789 </r>
       <r>    23.7630     0.1587    15.7956 </r>
       <r>    23.8684     0.1822    15.8148 </r>
       <r>    23.9738     0.2696    15.8432 </r>
       <r>    24.0792     0.3522    15.8804 </r>
       <r>    24.1846     0.0978    15.8907 </r>
       <r>    24.2901     0.1439    15.9058 </r>
       <r>    24.3955     0.1614    15.9228 </r>
       <r>    24.5009     0.0285    15.9259 </r>
       <r>    24.6063     0.0007    15.9259 </r>
       <r>    24.7117     0.0000    15.9259 </r>
       <r>    24.8171     0.0000    15.9259 </r>
       <r>    24.9226     0.0006    15.9260 </r>
       <r>    25.0280     0.0250    15.9286 </r>
       <r>    25.1334     0.1551    15.9450 </r>
       <r>    25.2388     0.1483    15.9606 </r>
       <r>    25.3442     0.0219    15.9629 </r>
       <r>    25.4496     0.0078    15.9637 </r>
       <r>    25.5551     0.0959    15.9738 </r>
       <r>    25.6605     0.1879    15.9937 </r>
       <r>    25.7659     0.0576    15.9997 </r>
       <r>    25.8713     0.0026    16.0000 </r>
       <r>    25.9767     0.0000    16.0000 </r>
       <r>    26.0822     0.0000    16.0000 </r>
       <r>    26.1876     0.0000    16.0000 </r>
       <r>    26.2930     0.0000    16.0000 </r>
       <r>    26.3984     0.0000    16.0000 </r>
       <r>    26.5038     0.0000    16.0000 </r>
       <r>    26.6092     0.0000    16.0000 </r>
       <r>    26.7147     0.0000    16.0000 </r>
       <r>    26.8201     0.0000    16.0000 </r>
       <r>    26.9255     0.0000    16.0000 </r>
       <r>    27.0309     0.0000    16.0000 </r>
      </set>
     </set>
    </array>
   </total>
  </dos>
 </calculation>
 <structure name="finalpos" >
  <crystal>
   <varray name="basis" >
    <v>       2.58292675       0.00000000       0.00000000 </v>
    <v>      -1.29146338       2.23688019      -0.00000000 </v>
    <v>      -0.00000000       0.00000000       4.10657009 </v>
   </varray>
   <i name="volume">     23.72652047 </i>
   <varray name="rec_basis" >
    <v>       0.38715771       0.22352561       0.00000000 </v>
    <v>       0.00000000       0.44705121       0.00000000 </v>
    <v>       0.00000000       0.00000000       0.24351222 </v>
   </varray>
  </crystal>
  <varray name="positions" >
   <v>       0.00000000       0.00000000       0.00000000 </v>
   <v>       0.33333333       0.66666667       0.50000000 </v>
  </varray>
 </structure>
</modeling>
