Fe BCC                                  
   2.85000000000000     
    -0.500000    0.500000    0.500000
     0.500000   -0.500000    0.500000
     0.500000    0.500000   -0.500000
   Fe
     1
Direct
  0.000000  0.000000  0.000000
 
   36   36   36
  98.119      96.294      91.034      82.939      72.861      61.744      50.469      39.762      30.159      22.016    
  15.534      10.761      7.5915      5.7567      4.8522      4.4025      4.0938      3.9082      3.8468      3.9082    
  4.0938      4.4025      4.8522      5.7567      7.5915      10.761      15.534      22.016      30.159      39.762    
  50.469      61.744      72.861      82.939      91.034      96.294      96.294      95.690      91.588      84.463    
  75.091      64.387      53.254      42.466      32.613      24.105      17.187      11.956      8.3565      6.1734    
  5.0435      4.5082      4.1647      3.9404      3.8391      3.8594      4.0016      4.2667      4.6507      5.3308    
  6.7645      9.3866      13.515      19.312      26.781      35.775      45.996      56.976      68.060      78.423    
  87.142      93.329      91.034      91.588      88.737      82.817      74.489      64.600      54.034      43.579    
  33.861      25.328      18.265      12.809      8.9481      6.5179      5.2030      4.5776      4.2079      3.9526    
  3.8162      3.7971      3.8947      4.1111      4.4442      4.9444      5.9809      8.0023      11.368      16.296    
  22.848      30.935      40.319      50.605      61.223      71.430      80.361      87.142      82.939      84.463    
  82.817      78.197      71.131      62.365      52.724      42.976      33.758      25.540      18.632      13.201    
  9.2744      6.7302      5.3025      4.6074      4.2191      3.9422      3.7779      3.7244      3.7797      3.9460    
  4.2255      4.6172      5.3177      6.7560      9.3199      13.279      18.755      25.720      33.999      43.271    
  53.053      62.699      71.430      78.423      72.861      75.091      74.489      71.131      65.410      57.951    
  49.489      40.743      32.331      24.724      18.245      13.081      9.2831      6.7693      5.3183      4.5928    
  4.1960      3.9078      3.7244      3.6436      3.6620      3.7808      4.0044      4.3327      4.8060      5.7467    
  7.5505      10.528      14.860      20.582      27.587      35.623      44.294      53.053      61.223      68.060    
  61.744      64.387      64.600      62.365      57.951      51.857      44.709      37.154      29.765      22.995    
  17.166      12.469      8.9732      6.6239      5.2403      4.5309      4.1391      3.8498      3.6565      3.5567    
  3.5456      3.6226      3.7926      4.0607      4.4248      5.0080      6.1674      8.2367      11.447      15.900    
  21.554      28.233      35.623      43.271      50.605      56.976      50.469      53.254      54.034      52.724    
  49.489      44.709      38.899      32.614      26.367      20.576      15.543      11.457      8.3929      6.3149    
  5.0750      4.4246      4.0516      3.7700      3.5755      3.4652      3.4328      3.4762      3.5987      3.8079    
  4.1081      4.5051      5.1936      6.5031      8.7001      11.943      16.261      21.554      27.587      33.999    
  40.319      45.996      39.762      42.466      43.579      42.976      40.743      37.154      32.614      27.584    
  22.504      17.745      13.580      10.183      7.6277      5.8890      4.8444      4.2830      3.9387      3.6721    
  3.4840      3.3708      3.3254      3.3437      3.4276      3.5841      3.8216      4.1427      4.5691      5.3251    
  6.6891      8.8635      11.943      15.900      20.582      25.720      30.935      35.775      30.159      32.613    
  33.861      33.758      32.331      29.765      26.367      22.504      18.541      14.792      11.495      8.8031    
  6.7803      5.4070      4.5795      4.1189      3.8070      3.5612      3.3854      3.2757      3.2243      3.2261    
  3.2807      3.3939      3.5748      3.8312      4.1632      4.6054      5.3726      6.6891      8.7001      11.447    
  14.860      18.755      22.848      26.781      22.016      24.105      25.328      25.540      24.724      22.995    
  20.576      17.745      14.792      11.974      9.4895      7.4638      5.9503      4.9293      4.3112      3.9438    
  3.6641      3.4430      3.2839      3.1822      3.1305      3.1229      3.1576      3.2381      3.3722      3.5694    
  3.8360      4.1700      4.6054      5.3251      6.5031      8.2367      10.528      13.279      16.296      19.312    
  15.534      17.187      18.265      18.632      18.245      17.166      15.543      13.580      11.495      9.4895    
  7.7182      6.2810      5.2166      4.5035      4.0622      3.7641      3.5175      3.3236      3.1837      3.0932    
  3.0452      3.0337      3.0562      3.1140      3.2130      3.3614      3.5676      3.8360      4.1632      4.5691    
  5.1936      6.1674      7.5505      9.3199      11.368      13.515      10.761      11.956      12.809      13.201    
  13.081      12.469      11.457      10.183      8.8031      7.4638      6.2810      5.3272      4.6266      4.1544    
  3.8394      3.5865      3.3744      3.2087      3.0892      3.0115      2.9696      2.9583      2.9743      3.0180    
  3.0926      3.2046      3.3614      3.5694      3.8312      4.1427      4.5051      5.0080      5.7467      6.7560    
  8.0023      9.3866      7.5915      8.3565      8.9481      9.2744      9.2831      8.9732      8.3929      7.6277    
  6.7803      5.9503      5.2166      4.6266      4.1905      3.8799      3.6334      3.4185      3.2408      3.1030    
  3.0039      2.9396      2.9052      2.8964      2.9102      2.9459      3.0055      3.0926      3.2130      3.3722    
  3.5748      3.8216      4.1081      4.4248      4.8060      5.3177      5.9809      6.7645      5.7567      6.1734    
  6.5179      6.7302      6.7693      6.6239      6.3149      5.8890      5.4070      4.9293      4.5035      4.1544    
  3.8799      3.6498      3.4434      3.2660      3.1213      3.0101      2.9306      2.8795      2.8531      2.8481    
  2.8623      2.8947      2.9459      3.0180      3.1140      3.2381      3.3939      3.5841      3.8079      4.0607    
  4.3327      4.6172      4.9444      5.3308      4.8522      5.0435      5.2030      5.3025      5.3183      5.2403    
  5.0750      4.8444      4.5795      4.3112      4.0622      3.8394      3.6334      3.4434      3.2753      3.1333    
  3.0191      2.9322      2.8708      2.8322      2.8140      2.8138      2.8302      2.8623      2.9102      2.9743    
  3.0562      3.1576      3.2807      3.4276      3.5987      3.7926      4.0044      4.2255      4.4442      4.6507    
  4.4025      4.5082      4.5776      4.6074      4.5928      4.5309      4.4246      4.2830      4.1189      3.9438    
  3.7641      3.5865      3.4185      3.2660      3.1333      3.0230      2.9355      2.8700      2.8249      2.7982    
  2.7882      2.7936      2.8138      2.8481      2.8964      2.9583      3.0337      3.1229      3.2261      3.3437    
  3.4762      3.6226      3.7808      3.9460      4.1111      4.2667      4.0938      4.1647      4.2079      4.2191    
  4.1960      4.1391      4.0516      3.9387      3.8070      3.6641      3.5175      3.3744      3.2408      3.1213    
  3.0191      2.9355      2.8706      2.8234      2.7928      2.7772      2.7759      2.7882      2.8140      2.8531    
  2.9052      2.9696      3.0452      3.1305      3.2243      3.3254      3.4328      3.5456      3.6620      3.7797    
  3.8947      4.0016      3.9082      3.9404      3.9526      3.9422      3.9078      3.8498      3.7700      3.6721    
  3.5612      3.4430      3.3236      3.2087      3.1030      3.0101      2.9322      2.8700      2.8234      2.7917    
  2.7739      2.7691      2.7772      2.7982      2.8322      2.8795      2.9396      3.0115      3.0932      3.1822    
  3.2757      3.3708      3.4652      3.5567      3.6436      3.7244      3.7971      3.8594      3.8468      3.8391    
  3.8162      3.7779      3.7244      3.6565      3.5755      3.4840      3.3854      3.2839      3.1837      3.0892    
  3.0039      2.9306      2.8708      2.8249      2.7928      2.7739      2.7676      2.7739      2.7928      2.8249    
  2.8708      2.9306      3.0039      3.0892      3.1837      3.2839      3.3854      3.4840      3.5755      3.6565    
  3.7244      3.7779      3.8162      3.8391      3.9082      3.8594      3.7971      3.7244      3.6436      3.5567    
  3.4652      3.3708      3.2757      3.1822      3.0932      3.0115      2.9396      2.8795      2.8322      2.7982    
  2.7772      2.7691      2.7739      2.7917      2.8234      2.8700      2.9322      3.0101      3.1030      3.2087    
  3.3236      3.4430      3.5612      3.6721      3.7700      3.8498      3.9078      3.9422      3.9526      3.9404    
  4.0938      4.0016      3.8947      3.7797      3.6620      3.5456      3.4328      3.3254      3.2243      3.1305    
  3.0452      2.9696      2.9052      2.8531      2.8140      2.7882      2.7759      2.7772      2.7928      2.8234    
  2.8706      2.9355      3.0191      3.1213      3.2408      3.3744      3.5175      3.6641      3.8070      3.9387    
  4.0516      4.1391      4.1960      4.2191      4.2079      4.1647      4.4025      4.2667      4.1111      3.9460    
  3.7808      3.6226      3.4762      3.3437      3.2261      3.1229      3.0337      2.9583      2.8964      2.8481    
  2.8138      2.7936      2.7882      2.7982      2.8249      2.8700      2.9355      3.0230      3.1333      3.2660    
  3.4185      3.5865      3.7641      3.9438      4.1189      4.2830      4.4246      4.5309      4.5928      4.6074    
  4.5776      4.5082      4.8522      4.6507      4.4442      4.2255      4.0044      3.7926      3.5987      3.4276    
  3.2807      3.1576      3.0562      2.9743      2.9102      2.8623      2.8302      2.8138      2.8140      2.8322    
  2.8708      2.9322      3.0191      3.1333      3.2753      3.4434      3.6334      3.8394      4.0622      4.3112    
  4.5795      4.8444      5.0750      5.2403      5.3183      5.3025      5.2030      5.0435      5.7567      5.3308    
  4.9444      4.6172      4.3327      4.0607      3.8079      3.5841      3.3939      3.2381      3.1140      3.0180    
  2.9459      2.8947      2.8623      2.8481      2.8531      2.8795      2.9306      3.0101      3.1213      3.2660    
  3.4434      3.6498      3.8799      4.1544      4.5035      4.9293      5.4070      5.8890      6.3149      6.6239    
  6.7693      6.7302      6.5179      6.1734      7.5915      6.7645      5.9809      5.3177      4.8060      4.4248    
  4.1081      3.8216      3.5748      3.3722      3.2130      3.0926      3.0055      2.9459      2.9102      2.8964    
  2.9052      2.9396      3.0039      3.1030      3.2408      3.4185      3.6334      3.8799      4.1905      4.6266    
  5.2166      5.9503      6.7803      7.6277      8.3929      8.9732      9.2831      9.2744      8.9481      8.3565    
  10.761      9.3866      8.0023      6.7560      5.7467      5.0080      4.5051      4.1427      3.8312      3.5694    
  3.3614      3.2046      3.0926      3.0180      2.9743      2.9583      2.9696      3.0115      3.0892      3.2087    
  3.3744      3.5865      3.8394      4.1544      4.6266      5.3272      6.2810      7.4638      8.8031      10.183    
  11.457      12.469      13.081      13.201      12.809      11.956      15.534      13.515      11.368      9.3199    
  7.5505      6.1674      5.1936      4.5691      4.1632      3.8360      3.5676      3.3614      3.2130      3.1140    
  3.0562      3.0337      3.0452      3.0932      3.1837      3.3236      3.5175      3.7641      4.0622      4.5035    
  5.2166      6.2810      7.7182      9.4895      11.495      13.580      15.543      17.166      18.245      18.632    
  18.265      17.187      22.016      19.312      16.296      13.279      10.528      8.2367      6.5031      5.3251    
  4.6054      4.1700      3.8360      3.5694      3.3722      3.2381      3.1576      3.1229      3.1305      3.1822    
  3.2839      3.4430      3.6641      3.9438      4.3112      4.9293      5.9503      7.4638      9.4895      11.974    
  14.792      17.745      20.576      22.995      24.724      25.540      25.328      24.105      30.159      26.781    
  22.848      18.755      14.860      11.447      8.7001      6.6891      5.3726      4.6054      4.1632      3.8312    
  3.5748      3.3939      3.2807      3.2261      3.2243      3.2757      3.3854      3.5612      3.8070      4.1189    
  4.5795      5.4070      6.7803      8.8031      11.495      14.792      18.541      22.504      26.367      29.765    
  32.331      33.758      33.861      32.613      39.762      35.775      30.935      25.720      20.582      15.900    
  11.943      8.8635      6.6891      5.3251      4.5691      4.1427      3.8216      3.5841      3.4276      3.3437    
  3.3254      3.3708      3.4840      3.6721      3.9387      4.2830      4.8444      5.8890      7.6277      10.183    
  13.580      17.745      22.504      27.584      32.614      37.154      40.743      42.976      43.579      42.466    
  50.469      45.996      40.319      33.999      27.587      21.554      16.261      11.943      8.7001      6.5031    
  5.1936      4.5051      4.1081      3.8079      3.5987      3.4762      3.4328      3.4652      3.5755      3.7700    
  4.0516      4.4246      5.0750      6.3149      8.3929      11.457      15.543      20.576      26.367      32.614    
  38.899      44.709      49.489      52.724      54.034      53.254      61.744      56.976      50.605      43.271    
  35.623      28.233      21.554      15.900      11.447      8.2367      6.1674      5.0080      4.4248      4.0607    
  3.7926      3.6226      3.5456      3.5567      3.6565      3.8498      4.1391      4.5309      5.2403      6.6239    
  8.9732      12.469      17.166      22.995      29.765      37.154      44.709      51.857      57.951      62.365    
  64.600      64.387      72.861      68.060      61.223      53.053      44.294      35.623      27.587      20.582    
  14.860      10.528      7.5505      5.7467      4.8060      4.3327      4.0044      3.7808      3.6620      3.6436    
  3.7244      3.9078      4.1960      4.5928      5.3183      6.7693      9.2831      13.081      18.245      24.724    
  32.331      40.743      49.489      57.951      65.410      71.131      74.489      75.091      82.939      78.423    
  71.430      62.699      53.053      43.271      33.999      25.720      18.755      13.279      9.3199      6.7560    
  5.3177      4.6172      4.2255      3.9460      3.7797      3.7244      3.7779      3.9422      4.2191      4.6074    
  5.3025      6.7302      9.2744      13.201      18.632      25.540      33.758      42.976      52.724      62.365    
  71.131      78.197      82.817      84.463      91.034      87.142      80.361      71.430      61.223      50.605    
  40.319      30.935      22.848      16.296      11.368      8.0023      5.9809      4.9444      4.4442      4.1111    
  3.8947      3.7971      3.8162      3.9526      4.2079      4.5776      5.2030      6.5179      8.9481      12.809    
  18.265      25.328      33.861      43.579      54.034      64.600      74.489      82.817      88.737      91.588    
  96.294      93.329      87.142      78.423      68.060      56.976      45.996      35.775      26.781      19.312    
  13.515      9.3866      6.7645      5.3308      4.6507      4.2667      4.0016      3.8594      3.8391      3.9404    
  4.1647      4.5082      5.0435      6.1734      8.3565      11.956      17.187      24.105      32.613      42.466    
  53.254      64.387      75.091      84.463      91.588      95.690      96.294      95.690      91.588      84.463    
  75.091      64.387      53.254      42.466      32.613      24.105      17.187      11.956      8.3565      6.1734    
  5.0435      4.5082      4.1647      3.9404      3.8391      3.8594      4.0016      4.2667      4.6507      5.3308    
  6.7645      9.3866      13.515      19.312      26.781      35.775      45.996      56.976      68.060      78.423    
  87.142      93.329      95.690      96.294      93.329      87.142      78.423      68.060      56.976      45.996    
  35.775      26.781      19.312      13.515      9.3866      6.7645      5.3308      4.6507      4.2667      4.0016    
  3.8594      3.8391      3.9404      4.1647      4.5082      5.0435      6.1734      8.3565      11.956      17.187    
  24.105      32.613      42.466      53.254      64.387      75.091      84.463      91.588      91.588      93.329    
  91.588      86.570      78.848      69.236      58.635      47.888      37.692      28.563      20.842      14.720    
  10.239      7.2865      5.5954      4.7669      4.3401      4.0419      3.8634      3.8043      3.8634      4.0419    
  4.3401      4.7669      5.5954      7.2865      10.239      14.720      20.842      28.563      37.692      47.888    
  58.635      69.236      78.848      86.570      84.463      87.142      86.570      82.817      76.318      67.780    
  58.041      47.926      38.145      29.239      21.587      15.410      10.789      7.6569      5.7940      4.8467    
  4.3785      4.0572      3.8495      3.7564      3.7754      3.9071      4.1542      4.5125      5.0918      6.3017    
  8.5607      12.183      17.339      24.044      32.170      41.439      51.417      61.499      70.924      78.848    
  75.091      78.423      78.848      76.318      71.131      63.868      55.272      46.115      37.087      28.737    
  21.457      15.495      10.957      7.8123      5.8876      4.8757      4.3783      4.0446      3.8168      3.6966    
  3.6806      3.7680      3.9623      4.2652      4.6876      5.4888      7.0845      9.8231      13.929      19.481    
  26.411      34.512      43.426      52.642      61.499      69.236      64.387      68.060      69.236      67.780    
  63.868      57.951      50.659      42.680      34.660      27.130      20.481      14.968      10.717      7.7243    
  5.8532      4.8429      4.3388      4.0032      3.7650      3.6261      3.5822      3.6309      3.7751      4.0199    
  4.3639      4.8801      5.9126      7.8249      10.887      15.239      20.878      27.666      35.323      43.426    
  51.417      58.635      53.254      56.976      58.635      58.041      55.272      50.659      44.709      38.017    
  31.158      24.625      18.793      13.911      10.110      7.4055      5.6909      4.7463      4.2623      3.9343    
  3.6950      3.5462      3.4826      3.5001      3.6002      3.7890      4.0717      4.4481      5.0732      6.2910    
  8.4001      11.594      15.938      21.363      27.666      34.512      41.439      47.888      42.466      45.996    
  47.888      47.926      46.115      42.680      38.017      32.614      26.969      21.519      16.606      12.466    
  9.2247      6.9050      5.4233      4.5950      4.1539      3.8413      3.6091      3.4586      3.3834      3.3782    
  3.4423      3.5814      3.8036      4.1125      4.5195      5.2319      6.5524      8.7138      11.842      15.938    
  20.878      26.411      32.170      37.692      32.613      35.775      37.692      38.145      37.087      34.660    
  31.158      26.969      22.504      18.138      14.172      10.815      8.1814      6.2958      5.0896      4.4068    
  4.0205      3.7295      3.5110      3.3654      3.2860      3.2661      3.3035      3.4019      3.5697      3.8152    
  4.1398      4.5696      5.3217      6.6456      8.7138      11.594      15.239      19.481      24.044      28.563    
  24.105      26.781      28.563      29.239      28.737      27.130      24.625      21.519      18.138      14.792    
  11.732      9.1373      7.1064      5.6585      4.7347      4.2021      3.8697      3.6049      3.4053      3.2699    
  3.1920      3.1645      3.1837      3.2514      3.3745      3.5623      3.8222      4.1533      4.5878      5.3217    
  6.5524      8.4001      10.887      13.929      17.339      20.842      17.187      19.312      20.842      21.587    
  21.457      20.481      18.793      16.606      14.172      11.732      9.4895      7.5892      6.1101      5.0643    
  4.3982      3.9977      3.7100      3.4746      3.2969      3.1753      3.1032      3.0735      3.0819      3.1284    
  3.2178      3.3582      3.5586      3.8245      4.1533      4.5696      5.2319      6.2910      7.8249      9.8231    
  12.183      14.720      11.956      13.515      14.720      15.410      15.495      14.968      13.911      12.466    
  10.815      9.1373      7.5892      6.2810      5.2708      4.5623      4.1051      3.8002      3.5492      3.3449    
  3.1911      3.0853      3.0216      2.9937      2.9969      3.0303      3.0963      3.2012      3.3528      3.5586    
  3.8222      4.1398      4.5195      5.0732      5.9126      7.0845      8.5607      10.239      8.3565      9.3866    
  10.239      10.789      10.957      10.717      10.110      9.2247      8.1814      7.1064      6.1101      5.2708    
  4.6266      4.1720      3.8590      3.6091      3.3946      3.2220      3.0925      3.0033      2.9494      2.9256    
  2.9276      2.9538      3.0052      3.0857      3.2012      3.3582      3.5623      3.8152      4.1125      4.4481    
  4.8801      5.4888      6.3017      7.2865      6.1734      6.7645      7.2865      7.6569      7.8123      7.7243    
  7.4055      6.9050      6.2958      5.6585      5.0643      4.5623      4.1720      3.8799      3.6415      3.4305    
  3.2524      3.1105      3.0045      2.9319      2.8884      2.8699      2.8732      2.8965      2.9398      3.0052    
  3.0963      3.2178      3.3745      3.5697      3.8036      4.0717      4.3639      4.6876      5.0918      5.5954    
  5.0435      5.3308      5.5954      5.7940      5.8876      5.8532      5.6909      5.4233      5.0896      4.7347    
  4.3982      4.1051      3.8590      3.6415      3.4434      3.2705      3.1269      3.0137      2.9298      2.8728    
  2.8397      2.8273      2.8334      2.8566      2.8965      2.9538      3.0303      3.1284      3.2514      3.4019    
  3.5814      3.7890      4.0199      4.2652      4.5125      4.7669      4.5082      4.6507      4.7669      4.8467    
  4.8757      4.8429      4.7463      4.5950      4.4068      4.2021      3.9977      3.8002      3.6091      3.4305    
  3.2705      3.1333      3.0209      2.9334      2.8695      2.8271      2.8039      2.7981      2.8082      2.8334    
  2.8732      2.9276      2.9969      3.0819      3.1837      3.3035      3.4423      3.6002      3.7751      3.9623    
  4.1542      4.3401      4.1647      4.2667      4.3401      4.3785      4.3783      4.3388      4.2623      4.1539    
  4.0205      3.8697      3.7100      3.5492      3.3946      3.2524      3.1269      3.0209      2.9355      2.8702    
  2.8238      2.7946      2.7813      2.7826      2.7981      2.8273      2.8699      2.9256      2.9937      3.0735    
  3.1645      3.2661      3.3782      3.5001      3.6309      3.7680      3.9071      4.0419      3.9404      4.0016    
  4.0419      4.0572      4.0446      4.0032      3.9343      3.8413      3.7295      3.6049      3.4746      3.3449    
  3.2220      3.1105      3.0137      2.9334      2.8702      2.8234      2.7921      2.7752      2.7717      2.7813    
  2.8039      2.8397      2.8884      2.9494      3.0216      3.1032      3.1920      3.2860      3.3834      3.4826    
  3.5822      3.6806      3.7754      3.8634      3.8391      3.8594      3.8634      3.8495      3.8168      3.7650    
  3.6950      3.6091      3.5110      3.4053      3.2969      3.1911      3.0925      3.0045      2.9298      2.8695    
  2.8238      2.7921      2.7739      2.7683      2.7752      2.7946      2.8271      2.8728      2.9319      3.0033    
  3.0853      3.1753      3.2699      3.3654      3.4586      3.5462      3.6261      3.6966      3.7564      3.8043    
  3.8594      3.8391      3.8043      3.7564      3.6966      3.6261      3.5462      3.4586      3.3654      3.2699    
  3.1753      3.0853      3.0033      2.9319      2.8728      2.8271      2.7946      2.7752      2.7683      2.7739    
  2.7921      2.8238      2.8695      2.9298      3.0045      3.0925      3.1911      3.2969      3.4053      3.5110    
  3.6091      3.6950      3.7650      3.8168      3.8495      3.8634      4.0016      3.9404      3.8634      3.7754    
  3.6806      3.5822      3.4826      3.3834      3.2860      3.1920      3.1032      3.0216      2.9494      2.8884    
  2.8397      2.8039      2.7813      2.7717      2.7752      2.7921      2.8234      2.8702      2.9334      3.0137    
  3.1105      3.2220      3.3449      3.4746      3.6049      3.7295      3.8413      3.9343      4.0032      4.0446    
  4.0572      4.0419      4.2667      4.1647      4.0419      3.9071      3.7680      3.6309      3.5001      3.3782    
  3.2661      3.1645      3.0735      2.9937      2.9256      2.8699      2.8273      2.7981      2.7826      2.7813    
  2.7946      2.8238      2.8702      2.9355      3.0209      3.1269      3.2524      3.3946      3.5492      3.7100    
  3.8697      4.0205      4.1539      4.2623      4.3388      4.3783      4.3785      4.3401      4.6507      4.5082    
  4.3401      4.1542      3.9623      3.7751      3.6002      3.4423      3.3035      3.1837      3.0819      2.9969    
  2.9276      2.8732      2.8334      2.8082      2.7981      2.8039      2.8271      2.8695      2.9334      3.0209    
  3.1333      3.2705      3.4305      3.6091      3.8002      3.9977      4.2021      4.4068      4.5950      4.7463    
  4.8429      4.8757      4.8467      4.7669      5.3308      5.0435      4.7669      4.5125      4.2652      4.0199    
  3.7890      3.5814      3.4019      3.2514      3.1284      3.0303      2.9538      2.8965      2.8566      2.8334    
  2.8273      2.8397      2.8728      2.9298      3.0137      3.1269      3.2705      3.4434      3.6415      3.8590    
  4.1051      4.3982      4.7347      5.0896      5.4233      5.6909      5.8532      5.8876      5.7940      5.5954    
  6.7645      6.1734      5.5954      5.0918      4.6876      4.3639      4.0717      3.8036      3.5697      3.3745    
  3.2178      3.0963      3.0052      2.9398      2.8965      2.8732      2.8699      2.8884      2.9319      3.0045    
  3.1105      3.2524      3.4305      3.6415      3.8799      4.1720      4.5623      5.0643      5.6585      6.2958    
  6.9050      7.4055      7.7243      7.8123      7.6569      7.2865      9.3866      8.3565      7.2865      6.3017    
  5.4888      4.8801      4.4481      4.1125      3.8152      3.5623      3.3582      3.2012      3.0857      3.0052    
  2.9538      2.9276      2.9256      2.9494      3.0033      3.0925      3.2220      3.3946      3.6091      3.8590    
  4.1720      4.6266      5.2708      6.1101      7.1064      8.1814      9.2247      10.110      10.717      10.957    
  10.789      10.239      13.515      11.956      10.239      8.5607      7.0845      5.9126      5.0732      4.5195    
  4.1398      3.8222      3.5586      3.3528      3.2012      3.0963      3.0303      2.9969      2.9937      3.0216    
  3.0853      3.1911      3.3449      3.5492      3.8002      4.1051      4.5623      5.2708      6.2810      7.5892    
  9.1373      10.815      12.466      13.911      14.968      15.495      15.410      14.720      19.312      17.187    
  14.720      12.183      9.8231      7.8249      6.2910      5.2319      4.5696      4.1533      3.8245      3.5586    
  3.3582      3.2178      3.1284      3.0819      3.0735      3.1032      3.1753      3.2969      3.4746      3.7100    
  3.9977      4.3982      5.0643      6.1101      7.5892      9.4895      11.732      14.172      16.606      18.793    
  20.481      21.457      21.587      20.842      26.781      24.105      20.842      17.339      13.929      10.887    
  8.4001      6.5524      5.3217      4.5878      4.1533      3.8222      3.5623      3.3745      3.2514      3.1837    
  3.1645      3.1920      3.2699      3.4053      3.6049      3.8697      4.2021      4.7347      5.6585      7.1064    
  9.1373      11.732      14.792      18.138      21.519      24.625      27.130      28.737      29.239      28.563    
  35.775      32.613      28.563      24.044      19.481      15.239      11.594      8.7138      6.6456      5.3217    
  4.5696      4.1398      3.8152      3.5697      3.4019      3.3035      3.2661      3.2860      3.3654      3.5110    
  3.7295      4.0205      4.4068      5.0896      6.2958      8.1814      10.815      14.172      18.138      22.504    
  26.969      31.158      34.660      37.087      38.145      37.692      45.996      42.466      37.692      32.170    
  26.411      20.878      15.938      11.842      8.7138      6.5524      5.2319      4.5195      4.1125      3.8036    
  3.5814      3.4423      3.3782      3.3834      3.4586      3.6091      3.8413      4.1539      4.5950      5.4233    
  6.9050      9.2247      12.466      16.606      21.519      26.969      32.614      38.017      42.680      46.115    
  47.926      47.888      56.976      53.254      47.888      41.439      34.512      27.666      21.363      15.938    
  11.594      8.4001      6.2910      5.0732      4.4481      4.0717      3.7890      3.6002      3.5001      3.4826    
  3.5462      3.6950      3.9343      4.2623      4.7463      5.6909      7.4055      10.110      13.911      18.793    
  24.625      31.158      38.017      44.709      50.659      55.272      58.041      58.635      68.060      64.387    