Fe BCC                                  
   2.85000000000000     
    -0.500000    0.500000    0.500000
     0.500000   -0.500000    0.500000
     0.500000    0.500000   -0.500000
   Fe
     1
Direct
  0.000000  0.000000  0.000000
 
   36   36   36
 0.98119088576E+02 0.96293923211E+02 0.91034236664E+02 0.82938922224E+02 0.72861289477E+02
 0.61743927283E+02 0.50468980716E+02 0.39762009495E+02 0.30158878296E+02 0.22016386410E+02
 0.15533884889E+02 0.10761282816E+02 0.75915174895E+01 0.57566541283E+01 0.48521760397E+01
 0.44024639663E+01 0.40938205678E+01 0.39082414313E+01 0.38467748921E+01 0.39082414313E+01
 0.40938205678E+01 0.44024639663E+01 0.48521760397E+01 0.57566541283E+01 0.75915174895E+01
 0.10761282816E+02 0.15533884889E+02 0.22016386410E+02 0.30158878296E+02 0.39762009495E+02
 0.50468980716E+02 0.61743927283E+02 0.72861289477E+02 0.82938922224E+02 0.91034236664E+02
 0.96293923211E+02 0.96293923211E+02 0.95689611712E+02 0.91587678819E+02 0.84463235813E+02
 0.75090523584E+02 0.64386663005E+02 0.53254106837E+02 0.42465933795E+02 0.32613366062E+02
 0.24104830799E+02 0.17186512916E+02 0.11955597182E+02 0.83564953198E+01 0.61733758911E+01
 0.50434854831E+01 0.45082314717E+01 0.41646581382E+01 0.39403828853E+01 0.38391422206E+01
 0.38593714381E+01 0.40015604771E+01 0.42667376220E+01 0.46507480774E+01 0.53308102522E+01
 0.67644598066E+01 0.93866304288E+01 0.13514914684E+02 0.19311761442E+02 0.26780644921E+02
 0.35774803221E+02 0.45995807455E+02 0.56975684959E+02 0.68059928562E+02 0.78422997131E+02
 0.87141880754E+02 0.93328787069E+02 0.91034236664E+02 0.91587678819E+02 0.88736981797E+02
 0.82817050406E+02 0.74488533347E+02 0.64600193325E+02 0.54033937267E+02 0.43578772986E+02
 0.33860845623E+02 0.25328092449E+02 0.18265100357E+02 0.12808622741E+02 0.89481091251E+01
 0.65179228268E+01 0.52029707547E+01 0.45775526726E+01 0.42079195493E+01 0.39525589739E+01
 0.38162008535E+01 0.37970917950E+01 0.38946947841E+01 0.41111272629E+01 0.44441784950E+01
 0.49444083161E+01 0.59809397231E+01 0.80022800889E+01 0.11367906703E+02 0.16296124800E+02
 0.22848408785E+02 0.30935014641E+02 0.40318922082E+02 0.50605020235E+02 0.61222882000E+02
 0.71429653546E+02 0.80361225630E+02 0.87141880754E+02 0.82938922224E+02 0.84463235813E+02
 0.82817050406E+02 0.78196848280E+02 0.71130598707E+02 0.62365226669E+02 0.52723698720E+02
 0.42976345048E+02 0.33758272962E+02 0.25539662630E+02 0.18631757993E+02 0.13201290618E+02
 0.92743500330E+01 0.67302111618E+01 0.53024524473E+01 0.46074454907E+01 0.42190841431E+01
 0.39421786300E+01 0.37779036915E+01 0.37243657673E+01 0.37797148727E+01 0.39460484608E+01
 0.42255181756E+01 0.46172440246E+01 0.53176801182E+01 0.67560401334E+01 0.93198697597E+01
 0.13278966119E+02 0.18755197518E+02 0.25719885770E+02 0.33999301914E+02 0.43271403043E+02
 0.53053383066E+02 0.62698640957E+02 0.71429653546E+02 0.78422997131E+02 0.72861289477E+02
 0.75090523584E+02 0.74488533347E+02 0.71130598707E+02 0.65409592122E+02 0.57951003886E+02
 0.49488986385E+02 0.40743361322E+02 0.32330849437E+02 0.24723559554E+02 0.18244964556E+02
 0.13080511163E+02 0.92831089871E+01 0.67692878288E+01 0.53183404648E+01 0.45928431209E+01
 0.41959845012E+01 0.39078486989E+01 0.37244249365E+01 0.36435913125E+01 0.36620213790E+01
 0.37808188745E+01 0.40043817038E+01 0.43327099897E+01 0.48059695575E+01 0.57466548008E+01
 0.75505248263E+01 0.10528192421E+02 0.14860287727E+02 0.20582371874E+02 0.27586550937E+02
 0.35623006658E+02 0.44294472800E+02 0.53053383066E+02 0.61222882000E+02 0.68059928562E+02
 0.61743927283E+02 0.64386663005E+02 0.64600193325E+02 0.62365226669E+02 0.57951003886E+02
 0.51856562032E+02 0.44709279052E+02 0.37154039843E+02 0.29764794592E+02 0.22995322797E+02
 0.17165948720E+02 0.12468796797E+02 0.89731736044E+01 0.66239118559E+01 0.52402784187E+01
 0.45308948202E+01 0.41391313060E+01 0.38497826609E+01 0.36564604910E+01 0.35566502847E+01
 0.35455530990E+01 0.36226323580E+01 0.37926035658E+01 0.40606908073E+01 0.44247748461E+01
 0.50079611131E+01 0.61673755696E+01 0.82367286481E+01 0.11447482467E+02 0.15899537931E+02
 0.21553754386E+02 0.28233174692E+02 0.35623006658E+02 0.43271403043E+02 0.50605020235E+02
 0.56975684959E+02 0.50468980716E+02 0.53254106837E+02 0.54033937267E+02 0.52723698720E+02
 0.49488986385E+02 0.44709279052E+02 0.38899292068E+02 0.32614194410E+02 0.26366892679E+02
 0.20575555433E+02 0.15543147381E+02 0.11457022479E+02 0.83929125807E+01 0.63148813919E+01
 0.50749710051E+01 0.44245556144E+01 0.40516150207E+01 0.37699733000E+01 0.35755089710E+01
 0.34651621149E+01 0.34328472857E+01 0.34761547186E+01 0.35987137673E+01 0.38078870064E+01
 0.41080681165E+01 0.45050600174E+01 0.51936447023E+01 0.65031225077E+01 0.87000549312E+01
 0.11942683678E+02 0.16261315441E+02 0.21553754386E+02 0.27586550937E+02 0.33999301914E+02
 0.40318922082E+02 0.45995807455E+02 0.39762009495E+02 0.42465933795E+02 0.43578772986E+02
 0.42976345048E+02 0.40743361322E+02 0.37154039843E+02 0.32614194410E+02 0.27583860514E+02
 0.22503948174E+02 0.17744541880E+02 0.13579904146E+02 0.10183059443E+02 0.76276904661E+01
 0.58889884477E+01 0.48444089825E+01 0.42829865434E+01 0.39386630492E+01 0.36720945353E+01
 0.34840354388E+01 0.33708196487E+01 0.33254272468E+01 0.33437381612E+01 0.34275573999E+01
 0.35840514955E+01 0.38216108969E+01 0.41426512572E+01 0.45690856343E+01 0.53251031900E+01
 0.66891230159E+01 0.88634592388E+01 0.11942683678E+02 0.15899537931E+02 0.20582371874E+02
 0.25719885770E+02 0.30935014641E+02 0.35774803221E+02 0.30158878296E+02 0.32613366062E+02
 0.33860845623E+02 0.33758272962E+02 0.32330849437E+02 0.29764794592E+02 0.26366892679E+02
 0.22503948174E+02 0.18540689045E+02 0.14791880678E+02 0.11495418986E+02 0.88031163112E+01
 0.67803168860E+01 0.54069838350E+01 0.45794888292E+01 0.41188802267E+01 0.38069909824E+01
 0.35611568458E+01 0.33854466199E+01 0.32756622113E+01 0.32243214858E+01 0.32260582608E+01
 0.32807371459E+01 0.33939466487E+01 0.35748066080E+01 0.38312164226E+01 0.41632417696E+01
 0.46053516205E+01 0.53726119860E+01 0.66891230159E+01 0.87000549312E+01 0.11447482467E+02
 0.14860287727E+02 0.18755197518E+02 0.22848408785E+02 0.26780644921E+02 0.22016386410E+02
 0.24104830799E+02 0.25328092449E+02 0.25539662630E+02 0.24723559554E+02 0.22995322797E+02
 0.20575555433E+02 0.17744541880E+02 0.14791880678E+02 0.11974388834E+02 0.94895330150E+01
 0.74638109407E+01 0.59502792838E+01 0.49293465780E+01 0.43112495301E+01 0.39437796063E+01
 0.36640883605E+01 0.34429863026E+01 0.32838575016E+01 0.31821731595E+01 0.31305097200E+01
 0.31228856906E+01 0.31575691084E+01 0.32380671884E+01 0.33722209781E+01 0.35693987182E+01
 0.38359957651E+01 0.41700281588E+01 0.46053516205E+01 0.53251031900E+01 0.65031225077E+01
 0.82367286481E+01 0.10528192421E+02 0.13278966119E+02 0.16296124800E+02 0.19311761442E+02
 0.15533884889E+02 0.17186512916E+02 0.18265100357E+02 0.18631757993E+02 0.18244964556E+02
 0.17165948720E+02 0.15543147381E+02 0.13579904146E+02 0.11495418986E+02 0.94895330150E+01
 0.77182257651E+01 0.62809655808E+01 0.52165932143E+01 0.45034678766E+01 0.40621757429E+01
 0.37641106027E+01 0.35175379040E+01 0.33236203567E+01 0.31836887972E+01 0.30931618147E+01
 0.30451583717E+01 0.30337361621E+01 0.30561637481E+01 0.31140073795E+01 0.32129616699E+01
 0.33613871690E+01 0.35675762428E+01 0.38359957651E+01 0.41632417696E+01 0.45690856343E+01
 0.51936447023E+01 0.61673755696E+01 0.75505248263E+01 0.93198697597E+01 0.11367906703E+02
 0.13514914684E+02 0.10761282816E+02 0.11955597182E+02 0.12808622741E+02 0.13201290618E+02
 0.13080511163E+02 0.12468796797E+02 0.11457022479E+02 0.10183059443E+02 0.88031163112E+01
 0.74638109407E+01 0.62809655808E+01 0.53271654749E+01 0.46265980246E+01 0.41544323440E+01
 0.38393525671E+01 0.35865446517E+01 0.33744151589E+01 0.32087144498E+01 0.30891826919E+01
 0.30114723135E+01 0.29696139906E+01 0.29582580963E+01 0.29743284032E+01 0.30179554346E+01
 0.30926415747E+01 0.32046217179E+01 0.33613871690E+01 0.35693987182E+01 0.38312164226E+01
 0.41426512572E+01 0.45050600174E+01 0.50079611131E+01 0.57466548008E+01 0.67560401334E+01
 0.80022800889E+01 0.93866304288E+01 0.75915174895E+01 0.83564953198E+01 0.89481091251E+01
 0.92743500330E+01 0.92831089871E+01 0.89731736044E+01 0.83929125807E+01 0.76276904661E+01
 0.67803168860E+01 0.59502792838E+01 0.52165932143E+01 0.46265980246E+01 0.41904521257E+01
 0.38798719030E+01 0.36334199941E+01 0.34184729432E+01 0.32407854280E+01 0.31030403119E+01
 0.30039458823E+01 0.29396232443E+01 0.29052218838E+01 0.28963531957E+01 0.29101557876E+01
 0.29459480140E+01 0.30054620721E+01 0.30926415747E+01 0.32129616699E+01 0.33722209781E+01
 0.35748066080E+01 0.38216108969E+01 0.41080681165E+01 0.44247748461E+01 0.48059695575E+01
 0.53176801182E+01 0.59809397231E+01 0.67644598066E+01 0.57566541283E+01 0.61733758911E+01
 0.65179228268E+01 0.67302111618E+01 0.67692878288E+01 0.66239118559E+01 0.63148813919E+01
 0.58889884477E+01 0.54069838350E+01 0.49293465780E+01 0.45034678766E+01 0.41544323440E+01
 0.38798719030E+01 0.36497701031E+01 0.34433625067E+01 0.32659537398E+01 0.31213192652E+01
 0.30101391030E+01 0.29306205211E+01 0.28795025367E+01 0.28530950193E+01 0.28481250415E+01
 0.28623182761E+01 0.28947409270E+01 0.29459480140E+01 0.30179554346E+01 0.31140073795E+01
 0.32380671884E+01 0.33939466487E+01 0.35840514955E+01 0.38078870064E+01 0.40606908073E+01
 0.43327099897E+01 0.46172440246E+01 0.49444083161E+01 0.53308102522E+01 0.48521760397E+01
 0.50434854831E+01 0.52029707547E+01 0.53024524473E+01 0.53183404648E+01 0.52402784187E+01
 0.50749710051E+01 0.48444089825E+01 0.45794888292E+01 0.43112495301E+01 0.40621757429E+01
 0.38393525671E+01 0.36334199941E+01 0.34433625067E+01 0.32753112839E+01 0.31333160074E+01
 0.30190708754E+01 0.29321738822E+01 0.28707511319E+01 0.28322190647E+01 0.28139609109E+01
 0.28137880687E+01 0.28301727578E+01 0.28623182761E+01 0.29101557876E+01 0.29743284032E+01
 0.30561637481E+01 0.31575691084E+01 0.32807371459E+01 0.34275573999E+01 0.35987137673E+01
 0.37926035658E+01 0.40043817038E+01 0.42255181756E+01 0.44441784950E+01 0.46507480774E+01
 0.44024639663E+01 0.45082314717E+01 0.45775526726E+01 0.46074454907E+01 0.45928431209E+01
 0.45308948202E+01 0.44245556144E+01 0.42829865434E+01 0.41188802267E+01 0.39437796063E+01
 0.37641106027E+01 0.35865446517E+01 0.34184729432E+01 0.32659537398E+01 0.31333160074E+01
 0.30229626831E+01 0.29354725869E+01 0.28700014238E+01 0.28248687780E+01 0.27981573060E+01
 0.27881672885E+01 0.27936442040E+01 0.28137880687E+01 0.28481250415E+01 0.28963531957E+01
 0.29582580963E+01 0.30337361621E+01 0.31228856906E+01 0.32260582608E+01 0.33437381612E+01
 0.34761547186E+01 0.36226323580E+01 0.37808188745E+01 0.39460484608E+01 0.41111272629E+01
 0.42667376220E+01 0.40938205678E+01 0.41646581382E+01 0.42079195493E+01 0.42190841431E+01
 0.41959845012E+01 0.41391313060E+01 0.40516150207E+01 0.39386630492E+01 0.38069909824E+01
 0.36640883605E+01 0.35175379040E+01 0.33744151589E+01 0.32407854280E+01 0.31213192652E+01
 0.30190708754E+01 0.29354725869E+01 0.28705685812E+01 0.28234468990E+01 0.27927626657E+01
 0.27772141137E+01 0.27758525583E+01 0.27881672885E+01 0.28139609109E+01 0.28530950193E+01
 0.29052218838E+01 0.29696139906E+01 0.30451583717E+01 0.31305097200E+01 0.32243214858E+01
 0.33254272468E+01 0.34328472857E+01 0.35455530990E+01 0.36620213790E+01 0.37797148727E+01
 0.38946947841E+01 0.40015604771E+01 0.39082414313E+01 0.39403828853E+01 0.39525589739E+01
 0.39421786300E+01 0.39078486989E+01 0.38497826609E+01 0.37699733000E+01 0.36720945353E+01
 0.35611568458E+01 0.34429863026E+01 0.33236203567E+01 0.32087144498E+01 0.31030403119E+01
 0.30101391030E+01 0.29321738822E+01 0.28700014238E+01 0.28234468990E+01 0.27917190814E+01
 0.27738637665E+01 0.27691386108E+01 0.27772141137E+01 0.27981573060E+01 0.28322190647E+01
 0.28795025367E+01 0.29396232443E+01 0.30114723135E+01 0.30931618147E+01 0.31821731595E+01
 0.32756622113E+01 0.33708196487E+01 0.34651621149E+01 0.35566502847E+01 0.36435913125E+01
 0.37243657673E+01 0.37970917950E+01 0.38593714381E+01 0.38467748921E+01 0.38391422206E+01
 0.38162008535E+01 0.37779036915E+01 0.37244249365E+01 0.36564604910E+01 0.35755089710E+01
 0.34840354388E+01 0.33854466199E+01 0.32838575016E+01 0.31836887972E+01 0.30891826919E+01
 0.30039458823E+01 0.29306205211E+01 0.28707511319E+01 0.28248687780E+01 0.27927626657E+01
 0.27738637665E+01 0.27676355938E+01 0.27738637665E+01 0.27927626657E+01 0.28248687780E+01
 0.28707511319E+01 0.29306205211E+01 0.30039458823E+01 0.30891826919E+01 0.31836887972E+01
 0.32838575016E+01 0.33854466199E+01 0.34840354388E+01 0.35755089710E+01 0.36564604910E+01
 0.37244249365E+01 0.37779036915E+01 0.38162008535E+01 0.38391422206E+01 0.39082414313E+01
 0.38593714381E+01 0.37970917950E+01 0.37243657673E+01 0.36435913125E+01 0.35566502847E+01
 0.34651621149E+01 0.33708196487E+01 0.32756622113E+01 0.31821731595E+01 0.30931618147E+01
 0.30114723135E+01 0.29396232443E+01 0.28795025367E+01 0.28322190647E+01 0.27981573060E+01
 0.27772141137E+01 0.27691386108E+01 0.27738637665E+01 0.27917190814E+01 0.28234468990E+01
 0.28700014238E+01 0.29321738822E+01 0.30101391030E+01 0.31030403119E+01 0.32087144498E+01
 0.33236203567E+01 0.34429863026E+01 0.35611568458E+01 0.36720945353E+01 0.37699733000E+01
 0.38497826609E+01 0.39078486989E+01 0.39421786300E+01 0.39525589739E+01 0.39403828853E+01
 0.40938205678E+01 0.40015604771E+01 0.38946947841E+01 0.37797148727E+01 0.36620213790E+01
 0.35455530990E+01 0.34328472857E+01 0.33254272468E+01 0.32243214858E+01 0.31305097200E+01
 0.30451583717E+01 0.29696139906E+01 0.29052218838E+01 0.28530950193E+01 0.28139609109E+01
 0.27881672885E+01 0.27758525583E+01 0.27772141137E+01 0.27927626657E+01 0.28234468990E+01
 0.28705685812E+01 0.29354725869E+01 0.30190708754E+01 0.31213192652E+01 0.32407854280E+01
 0.33744151589E+01 0.35175379040E+01 0.36640883605E+01 0.38069909824E+01 0.39386630492E+01
 0.40516150207E+01 0.41391313060E+01 0.41959845012E+01 0.42190841431E+01 0.42079195493E+01
 0.41646581382E+01 0.44024639663E+01 0.42667376220E+01 0.41111272629E+01 0.39460484608E+01
 0.37808188745E+01 0.36226323580E+01 0.34761547186E+01 0.33437381612E+01 0.32260582608E+01
 0.31228856906E+01 0.30337361621E+01 0.29582580963E+01 0.28963531957E+01 0.28481250415E+01
 0.28137880687E+01 0.27936442040E+01 0.27881672885E+01 0.27981573060E+01 0.28248687780E+01
 0.28700014238E+01 0.29354725869E+01 0.30229626831E+01 0.31333160074E+01 0.32659537398E+01
 0.34184729432E+01 0.35865446517E+01 0.37641106027E+01 0.39437796063E+01 0.41188802267E+01
 0.42829865434E+01 0.44245556144E+01 0.45308948202E+01 0.45928431209E+01 0.46074454907E+01
 0.45775526726E+01 0.45082314717E+01 0.48521760397E+01 0.46507480774E+01 0.44441784950E+01
 0.42255181756E+01 0.40043817038E+01 0.37926035658E+01 0.35987137673E+01 0.34275573999E+01
 0.32807371459E+01 0.31575691084E+01 0.30561637481E+01 0.29743284032E+01 0.29101557876E+01
 0.28623182761E+01 0.28301727578E+01 0.28137880687E+01 0.28139609109E+01 0.28322190647E+01
 0.28707511319E+01 0.29321738822E+01 0.30190708754E+01 0.31333160074E+01 0.32753112839E+01
 0.34433625067E+01 0.36334199941E+01 0.38393525671E+01 0.40621757429E+01 0.43112495301E+01
 0.45794888292E+01 0.48444089825E+01 0.50749710051E+01 0.52402784187E+01 0.53183404648E+01
 0.53024524473E+01 0.52029707547E+01 0.50434854831E+01 0.57566541283E+01 0.53308102522E+01
 0.49444083161E+01 0.46172440246E+01 0.43327099897E+01 0.40606908073E+01 0.38078870064E+01
 0.35840514955E+01 0.33939466487E+01 0.32380671884E+01 0.31140073795E+01 0.30179554346E+01
 0.29459480140E+01 0.28947409270E+01 0.28623182761E+01 0.28481250415E+01 0.28530950193E+01
 0.28795025367E+01 0.29306205211E+01 0.30101391030E+01 0.31213192652E+01 0.32659537398E+01
 0.34433625067E+01 0.36497701031E+01 0.38798719030E+01 0.41544323440E+01 0.45034678766E+01
 0.49293465780E+01 0.54069838350E+01 0.58889884477E+01 0.63148813919E+01 0.66239118559E+01
 0.67692878288E+01 0.67302111618E+01 0.65179228268E+01 0.61733758911E+01 0.75915174895E+01
 0.67644598066E+01 0.59809397231E+01 0.53176801182E+01 0.48059695575E+01 0.44247748461E+01
 0.41080681165E+01 0.38216108969E+01 0.35748066080E+01 0.33722209781E+01 0.32129616699E+01
 0.30926415747E+01 0.30054620721E+01 0.29459480140E+01 0.29101557876E+01 0.28963531957E+01
 0.29052218838E+01 0.29396232443E+01 0.30039458823E+01 0.31030403119E+01 0.32407854280E+01
 0.34184729432E+01 0.36334199941E+01 0.38798719030E+01 0.41904521257E+01 0.46265980246E+01
 0.52165932143E+01 0.59502792838E+01 0.67803168860E+01 0.76276904661E+01 0.83929125807E+01
 0.89731736044E+01 0.92831089871E+01 0.92743500330E+01 0.89481091251E+01 0.83564953198E+01
 0.10761282816E+02 0.93866304288E+01 0.80022800889E+01 0.67560401334E+01 0.57466548008E+01
 0.50079611131E+01 0.45050600174E+01 0.41426512572E+01 0.38312164226E+01 0.35693987182E+01
 0.33613871690E+01 0.32046217179E+01 0.30926415747E+01 0.30179554346E+01 0.29743284032E+01
 0.29582580963E+01 0.29696139906E+01 0.30114723135E+01 0.30891826919E+01 0.32087144498E+01
 0.33744151589E+01 0.35865446517E+01 0.38393525671E+01 0.41544323440E+01 0.46265980246E+01
 0.53271654749E+01 0.62809655808E+01 0.74638109407E+01 0.88031163112E+01 0.10183059443E+02
 0.11457022479E+02 0.12468796797E+02 0.13080511163E+02 0.13201290618E+02 0.12808622741E+02
 0.11955597182E+02 0.15533884889E+02 0.13514914684E+02 0.11367906703E+02 0.93198697597E+01
 0.75505248263E+01 0.61673755696E+01 0.51936447023E+01 0.45690856343E+01 0.41632417696E+01
 0.38359957651E+01 0.35675762428E+01 0.33613871690E+01 0.32129616699E+01 0.31140073795E+01
 0.30561637481E+01 0.30337361621E+01 0.30451583717E+01 0.30931618147E+01 0.31836887972E+01
 0.33236203567E+01 0.35175379040E+01 0.37641106027E+01 0.40621757429E+01 0.45034678766E+01
 0.52165932143E+01 0.62809655808E+01 0.77182257651E+01 0.94895330150E+01 0.11495418986E+02
 0.13579904146E+02 0.15543147381E+02 0.17165948720E+02 0.18244964556E+02 0.18631757993E+02
 0.18265100357E+02 0.17186512916E+02 0.22016386410E+02 0.19311761442E+02 0.16296124800E+02
 0.13278966119E+02 0.10528192421E+02 0.82367286481E+01 0.65031225077E+01 0.53251031900E+01
 0.46053516205E+01 0.41700281588E+01 0.38359957651E+01 0.35693987182E+01 0.33722209781E+01
 0.32380671884E+01 0.31575691084E+01 0.31228856906E+01 0.31305097200E+01 0.31821731595E+01
 0.32838575016E+01 0.34429863026E+01 0.36640883605E+01 0.39437796063E+01 0.43112495301E+01
 0.49293465780E+01 0.59502792838E+01 0.74638109407E+01 0.94895330150E+01 0.11974388834E+02
 0.14791880678E+02 0.17744541880E+02 0.20575555433E+02 0.22995322797E+02 0.24723559554E+02
 0.25539662630E+02 0.25328092449E+02 0.24104830799E+02 0.30158878296E+02 0.26780644921E+02
 0.22848408785E+02 0.18755197518E+02 0.14860287727E+02 0.11447482467E+02 0.87000549312E+01
 0.66891230159E+01 0.53726119860E+01 0.46053516205E+01 0.41632417696E+01 0.38312164226E+01
 0.35748066080E+01 0.33939466487E+01 0.32807371459E+01 0.32260582608E+01 0.32243214858E+01
 0.32756622113E+01 0.33854466199E+01 0.35611568458E+01 0.38069909824E+01 0.41188802267E+01
 0.45794888292E+01 0.54069838350E+01 0.67803168860E+01 0.88031163112E+01 0.11495418986E+02
 0.14791880678E+02 0.18540689045E+02 0.22503948174E+02 0.26366892679E+02 0.29764794592E+02
 0.32330849437E+02 0.33758272962E+02 0.33860845623E+02 0.32613366062E+02 0.39762009495E+02
 0.35774803221E+02 0.30935014641E+02 0.25719885770E+02 0.20582371874E+02 0.15899537931E+02
 0.11942683678E+02 0.88634592388E+01 0.66891230159E+01 0.53251031900E+01 0.45690856343E+01
 0.41426512572E+01 0.38216108969E+01 0.35840514955E+01 0.34275573999E+01 0.33437381612E+01
 0.33254272468E+01 0.33708196487E+01 0.34840354388E+01 0.36720945353E+01 0.39386630492E+01
 0.42829865434E+01 0.48444089825E+01 0.58889884477E+01 0.76276904661E+01 0.10183059443E+02
 0.13579904146E+02 0.17744541880E+02 0.22503948174E+02 0.27583860514E+02 0.32614194410E+02
 0.37154039843E+02 0.40743361322E+02 0.42976345048E+02 0.43578772986E+02 0.42465933795E+02
 0.50468980716E+02 0.45995807455E+02 0.40318922082E+02 0.33999301914E+02 0.27586550937E+02
 0.21553754386E+02 0.16261315441E+02 0.11942683678E+02 0.87000549312E+01 0.65031225077E+01
 0.51936447023E+01 0.45050600174E+01 0.41080681165E+01 0.38078870064E+01 0.35987137673E+01
 0.34761547186E+01 0.34328472857E+01 0.34651621149E+01 0.35755089710E+01 0.37699733000E+01
 0.40516150207E+01 0.44245556144E+01 0.50749710051E+01 0.63148813919E+01 0.83929125807E+01
 0.11457022479E+02 0.15543147381E+02 0.20575555433E+02 0.26366892679E+02 0.32614194410E+02
 0.38899292068E+02 0.44709279052E+02 0.49488986385E+02 0.52723698720E+02 0.54033937267E+02
 0.53254106837E+02 0.61743927283E+02 0.56975684959E+02 0.50605020235E+02 0.43271403043E+02
 0.35623006658E+02 0.28233174692E+02 0.21553754386E+02 0.15899537931E+02 0.11447482467E+02
 0.82367286481E+01 0.61673755696E+01 0.50079611131E+01 0.44247748461E+01 0.40606908073E+01
 0.37926035658E+01 0.36226323580E+01 0.35455530990E+01 0.35566502847E+01 0.36564604910E+01
 0.38497826609E+01 0.41391313060E+01 0.45308948202E+01 0.52402784187E+01 0.66239118559E+01
 0.89731736044E+01 0.12468796797E+02 0.17165948720E+02 0.22995322797E+02 0.29764794592E+02
 0.37154039843E+02 0.44709279052E+02 0.51856562032E+02 0.57951003886E+02 0.62365226669E+02
 0.64600193325E+02 0.64386663005E+02 0.72861289477E+02 0.68059928562E+02 0.61222882000E+02
 0.53053383066E+02 0.44294472800E+02 0.35623006658E+02 0.27586550937E+02 0.20582371874E+02
 0.14860287727E+02 0.10528192421E+02 0.75505248263E+01 0.57466548008E+01 0.48059695575E+01
 0.43327099897E+01 0.40043817038E+01 0.37808188745E+01 0.36620213790E+01 0.36435913125E+01
 0.37244249365E+01 0.39078486989E+01 0.41959845012E+01 0.45928431209E+01 0.53183404648E+01
 0.67692878288E+01 0.92831089871E+01 0.13080511163E+02 0.18244964556E+02 0.24723559554E+02
 0.32330849437E+02 0.40743361322E+02 0.49488986385E+02 0.57951003886E+02 0.65409592122E+02
 0.71130598707E+02 0.74488533347E+02 0.75090523584E+02 0.82938922224E+02 0.78422997131E+02
 0.71429653546E+02 0.62698640957E+02 0.53053383066E+02 0.43271403043E+02 0.33999301914E+02
 0.25719885770E+02 0.18755197518E+02 0.13278966119E+02 0.93198697597E+01 0.67560401334E+01
 0.53176801182E+01 0.46172440246E+01 0.42255181756E+01 0.39460484608E+01 0.37797148727E+01
 0.37243657673E+01 0.37779036915E+01 0.39421786300E+01 0.42190841431E+01 0.46074454907E+01
 0.53024524473E+01 0.67302111618E+01 0.92743500330E+01 0.13201290618E+02 0.18631757993E+02
 0.25539662630E+02 0.33758272962E+02 0.42976345048E+02 0.52723698720E+02 0.62365226669E+02
 0.71130598707E+02 0.78196848280E+02 0.82817050406E+02 0.84463235813E+02 0.91034236664E+02
 0.87141880754E+02 0.80361225630E+02 0.71429653546E+02 0.61222882000E+02 0.50605020235E+02
 0.40318922082E+02 0.30935014641E+02 0.22848408785E+02 0.16296124800E+02 0.11367906703E+02
 0.80022800889E+01 0.59809397231E+01 0.49444083161E+01 0.44441784950E+01 0.41111272629E+01
 0.38946947841E+01 0.37970917950E+01 0.38162008535E+01 0.39525589739E+01 0.42079195493E+01
 0.45775526726E+01 0.52029707547E+01 0.65179228268E+01 0.89481091251E+01 0.12808622741E+02
 0.18265100357E+02 0.25328092449E+02 0.33860845623E+02 0.43578772986E+02 0.54033937267E+02
 0.64600193325E+02 0.74488533347E+02 0.82817050406E+02 0.88736981797E+02 0.91587678819E+02
 0.96293923211E+02 0.93328787069E+02 0.87141880754E+02 0.78422997131E+02 0.68059928562E+02
 0.56975684959E+02 0.45995807455E+02 0.35774803221E+02 0.26780644921E+02 0.19311761442E+02
 0.13514914684E+02 0.93866304288E+01 0.67644598066E+01 0.53308102522E+01 0.46507480774E+01
 0.42667376220E+01 0.40015604771E+01 0.38593714381E+01 0.38391422206E+01 0.39403828853E+01
 0.41646581382E+01 0.45082314717E+01 0.50434854831E+01 0.61733758911E+01 0.83564953198E+01
 0.11955597182E+02 0.17186512916E+02 0.24104830799E+02 0.32613366062E+02 0.42465933795E+02
 0.53254106837E+02 0.64386663005E+02 0.75090523584E+02 0.84463235813E+02 0.91587678819E+02
 0.95689611712E+02 0.96293923211E+02 0.95689611712E+02 0.91587678819E+02 0.84463235813E+02
 0.75090523584E+02 0.64386663005E+02 0.53254106837E+02 0.42465933795E+02 0.32613366062E+02
 0.24104830799E+02 0.17186512916E+02 0.11955597182E+02 0.83564953198E+01 0.61733758911E+01
 0.50434854831E+01 0.45082314717E+01 0.41646581382E+01 0.39403828853E+01 0.38391422206E+01
 0.38593714381E+01 0.40015604771E+01 0.42667376220E+01 0.46507480774E+01 0.53308102522E+01
 0.67644598066E+01 0.93866304288E+01 0.13514914684E+02 0.19311761442E+02 0.26780644921E+02
 0.35774803221E+02 0.45995807455E+02 0.56975684959E+02 0.68059928562E+02 0.78422997131E+02
 0.87141880754E+02 0.93328787069E+02 0.95689611712E+02 0.96293922906E+02 0.93328786507E+02
 0.87141880047E+02 0.78422996412E+02 0.68059927951E+02 0.56975684526E+02 0.45995807210E+02
 0.35774803125E+02 0.26780644909E+02 0.19311761456E+02 0.13514914690E+02 0.93866304268E+01
 0.67644598144E+01 0.53308102888E+01 0.46507481467E+01 0.42667377073E+01 0.40015605488E+01
 0.38593714688E+01 0.38391422001E+01 0.39403828262E+01 0.41646580702E+01 0.45082314263E+01
 0.50434854783E+01 0.61733759236E+01 0.83564953700E+01 0.11955597229E+02 0.17186512956E+02
 0.24104830856E+02 0.32613366182E+02 0.42465934029E+02 0.53254107212E+02 0.64386663500E+02
 0.75090524125E+02 0.84463236285E+02 0.91587679100E+02 0.91587678819E+02 0.93328786507E+02
 0.91587678325E+02 0.86570299649E+02 0.78848241940E+02 0.69236200289E+02 0.58634817895E+02
 0.47888239433E+02 0.37692379826E+02 0.28562512570E+02 0.20841741314E+02 0.14719642148E+02
 0.10238560933E+02 0.72865446285E+01 0.55954167230E+01 0.47668852231E+01 0.43401420450E+01
 0.40419340548E+01 0.38633542768E+01 0.38043199073E+01 0.38633541933E+01 0.40419339247E+01
 0.43401419229E+01 0.47668851534E+01 0.55954167184E+01 0.72865446670E+01 0.10238560977E+02
 0.14719642175E+02 0.20841741344E+02 0.28562512673E+02 0.37692380100E+02 0.47888239961E+02
 0.58634818697E+02 0.69236201293E+02 0.78848242983E+02 0.86570300517E+02 0.84463235813E+02
 0.87141880047E+02 0.86570299649E+02 0.82817049913E+02 0.76317710627E+02 0.67779830462E+02
 0.58041038001E+02 0.47926413516E+02 0.38144608779E+02 0.29239442557E+02 0.21586792616E+02
 0.15410005701E+02 0.10789135481E+02 0.76568589384E+01 0.57940448835E+01 0.48467244981E+01
 0.43785497959E+01 0.40572343739E+01 0.38495306192E+01 0.37563961358E+01 0.37753506865E+01
 0.39070998562E+01 0.41541780411E+01 0.45124729863E+01 0.50918290433E+01 0.63017385804E+01
 0.85607023874E+01 0.12183133391E+02 0.17338732310E+02 0.24044282482E+02 0.32169907276E+02
 0.41439349654E+02 0.51417410329E+02 0.61498503579E+02 0.70923588010E+02 0.78848242766E+02
 0.75090523584E+02 0.78422996412E+02 0.78848241940E+02 0.76317710627E+02 0.71130598364E+02
 0.63867892800E+02 0.55272499458E+02 0.46115358985E+02 0.37086984172E+02 0.28736714662E+02
 0.21457422168E+02 0.15494705929E+02 0.10956565876E+02 0.78122504389E+01 0.58876140874E+01
 0.48757408562E+01 0.43782733535E+01 0.40446150044E+01 0.38168090819E+01 0.36966268245E+01
 0.36805723165E+01 0.37680016275E+01 0.39623459821E+01 0.42651730726E+01 0.46875662962E+01
 0.54888338734E+01 0.70845450135E+01 0.98231059313E+01 0.13928928890E+02 0.19480639092E+02
 0.26411264755E+02 0.34511788450E+02 0.43425997507E+02 0.52641646069E+02 0.61498503435E+02
 0.69236200959E+02 0.64386663005E+02 0.68059927951E+02 0.69236200289E+02 0.67779830462E+02
 0.63867892800E+02 0.57951003740E+02 0.50658504429E+02 0.42680053932E+02 0.34660007677E+02
 0.27129548836E+02 0.20480798510E+02 0.14968407134E+02 0.10717445684E+02 0.77243200395E+01
 0.58532204975E+01 0.48428792834E+01 0.43387577234E+01 0.40031947956E+01 0.37649670707E+01
 0.36261476966E+01 0.35822426765E+01 0.36309105407E+01 0.37750919174E+01 0.40199071447E+01
 0.43639344264E+01 0.48801343199E+01 0.59125575912E+01 0.78249196479E+01 0.10887046575E+02
 0.15238590350E+02 0.20878432855E+02 0.27666250663E+02 0.35322695705E+02 0.43425997421E+02
 0.51417410122E+02 0.58634818347E+02 0.53254106837E+02 0.56975684526E+02 0.58634817895E+02
 0.58041038001E+02 0.55272499458E+02 0.50658504429E+02 0.44709279064E+02 0.38016806152E+02
 0.31157990186E+02 0.24625146330E+02 0.18792532613E+02 0.13910510389E+02 0.10110233952E+02
 0.74055175833E+01 0.56908638889E+01 0.47462817768E+01 0.42623461033E+01 0.39342936952E+01
 0.36949716852E+01 0.35462264753E+01 0.34826464385E+01 0.35001359571E+01 0.36001795831E+01
 0.37890054606E+01 0.40717434082E+01 0.44480869456E+01 0.50732134779E+01 0.62910328494E+01
 0.84001405300E+01 0.11594261812E+02 0.15938471807E+02 0.21363431323E+02 0.27666250609E+02
 0.34511788326E+02 0.41439349449E+02 0.47888239667E+02 0.42465933795E+02 0.45995807210E+02
 0.47888239433E+02 0.47926413516E+02 0.46115358985E+02 0.42680053932E+02 0.38016806152E+02
 0.32614194503E+02 0.26968820285E+02 0.21518843723E+02 0.16606467800E+02 0.12465987335E+02
 0.92247403137E+01 0.69049553923E+01 0.54232988575E+01 0.45950484671E+01 0.41539395554E+01
 0.38413336632E+01 0.36091328517E+01 0.34585511860E+01 0.33834321363E+01 0.33781554102E+01
 0.34423138569E+01 0.35814281975E+01 0.38036013836E+01 0.41125031882E+01 0.45195337363E+01
 0.52319354411E+01 0.65523829323E+01 0.87137683447E+01 0.11841790392E+02 0.15938471764E+02
 0.20878432767E+02 0.26411264623E+02 0.32169907103E+02 0.37692379891E+02 0.32613366062E+02
 0.35774803125E+02 0.37692379826E+02 0.38144608779E+02 0.37086984172E+02 0.34660007677E+02
 0.31157990186E+02 0.26968820285E+02 0.22503948281E+02 0.18138319325E+02 0.14172111288E+02
 0.10814554968E+02 0.81813535873E+01 0.62958202188E+01 0.50895774602E+01 0.44067976063E+01
 0.40204734911E+01 0.37294539038E+01 0.35110376033E+01 0.33654372751E+01 0.32860261419E+01
 0.32661160616E+01 0.33034697551E+01 0.34018798284E+01 0.35696646396E+01 0.38151583940E+01
 0.41397923253E+01 0.45695911404E+01 0.53216802874E+01 0.66455826959E+01 0.87137683078E+01
 0.11594261736E+02 0.15238590241E+02 0.19480638961E+02 0.24044282343E+02 0.28562512538E+02
 0.24104830799E+02 0.26780644909E+02 0.28562512570E+02 0.29239442557E+02 0.28736714662E+02
 0.27129548836E+02 0.24625146330E+02 0.21518843723E+02 0.18138319325E+02 0.14791880754E+02