   1   1   1   0
  0.1157456E+02  0.2468172E-09  0.2468172E-09  0.2468172E-09  0.5000000E-15
  1.000000000000000E-004
  CAR 
 Fe BCC                                  
     46.43153870     -4.66549486  301      5.56084735      1.00000000
     -4.665  0.0000E+00  0.0000E+00  0.0000E+00  0.0000E+00
     -4.495  0.0000E+00  0.0000E+00  0.0000E+00  0.0000E+00
     -4.325  0.0000E+00  0.0000E+00  0.0000E+00  0.0000E+00
     -4.155  0.0000E+00  0.0000E+00  0.0000E+00  0.0000E+00
     -3.984  0.0000E+00  0.0000E+00  0.0000E+00  0.0000E+00
     -3.814  0.0000E+00  0.0000E+00  0.0000E+00  0.0000E+00
     -3.644  0.0000E+00  0.0000E+00  0.0000E+00  0.0000E+00
     -3.473  0.0000E+00  0.0000E+00  0.0000E+00  0.0000E+00
     -3.303  0.0000E+00  0.0000E+00  0.0000E+00  0.0000E+00
     -3.133  0.0000E+00  0.0000E+00  0.0000E+00  0.0000E+00
     -2.962  0.0000E+00  0.0000E+00  0.0000E+00  0.0000E+00
     -2.792  0.0000E+00  0.0000E+00  0.0000E+00  0.0000E+00
     -2.622  0.0000E+00  0.0000E+00  0.0000E+00  0.0000E+00
     -2.451  0.0000E+00  0.0000E+00  0.0000E+00  0.0000E+00
     -2.281  0.1232E-01  0.0000E+00  0.1334E-02  0.0000E+00
     -2.111  0.1876E-01  0.1443E-01  0.3996E-02  0.2135E-02
     -1.940  0.2417E-01  0.2026E-01  0.7667E-02  0.5103E-02
     -1.770  0.2855E-01  0.2504E-01  0.1217E-01  0.8975E-02
     -1.600  0.3586E-01  0.2927E-01  0.1760E-01  0.1358E-01
     -1.429  0.4264E-01  0.3658E-01  0.2431E-01  0.1921E-01
     -1.259  0.4770E-01  0.4216E-01  0.3203E-01  0.2594E-01
     -1.089  0.4900E-01  0.4601E-01  0.4027E-01  0.3347E-01
     -0.918  0.5464E-01  0.4607E-01  0.4909E-01  0.4121E-01
     -0.748  0.6081E-01  0.5030E-01  0.5891E-01  0.4941E-01
     -0.578  0.6751E-01  0.5481E-01  0.6983E-01  0.5836E-01
     -0.407  0.7474E-01  0.5960E-01  0.8194E-01  0.6810E-01
     -0.237  0.8251E-01  0.6467E-01  0.9532E-01  0.7867E-01
     -0.067  0.9364E-01  0.7001E-01  0.1101E+00  0.9014E-01
      0.104  0.1111E+00  0.7475E-01  0.1276E+00  0.1025E+00
      0.274  0.1299E+00  0.8223E-01  0.1481E+00  0.1159E+00
      0.444  0.1529E+00  0.8949E-01  0.1720E+00  0.1305E+00
      0.615  0.1926E+00  0.9597E-01  0.2012E+00  0.1463E+00
      0.785  0.2451E+00  0.1028E+00  0.2383E+00  0.1632E+00
      0.955  0.4760E+00  0.1117E+00  0.2924E+00  0.1814E+00
      1.126  0.5901E+00  0.1230E+00  0.3821E+00  0.2014E+00
      1.296  0.8208E+00  0.1358E+00  0.5007E+00  0.2234E+00
      1.466  0.1166E+01  0.1501E+00  0.6705E+00  0.2477E+00
      1.636  0.9084E+00  0.1659E+00  0.8491E+00  0.2746E+00
      1.807  0.5733E+00  0.1862E+00  0.9745E+00  0.3044E+00
      1.977  0.4283E+00  0.2527E+00  0.1060E+01  0.3411E+00
      2.147  0.4111E+00  0.3781E+00  0.1122E+01  0.3929E+00
      2.318  0.1624E+01  0.3791E+00  0.1267E+01  0.4592E+00
      2.488  0.1640E+01  0.3939E+00  0.1566E+01  0.5251E+00
      2.658  0.8605E+00  0.3934E+00  0.1786E+01  0.5924E+00
      2.829  0.7908E+00  0.4639E+00  0.1919E+01  0.6615E+00
      2.999  0.1081E+01  0.7055E+00  0.2072E+01  0.7621E+00
      3.169  0.1884E+01  0.6253E+00  0.2312E+01  0.8889E+00
      3.340  0.1107E+01  0.4615E+00  0.2629E+01  0.9819E+00
      3.510  0.5070E+00  0.2260E+00  0.2752E+01  0.1044E+01
      3.680  0.4262E+00  0.1633E+00  0.2830E+01  0.1076E+01
      3.851  0.4183E+00  0.5140E+00  0.2902E+01  0.1121E+01
      4.021  0.7224E+00  0.1183E+01  0.2983E+01  0.1289E+01
      4.191  0.9039E+00  0.1551E+01  0.3106E+01  0.1512E+01
      4.362  0.1628E+01  0.1050E+01  0.3318E+01  0.1761E+01
      4.532  0.2250E+01  0.1152E+01  0.3669E+01  0.1947E+01
      4.702  0.1942E+01  0.1106E+01  0.4075E+01  0.2130E+01
      4.873  0.1349E+01  0.1468E+01  0.4428E+01  0.2347E+01
      5.043  0.1067E+01  0.1272E+01  0.4637E+01  0.2578E+01
      5.213  0.8489E+00  0.8898E+00  0.4792E+01  0.2763E+01
      5.384  0.8108E+00  0.2708E+00  0.4932E+01  0.2857E+01
      5.554  0.1172E+01  0.2084E+00  0.5092E+01  0.2899E+01
      5.724  0.2886E+00  0.1472E+00  0.5212E+01  0.2926E+01
      5.895  0.1511E+00  0.1651E+00  0.5244E+01  0.2952E+01
      6.065  0.1507E+00  0.3026E+00  0.5270E+01  0.2990E+01
      6.235  0.1557E+00  0.3807E+00  0.5296E+01  0.3046E+01
      6.406  0.1736E+00  0.5550E+00  0.5327E+01  0.3124E+01
      6.576  0.1647E+00  0.8161E+00  0.5355E+01  0.3238E+01
      6.746  0.1560E+00  0.1027E+01  0.5383E+01  0.3398E+01
      6.916  0.1513E+00  0.1493E+01  0.5409E+01  0.3620E+01
      7.087  0.1512E+00  0.1647E+01  0.5434E+01  0.3900E+01
      7.257  0.1511E+00  0.1231E+01  0.5460E+01  0.4132E+01
      7.427  0.1510E+00  0.1343E+01  0.5486E+01  0.4348E+01
      7.598  0.1509E+00  0.1545E+01  0.5512E+01  0.4756E+01
      7.768  0.1508E+00  0.1336E+01  0.5537E+01  0.4995E+01
      7.938  0.1501E+00  0.6290E+00  0.5563E+01  0.5192E+01
      8.109  0.1482E+00  0.2982E+00  0.5588E+01  0.5249E+01
      8.279  0.1452E+00  0.2763E+00  0.5613E+01  0.5298E+01
      8.449  0.1489E+00  0.2524E+00  0.5639E+01  0.5343E+01
      8.620  0.1430E+00  0.2220E+00  0.5663E+01  0.5384E+01
      8.790  0.1360E+00  0.2071E+00  0.5687E+01  0.5420E+01
      8.960  0.1558E+00  0.2032E+00  0.5711E+01  0.5455E+01
      9.131  0.1276E+00  0.2006E+00  0.5735E+01  0.5489E+01
      9.301  0.1226E+00  0.1990E+00  0.5756E+01  0.5523E+01
      9.471  0.1177E+00  0.1949E+00  0.5777E+01  0.5557E+01
      9.642  0.1128E+00  0.1880E+00  0.5796E+01  0.5589E+01
      9.812  0.1080E+00  0.1885E+00  0.5815E+01  0.5621E+01
      9.982  0.1033E+00  0.1721E+00  0.5833E+01  0.5652E+01
     10.153  0.9692E-01  0.1629E+00  0.5850E+01  0.5680E+01
     10.323  0.9054E-01  0.1638E+00  0.5866E+01  0.5708E+01
     10.493  0.8424E-01  0.1492E+00  0.5881E+01  0.5736E+01
     10.664  0.7803E-01  0.1421E+00  0.5895E+01  0.5761E+01
     10.834  0.8118E-01  0.1353E+00  0.5908E+01  0.5784E+01
     11.004  0.7445E-01  0.1286E+00  0.5921E+01  0.5807E+01
     11.175  0.6519E-01  0.1222E+00  0.5933E+01  0.5828E+01
     11.345  0.4643E-01  0.1160E+00  0.5943E+01  0.5848E+01
     11.515  0.4277E-01  0.1073E+00  0.5950E+01  0.5867E+01
     11.686  0.3932E-01  0.9865E-01  0.5957E+01  0.5885E+01
     11.856  0.3468E-01  0.9821E-01  0.5965E+01  0.5902E+01
     12.026  0.2705E-01  0.8777E-01  0.5970E+01  0.5918E+01
     12.197  0.2145E-01  0.7507E-01  0.5974E+01  0.5932E+01
     12.367  0.1790E-01  0.5456E-01  0.5978E+01  0.5943E+01
     12.537  0.1648E-01  0.4976E-01  0.5981E+01  0.5952E+01
     12.707  0.1864E-01  0.4526E-01  0.5984E+01  0.5960E+01
     12.878  0.2517E-01  0.3892E-01  0.5987E+01  0.5968E+01
     13.048  0.5463E-01  0.2985E-01  0.5994E+01  0.5974E+01
     13.218  0.8643E-01  0.2317E-01  0.6006E+01  0.5979E+01
     13.389  0.1242E+00  0.1889E-01  0.6024E+01  0.5982E+01
     13.559  0.1826E+00  0.1704E-01  0.6050E+01  0.5985E+01
     13.729  0.2350E+00  0.1812E-01  0.6088E+01  0.5988E+01
     13.900  0.2472E+00  0.2229E-01  0.6129E+01  0.5991E+01
     14.070  0.2579E+00  0.3288E-01  0.6172E+01  0.5997E+01
     14.240  0.2664E+00  0.5149E-01  0.6216E+01  0.6003E+01
     14.411  0.2258E+00  0.9674E-01  0.6260E+01  0.6016E+01
     14.581  0.1835E+00  0.1645E+00  0.6292E+01  0.6038E+01
     14.751  0.1794E+00  0.2296E+00  0.6323E+01  0.6073E+01
     14.922  0.1748E+00  0.2820E+00  0.6353E+01  0.6117E+01
     15.092  0.1703E+00  0.2988E+00  0.6382E+01  0.6167E+01
     15.262  0.1669E+00  0.3080E+00  0.6411E+01  0.6218E+01
     15.433  0.1694E+00  0.2149E+00  0.6440E+01  0.6266E+01
     15.603  0.1774E+00  0.2088E+00  0.6470E+01  0.6302E+01
     15.773  0.1784E+00  0.2021E+00  0.6500E+01  0.6337E+01
     15.944  0.1770E+00  0.2011E+00  0.6530E+01  0.6371E+01
     16.114  0.1669E+00  0.2026E+00  0.6561E+01  0.6406E+01
     16.284  0.1710E+00  0.2200E+00  0.6589E+01  0.6443E+01
     16.455  0.1768E+00  0.1708E+00  0.6619E+01  0.6476E+01
     16.625  0.1837E+00  0.1790E+00  0.6650E+01  0.6506E+01
     16.795  0.1990E+00  0.1822E+00  0.6684E+01  0.6537E+01
     16.966  0.2011E+00  0.1862E+00  0.6718E+01  0.6568E+01
     17.136  0.2034E+00  0.1907E+00  0.6752E+01  0.6600E+01
     17.306  0.2063E+00  0.1967E+00  0.6787E+01  0.6633E+01
     17.477  0.2089E+00  0.2133E+00  0.6822E+01  0.6669E+01
     17.647  0.2101E+00  0.2158E+00  0.6858E+01  0.6705E+01
     17.817  0.2175E+00  0.2179E+00  0.6896E+01  0.6742E+01
     17.988  0.2322E+00  0.2203E+00  0.6935E+01  0.6780E+01
     18.158  0.1932E+00  0.2225E+00  0.6971E+01  0.6817E+01
     18.328  0.1907E+00  0.2302E+00  0.7004E+01  0.6857E+01
     18.498  0.1882E+00  0.2299E+00  0.7036E+01  0.6896E+01
     18.669  0.1858E+00  0.2155E+00  0.7068E+01  0.6936E+01
     18.839  0.1837E+00  0.2022E+00  0.7099E+01  0.6972E+01
     19.009  0.1827E+00  0.1996E+00  0.7130E+01  0.7006E+01
     19.180  0.1813E+00  0.1971E+00  0.7161E+01  0.7040E+01
     19.350  0.1797E+00  0.1946E+00  0.7192E+01  0.7073E+01
     19.520  0.1810E+00  0.1924E+00  0.7224E+01  0.7106E+01
     19.691  0.1771E+00  0.1915E+00  0.7254E+01  0.7139E+01
     19.861  0.1738E+00  0.1902E+00  0.7284E+01  0.7171E+01
     20.031  0.1726E+00  0.1888E+00  0.7313E+01  0.7203E+01
     20.202  0.1704E+00  0.1922E+00  0.7342E+01  0.7236E+01
     20.372  0.1687E+00  0.1843E+00  0.7371E+01  0.7268E+01
     20.542  0.1673E+00  0.1833E+00  0.7400E+01  0.7300E+01
     20.713  0.1659E+00  0.1815E+00  0.7428E+01  0.7331E+01
     20.883  0.1645E+00  0.1793E+00  0.7456E+01  0.7361E+01
     21.053  0.1632E+00  0.1781E+00  0.7484E+01  0.7392E+01
     21.224  0.1619E+00  0.1769E+00  0.7512E+01  0.7422E+01
     21.394  0.1681E+00  0.1757E+00  0.7541E+01  0.7452E+01
     21.564  0.1696E+00  0.1744E+00  0.7570E+01  0.7482E+01
     21.735  0.1727E+00  0.1732E+00  0.7599E+01  0.7512E+01
     21.905  0.1767E+00  0.1721E+00  0.7629E+01  0.7541E+01
     22.075  0.1826E+00  0.1706E+00  0.7659E+01  0.7570E+01
     22.246  0.2086E+00  0.1782E+00  0.7692E+01  0.7601E+01
     22.416  0.2066E+00  0.1816E+00  0.7727E+01  0.7631E+01
     22.586  0.2233E+00  0.1889E+00  0.7764E+01  0.7663E+01
     22.757  0.2346E+00  0.1994E+00  0.7803E+01  0.7696E+01
     22.927  0.2283E+00  0.2246E+00  0.7841E+01  0.7731E+01
     23.097  0.2349E+00  0.2260E+00  0.7881E+01  0.7769E+01
     23.268  0.2410E+00  0.2444E+00  0.7921E+01  0.7810E+01
     23.438  0.2471E+00  0.2417E+00  0.7963E+01  0.7852E+01
     23.608  0.2515E+00  0.2494E+00  0.8006E+01  0.7894E+01
     23.779  0.2598E+00  0.2555E+00  0.8049E+01  0.7937E+01
     23.949  0.2609E+00  0.2612E+00  0.8094E+01  0.7981E+01
     24.119  0.2747E+00  0.2556E+00  0.8140E+01  0.8024E+01
     24.289  0.3112E+00  0.2597E+00  0.8187E+01  0.8068E+01
     24.460  0.2926E+00  0.2724E+00  0.8238E+01  0.8113E+01
     24.630  0.3121E+00  0.2817E+00  0.8289E+01  0.8160E+01
     24.800  0.3068E+00  0.2890E+00  0.8343E+01  0.8210E+01
     24.971  0.3042E+00  0.2997E+00  0.8395E+01  0.8260E+01
     25.141  0.3011E+00  0.3147E+00  0.8446E+01  0.8312E+01
     25.311  0.2897E+00  0.3184E+00  0.8496E+01  0.8368E+01
     25.482  0.2868E+00  0.3144E+00  0.8546E+01  0.8422E+01
     25.652  0.2798E+00  0.3047E+00  0.8594E+01  0.8475E+01
     25.822  0.2716E+00  0.3015E+00  0.8641E+01  0.8527E+01
     25.993  0.2623E+00  0.2915E+00  0.8686E+01  0.8577E+01
     26.163  0.2511E+00  0.2811E+00  0.8730E+01  0.8626E+01
     26.333  0.2373E+00  0.2707E+00  0.8772E+01  0.8673E+01
     26.504  0.2255E+00  0.2587E+00  0.8811E+01  0.8718E+01
     26.674  0.2029E+00  0.2444E+00  0.8848E+01  0.8761E+01
     26.844  0.1756E+00  0.2280E+00  0.8880E+01  0.8801E+01
     27.015  0.1612E+00  0.2128E+00  0.8908E+01  0.8839E+01
     27.185  0.1531E+00  0.1908E+00  0.8936E+01  0.8873E+01
     27.355  0.1533E+00  0.1748E+00  0.8962E+01  0.8904E+01
     27.526  0.1542E+00  0.1653E+00  0.8988E+01  0.8933E+01
     27.696  0.1513E+00  0.1566E+00  0.9014E+01  0.8960E+01
     27.866  0.1567E+00  0.1500E+00  0.9041E+01  0.8986E+01
     28.037  0.1496E+00  0.1517E+00  0.9066E+01  0.9012E+01
     28.207  0.1491E+00  0.1593E+00  0.9092E+01  0.9039E+01
     28.377  0.1486E+00  0.1530E+00  0.9117E+01  0.9065E+01
     28.548  0.1589E+00  0.1522E+00  0.9143E+01  0.9091E+01
     28.718  0.1554E+00  0.1482E+00  0.9170E+01  0.9117E+01
     28.888  0.1469E+00  0.1639E+00  0.9196E+01  0.9143E+01
     29.059  0.1455E+00  0.1523E+00  0.9221E+01  0.9170E+01
     29.229  0.1500E+00  0.1439E+00  0.9246E+01  0.9195E+01
     29.399  0.1561E+00  0.1473E+00  0.9272E+01  0.9220E+01
     29.570  0.1629E+00  0.1509E+00  0.9299E+01  0.9245E+01
     29.740  0.1703E+00  0.1558E+00  0.9327E+01  0.9271E+01
     29.910  0.1784E+00  0.1629E+00  0.9357E+01  0.9299E+01
     30.080  0.2424E+00  0.1667E+00  0.9391E+01  0.9328E+01
     30.251  0.3773E+00  0.1744E+00  0.9448E+01  0.9357E+01
     30.421  0.2728E+00  0.2243E+00  0.9509E+01  0.9390E+01
     30.591  0.2376E+00  0.3257E+00  0.9552E+01  0.9436E+01
     30.762  0.2191E+00  0.2985E+00  0.9591E+01  0.9502E+01
     30.932  0.1992E+00  0.2744E+00  0.9627E+01  0.9550E+01
     31.102  0.1756E+00  0.2473E+00  0.9658E+01  0.9595E+01
     31.273  0.1728E+00  0.2122E+00  0.9688E+01  0.9634E+01
     31.443  0.1732E+00  0.1915E+00  0.9717E+01  0.9669E+01
     31.613  0.1822E+00  0.1930E+00  0.9747E+01  0.9701E+01
     31.784  0.1899E+00  0.1852E+00  0.9780E+01  0.9733E+01
     31.954  0.1829E+00  0.1773E+00  0.9811E+01  0.9764E+01
     32.124  0.1819E+00  0.1749E+00  0.9842E+01  0.9794E+01
     32.295  0.1783E+00  0.1687E+00  0.9873E+01  0.9823E+01
     32.465  0.1732E+00  0.1630E+00  0.9903E+01  0.9852E+01
     32.635  0.1600E+00  0.1576E+00  0.9932E+01  0.9879E+01
     32.806  0.2271E+00  0.1622E+00  0.9965E+01  0.9911E+01
     32.976  0.2467E+00  0.1610E+00  0.1000E+02  0.9939E+01
     33.146  0.2679E+00  0.1520E+00  0.1005E+02  0.9965E+01
     33.317  0.2836E+00  0.2169E+00  0.1010E+02  0.1000E+02
     33.487  0.3060E+00  0.2502E+00  0.1015E+02  0.1004E+02
     33.657  0.3309E+00  0.2888E+00  0.1020E+02  0.1009E+02
     33.828  0.3370E+00  0.3149E+00  0.1026E+02  0.1014E+02
     33.998  0.3267E+00  0.3215E+00  0.1031E+02  0.1020E+02
     34.168  0.3250E+00  0.3316E+00  0.1037E+02  0.1025E+02
     34.339  0.3353E+00  0.3346E+00  0.1043E+02  0.1031E+02
     34.509  0.3294E+00  0.3306E+00  0.1048E+02  0.1036E+02
     34.679  0.3107E+00  0.3332E+00  0.1054E+02  0.1042E+02
     34.850  0.2685E+00  0.3222E+00  0.1059E+02  0.1048E+02
     35.020  0.2519E+00  0.3059E+00  0.1063E+02  0.1053E+02
     35.190  0.2445E+00  0.2830E+00  0.1067E+02  0.1058E+02
     35.361  0.2365E+00  0.2631E+00  0.1072E+02  0.1063E+02
     35.531  0.2246E+00  0.2497E+00  0.1075E+02  0.1067E+02
     35.701  0.2209E+00  0.2428E+00  0.1079E+02  0.1071E+02
     35.871  0.2099E+00  0.2362E+00  0.1083E+02  0.1075E+02
     36.042  0.2079E+00  0.2405E+00  0.1087E+02  0.1079E+02
     36.212  0.2087E+00  0.2443E+00  0.1090E+02  0.1084E+02
     36.382  0.2167E+00  0.2225E+00  0.1094E+02  0.1088E+02
     36.553  0.2337E+00  0.2050E+00  0.1098E+02  0.1091E+02
     36.723  0.2492E+00  0.2109E+00  0.1102E+02  0.1095E+02
     36.893  0.2647E+00  0.2219E+00  0.1106E+02  0.1098E+02
     37.064  0.2773E+00  0.2405E+00  0.1111E+02  0.1102E+02
     37.234  0.2915E+00  0.2573E+00  0.1116E+02  0.1107E+02
     37.404  0.3336E+00  0.2729E+00  0.1121E+02  0.1111E+02
     37.575  0.3490E+00  0.2982E+00  0.1127E+02  0.1116E+02
     37.745  0.3158E+00  0.3103E+00  0.1133E+02  0.1121E+02
     37.915  0.2784E+00  0.3541E+00  0.1138E+02  0.1127E+02
     38.086  0.2397E+00  0.3288E+00  0.1143E+02  0.1133E+02
     38.256  0.2265E+00  0.2954E+00  0.1147E+02  0.1138E+02
     38.426  0.2188E+00  0.2445E+00  0.1150E+02  0.1143E+02
     38.597  0.2111E+00  0.2271E+00  0.1154E+02  0.1147E+02
     38.767  0.2034E+00  0.2193E+00  0.1158E+02  0.1151E+02
     38.937  0.1957E+00  0.2115E+00  0.1161E+02  0.1154E+02
     39.108  0.1879E+00  0.2037E+00  0.1164E+02  0.1158E+02
     39.278  0.1802E+00  0.1905E+00  0.1167E+02  0.1161E+02
     39.448  0.1666E+00  0.1839E+00  0.1170E+02  0.1164E+02
     39.619  0.1723E+00  0.1774E+00  0.1173E+02  0.1168E+02
     39.789  0.1775E+00  0.1710E+00  0.1176E+02  0.1171E+02
     39.959  0.1782E+00  0.1750E+00  0.1179E+02  0.1173E+02
     40.130  0.1745E+00  0.1789E+00  0.1182E+02  0.1176E+02
     40.300  0.1218E+00  0.1803E+00  0.1185E+02  0.1180E+02
     40.470  0.9670E-01  0.1960E+00  0.1187E+02  0.1183E+02
     40.641  0.7674E-01  0.1243E+00  0.1189E+02  0.1186E+02
     40.811  0.6592E-01  0.9246E-01  0.1190E+02  0.1187E+02
     40.981  0.6092E-01  0.7214E-01  0.1191E+02  0.1189E+02
     41.152  0.5693E-01  0.6509E-01  0.1192E+02  0.1190E+02
     41.322  0.5310E-01  0.6093E-01  0.1193E+02  0.1191E+02
     41.492  0.4941E-01  0.5692E-01  0.1194E+02  0.1192E+02
     41.662  0.4589E-01  0.5306E-01  0.1195E+02  0.1193E+02
     41.833  0.4251E-01  0.4935E-01  0.1195E+02  0.1194E+02
     42.003  0.3930E-01  0.4580E-01  0.1196E+02  0.1195E+02
     42.173  0.3624E-01  0.4239E-01  0.1197E+02  0.1195E+02
     42.344  0.3333E-01  0.3914E-01  0.1197E+02  0.1196E+02
     42.514  0.3058E-01  0.3604E-01  0.1198E+02  0.1197E+02
     42.684  0.2340E-01  0.2832E-01  0.1198E+02  0.1198E+02
     42.855  0.2150E-01  0.2607E-01  0.1199E+02  0.1198E+02
     43.025  0.1974E-01  0.2395E-01  0.1199E+02  0.1198E+02
     43.195  0.1272E-01  0.2197E-01  0.1200E+02  0.1199E+02
     43.366  0.4151E-02  0.2081E-01  0.1200E+02  0.1199E+02
     43.536  0.3127E-02  0.1365E-01  0.1200E+02  0.1200E+02
     43.706  0.2697E-02  0.8233E-02  0.1200E+02  0.1200E+02
     43.877  0.2289E-02  0.4558E-02  0.1200E+02  0.1200E+02
     44.047  0.0000E+00  0.2624E-02  0.1200E+02  0.1200E+02
     44.217  0.0000E+00  0.0000E+00  0.1200E+02  0.1200E+02
     44.388  0.0000E+00  0.0000E+00  0.1200E+02  0.1200E+02
     44.558  0.0000E+00  0.0000E+00  0.1200E+02  0.1200E+02
     44.728  0.0000E+00  0.0000E+00  0.1200E+02  0.1200E+02
     44.899  0.0000E+00  0.0000E+00  0.1200E+02  0.1200E+02
     45.069  0.0000E+00  0.0000E+00  0.1200E+02  0.1200E+02
     45.239  0.0000E+00  0.0000E+00  0.1200E+02  0.1200E+02
     45.410  0.0000E+00  0.0000E+00  0.1200E+02  0.1200E+02
     45.580  0.0000E+00  0.0000E+00  0.1200E+02  0.1200E+02
     45.750  0.0000E+00  0.0000E+00  0.1200E+02  0.1200E+02
     45.921  0.0000E+00  0.0000E+00  0.1200E+02  0.1200E+02
     46.091  0.0000E+00  0.0000E+00  0.1200E+02  0.1200E+02
     46.261  0.0000E+00  0.0000E+00  0.1200E+02  0.1200E+02
     46.432  0.0000E+00  0.0000E+00  0.1200E+02  0.1200E+02
     46.43153870     -4.66549486  301      5.56084735      1.00000000
     -4.665  0.0000E+00  0.0000E+00  0.0000E+00  0.0000E+00  0.0000E+00  0.0000E+00  0.0000E+00  0.0000E+00  0.0000E+00  0.0000E+00  0.0000E+00  0.0000E+00  0.0000E+00  0.0000E+00  0.0000E+00  0.0000E+00  0.0000E+00  0.0000E+00
     -4.495  0.0000E+00  0.0000E+00  0.0000E+00  0.0000E+00  0.0000E+00  0.0000E+00  0.0000E+00  0.0000E+00  0.0000E+00  0.0000E+00  0.0000E+00  0.0000E+00  0.0000E+00  0.0000E+00  0.0000E+00  0.0000E+00  0.0000E+00  0.0000E+00
     -4.325  0.0000E+00  0.0000E+00  0.0000E+00  0.0000E+00  0.0000E+00  0.0000E+00  0.0000E+00  0.0000E+00  0.0000E+00  0.0000E+00  0.0000E+00  0.0000E+00  0.0000E+00  0.0000E+00  0.0000E+00  0.0000E+00  0.0000E+00  0.0000E+00
     -4.155  0.0000E+00  0.0000E+00  0.0000E+00  0.0000E+00  0.0000E+00  0.0000E+00  0.0000E+00  0.0000E+00  0.0000E+00  0.0000E+00  0.0000E+00  0.0000E+00  0.0000E+00  0.0000E+00  0.0000E+00  0.0000E+00  0.0000E+00  0.0000E+00
     -3.984  0.0000E+00  0.0000E+00  0.0000E+00  0.0000E+00  0.0000E+00  0.0000E+00  0.0000E+00  0.0000E+00  0.0000E+00  0.0000E+00  0.0000E+00  0.0000E+00  0.0000E+00  0.0000E+00  0.0000E+00  0.0000E+00  0.0000E+00  0.0000E+00
     -3.814  0.0000E+00  0.0000E+00  0.0000E+00  0.0000E+00  0.0000E+00  0.0000E+00  0.0000E+00  0.0000E+00  0.0000E+00  0.0000E+00  0.0000E+00  0.0000E+00  0.0000E+00  0.0000E+00  0.0000E+00  0.0000E+00  0.0000E+00  0.0000E+00
     -3.644  0.0000E+00  0.0000E+00  0.0000E+00  0.0000E+00  0.0000E+00  0.0000E+00  0.0000E+00  0.0000E+00  0.0000E+00  0.0000E+00  0.0000E+00  0.0000E+00  0.0000E+00  0.0000E+00  0.0000E+00  0.0000E+00  0.0000E+00  0.0000E+00
     -3.473  0.0000E+00  0.0000E+00  0.0000E+00  0.0000E+00  0.0000E+00  0.0000E+00  0.0000E+00  0.0000E+00  0.0000E+00  0.0000E+00  0.0000E+00  0.0000E+00  0.0000E+00  0.0000E+00  0.0000E+00  0.0000E+00  0.0000E+00  0.0000E+00
     -3.303  0.0000E+00  0.0000E+00  0.0000E+00  0.0000E+00  0.0000E+00  0.0000E+00  0.0000E+00  0.0000E+00  0.0000E+00  0.0000E+00  0.0000E+00  0.0000E+00  0.0000E+00  0.0000E+00  0.0000E+00  0.0000E+00  0.0000E+00  0.0000E+00
     -3.133  0.0000E+00  0.0000E+00  0.0000E+00  0.0000E+00  0.0000E+00  0.0000E+00  0.0000E+00  0.0000E+00  0.0000E+00  0.0000E+00  0.0000E+00  0.0000E+00  0.0000E+00  0.0000E+00  0.0000E+00  0.0000E+00  0.0000E+00  0.0000E+00
     -2.962  0.0000E+00  0.0000E+00  0.0000E+00  0.0000E+00  0.0000E+00  0.0000E+00  0.0000E+00  0.0000E+00  0.0000E+00  0.0000E+00  0.0000E+00  0.0000E+00  0.0000E+00  0.0000E+00  0.0000E+00  0.0000E+00  0.0000E+00  0.0000E+00
     -2.792  0.0000E+00  0.0000E+00  0.0000E+00  0.0000E+00  0.0000E+00  0.0000E+00  0.0000E+00  0.0000E+00  0.0000E+00  0.0000E+00  0.0000E+00  0.0000E+00  0.0000E+00  0.0000E+00  0.0000E+00  0.0000E+00  0.0000E+00  0.0000E+00
     -2.622  0.0000E+00  0.0000E+00  0.0000E+00  0.0000E+00  0.0000E+00  0.0000E+00  0.0000E+00  0.0000E+00  0.0000E+00  0.0000E+00  0.0000E+00  0.0000E+00  0.0000E+00  0.0000E+00  0.0000E+00  0.0000E+00  0.0000E+00  0.0000E+00
     -2.451  0.0000E+00  0.0000E+00  0.0000E+00  0.0000E+00  0.0000E+00  0.0000E+00  0.0000E+00  0.0000E+00  0.0000E+00  0.0000E+00  0.0000E+00  0.0000E+00  0.0000E+00  0.0000E+00  0.0000E+00  0.0000E+00  0.0000E+00  0.0000E+00
     -2.281  0.8285E-02  0.0000E+00  0.8295E-04  0.0000E+00  0.5619E-04  0.0000E+00  0.3524E-03  0.0000E+00  0.2641E-04  0.0000E+00  0.6961E-05  0.0000E+00  0.9782E-05  0.0000E+00  0.6635E-05  0.0000E+00  0.1122E-04  0.0000E+00
     -2.111  0.1240E-01  0.9630E-02  0.1804E-03  0.1176E-03  0.1129E-03  0.7716E-04  0.6291E-03  0.4424E-03  0.6433E-04  0.2348E-04  0.1904E-04  0.6791E-05  0.2470E-04  0.8306E-05  0.1446E-04  0.6163E-05  0.2838E-04  0.1001E-04
     -1.940  0.1573E-01  0.1332E-01  0.2803E-03  0.2152E-03  0.1593E-03  0.1296E-03  0.9368E-03  0.7227E-03  0.1119E-03  0.4775E-04  0.3629E-04  0.1464E-04  0.4566E-04  0.1773E-04  0.2253E-04  0.1107E-04  0.5500E-04  0.2161E-04
     -1.770  0.1827E-01  0.1622E-01  0.3828E-03  0.3153E-03  0.1956E-03  0.1721E-03  0.1275E-02  0.1032E-02  0.1692E-03  0.7728E-04  0.5869E-04  0.2481E-04  0.7264E-04  0.3034E-04  0.3082E-04  0.1591E-04  0.9107E-04  0.3817E-04
     -1.600  0.2251E-01  0.1866E-01  0.5721E-03  0.4280E-03  0.2926E-03  0.2122E-03  0.1775E-02  0.1387E-02  0.2649E-03  0.1138E-03  0.1229E-03  0.3899E-04  0.1164E-03  0.4666E-04  0.5136E-04  0.2127E-04  0.1487E-03  0.6030E-04
     -1.429  0.2619E-01  0.2291E-01  0.7908E-03  0.6377E-03  0.4281E-03  0.3294E-03  0.2266E-02  0.1892E-02  0.3942E-03  0.1743E-03  0.2386E-03  0.8150E-04  0.1773E-03  0.7200E-04  0.8983E-04  0.3651E-04  0.2277E-03  0.9470E-04
     -1.259  0.2857E-01  0.2590E-01  0.1016E-02  0.8535E-03  0.5858E-03  0.4682E-03  0.2704E-02  0.2342E-02  0.5510E-03  0.2457E-03  0.4004E-03  0.1453E-03  0.2531E-03  0.1022E-03  0.1447E-03  0.5956E-04  0.3258E-03  0.1369E-03
     -1.089  0.2787E-01  0.2765E-01  0.1224E-02  0.1076E-02  0.7859E-03  0.6284E-03  0.3157E-02  0.2737E-02  0.7935E-03  0.3277E-03  0.6433E-03  0.2303E-03  0.4044E-03  0.1374E-03  0.2489E-03  0.9041E-04  0.5542E-03  0.1870E-03
     -0.918  0.3011E-01  0.2650E-01  0.1429E-02  0.1266E-02  0.9468E-03  0.8218E-03  0.3710E-02  0.3139E-02  0.1177E-02  0.4489E-03  0.8323E-03  0.3455E-03  0.6309E-03  0.2058E-03  0.3500E-03  0.1452E-03  0.7616E-03  0.3035E-03
     -0.748  0.3249E-01  0.2828E-01  0.1642E-02  0.1463E-02  0.1115E-02  0.9730E-03  0.4326E-02  0.3637E-02  0.1637E-02  0.6200E-03  0.1054E-02  0.4319E-03  0.9087E-03  0.2918E-03  0.4741E-03  0.1938E-03  0.1004E-02  0.4006E-03
     -0.578  0.3500E-01  0.3013E-01  0.1862E-02  0.1666E-02  0.1289E-02  0.1129E-02  0.5005E-02  0.4184E-02  0.2172E-02  0.8187E-03  0.1309E-02  0.5301E-03  0.1238E-02  0.3932E-03  0.6212E-03  0.2512E-03  0.1282E-02  0.5114E-03
     -0.407  0.3764E-01  0.3206E-01  0.2090E-02  0.1876E-02  0.1470E-02  0.1291E-02  0.5747E-02  0.4781E-02  0.2783E-02  0.1045E-02  0.1597E-02  0.6400E-03  0.1618E-02  0.5101E-03  0.7913E-03  0.3172E-03  0.1596E-02  0.6358E-03
     -0.237  0.4041E-01  0.3406E-01  0.2326E-02  0.2091E-02  0.1658E-02  0.1458E-02  0.6552E-02  0.5428E-02  0.3470E-02  0.1299E-02  0.1918E-02  0.7617E-03  0.2050E-02  0.6424E-03  0.9844E-03  0.3920E-03  0.1944E-02  0.7738E-03
     -0.067  0.4344E-01  0.3613E-01  0.2687E-02  0.2313E-02  0.2027E-02  0.1629E-02  0.7554E-02  0.6124E-02  0.4654E-02  0.1580E-02  0.2912E-02  0.8952E-03  0.2884E-02  0.7903E-03  0.1505E-02  0.4755E-03  0.2498E-02  0.9255E-03
      0.104  0.4785E-01  0.3742E-01  0.3186E-02  0.2527E-02  0.2556E-02  0.1849E-02  0.8997E-02  0.6840E-02  0.6690E-02  0.1947E-02  0.4695E-02  0.1143E-02  0.4443E-02  0.1000E-02  0.2215E-02  0.6412E-03  0.3557E-02  0.1103E-02
      0.274  0.5162E-01  0.3947E-01  0.3599E-02  0.2885E-02  0.3052E-02  0.2218E-02  0.1065E-01  0.7758E-02  0.9242E-02  0.2557E-02  0.6841E-02  0.1668E-02  0.6561E-02  0.1365E-02  0.3044E-02  0.8614E-03  0.5024E-02  0.1408E-02
      0.444  0.5491E-01  0.4107E-01  0.3843E-02  0.3200E-02  0.3384E-02  0.2579E-02  0.1262E-01  0.8722E-02  0.1352E-01  0.3251E-02  0.9513E-02  0.2273E-02  0.1009E-01  0.1819E-02  0.3964E-02  0.1101E-02  0.7078E-02  0.1814E-02
      0.615  0.6187E-01  0.4194E-01  0.4269E-02  0.3428E-02  0.3776E-02  0.2895E-02  0.1518E-01  0.9684E-02  0.2197E-01  0.4050E-02  0.1387E-01  0.2938E-02  0.1658E-01  0.2374E-02  0.4974E-02  0.1358E-02  0.9821E-02  0.2317E-02
      0.785  0.7021E-01  0.4272E-01  0.4709E-02  0.3606E-02  0.4218E-02  0.3162E-02  0.1809E-01  0.1065E-01  0.3418E-01  0.5086E-02  0.1990E-01  0.3660E-02  0.2608E-01  0.3077E-02  0.6151E-02  0.1623E-02  0.1329E-01  0.2882E-02
      0.955  0.1013E+00  0.4430E-01  0.5772E-02  0.3835E-02  0.5658E-02  0.3442E-02  0.2381E-01  0.1173E-01  0.9074E-01  0.6448E-02  0.6137E-01  0.4488E-02  0.7033E-01  0.3953E-02  0.7974E-02  0.1900E-02  0.2944E-01  0.3502E-02
      1.126  0.9599E-01  0.4655E-01  0.5726E-02  0.4100E-02  0.6516E-02  0.3724E-02  0.2763E-01  0.1294E-01  0.9674E-01  0.8340E-02  0.6721E-01  0.5494E-02  0.1213E+00  0.5130E-02  0.1181E-01  0.2190E-02  0.6523E-01  0.4195E-02
      1.296  0.1038E+00  0.4901E-01  0.6221E-02  0.4371E-02  0.7848E-02  0.4017E-02  0.4210E-01  0.1426E-01  0.1213E+00  0.1063E-01  0.8475E-01  0.6664E-02  0.2029E+00  0.6555E-02  0.1935E-01  0.2508E-02  0.1110E+00  0.4965E-02
      1.466  0.9472E-01  0.5169E-01  0.7740E-02  0.4647E-02  0.8663E-02  0.4322E-02  0.5746E-01  0.1568E-01  0.1427E+00  0.1333E-01  0.9635E-01  0.8000E-02  0.3861E+00  0.8229E-02  0.3456E-01  0.2854E-02  0.1779E+00  0.5811E-02
      1.636  0.6211E-01  0.5458E-01  0.7365E-02  0.4929E-02  0.6990E-02  0.4638E-02  0.4132E-01  0.1720E-01  0.1103E+00  0.1643E-01  0.9818E-01  0.9501E-02  0.2586E+00  0.1015E-01  0.4417E-01  0.3229E-02  0.1617E+00  0.6735E-02
      1.807  0.3154E-01  0.5777E-01  0.5842E-02  0.5218E-02  0.4062E-02  0.4963E-02  0.2072E-01  0.1943E-01  0.6724E-01  0.2016E-01  0.1127E+00  0.1118E-01  0.9381E-01  0.1281E-01  0.4784E-01  0.3675E-02  0.1233E+00  0.8659E-02
      1.977  0.1537E-01  0.6731E-01  0.5541E-02  0.6252E-02  0.2350E-02  0.6608E-02  0.1468E-01  0.2343E-01  0.3688E-01  0.3157E-01  0.9138E-01  0.2406E-01  0.5825E-01  0.2092E-01  0.3629E-01  0.5488E-02  0.1206E+00  0.1362E-01
      2.147  0.4553E-02  0.8523E-01  0.8761E-02  0.6899E-02  0.3177E-02  0.7746E-02  0.1294E-01  0.2926E-01  0.1852E-01  0.6087E-01  0.7152E-01  0.4590E-01  0.7645E-01  0.3990E-01  0.3306E-01  0.7354E-02  0.1382E+00  0.2187E-01
      2.318  0.1407E-02  0.7653E-01  0.3274E-01  0.6080E-02  0.2552E-01  0.7543E-02  0.1555E-01  0.3036E-01  0.3671E+00  0.6257E-01  0.1356E+00  0.4681E-01  0.1670E+00  0.4529E-01  0.5508E+00  0.9057E-02  0.2013E+00  0.2379E-01
      2.488  0.3131E-02  0.7298E-01  0.2550E-01  0.5815E-02  0.1579E-01  0.7500E-02  0.1516E-01  0.3194E-01  0.2171E+00  0.6493E-01  0.2790E+00  0.5052E-01  0.1726E+00  0.5027E-01  0.5757E+00  0.1133E-01  0.2166E+00  0.2663E-01
      2.658  0.5238E-02  0.6669E-01  0.1342E-01  0.5434E-02  0.9163E-02  0.7226E-02  0.6775E-02  0.3253E-01  0.1371E+00  0.6371E-01  0.1273E+00  0.5171E-01  0.1154E+00  0.5311E-01  0.2842E+00  0.1381E-01  0.1002E+00  0.2886E-01
      2.829  0.9493E-02  0.6157E-01  0.1926E-01  0.5309E-02  0.2080E-01  0.7058E-02  0.1134E-01  0.3822E-01  0.1790E+00  0.6569E-01  0.1342E+00  0.5264E-01  0.7282E-01  0.7433E-01  0.2113E+00  0.1773E-01  0.7137E-01  0.6102E-01
      2.999  0.1545E-01  0.5938E-01  0.3055E-01  0.6952E-02  0.3136E-01  0.8044E-02  0.2102E-01  0.5279E-01  0.2414E+00  0.7139E-01  0.2400E+00  0.6788E-01  0.7508E-01  0.1561E+00  0.2247E+00  0.2652E-01  0.1152E+00  0.1396E+00
      3.169  0.2786E-01  0.4373E-01  0.5097E-01  0.8205E-02  0.3935E-01  0.8275E-02  0.4710E-01  0.3868E-01  0.4249E+00  0.6809E-01  0.4489E+00  0.7019E-01  0.1048E+00  0.1619E+00  0.3717E+00  0.2924E-01  0.2236E+00  0.9862E-01
      3.340  0.1934E-01  0.2794E-01  0.3408E-01  0.7596E-02  0.2472E-01  0.6435E-02  0.2664E-01  0.2451E-01  0.2083E+00  0.4996E-01  0.2353E+00  0.6345E-01  0.5595E-01  0.1168E+00  0.2609E+00  0.2895E-01  0.1556E+00  0.6664E-01
      3.510  0.9983E-02  0.6777E-02  0.1888E-01  0.5969E-02  0.1398E-01  0.2563E-02  0.1233E-01  0.1174E-01  0.6959E-01  0.9334E-02  0.1129E+00  0.4819E-01  0.2589E-01  0.4983E-01  0.1079E+00  0.9304E-02  0.9427E-01  0.4960E-01
      3.680  0.6726E-02  0.6215E-04  0.1352E-01  0.6664E-02  0.9590E-02  0.1078E-02  0.8888E-02  0.4866E-02  0.5676E-01  0.4174E-02  0.1033E+00  0.1291E-02  0.2361E-01  0.5326E-01  0.9507E-01  0.3890E-02  0.7815E-01  0.6277E-01
      3.851  0.4860E-02  0.1835E-03  0.1049E-01  0.2418E-01  0.7512E-02  0.9561E-02  0.6475E-02  0.1245E-01  0.6678E-01  0.8579E-01  0.1037E+00  0.1927E-01  0.2937E-01  0.7087E-01  0.9689E-01  0.1224E+00  0.6677E-01  0.1067E+00