    1    1    1    2
  0.1157456E+02  0.2468172E-09  0.2468172E-09  0.2468172E-09  0.5000000E-15
  1.000000000000000E-004
  CAR 
 Fe BCC                                  
      8     26     12
 
  0.6250000E-01  0.6250000E-01  0.6250000E-01  0.1562500E-01
    1       -1.732997     -1.616225   1.000000   1.000000
    2        3.139326      5.072705   1.000000   1.000000
    3        3.139326      5.072705   1.000000   1.000000
    4        3.922792      5.955164   1.000000  -0.023749
    5        4.497992      7.191748   1.000000   0.000000
    6        4.497992      7.191748   1.003388   0.000000
    7       26.836945     26.986962   0.000000   0.000000
    8       26.836945     26.986962   0.000000   0.000000
    9       30.625482     31.042940   0.000000   0.000000
   10       31.374898     31.459231   0.000000   0.000000
   11       36.269336     36.552965   0.000000   0.000000
   12       36.269336     36.552965   0.000000   0.000000
 
  0.1875000E+00  0.6250000E-01  0.6250000E-01  0.4687500E-01
    1       -0.155425      0.053386   1.000000   1.000000
    2        2.740425      4.585308   1.000000   1.000000
    3        2.947936      4.750528   1.000000   1.000000
    4        4.437767      6.997252   1.000000  -0.000954
    5        4.617380      7.047174   1.000909   0.000000
    6        4.922762      7.346624   0.882933   0.000000
    7       21.414334     21.980079   0.000000   0.000000
    8       24.499144     24.773450   0.000000   0.000000
    9       26.786729     27.500698   0.000000   0.000000
   10       31.679943     31.580388   0.000000   0.000000
   11       35.695366     36.243057   0.000000   0.000000
   12       36.914831     37.130124   0.000000   0.000000
 
  0.3125000E+00  0.6250000E-01  0.6250000E-01  0.4687500E-01
    1        0.972924      1.848341   1.000000   1.000000
    2        2.398558      4.165974   1.000000   1.000000
    3        3.718256      4.869405   1.000000   1.007955
    4        4.576466      7.140426   1.000000   0.000000
    5        4.711721      7.484418   1.033171   0.000000
    6        6.329468      8.277882   0.010985   0.000000
    7       15.966280     16.901022   0.000000   0.000000
    8       22.807263     23.069466   0.000000   0.000000
    9       24.469342     25.090682   0.000000   0.000000
   10       31.138105     31.292374   0.000000   0.000000
   11       35.003826     35.536322   0.000000   0.000000
   12       40.223502     40.396072   0.000000   0.000000
 
  0.4375000E+00  0.6250000E-01  0.6250000E-01  0.2343750E-01
    1        1.027647      2.324246   1.000000   1.000000
    2        2.267180      4.005463   1.000000   1.000000
    3        4.638270      5.634993   1.000000   0.888103
    4        4.699136      7.211961   1.000000   0.000000
    5        4.750269      7.544131   1.080013   0.000000
    6        7.718897      9.134899  -0.004849   0.000000
    7       12.874084     14.211808   0.000000   0.000000
    8       22.187842     22.428295   0.000000   0.000000
    9       23.605715     24.178094   0.000000   0.000000
   10       30.902611     31.133382   0.000000   0.000000
   11       34.896804     35.453722   0.000000   0.000000
   12       40.171050     40.144032   0.000000   0.000000
 
 -0.6250000E-01  0.6250000E-01  0.6250000E-01  0.1171875E-01
    1       -2.342902     -2.233853   1.000000   1.000000
    2        3.337418      5.308872   1.000000   1.000000
    3        3.337418      5.308872   1.000000   1.000000
    4        3.423194      5.416791   1.000000   0.378908
    5        4.424734      7.107544   1.000000   0.000000
    6        4.618221      7.357519   1.000000   0.000000
    7       28.778496     28.630950   0.000000   0.000000
    8       30.104698     29.952760   0.000000   0.000000
    9       30.104699     29.952761   0.000000   0.000000
   10       33.155748     33.502864   0.000000   0.000000
   11       35.258171     36.005169   0.000000   0.000000
   12       35.258172     36.005172   0.000000   0.000000
 
  0.1875000E+00  0.1875000E+00  0.6250000E-01  0.4687500E-01
    1        1.305397      1.832523   1.000000   1.000000
    2        2.467298      4.192215   1.000000   1.000000
    3        2.664845      4.299247   1.000000   1.000081
    4        4.516714      7.123703   1.000000   0.000000
    5        4.744080      7.478491   1.000750   0.000000
    6        6.531327      8.469582  -0.008153   0.000000
    7       18.917816     19.588096   0.000000   0.000000
    8       19.712676     20.329899   0.000000   0.000000
    9       23.592964     24.152729   0.000000   0.000000
   10       33.598763     33.493182   0.000000   0.000000
   11       37.199710     37.475381   0.000000   0.000000
   12       39.593064     39.858760   0.000000   0.000000
 
  0.3125000E+00  0.1875000E+00  0.6250000E-01  0.9375000E-01
    1        1.642352      2.936060   1.000000   1.000000
    2        2.304835      3.958625   1.000000   1.000000
    3        3.295056      4.542936   1.000000   1.002750
    4        4.653804      7.263332   1.000000   0.000000
    5        4.838441      7.549274   1.009756   0.000000
    6        8.978719     10.393502  -0.003572   0.000000
    7       14.294268     15.309156   0.000000   0.000000
    8       18.148178     18.782050   0.000000   0.000000
    9       22.322547     22.840291   0.000000   0.000000
   10       33.944059     33.979083   0.000000   0.000000
   11       38.251797     38.325959   0.000000   0.000000
   12       40.195183     40.577335   0.000000   0.000000
 
 -0.1875000E+00  0.1875000E+00  0.6250000E-01  0.4687500E-01
    1       -1.163648     -1.027640   1.000000   1.000000
    2        3.077407      4.990699   1.000000   1.000000
    3        3.267782      5.185535   1.000000   1.000000
    4        4.026059      6.080516   1.000000  -0.012197
    5        4.190685      6.756187   1.000000   0.000000
    6        4.715061      7.463560   1.010806   0.000000
    7       24.288498     24.669956   0.000000   0.000000
    8       27.672346     27.751920   0.000000   0.000000
    9       28.511840     28.842882   0.000000   0.000000
   10       32.540724     32.917792   0.000000   0.000000
   11       32.690990     33.218444   0.000000   0.000000
   12       34.258001     34.624531   0.000000   0.000000
 
  0.3125000E+00  0.3125000E+00  0.6250000E-01  0.1562500E-01
    1        1.954752      3.493083   1.000000   1.000000
    2        2.660461      4.089123   1.000000   1.000000
    3        2.660461      4.089123   1.000000   1.000098
    4        4.788545      7.437730   1.000000   0.000000
    5        4.788545      7.437731   1.000000   0.000000
    6       12.481657     13.503655   0.000000   0.000000
    7       12.481658     13.503655   0.000000   0.000000
    8       14.945908     15.836501   0.000000   0.000000
    9       21.853963     22.391752   0.000000   0.000000
   10       36.378656     36.369099   0.000000   0.000000
   11       36.378656     36.369101   0.000000   0.000000
   12       43.424698     44.108946   0.000000   0.000000
 
 -0.3125000E+00  0.3125000E+00  0.6250000E-01  0.4687500E-01
    1        0.457540      0.909387   1.000000   1.000000
    2        2.690255      4.524508   1.000000   1.000000
    3        3.331867      4.918730   1.000000   1.001971
    4        4.391394      6.820870   1.000000   0.000000
    5        4.896421      7.190786   1.017399   0.000000
    6        5.015462      7.581813   0.709223   0.000000
    7       18.517610     19.289078   0.000000   0.000000
    8       25.279605     25.365445   0.000000   0.000000
    9       26.362664     26.943160   0.000000   0.000000
   10       30.848824     31.280190   0.000000   0.000000
   11       32.722586     33.203557   0.000000   0.000000
   12       35.630114     35.869898   0.000000   0.000000
 
 -0.1875000E+00  0.3125000E+00  0.6250000E-01  0.4687500E-01
    1        0.271871      0.548065   1.000000   1.000000
    2        2.869081      4.772713   1.000000   1.000000
    3        3.068377      4.882433   1.000000   1.001788
    4        4.069285      6.481714   1.000000  -0.000534
    5        4.744949      6.929447   1.001791   0.000000
    6        5.093558      7.692827   0.760098   0.000000
    7       21.496429     22.065967   0.000000   0.000000
    8       22.457627     23.002664   0.000000   0.000000
    9       28.974072     29.159881   0.000000   0.000000
   10       29.187369     29.653265   0.000000   0.000000
   11       32.933868     33.296466   0.000000   0.000000
   12       37.553201     37.846218   0.000000   0.000000
 
 -0.4375000E+00  0.4375000E+00  0.6250000E-01  0.4687500E-01
    1        0.907670      2.110388   1.000000   1.000000
    2        2.427378      4.211454   1.000000   1.000000
    3        4.091651      5.500114   1.000000   0.983849
    4        4.553981      7.032147   1.000000   0.000000
    5        5.810788      7.954852   0.489306   0.000000
    6        6.263319      8.105151   0.000778   0.000000
    7       13.778510     14.982551   0.000000   0.000000
    8       23.916104     23.971364   0.000000   0.000000
    9       24.748517     25.302726   0.000000   0.000000
   10       30.139026     30.607951   0.000000   0.000000
   11       32.973693     33.530741   0.000000   0.000000
   12       37.332209     37.406979   0.000000   0.000000
 
 -0.3125000E+00  0.4375000E+00  0.6250000E-01  0.9375000E-01
    1        1.311464      2.255870   1.000000   1.000000
    2        2.570578      4.333102   1.000000   1.000000
    3        3.136829      4.729352   1.000000   1.005772
    4        4.363392      6.733944   1.000000   0.000000
    5        5.128038      7.586487   1.024638   0.000000
    6        6.815654      8.686217  -0.035915   0.000000
    7       16.343544     17.234007   0.000000   0.000000
    8       20.241972     20.820299   0.000000   0.000000
    9       26.789155     27.102734   0.000000   0.000000
   10       29.956665     30.300194   0.000000   0.000000
   11       33.569585     33.853788   0.000000   0.000000
   12       38.071179     38.464759   0.000000   0.000000
 
 -0.4375000E+00 -0.4375000E+00  0.6250000E-01  0.4687500E-01
    1        1.345358      2.738304   1.000000   1.000000
    2        2.560911      4.325954   1.000000   1.000000
    3        3.307626      4.819326   1.000000   1.009785
    4        4.465360      6.889271   1.000000   0.000000
    5        5.473242      7.815095   0.887051   0.000000
    6        8.821380     10.068753  -0.001818   0.000000
    7       12.978525     14.247438   0.000000   0.000000
    8       19.550660     20.116814   0.000000   0.000000
    9       25.955709     26.235696   0.000000   0.000000
   10       30.287583     30.718767   0.000000   0.000000
   11       34.558659     34.618491   0.000000   0.000000
   12       37.375432     37.866984   0.000000   0.000000
 
 -0.3125000E+00 -0.4375000E+00  0.6250000E-01  0.4687500E-01
    1        2.023288      3.439838   1.000000   1.000000
    2        2.275665      3.942887   1.000000   1.000000
    3        2.805482      4.438768   1.000000   1.005819
    4        4.656826      7.024108   1.000000   0.000000
    5        5.102587      7.503961   1.037785   0.000000
    6       10.040684     11.336753  -0.000592   0.000000
    7       14.423979     15.386699   0.000000   0.000000
    8       15.753746     16.559255   0.000000   0.000000
    9       27.174780     27.620954   0.000000   0.000000
   10       30.375255     30.531781   0.000000   0.000000
   11       32.553214     32.725163   0.000000   0.000000
   12       39.583168     40.411667   0.000000   0.000000
 
  0.1875000E+00  0.1875000E+00  0.1875000E+00  0.1562500E-01
    1        2.289752      3.338291   1.000000   1.000000
    2        2.289752      3.884797   1.000000   1.000000
    3        2.460083      3.884797   1.000000   1.000113
    4        4.727471      7.476051   1.000000   0.000000
    5        4.727471      7.476051   1.000000   0.000000
    6        8.957151     10.477000  -0.004524   0.000000
    7       17.277640     17.985100   0.000000   0.000000
    8       17.277640     17.985100   0.000000   0.000000
    9       18.575247     19.239774   0.000000   0.000000
   10       38.283522     37.963276   0.000000   0.000000
   11       40.914920     41.039373   0.000000   0.000000
   12       40.914920     41.039373   0.000000   0.000000
 
  0.3125000E+00  0.1875000E+00  0.1875000E+00  0.2343750E-01
    1        2.177488      3.578969   1.000000   1.000000
    2        2.252589      3.798145   1.000000   1.000000
    3        2.900814      4.201804   1.000000   1.000173
    4        4.760466      7.508842   1.000000   0.000000
    5        4.774570      7.576549   1.000000   0.000000
    6       11.776706     12.805967   0.000000   0.000000
    7       13.593229     14.611745   0.000000   0.000000
    8       16.714378     17.429679   0.000000   0.000000
    9       17.659977     18.314638   0.000000   0.000000
   10       39.306861     39.159084   0.000000   0.000000
   11       42.677924     42.675794   0.000000   0.000000
   12       43.065733     43.363893   0.000000   0.000000
 
 -0.1875000E+00  0.1875000E+00  0.1875000E+00  0.1171875E-01
    1       -0.130782      0.073223   1.000000   1.000000
    2        3.427375      5.405846   1.000000   1.000000
    3        3.488523      5.405846   1.000000   0.982707
    4        3.488523      5.818032   1.000000   0.000921
    5        4.039936      6.106642   1.000000   0.000000
    6        5.071578      7.772308   0.905642   0.000000
    7       24.436193     24.720688   0.000000   0.000000
    8       25.373802     25.927602   0.000000   0.000000
    9       25.373804     25.927603   0.000000   0.000000
   10       27.308980     27.672636   0.000000   0.000000
   11       36.719001     36.970487   0.000000   0.000000
   12       36.719001     36.970488   0.000000   0.000000
 
 -0.3125000E+00  0.3125000E+00  0.1875000E+00  0.4687500E-01
    1        1.160552      1.770852   1.000000   1.000000
    2        2.679660      4.688216   1.000000   1.000000
    3        3.353196      5.239324   1.000000   0.963362
    4        4.001032      6.090524   1.000000   0.000000
    5        4.901918      7.060836   1.032852   0.000000
    6        5.926228      8.192771   0.110885   0.000000
    7       19.369192     20.089719   0.000000   0.000000
    8       22.773946     23.370862   0.000000   0.000000
    9       23.974350     24.356690   0.000000   0.000000
   10       27.904286     28.279611   0.000000   0.000000
   11       35.775742     36.183324   0.000000   0.000000
   12       37.502302     37.852241   0.000000   0.000000
 
 -0.4375000E+00  0.4375000E+00  0.1875000E+00  0.4687500E-01
    1        1.442221      2.843180   1.000000   1.000000
    2        2.614643      4.285119   1.000000   1.000000
    3        3.159734      5.010843   1.000000   0.979912
    4        4.212241      6.427873   1.000000   0.000000
    5        5.731388      8.013929   0.356099   0.000000
    6        8.402833      9.750723  -0.011330   0.000000
    7       14.298406     15.347833   0.000000   0.000000
    8       21.167037     21.714348   0.000000   0.000000
    9       23.135167     23.541571   0.000000   0.000000
   10       30.425787     30.666023   0.000000   0.000000
   11       34.848549     35.278507   0.000000   0.000000
   12       35.501635     36.065245   0.000000   0.000000
 
 -0.3125000E+00  0.4375000E+00  0.1875000E+00  0.4687500E-01
    1        1.755775      2.976303   1.000000   1.000000
    2        2.066033      3.973600   1.000000   1.000000
    3        3.432547      5.311039   1.000000   0.847728
    4        4.389265      6.484377   1.000000   0.000000
    5        5.316901      7.567165   1.064886   0.000000
    6        8.278881      9.774327  -0.015103   0.000000
    7       17.235422     18.046809   0.000000   0.000000
    8       17.844260     18.509337   0.000000   0.000000
    9       25.397988     25.798442   0.000000   0.000000
   10       26.898124     27.283796   0.000000   0.000000
   11       34.494780     34.956947   0.000000   0.000000
   12       37.389961     38.057551   0.000000   0.000000
 
 -0.4375000E+00 -0.4375000E+00  0.1875000E+00  0.4687500E-01
    1        1.708573      3.407121   1.000000   1.000000
    2        2.076651      3.766436   1.000000   1.000000
    3        3.242572      5.048529   1.000000   0.898560
    4        4.693145      6.845475   1.000000   0.000000
    5        5.543219      7.802413   0.761536   0.000000
    6       11.270346     12.276603   0.000000   0.000000
    7       13.453234     14.488657   0.000000   0.000000
    8       16.862970     17.549037   0.000000   0.000000
    9       25.405620     25.799654   0.000000   0.000000
   10       28.562301     28.804197   0.000000   0.000000
   11       31.977108     32.653974   0.000000   0.000000
   12       36.395438     37.026964   0.000000   0.000000
 
 -0.3125000E+00  0.3125000E+00  0.3125000E+00  0.1171875E-01
    1        1.544849      2.711015   1.000000   1.000000
    2        2.021148      4.055000   1.000000   1.000000
    3        4.246335      6.203206   1.000000   0.014011
    4        4.246335      6.203206   1.000000   0.000000
    5        4.936676      7.117096   1.167909   0.000000
    6        7.651307      9.223234  -0.021976   0.000000
    7       19.851450     20.416892   0.000000   0.000000
    8       19.851451     20.416894   0.000000   0.000000
    9       22.114014     22.798755   0.000000   0.000000
   10       24.152103     24.656282   0.000000   0.000000
   11       35.835118     36.530766   0.000000   0.000000
   12       40.653438     41.048462   0.000000   0.000000
 
 -0.4375000E+00  0.4375000E+00  0.3125000E+00  0.4687500E-01
    1        1.446088      3.116352   1.000000   1.000000
    2        1.575670      3.403800   1.000000   1.000000
    3        4.381585      6.381233   1.000000  -0.020727
    4        4.658361      6.682526   1.000000   0.000000
    5        5.621554      7.888517   0.293903   0.000000
    6       10.756480     11.713757   0.000000   0.000000
    7       15.486693     16.208203   0.000000   0.000000
    8       18.048206     18.519258   0.000000   0.000000
    9       22.282417     22.976009   0.000000   0.000000
   10       25.158937     25.630515   0.000000   0.000000
   11       31.183521     32.029516   0.000000   0.000000
   12       40.140337     40.500550   0.000000   0.000000
 
 -0.4375000E+00 -0.4375000E+00  0.3125000E+00  0.1562500E-01
    1        1.308985      3.099817   1.000000   1.000000
    2        1.308985      3.099817   1.000000   1.000000
    3        4.486532      6.464386   1.000000  -0.028089
    4        5.469733      7.683732   1.000000   0.000000
    5        5.469733      7.683734   1.069767   0.000000
    6       14.139361     14.805023   0.000000   0.000000
    7       14.139362     14.805026   0.000000   0.000000
    8       15.258247     15.829168   0.000000   0.000000
    9       23.754903     24.312442   0.000000   0.000000
   10       23.754904     24.312443   0.000000   0.000000
   11       28.649223     29.637072   0.000000   0.000000
   12       40.683221     41.036932   0.000000   0.000000
 
 -0.4375000E+00  0.4375000E+00  0.4375000E+00  0.1171875E-01
    1        1.051842      2.819885   1.000000   1.000000
    2        1.052396      2.878607   1.000000   1.000000
    3        5.429858      7.627182   1.000000  -0.010692
    4        5.429858      7.627183   1.000000   0.000000
    5        5.587199      7.855621   0.235395   0.000000
    6       13.538177     14.047826   0.000000   0.000000
    7       16.049100     16.356852   0.000000   0.000000
    8       16.049101     16.356854   0.000000   0.000000
    9       21.231802     22.141141   0.000000   0.000000
   10       22.398509     23.136233   0.000000   0.000000
   11       27.138074     28.154413   0.000000   0.000000
   12       43.888619     44.107911   0.000000   0.000000
