 running on    4 total cores
 distrk:  each k-point on    4 cores,    1 groups
 distr:  one band on    1 cores,    4 groups
 using from now: INCAR     
 vasp.5.4.1 24Jun15 (build Jul 19 2016 16:50:41) complex                        
  
 POSCAR found type information on POSCAR  Fe
 POSCAR found :  1 types and       1 ions
 LDA part: xc-table for Pade appr. of Perdew
 POSCAR, INCAR and KPOINTS ok, starting setup
 FFT: planning ...
 WAVECAR not read
 entering main loop
       N       E                     dE             d eps       ncg     rms          rms(c)
DAV:   1     0.226490108758E+02    0.22649E+02   -0.41585E+03  1316   0.860E+02
DAV:   2    -0.786858276586E+01   -0.30518E+02   -0.27935E+02  1300   0.134E+02
DAV:   3    -0.869357984772E+01   -0.82500E+00   -0.82284E+00  1448   0.254E+01
DAV:   4    -0.869663749963E+01   -0.30577E-02   -0.30552E-02  1360   0.138E+00
DAV:   5    -0.869665389582E+01   -0.16396E-04   -0.16391E-04  1456   0.106E-01    0.122E+01
DAV:   6    -0.829690439648E+01    0.39975E+00   -0.96972E+00  1416   0.400E+01    0.510E+00
DAV:   7    -0.824944408778E+01    0.47460E-01   -0.46275E-01  1456   0.855E+00    0.318E+00
DAV:   8    -0.824115062426E+01    0.82935E-02   -0.60615E-03  1528   0.590E-01    0.124E+00
DAV:   9    -0.823513774784E+01    0.60129E-02   -0.85162E-03  1704   0.642E-01    0.201E-01
DAV:  10    -0.823508390415E+01    0.53844E-04   -0.73167E-04  1396   0.365E-01    0.528E-02
DAV:  11    -0.823511109504E+01   -0.27191E-04   -0.37168E-05  1400   0.567E-02    0.387E-02
DAV:  12    -0.823512019349E+01   -0.90984E-05   -0.28537E-06  1336   0.152E-02    0.217E-02
DAV:  13    -0.823511766735E+01    0.25261E-05   -0.41373E-07   664   0.702E-03    0.136E-02
DAV:  14    -0.823511734363E+01    0.32373E-06   -0.21973E-07   680   0.518E-03
   1 F= -.82351173E+01 E0= -.82351173E+01  d E =0.000000E+00  mag=     2.1998
 writing wavefunctions
