PROCAR lm decomposed
# of k-points:   26         # of bands:  12         # of ions:   1

 k-point    1 :    0.06250000 0.06250000 0.06250000     weight = 0.01562500

band   1 # energy   -1.73299706 # occ.  1.00000000
 
ion      s     py     pz     px    dxy    dyz    dz2    dxz    dx2    tot
  1  0.649  0.021  0.021  0.021  0.002  0.002  0.000  0.002  0.000  0.718
 
band   2 # energy    3.13932633 # occ.  1.00000000
 
ion      s     py     pz     px    dxy    dyz    dz2    dxz    dx2    tot
  1  0.000  0.001  0.001  0.000  0.398  0.157  0.015  0.384  0.009  0.967
 
band   3 # energy    3.13932633 # occ.  1.00000000
 
ion      s     py     pz     px    dxy    dyz    dz2    dxz    dx2    tot
  1  0.000  0.001  0.001  0.001  0.228  0.469  0.009  0.242  0.015  0.967
 
band   4 # energy    3.92279180 # occ.  1.00000000
 
ion      s     py     pz     px    dxy    dyz    dz2    dxz    dx2    tot
  1  0.002  0.003  0.003  0.003  0.321  0.321  0.000  0.321  0.000  0.974
 
band   5 # energy    4.49799176 # occ.  1.00000000
 
ion      s     py     pz     px    dxy    dyz    dz2    dxz    dx2    tot
  1  0.000  0.000  0.000  0.000  0.017  0.008  0.898  0.002  0.044  0.969
 
band   6 # energy    4.49799176 # occ.  1.00338775
 
ion      s     py     pz     px    dxy    dyz    dz2    dxz    dx2    tot
  1  0.000  0.000  0.000  0.000  0.001  0.010  0.044  0.016  0.898  0.969
 
band   7 # energy   26.83694470 # occ.  0.00000000
 
ion      s     py     pz     px    dxy    dyz    dz2    dxz    dx2    tot
  1  0.000  0.070  0.026  0.014  0.063  0.033  0.064  0.170  0.118  0.558
 
band   8 # energy   26.83694470 # occ.  0.00000000
 
ion      s     py     pz     px    dxy    dyz    dz2    dxz    dx2    tot
  1  0.000  0.003  0.047  0.060  0.115  0.144  0.118  0.007  0.064  0.558
 
band   9 # energy   30.62548202 # occ.  0.00000000
 
ion      s     py     pz     px    dxy    dyz    dz2    dxz    dx2    tot
  1  0.078  0.170  0.170  0.170  0.143  0.143  0.000  0.143  0.000  1.016
 
band  10 # energy   31.37489792 # occ.  0.00000000
 
ion      s     py     pz     px    dxy    dyz    dz2    dxz    dx2    tot
  1  0.000  0.000  0.000  0.000  0.000  0.000  0.000  0.000  0.000  0.000
 
band  11 # energy   36.26933608 # occ.  0.00000000
 
ion      s     py     pz     px    dxy    dyz    dz2    dxz    dx2    tot
  1  0.000  0.155  0.001  0.167  0.000  0.045  0.000  0.041  0.038  0.446
 
band  12 # energy   36.26933608 # occ.  0.00000000
 
ion      s     py     pz     px    dxy    dyz    dz2    dxz    dx2    tot
  1  0.000  0.060  0.214  0.048  0.057  0.013  0.038  0.016  0.000  0.446
 

 k-point    2 :    0.18750000 0.06250000 0.06250000     weight = 0.04687500

band   1 # energy   -0.15542482 # occ.  1.00000000
 
ion      s     py     pz     px    dxy    dyz    dz2    dxz    dx2    tot
  1  0.501  0.062  0.062  0.018  0.007  0.066  0.004  0.007  0.011  0.738
 
band   2 # energy    2.74042484 # occ.  1.00000000
 
ion      s     py     pz     px    dxy    dyz    dz2    dxz    dx2    tot
  1  0.000  0.002  0.002  0.000  0.464  0.000  0.019  0.464  0.006  0.957
 
band   3 # energy    2.94793578 # occ.  1.00000000
 
ion      s     py     pz     px    dxy    dyz    dz2    dxz    dx2    tot
  1  0.013  0.018  0.018  0.002  0.092  0.546  0.038  0.092  0.115  0.934
 
band   4 # energy    4.43776724 # occ.  1.00000000
 
ion      s     py     pz     px    dxy    dyz    dz2    dxz    dx2    tot
  1  0.001  0.000  0.000  0.000  0.016  0.152  0.197  0.016  0.590  0.972
 
band   5 # energy    4.61738028 # occ.  1.00090874
 
ion      s     py     pz     px    dxy    dyz    dz2    dxz    dx2    tot
  1  0.000  0.000  0.000  0.000  0.014  0.000  0.710  0.014  0.237  0.975
 
band   6 # energy    4.92276159 # occ.  0.88293267
 
ion      s     py     pz     px    dxy    dyz    dz2    dxz    dx2    tot
  1  0.014  0.011  0.011  0.010  0.369  0.181  0.000  0.369  0.000  0.967
 
band   7 # energy   21.41433416 # occ.  0.00000000
 
ion      s     py     pz     px    dxy    dyz    dz2    dxz    dx2    tot
  1  0.061  0.117  0.117  0.023  0.008  0.298  0.034  0.008  0.103  0.770
 
band   8 # energy   24.49914367 # occ.  0.00000000
 
ion      s     py     pz     px    dxy    dyz    dz2    dxz    dx2    tot
  1  0.000  0.103  0.103  0.000  0.152  0.000  0.076  0.152  0.025  0.613
 
band   9 # energy   26.78672855 # occ.  0.00000000
 
ion      s     py     pz     px    dxy    dyz    dz2    dxz    dx2    tot
  1  0.126  0.056  0.056  0.388  0.104  0.002  0.010  0.104  0.029  0.875
 
band  10 # energy   31.67994349 # occ.  0.00000000
 
ion      s     py     pz     px    dxy    dyz    dz2    dxz    dx2    tot
  1  0.000  0.003  0.003  0.000  0.177  0.000  0.018  0.177  0.006  0.383
 
band  11 # energy   35.69536606 # occ.  0.00000000
 
ion      s     py     pz     px    dxy    dyz    dz2    dxz    dx2    tot
  1  0.036  0.053  0.053  0.154  0.061  0.076  0.107  0.061  0.322  0.923
 
band  12 # energy   36.91483119 # occ.  0.00000000
 
ion      s     py     pz     px    dxy    dyz    dz2    dxz    dx2    tot
  1  0.000  0.105  0.105  0.000  0.140  0.000  0.004  0.140  0.001  0.496
 

 k-point    3 :    0.31250000 0.06250000 0.06250000     weight = 0.04687500

band   1 # energy    0.97292410 # occ.  1.00000000
 
ion      s     py     pz     px    dxy    dyz    dz2    dxz    dx2    tot
  1  0.205  0.023  0.023  0.016  0.001  0.400  0.042  0.001  0.127  0.840
 
band   2 # energy    2.39855823 # occ.  1.00000000
 
ion      s     py     pz     px    dxy    dyz    dz2    dxz    dx2    tot
  1  0.000  0.003  0.003  0.000  0.469  0.000  0.006  0.469  0.002  0.952
 
band   3 # energy    3.71825642 # occ.  1.00000000
 
ion      s     py     pz     px    dxy    dyz    dz2    dxz    dx2    tot
  1  0.080  0.117  0.117  0.000  0.161  0.086  0.031  0.161  0.093  0.846
 
band   4 # energy    4.57646569 # occ.  1.00000000
 
ion      s     py     pz     px    dxy    dyz    dz2    dxz    dx2    tot
  1  0.002  0.002  0.002  0.001  0.017  0.291  0.162  0.017  0.485  0.979
 
band   5 # energy    4.71172069 # occ.  1.03317142
 
ion      s     py     pz     px    dxy    dyz    dz2    dxz    dx2    tot
  1  0.000  0.000  0.000  0.000  0.005  0.000  0.729  0.005  0.243  0.981
 
band   6 # energy    6.32946816 # occ.  0.01098452
 
ion      s     py     pz     px    dxy    dyz    dz2    dxz    dx2    tot
  1  0.050  0.061  0.061  0.009  0.313  0.114  0.001  0.313  0.003  0.924
 
band   7 # energy   15.96627986 # occ.  0.00000000
 
ion      s     py     pz     px    dxy    dyz    dz2    dxz    dx2    tot
  1  0.223  0.106  0.106  0.013  0.004  0.296  0.022  0.004  0.066  0.839
 
band   8 # energy   22.80726284 # occ.  0.00000000
 
ion      s     py     pz     px    dxy    dyz    dz2    dxz    dx2    tot
  1  0.000  0.131  0.131  0.000  0.141  0.000  0.021  0.141  0.007  0.571
 
band   9 # energy   24.46934158 # occ.  0.00000000
 
ion      s     py     pz     px    dxy    dyz    dz2    dxz    dx2    tot
  1  0.125  0.009  0.009  0.528  0.035  0.013  0.012  0.035  0.037  0.804
 
band  10 # energy   31.13810476 # occ.  0.00000000
 
ion      s     py     pz     px    dxy    dyz    dz2    dxz    dx2    tot
  1  0.000  0.006  0.006  0.000  0.366  0.000  0.006  0.366  0.002  0.752
 
band  11 # energy   35.00382638 # occ.  0.00000000
 
ion      s     py     pz     px    dxy    dyz    dz2    dxz    dx2    tot
  1  0.103  0.021  0.021  0.127  0.016  0.000  0.155  0.016  0.464  0.924
 
band  12 # energy   40.22350150 # occ.  0.00000000
 
ion      s     py     pz     px    dxy    dyz    dz2    dxz    dx2    tot
  1  0.004  0.090  0.083  0.001  0.058  0.024  0.132  0.054  0.043  0.488
 

 k-point    4 :    0.43750000 0.06250000 0.06250000     weight = 0.02343750

band   1 # energy    1.02764746 # occ.  1.00000000
 
ion      s     py     pz     px    dxy    dyz    dz2    dxz    dx2    tot
  1  0.116  0.000  0.000  0.015  0.000  0.494  0.063  0.000  0.189  0.877
 
band   2 # energy    2.26717951 # occ.  1.00000000
 
ion      s     py     pz     px    dxy    dyz    dz2    dxz    dx2    tot
  1  0.000  0.004  0.004  0.000  0.471  0.000  0.000  0.471  0.000  0.950
 
band   3 # energy    4.63826960 # occ.  1.00000000
 
ion      s     py     pz     px    dxy    dyz    dz2    dxz    dx2    tot
  1  0.011  0.000  0.000  0.001  0.000  0.292  0.169  0.000  0.508  0.980
 
band   4 # energy    4.69913603 # occ.  1.00000000
 
ion      s     py     pz     px    dxy    dyz    dz2    dxz    dx2    tot
  1  0.000  0.133  0.133  0.000  0.302  0.000  0.000  0.302  0.000  0.870
 
band   5 # energy    4.75026880 # occ.  1.08001304
 
ion      s     py     pz     px    dxy    dyz    dz2    dxz    dx2    tot
  1  0.000  0.000  0.000  0.000  0.000  0.000  0.738  0.000  0.246  0.984
 
band   6 # energy    7.71889726 # occ. -0.00484918
 
ion      s     py     pz     px    dxy    dyz    dz2    dxz    dx2    tot
  1  0.000  0.207  0.207  0.000  0.202  0.000  0.000  0.202  0.000  0.818
 
band   7 # energy   12.87408380 # occ.  0.00000000
 
ion      s     py     pz     px    dxy    dyz    dz2    dxz    dx2    tot
  1  0.422  0.000  0.000  0.017  0.000  0.373  0.021  0.000  0.064  0.898
 
band   8 # energy   22.18784164 # occ.  0.00000000
 
ion      s     py     pz     px    dxy    dyz    dz2    dxz    dx2    tot
  1  0.000  0.139  0.139  0.000  0.135  0.000  0.000  0.135  0.000  0.548
 
band   9 # energy   23.60571455 # occ.  0.00000000
 
ion      s     py     pz     px    dxy    dyz    dz2    dxz    dx2    tot
  1  0.123  0.000  0.000  0.581  0.000  0.022  0.012  0.000  0.035  0.772
 
band  10 # energy   30.90261120 # occ.  0.00000000
 
ion      s     py     pz     px    dxy    dyz    dz2    dxz    dx2    tot
  1  0.000  0.007  0.007  0.000  0.422  0.000  0.000  0.422  0.000  0.858
 
band  11 # energy   34.89680391 # occ.  0.00000000
 
ion      s     py     pz     px    dxy    dyz    dz2    dxz    dx2    tot
  1  0.142  0.000  0.000  0.119  0.000  0.010  0.175  0.000  0.525  0.970
 
band  12 # energy   40.17105030 # occ.  0.00000000
 
ion      s     py     pz     px    dxy    dyz    dz2    dxz    dx2    tot
  1  0.000  0.034  0.034  0.000  0.007  0.000  0.000  0.007  0.000  0.081
 

 k-point    5 :   -0.06250000 0.06250000 0.06250000     weight = 0.01171875

band   1 # energy   -2.34290243 # occ.  1.00000000
 
ion      s     py     pz     px    dxy    dyz    dz2    dxz    dx2    tot
  1  0.694  0.000  0.000  0.022  0.000  0.000  0.000  0.000  0.000  0.716
 
band   2 # energy    3.33741796 # occ.  1.00000000
 
ion      s     py     pz     px    dxy    dyz    dz2    dxz    dx2    tot
  1  0.000  0.001  0.001  0.000  0.486  0.000  0.000  0.486  0.000  0.974
 
band   3 # energy    3.33741811 # occ.  1.00000000
 
ion      s     py     pz     px    dxy    dyz    dz2    dxz    dx2    tot
  1  0.000  0.001  0.001  0.000  0.486  0.000  0.000  0.486  0.000  0.974
 
band   4 # energy    3.42319386 # occ.  1.00000000
 
ion      s     py     pz     px    dxy    dyz    dz2    dxz    dx2    tot
  1  0.000  0.000  0.000  0.000  0.000  0.976  0.000  0.000  0.000  0.976
 
band   5 # energy    4.42473390 # occ.  1.00000000
 
ion      s     py     pz     px    dxy    dyz    dz2    dxz    dx2    tot
  1  0.000  0.000  0.000  0.000  0.000  0.000  0.723  0.000  0.241  0.964
 
band   6 # energy    4.61822107 # occ.  1.00000000
 
ion      s     py     pz     px    dxy    dyz    dz2    dxz    dx2    tot
  1  0.000  0.000  0.000  0.000  0.000  0.000  0.243  0.000  0.729  0.973
 
band   7 # energy   28.77849597 # occ.  0.00000000
 
ion      s     py     pz     px    dxy    dyz    dz2    dxz    dx2    tot
  1  0.000  0.000  0.000  0.000  0.000  0.000  0.193  0.000  0.064  0.258
 
band   8 # energy   30.10469813 # occ.  0.00000000
 
ion      s     py     pz     px    dxy    dyz    dz2    dxz    dx2    tot
  1  0.000  0.014  0.014  0.000  0.129  0.000  0.000  0.129  0.000  0.285
 
band   9 # energy   30.10469908 # occ.  0.00000000
 
ion      s     py     pz     px    dxy    dyz    dz2    dxz    dx2    tot
  1  0.000  0.014  0.014  0.000  0.129  0.000  0.000  0.129  0.000  0.285
 
band  10 # energy   33.15574814 # occ.  0.00000000
 
ion      s     py     pz     px    dxy    dyz    dz2    dxz    dx2    tot
  1  0.019  0.000  0.000  0.304  0.000  0.000  0.073  0.000  0.219  0.615
 
band  11 # energy   35.25817138 # occ.  0.00000000
 
ion      s     py     pz     px    dxy    dyz    dz2    dxz    dx2    tot
  1  0.000  0.228  0.225  0.000  0.245  0.000  0.000  0.242  0.000  0.939
 
band  12 # energy   35.25817156 # occ.  0.00000000
 
ion      s     py     pz     px    dxy    dyz    dz2    dxz    dx2    tot
  1  0.000  0.225  0.228  0.000  0.242  0.000  0.000  0.245  0.000  0.939
 

 k-point    6 :    0.18750000 0.18750000 0.06250000     weight = 0.04687500

band   1 # energy    1.30539718 # occ.  1.00000000
 
ion      s     py     pz     px    dxy    dyz    dz2    dxz    dx2    tot
  1  0.282  0.043  0.069  0.043  0.000  0.158  0.045  0.158  0.000  0.799
 
band   2 # energy    2.46729825 # occ.  1.00000000
 
ion      s     py     pz     px    dxy    dyz    dz2    dxz    dx2    tot
  1  0.000  0.019  0.000  0.019  0.000  0.346  0.000  0.346  0.197  0.927
 
band   3 # energy    2.66484465 # occ.  1.00000000
 
ion      s     py     pz     px    dxy    dyz    dz2    dxz    dx2    tot
  1  0.030  0.004  0.062  0.004  0.664  0.075  0.007  0.075  0.000  0.921
 
band   4 # energy    4.51671375 # occ.  1.00000000
 
ion      s     py     pz     px    dxy    dyz    dz2    dxz    dx2    tot
  1  0.000  0.001  0.000  0.001  0.000  0.110  0.000  0.110  0.754  0.976
 
band   5 # energy    4.74408049 # occ.  1.00075015
 
ion      s     py     pz     px    dxy    dyz    dz2    dxz    dx2    tot
  1  0.005  0.000  0.001  0.000  0.000  0.034  0.908  0.034  0.000  0.981
 
band   6 # energy    6.53132669 # occ. -0.00815274
 
ion      s     py     pz     px    dxy    dyz    dz2    dxz    dx2    tot
  1  0.067  0.029  0.056  0.029  0.299  0.216  0.018  0.216  0.000  0.931
 
band   7 # energy   18.91781636 # occ.  0.00000000
 
ion      s     py     pz     px    dxy    dyz    dz2    dxz    dx2    tot
  1  0.000  0.163  0.000  0.163  0.000  0.168  0.000  0.168  0.125  0.787
 
band   8 # energy   19.71267591 # occ.  0.00000000
 
ion      s     py     pz     px    dxy    dyz    dz2    dxz    dx2    tot
  1  0.212  0.015  0.252  0.015  0.073  0.093  0.016  0.093  0.000  0.768
 
band   9 # energy   23.59296433 # occ.  0.00000000
 
ion      s     py     pz     px    dxy    dyz    dz2    dxz    dx2    tot
  1  0.141  0.200  0.008  0.200  0.168  0.007  0.029  0.007  0.000  0.759
 
band  10 # energy   33.59876257 # occ.  0.00000000
 
ion      s     py     pz     px    dxy    dyz    dz2    dxz    dx2    tot
  1  0.000  0.013  0.000  0.013  0.000  0.090  0.000  0.090  0.142  0.348
 
band  11 # energy   37.19970992 # occ.  0.00000000
 
ion      s     py     pz     px    dxy    dyz    dz2    dxz    dx2    tot
  1  0.021  0.023  0.032  0.023  0.382  0.162  0.015  0.162  0.000  0.819
 
band  12 # energy   39.59306424 # occ.  0.00000000
 
ion      s     py     pz     px    dxy    dyz    dz2    dxz    dx2    tot
  1  0.000  0.088  0.000  0.088  0.000  0.028  0.000  0.028  0.407  0.640
 

 k-point    7 :    0.31250000 0.18750000 0.06250000     weight = 0.09375000

band   1 # energy    1.64235212 # occ.  1.00000000
 
ion      s     py     pz     px    dxy    dyz    dz2    dxz    dx2    tot
  1  0.083  0.002  0.006  0.043  0.030  0.530  0.056  0.040  0.098  0.889
 
band   2 # energy    2.30483540 # occ.  1.00000000
 
ion      s     py     pz     px    dxy    dyz    dz2    dxz    dx2    tot
  1  0.000  0.021  0.009  0.011  0.324  0.023  0.000  0.474  0.070  0.932
 
band   3 # energy    3.29505605 # occ.  1.00000000
 
ion      s     py     pz     px    dxy    dyz    dz2    dxz    dx2    tot
  1  0.019  0.079  0.111  0.001  0.373  0.009  0.080  0.145  0.060  0.878
 
band   4 # energy    4.65380431 # occ.  1.00000000
 
ion      s     py     pz     px    dxy    dyz    dz2    dxz    dx2    tot
  1  0.003  0.001  0.000  0.002  0.000  0.212  0.053  0.047  0.663  0.980
 
band   5 # energy    4.83844122 # occ.  1.00975637
 
ion      s     py     pz     px    dxy    dyz    dz2    dxz    dx2    tot
  1  0.004  0.004  0.005  0.000  0.055  0.013  0.766  0.079  0.055  0.982
 
band   6 # energy    8.97871915 # occ. -0.00357168
 
ion      s     py     pz     px    dxy    dyz    dz2    dxz    dx2    tot
  1  0.073  0.116  0.173  0.019  0.188  0.081  0.031  0.171  0.000  0.851
 
band   7 # energy   14.29426829 # occ.  0.00000000
 
ion      s     py     pz     px    dxy    dyz    dz2    dxz    dx2    tot
  1  0.248  0.115  0.029  0.068  0.014  0.283  0.004  0.018  0.060  0.839
 
band   8 # energy   18.14817768 # occ.  0.00000000
 
ion      s     py     pz     px    dxy    dyz    dz2    dxz    dx2    tot
  1  0.178  0.050  0.102  0.154  0.088  0.003  0.001  0.162  0.028  0.764
 
band   9 # energy   22.32254655 # occ.  0.00000000
 
ion      s     py     pz     px    dxy    dyz    dz2    dxz    dx2    tot
  1  0.130  0.111  0.055  0.237  0.110  0.039  0.008  0.044  0.003  0.738
 
band  10 # energy   33.94405937 # occ.  0.00000000
 
ion      s     py     pz     px    dxy    dyz    dz2    dxz    dx2    tot
  1  0.008  0.001  0.002  0.027  0.136  0.006  0.013  0.212  0.144  0.549
 
band  11 # energy   38.25179707 # occ.  0.00000000
 
ion      s     py     pz     px    dxy    dyz    dz2    dxz    dx2    tot
  1  0.004  0.061  0.001  0.000  0.158  0.061  0.091  0.010  0.114  0.500
 
band  12 # energy   40.19518270 # occ.  0.00000000
 
ion      s     py     pz     px    dxy    dyz    dz2    dxz    dx2    tot
  1  0.047  0.007  0.004  0.119  0.064  0.000  0.242  0.035  0.304  0.822
 

 k-point    8 :   -0.18750000 0.18750000 0.06250000     weight = 0.04687500

band   1 # energy   -1.16364771 # occ.  1.00000000
 
ion      s     py     pz     px    dxy    dyz    dz2    dxz    dx2    tot
  1  0.601  0.018  0.000  0.079  0.013  0.000  0.006  0.000  0.005  0.722
 
band   2 # energy    3.07740674 # occ.  1.00000000
 
ion      s     py     pz     px    dxy    dyz    dz2    dxz    dx2    tot
  1  0.000  0.000  0.002  0.000  0.000  0.375  0.000  0.590  0.000  0.967
 
band   3 # energy    3.26778249 # occ.  1.00000000
 
ion      s     py     pz     px    dxy    dyz    dz2    dxz    dx2    tot
  1  0.005  0.012  0.000  0.007  0.810  0.000  0.108  0.000  0.012  0.953
 
band   4 # energy    4.02605861 # occ.  1.00000000
 
ion      s     py     pz     px    dxy    dyz    dz2    dxz    dx2    tot
  1  0.000  0.000  0.006  0.000  0.000  0.597  0.000  0.371  0.000  0.974
 
band   5 # energy    4.19068464 # occ.  1.00000000
 
ion      s     py     pz     px    dxy    dyz    dz2    dxz    dx2    tot
  1  0.000  0.000  0.000  0.000  0.126  0.000  0.654  0.000  0.179  0.960
 
band   6 # energy    4.71506081 # occ.  1.01080627
 
ion      s     py     pz     px    dxy    dyz    dz2    dxz    dx2    tot
  1  0.005  0.000  0.000  0.001  0.005  0.000  0.188  0.000  0.777  0.976
 
band   7 # energy   24.28849843 # occ.  0.00000000
 
ion      s     py     pz     px    dxy    dyz    dz2    dxz    dx2    tot
  1  0.028  0.125  0.000  0.058  0.277  0.000  0.198  0.000  0.015  0.701
 
band   8 # energy   27.67234574 # occ.  0.00000000
 
ion      s     py     pz     px    dxy    dyz    dz2    dxz    dx2    tot
  1  0.026  0.001  0.000  0.143  0.050  0.000  0.047  0.000  0.143  0.410
 
band   9 # energy   28.51183987 # occ.  0.00000000
 
ion      s     py     pz     px    dxy    dyz    dz2    dxz    dx2    tot
  1  0.000  0.000  0.209  0.000  0.000  0.023  0.000  0.584  0.000  0.816
 
band  10 # energy   32.54072424 # occ.  0.00000000
 
ion      s     py     pz     px    dxy    dyz    dz2    dxz    dx2    tot
  1  0.001  0.254  0.000  0.077  0.225  0.000  0.120  0.000  0.002  0.679
 
band  11 # energy   32.69098988 # occ.  0.00000000
 
ion      s     py     pz     px    dxy    dyz    dz2    dxz    dx2    tot
  1  0.000  0.000  0.349  0.000  0.000  0.473  0.000  0.005  0.000  0.827
 
band  12 # energy   34.25800100 # occ.  0.00000000
 
ion      s     py     pz     px    dxy    dyz    dz2    dxz    dx2    tot
  1  0.095  0.123  0.000  0.123  0.000  0.000  0.098  0.000  0.007  0.446
 

 k-point    9 :    0.31250000 0.31250000 0.06250000     weight = 0.01562500

band   1 # energy    1.95475170 # occ.  1.00000000
 
ion      s     py     pz     px    dxy    dyz    dz2    dxz    dx2    tot
  1  0.038  0.007  0.007  0.007  0.290  0.290  0.000  0.290  0.000  0.926
 
band   2 # energy    2.66046089 # occ.  1.00000000
 
ion      s     py     pz     px    dxy    dyz    dz2    dxz    dx2    tot
  1  0.000  0.022  0.089  0.022  0.363  0.091  0.216  0.091  0.000  0.894
 
band   3 # energy    2.66046133 # occ.  1.00000000
 
ion      s     py     pz     px    dxy    dyz    dz2    dxz    dx2    tot
  1  0.000  0.067  0.000  0.067  0.000  0.272  0.000  0.272  0.216  0.894
 
band   4 # energy    4.78854516 # occ.  1.00000000
 
ion      s     py     pz     px    dxy    dyz    dz2    dxz    dx2    tot
  1  0.000  0.004  0.000  0.004  0.000  0.121  0.000  0.121  0.732  0.982
 
band   5 # energy    4.78854544 # occ.  1.00000000
 
ion      s     py     pz     px    dxy    dyz    dz2    dxz    dx2    tot
  1  0.000  0.001  0.005  0.001  0.162  0.040  0.732  0.040  0.000  0.982
 
band   6 # energy   12.48165678 # occ.  0.00000000
 
ion      s     py     pz     px    dxy    dyz    dz2    dxz    dx2    tot
  1  0.000  0.072  0.287  0.072  0.218  0.055  0.059  0.055  0.000  0.816
 
band   7 # energy   12.48165759 # occ.  0.00000000
 
ion      s     py     pz     px    dxy    dyz    dz2    dxz    dx2    tot
  1  0.000  0.215  0.000  0.215  0.000  0.164  0.000  0.164  0.059  0.816
 
band   8 # energy   14.94590842 # occ.  0.00000000
 
ion      s     py     pz     px    dxy    dyz    dz2    dxz    dx2    tot
  1  0.585  0.002  0.002  0.002  0.077  0.077  0.000  0.077  0.000  0.821
 
band   9 # energy   21.85396342 # occ.  0.00000000
 
ion      s     py     pz     px    dxy    dyz    dz2    dxz    dx2    tot
  1  0.129  0.128  0.128  0.128  0.081  0.081  0.000  0.081  0.000  0.755
 
band  10 # energy   36.37865571 # occ.  0.00000000
 
ion      s     py     pz     px    dxy    dyz    dz2    dxz    dx2    tot
  1  0.000  0.008  0.032  0.008  0.062  0.016  0.284  0.016  0.000  0.426
 
band  11 # energy   36.37865650 # occ.  0.00000000
 
ion      s     py     pz     px    dxy    dyz    dz2    dxz    dx2    tot
  1  0.000  0.024  0.000  0.024  0.000  0.047  0.000  0.047  0.284  0.426
 
band  12 # energy   43.42469797 # occ.  0.00000000
 
ion      s     py     pz     px    dxy    dyz    dz2    dxz    dx2    tot
  1  0.026  0.052  0.052  0.052  0.358  0.358  0.000  0.358  0.000  1.255
 

 k-point   10 :   -0.31250000 0.31250000 0.06250000     weight = 0.04687500

band   1 # energy    0.45754047 # occ.  1.00000000
 
ion      s     py     pz     px    dxy    dyz    dz2    dxz    dx2    tot
  1  0.361  0.028  0.000  0.090  0.198  0.000  0.093  0.000  0.010  0.780
 
band   2 # energy    2.69025531 # occ.  1.00000000
 
ion      s     py     pz     px    dxy    dyz    dz2    dxz    dx2    tot
  1  0.000  0.000  0.002  0.000  0.000  0.433  0.000  0.523  0.000  0.959
 
band   3 # energy    3.33186672 # occ.  1.00000000
 
ion      s     py     pz     px    dxy    dyz    dz2    dxz    dx2    tot
  1  0.059  0.062  0.000  0.069  0.264  0.000  0.275  0.000  0.148  0.877
 
band   4 # energy    4.39139377 # occ.  1.00000000
 
ion      s     py     pz     px    dxy    dyz    dz2    dxz    dx2    tot
  1  0.001  0.010  0.000  0.010  0.451  0.000  0.477  0.000  0.018  0.968
 
band   5 # energy    4.89642056 # occ.  1.01739876
 
ion      s     py     pz     px    dxy    dyz    dz2    dxz    dx2    tot
  1  0.033  0.009  0.000  0.018  0.006  0.000  0.098  0.000  0.801  0.965
 
band   6 # energy    5.01546221 # occ.  0.70922283
 
ion      s     py     pz     px    dxy    dyz    dz2    dxz    dx2    tot
  1  0.000  0.000  0.008  0.000  0.000  0.537  0.000  0.434  0.000  0.979
 
band   7 # energy   18.51761041 # occ.  0.00000000
 
ion      s     py     pz     px    dxy    dyz    dz2    dxz    dx2    tot
  1  0.141  0.171  0.000  0.092  0.295  0.000  0.116  0.000  0.007  0.822
 
band   8 # energy   25.27960504 # occ.  0.00000000
 
ion      s     py     pz     px    dxy    dyz    dz2    dxz    dx2    tot
  1  0.028  0.057  0.000  0.146  0.003  0.000  0.070  0.000  0.067  0.372
 
band   9 # energy   26.36266364 # occ.  0.00000000
 
ion      s     py     pz     px    dxy    dyz    dz2    dxz    dx2    tot
  1  0.000  0.000  0.471  0.000  0.000  0.014  0.000  0.429  0.000  0.914
 
band  10 # energy   30.84882443 # occ.  0.00000000
 
ion      s     py     pz     px    dxy    dyz    dz2    dxz    dx2    tot
  1  0.000  0.000  0.191  0.000  0.000  0.590  0.000  0.165  0.000  0.946
 
band  11 # energy   32.72258626 # occ.  0.00000000
 
ion      s     py     pz     px    dxy    dyz    dz2    dxz    dx2    tot
  1  0.081  0.228  0.000  0.000  0.017  0.000  0.459  0.000  0.004  0.790
 
band  12 # energy   35.63011362 # occ.  0.00000000
 
ion      s     py     pz     px    dxy    dyz    dz2    dxz    dx2    tot
  1  0.111  0.018  0.000  0.068  0.187  0.000  0.031  0.000  0.111  0.526
 

 k-point   11 :   -0.18750000 0.31250000 0.06250000     weight = 0.04687500

band   1 # energy    0.27187137 # occ.  1.00000000
 
ion      s     py     pz     px    dxy    dyz    dz2    dxz    dx2    tot
  1  0.439  0.013  0.013  0.136  0.039  0.000  0.017  0.039  0.050  0.746
 
band   2 # energy    2.86908120 # occ.  1.00000000
 
ion      s     py     pz     px    dxy    dyz    dz2    dxz    dx2    tot
  1  0.000  0.010  0.010  0.000  0.281  0.000  0.262  0.281  0.087  0.932
 
band   3 # energy    3.06837704 # occ.  1.00000000
 
ion      s     py     pz     px    dxy    dyz    dz2    dxz    dx2    tot
  1  0.010  0.004  0.004  0.020  0.220  0.471  0.000  0.220  0.000  0.950
 
band   4 # energy    4.06928474 # occ.  1.00000000
 
ion      s     py     pz     px    dxy    dyz    dz2    dxz    dx2    tot
  1  0.000  0.002  0.002  0.000  0.187  0.000  0.438  0.187  0.146  0.962
 
band   5 # energy    4.74494925 # occ.  1.00179073
 
ion      s     py     pz     px    dxy    dyz    dz2    dxz    dx2    tot
  1  0.001  0.003  0.003  0.001  0.160  0.336  0.079  0.160  0.236  0.979
 
band   6 # energy    5.09355838 # occ.  0.76009755
 
ion      s     py     pz     px    dxy    dyz    dz2    dxz    dx2    tot
  1  0.046  0.006  0.006  0.023  0.055  0.164  0.151  0.055  0.453  0.961
 
band   7 # energy   21.49642940 # occ.  0.00000000
 
ion      s     py     pz     px    dxy    dyz    dz2    dxz    dx2    tot
  1  0.000  0.127  0.127  0.000  0.136  0.000  0.188  0.136  0.063  0.778
 
band   8 # energy   22.45762696 # occ.  0.00000000
 
ion      s     py     pz     px    dxy    dyz    dz2    dxz    dx2    tot
  1  0.146  0.067  0.067  0.177  0.143  0.017  0.001  0.143  0.004  0.765
 
band   9 # energy   28.97407203 # occ.  0.00000000
 
ion      s     py     pz     px    dxy    dyz    dz2    dxz    dx2    tot
  1  0.000  0.057  0.057  0.000  0.134  0.000  0.194  0.134  0.065  0.641
 
band  10 # energy   29.18736925 # occ.  0.00000000
 
ion      s     py     pz     px    dxy    dyz    dz2    dxz    dx2    tot
  1  0.001  0.224  0.224  0.061  0.017  0.088  0.003  0.017  0.010  0.647
 
band  11 # energy   32.93386817 # occ.  0.00000000
 
ion      s     py     pz     px    dxy    dyz    dz2    dxz    dx2    tot
  1  0.101  0.001  0.001  0.062  0.125  0.342  0.013  0.125  0.039  0.810
 
band  12 # energy   37.55320073 # occ.  0.00000000
 
ion      s     py     pz     px    dxy    dyz    dz2    dxz    dx2    tot
  1  0.000  0.145  0.145  0.000  0.004  0.000  0.102  0.004  0.034  0.434
 

 k-point   12 :   -0.43750000 0.43750000 0.06250000     weight = 0.04687500

band   1 # energy    0.90767045 # occ.  1.00000000
 
ion      s     py     pz     px    dxy    dyz    dz2    dxz    dx2    tot
  1  0.141  0.000  0.000  0.016  0.433  0.000  0.275  0.000  0.001  0.866
 
band   2 # energy    2.42737757 # occ.  1.00000000
 
ion      s     py     pz     px    dxy    dyz    dz2    dxz    dx2    tot
  1  0.000  0.000  0.002  0.000  0.000  0.463  0.000  0.489  0.000  0.954
 
band   3 # energy    4.09165139 # occ.  1.00000000
 
ion      s     py     pz     px    dxy    dyz    dz2    dxz    dx2    tot
  1  0.017  0.060  0.000  0.066  0.002  0.000  0.103  0.000  0.657  0.905
 
band   4 # energy    4.55398097 # occ.  1.00000000
 
ion      s     py     pz     px    dxy    dyz    dz2    dxz    dx2    tot
  1  0.008  0.005  0.000  0.004  0.336  0.000  0.541  0.000  0.082  0.975
 
band   5 # energy    5.81078813 # occ.  0.48930619
 
ion      s     py     pz     px    dxy    dyz    dz2    dxz    dx2    tot
  1  0.000  0.000  0.002  0.000  0.000  0.511  0.000  0.478  0.000  0.990
 
band   6 # energy    6.26331932 # occ.  0.00077810
 
ion      s     py     pz     px    dxy    dyz    dz2    dxz    dx2    tot
  1  0.055  0.196  0.000  0.236  0.062  0.000  0.009  0.000  0.246  0.803
 
band   7 # energy   13.77851020 # occ.  0.00000000
 
ion      s     py     pz     px    dxy    dyz    dz2    dxz    dx2    tot
  1  0.346  0.082  0.000  0.023  0.332  0.000  0.094  0.000  0.003  0.880
 
band   8 # energy   23.91610403 # occ.  0.00000000
 
ion      s     py     pz     px    dxy    dyz    dz2    dxz    dx2    tot
  1  0.025  0.106  0.000  0.132  0.001  0.000  0.069  0.000  0.008  0.340
 
band   9 # energy   24.74851739 # occ.  0.00000000
 
ion      s     py     pz     px    dxy    dyz    dz2    dxz    dx2    tot
  1  0.000  0.000  0.615  0.000  0.000  0.045  0.000  0.174  0.000  0.835
 
band  10 # energy   30.13902579 # occ.  0.00000000
 
ion      s     py     pz     px    dxy    dyz    dz2    dxz    dx2    tot
  1  0.000  0.000  0.120  0.000  0.000  0.550  0.000  0.413  0.000  1.083
 
band  11 # energy   32.97369321 # occ.  0.00000000
 
ion      s     py     pz     px    dxy    dyz    dz2    dxz    dx2    tot