    2    2    1    1
  0.1350057E+03  0.7254916E-09  0.7254916E-09  0.7254916E-09  0.5000000E-15
  1.000000000000000E-004
  CAR 
 Si diamante                             
      8     47      8
 
  0.0000000E+00  0.0000000E+00  0.0000000E+00  0.1000000E-02
    1       -9.791276   1.000000
    2       -9.261669   1.000000
    3       -3.092625   0.224565
    4       -3.092625   0.224565
    5       -3.092625   0.224565
    6       -2.407398   0.000000
    7       -2.407398   0.000000
    8       -2.407398   0.000000
 
  0.1000000E+00  0.0000000E+00  0.0000000E+00  0.8000000E-02
    1       -9.782267   1.000000
    2       -9.272203   1.000000
    3       -3.109908   0.304174
    4       -3.109124   0.300305
    5       -3.109124   0.300305
    6       -2.401182   0.000000
    7       -2.386900   0.000000
    8       -2.386900   0.000000
 
  0.2000000E+00  0.0000000E+00  0.0000000E+00  0.8000000E-02
    1       -9.756747   1.000000
    2       -9.301679   1.000000
    3       -3.158550   0.569643
    4       -3.148310   0.512222
    5       -3.148310   0.512222
    6       -2.374383   0.000000
    7       -2.337428   0.000000
    8       -2.337428   0.000000
 
  0.3000000E+00  0.0000000E+00  0.0000000E+00  0.8000000E-02
    1       -9.719850   1.000000
    2       -9.343421   1.000000
    3       -3.222105   0.858649
    4       -3.190734   0.735854
    5       -3.190734   0.735854
    6       -2.325148   0.000000
    7       -2.282714   0.000000
    8       -2.282714   0.000000
 
  0.4000000E+00  0.0000000E+00  0.0000000E+00  0.8000000E-02
    1       -9.682732   1.000000
    2       -9.384441   1.000000
    3       -3.274151   0.964876
    4       -3.221486   0.856678
    5       -3.221486   0.856678
    6       -2.275422   0.000000
    7       -2.242402   0.000000
    8       -2.242402   0.000000
 
  0.5000000E+00  0.0000000E+00  0.0000000E+00  0.4000000E-02
    1       -9.665554   1.000000
    2       -9.403105   1.000000
    3       -3.293938   0.981697
    4       -3.232562   0.889175
    5       -3.232562   0.889174
    6       -2.254459   0.000000
    7       -2.227783   0.000000
    8       -2.227783   0.000000
 
  0.1000000E+00  0.1000000E+00  0.0000000E+00  0.6000000E-02
    1       -9.779185   1.000000
    2       -9.275789   1.000000
    3       -3.131875   0.420044
    4       -3.131875   0.420044
    5       -3.076482   0.162274
    6       -2.443825   0.000000
    7       -2.359955   0.000000
    8       -2.359955   0.000000
 
  0.2000000E+00  0.1000000E+00  0.0000000E+00  0.2400000E-01
    1       -9.758887   1.000000
    2       -9.299220   1.000000
    3       -3.182191   0.694905
    4       -3.173838   0.652347
    5       -3.075754   0.159759
    6       -2.458719   0.000000
    7       -2.307331   0.000000
    8       -2.307315   0.000000
 
  0.3000000E+00  0.1000000E+00  0.0000000E+00  0.2400000E-01
    1       -9.725029   1.000000
    2       -9.337618   1.000000
    3       -3.252210   0.933194
    4       -3.215520   0.836738
    5       -3.096939   0.243262
    6       -2.436293   0.000000
    7       -2.252898   0.000000
    8       -2.243388   0.000000
 
  0.4000000E+00  0.1000000E+00  0.0000000E+00  0.2400000E-01
    1       -9.686108   1.000000
    2       -9.380748   1.000000
    3       -3.317003   0.992161
    4       -3.243002   0.914623
    5       -3.125284   0.384002
    6       -2.394426   0.000000
    7       -2.215620   0.000000
    8       -2.185321   0.000000
 
  0.5000000E+00  0.1000000E+00  0.0000000E+00  0.2400000E-01
    1       -9.659404   1.000000
    2       -9.409725   1.000000
    3       -3.354010   0.998357
    4       -3.249338   0.927773
    5       -3.146518   0.502118
    6       -2.361064   0.000000
    7       -2.205873   0.000000
    8       -2.151222   0.000000
 
 -0.4000000E+00  0.1000000E+00  0.0000000E+00  0.2400000E-01
    1       -9.665677   1.000000
    2       -9.402956   1.000000
    3       -3.352168   0.998214
    4       -3.233268   0.891050
    5       -3.152165   0.533935
    6       -2.355855   0.000000
    7       -2.225925   0.000000
    8       -2.151468   0.000000
 
 -0.3000000E+00  0.1000000E+00  0.0000000E+00  0.2400000E-01
    1       -9.699195   1.000000
    2       -9.366359   1.000000
    3       -3.312521   0.990687
    4       -3.198641   0.771090
    5       -3.141637   0.474592
    6       -2.377901   0.000000
    7       -2.270521   0.000000
    8       -2.185208   0.000000
 
 -0.2000000E+00  0.1000000E+00  0.0000000E+00  0.2400000E-01
    1       -9.737783   1.000000
    2       -9.323249   1.000000
    3       -3.246355   0.921789
    4       -3.155102   0.550413
    5       -3.122739   0.370328
    6       -2.405507   0.000000
    7       -2.326566   0.000000
    8       -2.244735   0.000000
 
 -0.1000000E+00  0.1000000E+00  0.0000000E+00  0.1200000E-01
    1       -9.767636   1.000000
    2       -9.289151   1.000000
    3       -3.171745   0.641352
    4       -3.119002   0.350551
    5       -3.108702   0.298229
    6       -2.413899   0.000000
    7       -2.373036   0.000000
    8       -2.318746   0.000000
 
  0.2000000E+00  0.2000000E+00  0.0000000E+00  0.6000000E-02
    1       -9.743898   1.000000
    2       -9.316324   1.000000
    3       -3.217338   0.842997
    4       -3.217338   0.842997
    5       -3.031905   0.053093
    6       -2.532659   0.000000
    7       -2.252345   0.000000
    8       -2.252345   0.000000
 
  0.3000000E+00  0.2000000E+00  0.0000000E+00  0.2400000E-01
    1       -9.714087   1.000000
    2       -9.349848   1.000000
    3       -3.275705   0.966545
    4       -3.259339   0.945292
    5       -3.015524   0.032357
    6       -2.558030   0.000000
    7       -2.196593   0.000000
    8       -2.190415   0.000000
 
  0.4000000E+00  0.2000000E+00  0.0000000E+00  0.2400000E-01
    1       -9.675431   1.000000
    2       -9.392379   1.000000
    3       -3.346062   0.997653
    4       -3.285935   0.975977
    5       -3.016992   0.033890
    6       -2.539361   0.000000
    7       -2.159399   0.000000
    8       -2.131784   0.000000
 
  0.5000000E+00  0.2000000E+00  0.0000000E+00  0.2400000E-01
    1       -9.641462   1.000000
    2       -9.428914   1.000000
    3       -3.400329   0.999838
    4       -3.290283   0.979247
    5       -3.030210   0.050551
    6       -2.500245   0.000000
    7       -2.151509   0.000000
    8       -2.092053   0.000000
 
 -0.4000000E+00  0.2000000E+00  0.0000000E+00  0.2400000E-01
    1       -9.636629   1.000000
    2       -9.434046   1.000000
    3       -3.418923   0.999943
    4       -3.271536   0.961912
    5       -3.047685   0.081901
    6       -2.466885   0.000000
    7       -2.174838   0.000000
    8       -2.082188   0.000000
 
 -0.3000000E+00  0.2000000E+00  0.0000000E+00  0.2400000E-01
    1       -9.665881   1.000000
    2       -9.402723   1.000000
    3       -3.395326   0.999787
    4       -3.234424   0.894072
    5       -3.067034   0.131621
    6       -2.448631   0.000000
    7       -2.222918   0.000000
    8       -2.105417   0.000000
 
 -0.2000000E+00  0.2000000E+00  0.0000000E+00  0.1200000E-01
    1       -9.705070   1.000000
    2       -9.359864   1.000000
    3       -3.333614   0.995990
    4       -3.189846   0.731728
    5       -3.091718   0.220743
    6       -2.433416   0.000000
    7       -2.280926   0.000000
    8       -2.160739   0.000000
 
  0.3000000E+00  0.3000000E+00  0.0000000E+00  0.6000000E-02
    1       -9.688358   1.000000
    2       -9.378280   1.000000
    3       -3.302611   0.986544
    4       -3.302611   0.986544
    5       -2.968467   0.005990
    6       -2.637081   0.000000
    7       -2.138275   0.000000
    8       -2.138275   0.000000
 
  0.4000000E+00  0.3000000E+00  0.0000000E+00  0.2400000E-01
    1       -9.651674   1.000000
    2       -9.418020   1.000000
    3       -3.352258   0.998221
    4       -3.330694   0.995472
    5       -2.939649   0.001749
    6       -2.662587   0.000000
    7       -2.098463   0.000000
    8       -2.089414   0.000000
 
  0.5000000E+00  0.3000000E+00  0.0000000E+00  0.2400000E-01
    1       -9.613253   1.000000
    2       -9.458683   1.000000
    3       -3.409488   0.999902
    4       -3.336072   0.996384
    5       -2.928664   0.001050
    6       -2.641244   0.000000
    7       -2.089119   0.000000
    8       -2.054487   0.000000
 
 -0.4000000E+00  0.3000000E+00  0.0000000E+00  0.2400000E-01
    1       -9.598831   1.000000
    2       -9.473694   1.000000
    3       -3.445025   0.999988
    4       -3.317562   0.992330
    5       -2.949070   0.002660
    6       -2.586272   0.000000
    7       -2.112774   0.000000
    8       -2.042955   0.000000
 
 -0.3000000E+00  0.3000000E+00  0.0000000E+00  0.1200000E-01
    1       -9.626410   1.000000
    2       -9.444848   1.000000
    3       -3.441619   0.999985
    4       -3.279933   0.970759
    5       -2.998144   0.018174
    6       -2.518830   0.000000
    7       -2.162621   0.000000
    8       -2.058999   0.000000
 
  0.4000000E+00  0.4000000E+00  0.0000000E+00  0.6000000E-02
    1       -9.617273   1.000000
    2       -9.454496   1.000000
    3       -3.361604   0.998845
    4       -3.361604   0.998845
    5       -2.896090   0.000203
    6       -2.734136   0.000000
    7       -2.054734   0.000000
    8       -2.054734   0.000000
 
  0.5000000E+00  0.4000000E+00  0.0000000E+00  0.2400000E-01
    1       -9.577271   1.000000
    2       -9.495952   1.000000
    3       -3.393998   0.999772
    4       -3.370057   0.999229
    5       -2.859614   0.000025
    6       -2.756131   0.000000
    7       -2.041718   0.000000
    8       -2.032099   0.000000
 
 -0.4000000E+00  0.4000000E+00  0.0000000E+00  0.1200000E-01
    1       -9.561769   1.000000
    2       -9.511735   1.000000
    3       -3.431581   0.999973
    4       -3.353994   0.998356
    5       -2.876417   0.000068
    6       -2.697517   0.000000
    7       -2.063141   0.000000
    8       -2.027323   0.000000
 
  0.5000000E+00  0.5000000E+00  0.0000000E+00  0.3000000E-02
    1       -9.536853   1.000000
    2       -9.536853   1.000000
    3       -3.382427   0.999583
    4       -3.382427   0.999583
    5       -2.819002   0.000002
    6       -2.819002   0.000002
    7       -2.024220   0.000000
    8       -2.024220   0.000000
 
  0.3000000E+00  0.2000000E+00  0.1000000E+00  0.2400000E-01
    1       -9.733973   1.000000
    2       -9.327559   1.000000
    3       -3.256074   0.939986
    4       -3.200375   0.778447
    5       -3.061003   0.114283
    6       -2.485231   0.000000
    7       -2.273433   0.000000
    8       -2.224758   0.000000
 
  0.4000000E+00  0.2000000E+00  0.1000000E+00  0.4800000E-01
    1       -9.697454   1.000000
    2       -9.368274   1.000000
    3       -3.330041   0.995348
    4       -3.234890   0.895273
    5       -3.059289   0.109666
    6       -2.478937   0.000000
    7       -2.227535   0.000000
    8       -2.156914   0.000000
 
  0.5000000E+00  0.2000000E+00  0.1000000E+00  0.4800000E-01
    1       -9.659598   1.000000
    2       -9.409503   1.000000
    3       -3.383541   0.999606
    4       -3.263368   0.951322
    5       -3.063893   0.122375
    6       -2.457093   0.000000
    7       -2.189964   0.000000
    8       -2.112978   0.000000
 
 -0.4000000E+00  0.2000000E+00  0.1000000E+00  0.2400000E-01
    1       -9.641358   1.000000
    2       -9.429026   1.000000
    3       -3.403057   0.999860
    4       -3.273995   0.964705
    5       -3.066776   0.130841
    6       -2.445621   0.000000
    7       -2.175965   0.000000
    8       -2.097619   0.000000
 
  0.4000000E+00  0.3000000E+00  0.1000000E+00  0.2400000E-01
    1       -9.681027   1.000000
    2       -9.386292   1.000000
    3       -3.335531   0.996301
    4       -3.290588   0.979462
    5       -2.985046   0.011356
    6       -2.590594   0.000000
    7       -2.155692   0.000000
    8       -2.125744   0.000000
 
  0.5000000E+00  0.3000000E+00  0.1000000E+00  0.4800000E-01
    1       -9.641632   1.000000
    2       -9.428733   1.000000
    3       -3.392919   0.999758
    4       -3.315634   0.991734
    5       -2.963878   0.004974
    6       -2.588533   0.000000
    7       -2.125648   0.000000
    8       -2.080580   0.000000
 
 -0.4000000E+00  0.3000000E+00  0.1000000E+00  0.4800000E-01
    1       -9.613123   1.000000
    2       -9.458811   1.000000
    3       -3.429990   0.999970
    4       -3.320462   0.993154
    5       -2.961361   0.004485
    6       -2.565466   0.000000
    7       -2.121004   0.000000
    8       -2.058529   0.000000
 
 -0.3000000E+00  0.3000000E+00  0.1000000E+00  0.4800000E-01
    1       -9.622946   1.000000
    2       -9.448500   1.000000
    3       -3.433175   0.999975
    4       -3.301737   0.986112
    5       -2.979763   0.009312
    6       -2.538175   0.000000
    7       -2.144393   0.000000
    8       -2.062023   0.000000
 
 -0.2000000E+00  0.3000000E+00  0.1000000E+00  0.2400000E-01
    1       -9.659713   1.000000
    2       -9.409363   1.000000
    3       -3.398031   0.999816
    4       -3.267311   0.956696
    5       -3.015702   0.032539
    6       -2.511412   0.000000
    7       -2.185929   0.000000
    8       -2.094168   0.000000
 
  0.5000000E+00  0.4000000E+00  0.1000000E+00  0.2400000E-01
    1       -9.613335   1.000000
    2       -9.458608   1.000000
    3       -3.384279   0.999621
    4       -3.359224   0.998708
    5       -2.895379   0.000195
    6       -2.697607   0.000000
    7       -2.068795   0.000000
    8       -2.055219   0.000000
 
 -0.4000000E+00  0.4000000E+00  0.1000000E+00  0.4800000E-01
    1       -9.577192   1.000000
    2       -9.496007   1.000000
    3       -3.422139   0.999953
    4       -3.365547   0.999042
    5       -2.866333   0.000038
    6       -2.692483   0.000000
    7       -2.066537   0.000000
    8       -2.038504   0.000000
 
 -0.3000000E+00  0.4000000E+00  0.1000000E+00  0.2400000E-01
    1       -9.584160   1.000000
    2       -9.488848   1.000000
    3       -3.445189   0.999988
    4       -3.342208   0.997221
    5       -2.902778   0.000289
    6       -2.625992   0.000000
    7       -2.096118   0.000000
    8       -2.038895   0.000000
 
 -0.4000000E+00  0.5000000E+00  0.1000000E+00  0.1200000E-01
    1       -9.536848   1.000000
    2       -9.536848   1.000000
    3       -3.392447   0.999752
    4       -3.392447   0.999752
    5       -2.799122   0.000000
    6       -2.799122   0.000000
    7       -2.033473   0.000000
    8       -2.033473   0.000000
 
 -0.4000000E+00  0.4000000E+00  0.2000000E+00  0.2400000E-01
    1       -9.601916   1.000000
    2       -9.470491   1.000000
    3       -3.424791   0.999959
    4       -3.350832   0.998103
    5       -2.898683   0.000233
    6       -2.634019   0.000000
    7       -2.095490   0.000000
    8       -2.051457   0.000000
 
 -0.3000000E+00  0.4000000E+00  0.2000000E+00  0.2400000E-01
    1       -9.577145   1.000000
    2       -9.496038   1.000000
    3       -3.434114   0.999977
    4       -3.368043   0.999150
    5       -2.863768   0.000033
    6       -2.658576   0.000000
    7       -2.081623   0.000000
    8       -2.044151   0.000000
 
 -0.3000000E+00  0.5000000E+00  0.2000000E+00  0.1200000E-01
    1       -9.536836   1.000000
    2       -9.536836   1.000000
    3       -3.407608   0.999891
    4       -3.407608   0.999891
    5       -2.767222   0.000000
    6       -2.767222   0.000000
    7       -2.049217   0.000000
    8       -2.049217   0.000000
