       N       E                     dE             d eps       ncg     rms          rms(c)
DAV:   1    -0.238225188536E+01   -0.23823E+01   -0.38146E-07   376   0.226E-03    0.695E-05
DAV:   2    -0.238225189290E+01   -0.75393E-08   -0.68877E-08   376   0.109E-03
   1 F= -.23822519E+01 E0= -.23623179E+01  d E =-.398679E-01
