 vasp.5.4.1 24Jun15 (build Jul 19 2016 16:50:41) complex                        
  
 executed on           IFC91_ompi date 2019.11.12  12:31:41
 running on    4 total cores
 distrk:  each k-point on    4 cores,    1 groups
 distr:  one band on NCORES_PER_BAND=   1 cores,    4 groups


--------------------------------------------------------------------------------------------------------


 INCAR:
 POTCAR:    US Si                                 
 POTCAR:    US Si                                 
   VRHFIN =Si: s2p2                                                             
   LEXCH  = CA                                                                  
   EATOM  =   115.7612 eV,    8.5082 Ry                                         
   GGA    =    -1.4125   -1.4408     .0293    -.9884 eV                         
                                                                                
   TITEL  = US Si                                                               
   LULTRA =        T    use ultrasoft PP ?                                      
   IUNSCR =        1    unscreen: 0-lin 1-nonlin 2-no                           
   RPACOR =    1.580    partial core radius                                     
   POMASS =   28.085; ZVAL   =    4.000    mass and valenz                      
   RCORE  =    2.480    outmost cutoff radius                                   
   RWIGS  =    2.480; RWIGS  =    1.312    wigner-seitz radius (au A)           
   ENMAX  =  150.544; ENMIN  =  112.908 eV                                      
   EAUG   =  241.945                                                            
                                                                                
   ICORE  =        2    local potential                                         
   LCOR   =        T    correct aug charges                                     
   RMAX   =    3.758    core radius for proj-oper                               
   QCUT   =   -3.326; QGAM   =    6.653    optimization parameters              
                                                                                
   Description                                                                  
     l     E      TYP  RCUT    TYP  RCUT                                        
     0   .000     15  2.210    23  2.480                                        
     0   .000     15  2.210    23  2.480                                        
     1   .000     15  2.210    23  2.480                                        
     1   .000     15  2.210    23  2.480                                        
     2   .000      7  2.480     7  2.480                                        
  local pseudopotential read in
  partial core-charges read in
  atomic valenz-charges read in
  non local Contribution for L=           0  read in
    real space projection operators read in
  non local Contribution for L=           0  read in
    real space projection operators read in
  non local Contribution for L=           1  read in
    real space projection operators read in
  non local Contribution for L=           1  read in
    real space projection operators read in
    augmentation charges read in
 
   number of l-projection  operators is LMAX  =           4
   number of lm-projection operators is LMMAX =           8
 
  US Si                                 :
 energy of atom  1       EATOM= -115.7612
 kinetic energy error for atom=    0.0004 (will be added to EATOM!!)
 
 
 POSCAR: diamond Si                              
  positions in cartesian coordinates
  No initial velocities read in
 exchange correlation table for  LEXCH =        2
   RHO(1)=    0.500       N(1)  =     2000
   RHO(2)=  100.500       N(2)  =     4000
 


--------------------------------------------------------------------------------------------------------


 ion  position               nearest neighbor table
   1  0.000  0.000  0.000-
   2  0.250  0.250  0.250-
 
  LATTYP: Found a face centered cubic cell.
 ALAT       =    10.2600000000
  
  Lattice vectors:
  
 A1 = (   0.0000000000,   5.1300000000,   5.1300000000)
 A2 = (   5.1300000000,   0.0000000000,   5.1300000000)
 A3 = (   5.1300000000,   5.1300000000,   0.0000000000)


Analysis of symmetry for initial positions (statically):
=====================================================================
 Subroutine PRICEL returns:
 Original cell was already a primitive cell.
 

 Routine SETGRP: Setting up the symmetry group for a 
 face centered cubic supercell.


 Subroutine GETGRP returns: Found 48 space group operations
 (whereof 24 operations were pure point group operations)
 out of a pool of 48 trial point group operations.


The static configuration has the point symmetry T_d .
 The point group associated with its full space group is O_h .


Analysis of symmetry for dynamics (positions and initial velocities):
=====================================================================
 Subroutine PRICEL returns:
 Original cell was already a primitive cell.
 

 Routine SETGRP: Setting up the symmetry group for a 
 face centered cubic supercell.


 Subroutine GETGRP returns: Found 48 space group operations
 (whereof 24 operations were pure point group operations)
 out of a pool of 48 trial point group operations.


The dynamic configuration has the point symmetry T_d .
 The point group associated with its full space group is O_h .


 Subroutine INISYM returns: Found 48 space group operations
 (whereof 24 operations are pure point group operations),
 and found     1 'primitive' translations

 
 
 KPOINTS: K-Points                                

Automatic generation of k-mesh.
Space group operators:
 irot       det(A)        alpha          n_x          n_y          n_z        tau_x        tau_y        tau_z
    1     1.000000     0.000000     1.000000     0.000000     0.000000     0.000000     0.000000     0.000000
    2     1.000000   120.000000    -0.577350    -0.577350    -0.577350     0.000000     0.000000     0.000000
    3     1.000000   120.000000     0.577350     0.577350     0.577350     0.000000     0.000000     0.000000
    4    -1.000000    90.000000     0.000000     0.000000    -1.000000     0.000000     0.000000     0.000000
    5    -1.000000   180.000000     0.000000     0.707107     0.707107     0.000000     0.000000     0.000000
    6    -1.000000    90.000000     0.000000     1.000000     0.000000     0.000000     0.000000     0.000000
    7     1.000000   180.000000     0.000000     0.000000     1.000000     0.000000     0.000000     0.000000
    8     1.000000   120.000000    -0.577350     0.577350     0.577350     0.000000     0.000000     0.000000
    9     1.000000   120.000000    -0.577350     0.577350    -0.577350     0.000000     0.000000     0.000000
   10    -1.000000    90.000000     0.000000     0.000000     1.000000     0.000000     0.000000     0.000000
   11    -1.000000    90.000000    -1.000000     0.000000     0.000000     0.000000     0.000000     0.000000
   12    -1.000000   180.000000     0.707107     0.000000     0.707107     0.000000     0.000000     0.000000
   13     1.000000   120.000000     0.577350    -0.577350     0.577350     0.000000     0.000000     0.000000
   14     1.000000   120.000000    -0.577350    -0.577350     0.577350     0.000000     0.000000     0.000000
   15     1.000000   180.000000     1.000000     0.000000     0.000000     0.000000     0.000000     0.000000
   16    -1.000000    90.000000     0.000000    -1.000000     0.000000     0.000000     0.000000     0.000000
   17    -1.000000   180.000000     0.707107     0.707107     0.000000     0.000000     0.000000     0.000000
   18    -1.000000    90.000000     1.000000     0.000000     0.000000     0.000000     0.000000     0.000000
   19     1.000000   120.000000     0.577350    -0.577350    -0.577350     0.000000     0.000000     0.000000
   20     1.000000   180.000000     0.000000     1.000000     0.000000     0.000000     0.000000     0.000000
   21     1.000000   120.000000     0.577350     0.577350    -0.577350     0.000000     0.000000     0.000000
   22    -1.000000   180.000000     0.000000    -0.707107     0.707107     0.000000     0.000000     0.000000
   23    -1.000000   180.000000     0.707107    -0.707107     0.000000     0.000000     0.000000     0.000000
   24    -1.000000   180.000000     0.707107     0.000000    -0.707107     0.000000     0.000000     0.000000
   25    -1.000000     0.000000     1.000000     0.000000     0.000000     0.250000     0.250000     0.250000
   26    -1.000000   120.000000    -0.577350    -0.577350    -0.577350     0.250000     0.250000     0.250000
   27    -1.000000   120.000000     0.577350     0.577350     0.577350     0.250000     0.250000     0.250000
   28     1.000000    90.000000     0.000000     0.000000    -1.000000     0.250000     0.250000     0.250000
   29     1.000000   180.000000     0.000000     0.707107     0.707107     0.250000     0.250000     0.250000
   30     1.000000    90.000000     0.000000     1.000000     0.000000     0.250000     0.250000     0.250000
   31    -1.000000   180.000000     0.000000     0.000000     1.000000     0.250000     0.250000     0.250000
   32    -1.000000   120.000000    -0.577350     0.577350     0.577350     0.250000     0.250000     0.250000
   33    -1.000000   120.000000    -0.577350     0.577350    -0.577350     0.250000     0.250000     0.250000
   34     1.000000    90.000000     0.000000     0.000000     1.000000     0.250000     0.250000     0.250000
   35     1.000000    90.000000    -1.000000     0.000000     0.000000     0.250000     0.250000     0.250000
   36     1.000000   180.000000     0.707107     0.000000     0.707107     0.250000     0.250000     0.250000
   37    -1.000000   120.000000     0.577350    -0.577350     0.577350     0.250000     0.250000     0.250000
   38    -1.000000   120.000000    -0.577350    -0.577350     0.577350     0.250000     0.250000     0.250000
   39    -1.000000   180.000000     1.000000     0.000000     0.000000     0.250000     0.250000     0.250000
   40     1.000000    90.000000     0.000000    -1.000000     0.000000     0.250000     0.250000     0.250000
   41     1.000000   180.000000     0.707107     0.707107     0.000000     0.250000     0.250000     0.250000
   42     1.000000    90.000000     1.000000     0.000000     0.000000     0.250000     0.250000     0.250000
   43    -1.000000   120.000000     0.577350    -0.577350    -0.577350     0.250000     0.250000     0.250000
   44    -1.000000   180.000000     0.000000     1.000000     0.000000     0.250000     0.250000     0.250000
   45    -1.000000   120.000000     0.577350     0.577350    -0.577350     0.250000     0.250000     0.250000
   46     1.000000   180.000000     0.000000    -0.707107     0.707107     0.250000     0.250000     0.250000
   47     1.000000   180.000000     0.707107    -0.707107     0.000000     0.250000     0.250000     0.250000
   48     1.000000   180.000000     0.707107     0.000000    -0.707107     0.250000     0.250000     0.250000
 
 Subroutine IBZKPT returns following result:
 ===========================================
 
 Found     47 irreducible k-points:
 
 Following reciprocal coordinates:
            Coordinates               Weight
  0.000000  0.000000  0.000000      1.000000
  0.100000  0.000000  0.000000      8.000000
  0.200000  0.000000  0.000000      8.000000
  0.300000  0.000000  0.000000      8.000000
  0.400000  0.000000  0.000000      8.000000
  0.500000  0.000000  0.000000      4.000000
  0.100000  0.100000  0.000000      6.000000
  0.200000  0.100000  0.000000     24.000000
  0.300000  0.100000  0.000000     24.000000
  0.400000  0.100000  0.000000     24.000000
  0.500000  0.100000  0.000000     24.000000
 -0.400000  0.100000  0.000000     24.000000
 -0.300000  0.100000  0.000000     24.000000
 -0.200000  0.100000  0.000000     24.000000
 -0.100000  0.100000  0.000000     12.000000
  0.200000  0.200000  0.000000      6.000000
  0.300000  0.200000  0.000000     24.000000
  0.400000  0.200000  0.000000     24.000000
  0.500000  0.200000  0.000000     24.000000
 -0.400000  0.200000  0.000000     24.000000
 -0.300000  0.200000  0.000000     24.000000
 -0.200000  0.200000  0.000000     12.000000
  0.300000  0.300000  0.000000      6.000000
  0.400000  0.300000  0.000000     24.000000
  0.500000  0.300000  0.000000     24.000000
 -0.400000  0.300000  0.000000     24.000000
 -0.300000  0.300000  0.000000     12.000000
  0.400000  0.400000  0.000000      6.000000
  0.500000  0.400000  0.000000     24.000000
 -0.400000  0.400000  0.000000     12.000000
  0.500000  0.500000  0.000000      3.000000
  0.300000  0.200000  0.100000     24.000000
  0.400000  0.200000  0.100000     48.000000
  0.500000  0.200000  0.100000     48.000000
 -0.400000  0.200000  0.100000     24.000000
  0.400000  0.300000  0.100000     24.000000
  0.500000  0.300000  0.100000     48.000000
 -0.400000  0.300000  0.100000     48.000000
 -0.300000  0.300000  0.100000     48.000000
 -0.200000  0.300000  0.100000     24.000000
  0.500000  0.400000  0.100000     24.000000
 -0.400000  0.400000  0.100000     48.000000
 -0.300000  0.400000  0.100000     24.000000
 -0.400000  0.500000  0.100000     12.000000
 -0.400000  0.400000  0.200000     24.000000
 -0.300000  0.400000  0.200000     24.000000
 -0.300000  0.500000  0.200000     12.000000
 
 Following cartesian coordinates:
            Coordinates               Weight
  0.000000  0.000000  0.000000      1.000000
 -0.100000  0.100000  0.100000      8.000000
 -0.200000  0.200000  0.200000      8.000000
 -0.300000  0.300000  0.300000      8.000000
 -0.400000  0.400000  0.400000      8.000000
 -0.500000  0.500000  0.500000      4.000000
  0.000000  0.000000  0.200000      6.000000
 -0.100000  0.100000  0.300000     24.000000
 -0.200000  0.200000  0.400000     24.000000
 -0.300000  0.300000  0.500000     24.000000
 -0.400000  0.400000  0.600000     24.000000
  0.500000 -0.500000 -0.300000     24.000000
  0.400000 -0.400000 -0.200000     24.000000
  0.300000 -0.300000 -0.100000     24.000000
  0.200000 -0.200000  0.000000     12.000000
  0.000000  0.000000  0.400000      6.000000
 -0.100000  0.100000  0.500000     24.000000
 -0.200000  0.200000  0.600000     24.000000
 -0.300000  0.300000  0.700000     24.000000
  0.600000 -0.600000 -0.200000     24.000000
  0.500000 -0.500000 -0.100000     24.000000
  0.400000 -0.400000  0.000000     12.000000
  0.000000  0.000000  0.600000      6.000000
 -0.100000  0.100000  0.700000     24.000000
 -0.200000  0.200000  0.800000     24.000000
  0.700000 -0.700000 -0.100000     24.000000
  0.600000 -0.600000  0.000000     12.000000
  0.000000  0.000000  0.800000      6.000000
 -0.100000  0.100000  0.900000     24.000000
  0.800000 -0.800000  0.000000     12.000000
  0.000000  0.000000  1.000000      3.000000
 -0.000000  0.200000  0.400000     24.000000
 -0.100000  0.300000  0.500000     48.000000
 -0.200000  0.400000  0.600000     48.000000
  0.700000 -0.500000 -0.300000     24.000000
 -0.000000  0.200000  0.600000     24.000000
 -0.100000  0.300000  0.700000     48.000000
  0.800000 -0.600000 -0.200000     48.000000
  0.700000 -0.500000 -0.100000     48.000000
  0.600000 -0.400000  0.000000     24.000000
  0.000000  0.200000  0.800000     24.000000
  0.900000 -0.700000 -0.100000     48.000000
  0.800000 -0.600000  0.000000     24.000000
  1.000000 -0.800000  0.000000     12.000000
  1.000000 -0.600000 -0.200000     24.000000
  0.900000 -0.500000 -0.100000     24.000000
  1.000000 -0.600000  0.000000     12.000000
 


--------------------------------------------------------------------------------------------------------




 Dimension of arrays:
   k-points           NKPTS =     47   k-points in BZ     NKDIM =     47   number of bands    NBANDS=      8
   number of dos      NEDOS =    301   number of ions     NIONS =      2
   non local maximal  LDIM  =      4   non local SUM 2l+1 LMDIM =      8
   total plane-waves  NPLWV =  74088
   max r-space proj   IRMAX =      1   max aug-charges    IRDMAX=  22356
   dimension x,y,z NGX =    42 NGY =   42 NGZ =   42
   dimension x,y,z NGXF=    84 NGYF=   84 NGZF=   84
   support grid    NGXF=    84 NGYF=   84 NGZF=   84
   ions per type =               2
 NGX,Y,Z   is equivalent  to a cutoff of   9.62,  9.62,  9.62 a.u.
 NGXF,Y,Z  is equivalent  to a cutoff of  19.25, 19.25, 19.25 a.u.


 I would recommend the setting:
   dimension x,y,z NGX =    41 NGY =   41 NGZ =   41
 SYSTEM =  Si diamante                             
 POSCAR =  diamond Si                              

 Startparameter for this run:
   NWRITE =      2    write-flag & timer
   PREC   = accura    normal or accurate (medium, high low for compatibility)
   ISTART =      1    job   : 0-new  1-cont  2-samecut
   ICHARG =      0    charge: 1-file 2-atom 10-const
   ISPIN  =      1    spin polarized calculation?
   LNONCOLLINEAR =      F non collinear calculations
   LSORBIT =      F    spin-orbit coupling
   INIWAV =      1    electr: 0-lowe 1-rand  2-diag
   LASPH  =      F    aspherical Exc in radial PAW
   METAGGA=      F    non-selfconsistent MetaGGA calc.

 Electronic Relaxation 1
   ENCUT  =  307.0 eV  22.56 Ry    4.75 a.u.  10.36 10.36 10.36*2*pi/ulx,y,z
   ENINI  =  307.0     initial cutoff
   ENAUG  =  241.9 eV  augmentation charge cutoff
   NELM   =     60;   NELMIN=  2; NELMDL=  0     # of ELM steps 
   EDIFF  = 0.1E-04   stopping-criterion for ELM
   LREAL  =      F    real-space projection
   NLSPLINE    = F    spline interpolate recip. space projectors
   LCOMPAT=      F    compatible to vasp.4.4
   GGA_COMPAT  = T    GGA compatible to vasp.4.4-vasp.4.6
   LMAXPAW     = -100 max onsite density
   LMAXMIX     =    2 max onsite mixed and CHGCAR
   VOSKOWN=      0    Vosko Wilk Nusair interpolation
   ROPT   =    0.00000
 Ionic relaxation
   EDIFFG = 0.1E-03   stopping-criterion for IOM
   NSW    =      0    number of steps for IOM
   NBLOCK =      1;   KBLOCK =      1    inner block; outer block 
   IBRION =     -1    ionic relax: 0-MD 1-quasi-New 2-CG
   NFREE  =      0    steps in history (QN), initial steepest desc. (CG)
   ISIF   =      2    stress and relaxation
   IWAVPR =     10    prediction:  0-non 1-charg 2-wave 3-comb
   ISYM   =      1    0-nonsym 1-usesym 2-fastsym
   LCORR  =      T    Harris-Foulkes like correction to forces

   POTIM  = 0.5000    time-step for ionic-motion
   TEIN   =    0.0    initial temperature
   TEBEG  =    0.0;   TEEND  =   0.0 temperature during run
   SMASS  =  -3.00    Nose mass-parameter (am)
   estimated Nose-frequenzy (Omega)   =  0.10E-29 period in steps =****** mass=  -0.120E-26a.u.
   SCALEE = 1.0000    scale energy and forces
   NPACO  =    256;   APACO  = 16.0  distance and # of slots for P.C.
   PSTRESS=    0.0 pullay stress

  Mass of Ions in am
   POMASS =  28.09
  Ionic Valenz
   ZVAL   =   4.00
  Atomic Wigner-Seitz radii
   RWIGS  =  -1.00
  virtual crystal weights 
   VCA    =   1.00
   NELECT =       8.0000    total number of electrons
   NUPDOWN=      -1.0000    fix difference up-down

 DOS related values:
   EMIN   =  10.00;   EMAX   =-10.00  energy-range for DOS
   EFERMI =   0.00
   ISMEAR =     0;   SIGMA  =   0.10  broadening in eV -4-tet -1-fermi 0-gaus

 Electronic relaxation 2 (details)
   IALGO  =     38    algorithm
   LDIAG  =      T    sub-space diagonalisation (order eigenvalues)
   LSUBROT=      F    optimize rotation matrix (better conditioning)
   TURBO    =      0    0=normal 1=particle mesh
   IRESTART =      0    0=no restart 2=restart with 2 vectors
   NREBOOT  =      0    no. of reboots
   NMIN     =      0    reboot dimension
   EREF     =   0.00    reference energy to select bands
   IMIX   =      4    mixing-type and parameters
     AMIX     =   0.80;   BMIX     =  1.00
     AMIX_MAG =   3.20;   BMIX_MAG =  1.00
     AMIN     =   0.10
     WC   =   100.;   INIMIX=   1;  MIXPRE=   1;  MAXMIX= -45

 Intra band minimization:
   WEIMIN = 0.0000     energy-eigenvalue tresh-hold
   EBREAK =  0.31E-06  absolut break condition
   DEPER  =   0.30     relativ break condition  

   TIME   =   0.40     timestep for ELM

  volume/ion in A,a.u.               =     135.01       911.06
  Fermi-wavevector in a.u.,A,eV,Ry     =   0.506575  0.957289  3.491509  0.256619
  Thomas-Fermi vector in A             =   1.517665
 
 Write flags
   LWAVE  =      T    write WAVECAR
   LCHARG =      T    write CHGCAR
   LVTOT  =      F    write LOCPOT, total local potential
   LVHAR  =      F    write LOCPOT, Hartree potential only
   LELF   =      F    write electronic localiz. function (ELF)
   LORBIT =      0    0 simple, 1 ext, 2 COOP (PROOUT)


 Dipole corrections
   LMONO  =      F    monopole corrections only (constant potential shift)
   LDIPOL =      F    correct potential (dipole corrections)
   IDIPOL =      0    1-x, 2-y, 3-z, 4-all directions 
   EPSILON=  1.0000000 bulk dielectric constant

 Exchange correlation treatment:
   GGA     =    --    GGA type
   LEXCH   =     2    internal setting for exchange type
   VOSKOWN=      0    Vosko Wilk Nusair interpolation
   LHFCALC =     F    Hartree Fock is set to
   LHFONE  =     F    Hartree Fock one center treatment
   AEXX    =    0.0000 exact exchange contribution

 Linear response parameters
   LEPSILON=     F    determine dielectric tensor
   LRPA    =     F    only Hartree local field effects (RPA)
   LNABLA  =     F    use nabla operator in PAW spheres
   LVEL    =     F    velocity operator in full k-point grid
   LINTERFAST=   F  fast interpolation
   KINTER  =     0    interpolate to denser k-point grid
   CSHIFT  =0.1000    complex shift for real part using Kramers Kronig
   OMEGAMAX=  -1.0    maximum frequency
   DEG_THRESHOLD= 0.2000000E-02 threshold for treating states as degnerate
   RTIME   =    0.100 relaxation time in fs

 Orbital magnetization related:
   ORBITALMAG=     F  switch on orbital magnetization
   LCHIMAG   =     F  perturbation theory with respect to B field
   DQ        =  0.001000  dq finite difference perturbation B field



--------------------------------------------------------------------------------------------------------


 Static calculation
 charge density and potential will be updated during run
 non-spin polarized calculation
 Variant of blocked Davidson
 Davidson routine will perform the subspace rotation
 perform sub-space diagonalisation
    after iterative eigenvector-optimisation
 modified Broyden-mixing scheme, WC =      100.0
 initial mixing is a Kerker type mixing with AMIX =  0.8000 and BMIX =      1.0000
 Hartree-type preconditioning will be used
 using additional bands            4
 reciprocal scheme for non local part
 use partial core corrections
 calculate Harris-corrections to forces 
   (improved forces if not selfconsistent)
 use of overlap-Matrix (Vanderbilt PP)
 Gauss-broadening in eV      SIGMA  =   0.10


--------------------------------------------------------------------------------------------------------


  energy-cutoff  :      307.00
  volume of cell :      270.01
      direct lattice vectors                 reciprocal lattice vectors
     0.000000000  5.130000000  5.130000000    -0.097465887  0.097465887  0.097465887
     5.130000000  0.000000000  5.130000000     0.097465887 -0.097465887  0.097465887
     5.130000000  5.130000000  0.000000000     0.097465887  0.097465887 -0.097465887

  length of vectors
     7.254915575  7.254915575  7.254915575     0.168815868  0.168815868  0.168815868


 
 old parameters found on file WAVECAR:
  energy-cutoff  :      307.00
  volume of cell :      270.01
      direct lattice vectors                 reciprocal lattice vectors
     0.000000000  5.130000000  5.130000000    -0.097465887  0.097465887  0.097465887
     5.130000000  0.000000000  5.130000000     0.097465887 -0.097465887  0.097465887
     5.130000000  5.130000000  0.000000000     0.097465887  0.097465887 -0.097465887

  length of vectors

 
 k-points in units of 2pi/SCALE and weight: K-Points                                
   0.00000000  0.00000000  0.00000000       0.001
  -0.10000000  0.10000000  0.10000000       0.008
  -0.20000000  0.20000000  0.20000000       0.008
  -0.30000000  0.30000000  0.30000000       0.008
  -0.40000000  0.40000000  0.40000000       0.008
  -0.50000000  0.50000000  0.50000000       0.004
   0.00000000  0.00000000  0.20000000       0.006
  -0.10000000  0.10000000  0.30000000       0.024
  -0.20000000  0.20000000  0.40000000       0.024
  -0.30000000  0.30000000  0.50000000       0.024
  -0.40000000  0.40000000  0.60000000       0.024
   0.50000000 -0.50000000 -0.30000000       0.024
   0.40000000 -0.40000000 -0.20000000       0.024
   0.30000000 -0.30000000 -0.10000000       0.024
   0.20000000 -0.20000000  0.00000000       0.012
   0.00000000  0.00000000  0.40000000       0.006
  -0.10000000  0.10000000  0.50000000       0.024
  -0.20000000  0.20000000  0.60000000       0.024
  -0.30000000  0.30000000  0.70000000       0.024
   0.60000000 -0.60000000 -0.20000000       0.024
   0.50000000 -0.50000000 -0.10000000       0.024
   0.40000000 -0.40000000  0.00000000       0.012
   0.00000000  0.00000000  0.60000000       0.006
  -0.10000000  0.10000000  0.70000000       0.024
  -0.20000000  0.20000000  0.80000000       0.024
   0.70000000 -0.70000000 -0.10000000       0.024
   0.60000000 -0.60000000  0.00000000       0.012
   0.00000000  0.00000000  0.80000000       0.006
  -0.10000000  0.10000000  0.90000000       0.024
   0.80000000 -0.80000000  0.00000000       0.012
   0.00000000  0.00000000  1.00000000       0.003
  -0.00000000  0.20000000  0.40000000       0.024
  -0.10000000  0.30000000  0.50000000       0.048
  -0.20000000  0.40000000  0.60000000       0.048
   0.70000000 -0.50000000 -0.30000000       0.024
  -0.00000000  0.20000000  0.60000000       0.024
  -0.10000000  0.30000000  0.70000000       0.048
   0.80000000 -0.60000000 -0.20000000       0.048
   0.70000000 -0.50000000 -0.10000000       0.048
   0.60000000 -0.40000000  0.00000000       0.024
   0.00000000  0.20000000  0.80000000       0.024
   0.90000000 -0.70000000 -0.10000000       0.048
   0.80000000 -0.60000000  0.00000000       0.024
   1.00000000 -0.80000000  0.00000000       0.012
   1.00000000 -0.60000000 -0.20000000       0.024
   0.90000000 -0.50000000 -0.10000000       0.024
   1.00000000 -0.60000000  0.00000000       0.012
 
 k-points in reciprocal lattice and weights: K-Points                                
   0.00000000  0.00000000  0.00000000       0.001
   0.10000000  0.00000000  0.00000000       0.008
   0.20000000  0.00000000  0.00000000       0.008
   0.30000000  0.00000000  0.00000000       0.008
   0.40000000  0.00000000  0.00000000       0.008
   0.50000000  0.00000000  0.00000000       0.004
   0.10000000  0.10000000  0.00000000       0.006
   0.20000000  0.10000000  0.00000000       0.024
   0.30000000  0.10000000  0.00000000       0.024
   0.40000000  0.10000000  0.00000000       0.024
   0.50000000  0.10000000  0.00000000       0.024
  -0.40000000  0.10000000  0.00000000       0.024
  -0.30000000  0.10000000  0.00000000       0.024
  -0.20000000  0.10000000  0.00000000       0.024
  -0.10000000  0.10000000  0.00000000       0.012
   0.20000000  0.20000000  0.00000000       0.006
   0.30000000  0.20000000  0.00000000       0.024
   0.40000000  0.20000000  0.00000000       0.024
   0.50000000  0.20000000  0.00000000       0.024
  -0.40000000  0.20000000  0.00000000       0.024
  -0.30000000  0.20000000  0.00000000       0.024
  -0.20000000  0.20000000  0.00000000       0.012
   0.30000000  0.30000000  0.00000000       0.006
   0.40000000  0.30000000  0.00000000       0.024
   0.50000000  0.30000000  0.00000000       0.024
  -0.40000000  0.30000000  0.00000000       0.024
  -0.30000000  0.30000000  0.00000000       0.012
   0.40000000  0.40000000  0.00000000       0.006
   0.50000000  0.40000000  0.00000000       0.024
  -0.40000000  0.40000000  0.00000000       0.012
   0.50000000  0.50000000  0.00000000       0.003
   0.30000000  0.20000000  0.10000000       0.024
   0.40000000  0.20000000  0.10000000       0.048
   0.50000000  0.20000000  0.10000000       0.048
  -0.40000000  0.20000000  0.10000000       0.024
   0.40000000  0.30000000  0.10000000       0.024
   0.50000000  0.30000000  0.10000000       0.048
  -0.40000000  0.30000000  0.10000000       0.048
  -0.30000000  0.30000000  0.10000000       0.048
  -0.20000000  0.30000000  0.10000000       0.024
   0.50000000  0.40000000  0.10000000       0.024
  -0.40000000  0.40000000  0.10000000       0.048
  -0.30000000  0.40000000  0.10000000       0.024
  -0.40000000  0.50000000  0.10000000       0.012
  -0.40000000  0.40000000  0.20000000       0.024
  -0.30000000  0.40000000  0.20000000       0.024
  -0.30000000  0.50000000  0.20000000       0.012
 
 position of ions in fractional coordinates (direct lattice) 
   0.00000000  0.00000000  0.00000000
   0.25000000  0.25000000  0.25000000
 
 position of ions in cartesian coordinates  (Angst):
   0.00000000  0.00000000  0.00000000
   2.56500000  2.56500000  2.56500000
 


--------------------------------------------------------------------------------------------------------


 k-point  1 :   0.0000 0.0000 0.0000  plane waves:    3287
 k-point  2 :   0.1000 0.0000 0.0000  plane waves:    3311
 k-point  3 :   0.2000 0.0000 0.0000  plane waves:    3320
 k-point  4 :   0.3000 0.0000 0.0000  plane waves:    3308
 k-point  5 :   0.4000 0.0000 0.0000  plane waves:    3293
 k-point  6 :   0.5000 0.0000 0.0000  plane waves:    3316
 k-point  7 :   0.1000 0.1000 0.0000  plane waves:    3315
 k-point  8 :   0.2000 0.1000 0.0000  plane waves:    3303
 k-point  9 :   0.3000 0.1000 0.0000  plane waves:    3311
 k-point 10 :   0.4000 0.1000 0.0000  plane waves:    3309
 k-point 11 :   0.5000 0.1000 0.0000  plane waves:    3295
 k-point 12 :  -0.4000 0.1000 0.0000  plane waves:    3293
 k-point 13 :  -0.3000 0.1000 0.0000  plane waves:    3308
 k-point 14 :  -0.2000 0.1000 0.0000  plane waves:    3308
 k-point 15 :  -0.1000 0.1000 0.0000  plane waves:    3305
 k-point 16 :   0.2000 0.2000 0.0000  plane waves:    3315
 k-point 17 :   0.3000 0.2000 0.0000  plane waves:    3308
 k-point 18 :   0.4000 0.2000 0.0000  plane waves:    3301
 k-point 19 :   0.5000 0.2000 0.0000  plane waves:    3299
 k-point 20 :  -0.4000 0.2000 0.0000  plane waves:    3290
 k-point 21 :  -0.3000 0.2000 0.0000  plane waves:    3302
 k-point 22 :  -0.2000 0.2000 0.0000  plane waves:    3324
 k-point 23 :   0.3000 0.3000 0.0000  plane waves:    3315
 k-point 24 :   0.4000 0.3000 0.0000  plane waves:    3302
 k-point 25 :   0.5000 0.3000 0.0000  plane waves:    3285
 k-point 26 :  -0.4000 0.3000 0.0000  plane waves:    3283
 k-point 27 :  -0.3000 0.3000 0.0000  plane waves:    3278
 k-point 28 :   0.4000 0.4000 0.0000  plane waves:    3302
 k-point 29 :   0.5000 0.4000 0.0000  plane waves:    3302
 k-point 30 :  -0.4000 0.4000 0.0000  plane waves:    3286
 k-point 31 :   0.5000 0.5000 0.0000  plane waves:    3306
 k-point 32 :   0.3000 0.2000 0.1000  plane waves:    3308
 k-point 33 :   0.4000 0.2000 0.1000  plane waves:    3308
 k-point 34 :   0.5000 0.2000 0.1000  plane waves:    3299
 k-point 35 :  -0.4000 0.2000 0.1000  plane waves:    3286
 k-point 36 :   0.4000 0.3000 0.1000  plane waves:    3307
 k-point 37 :   0.5000 0.3000 0.1000  plane waves:    3300
 k-point 38 :  -0.4000 0.3000 0.1000  plane waves:    3296
 k-point 39 :  -0.3000 0.3000 0.1000  plane waves:    3291
 k-point 40 :  -0.2000 0.3000 0.1000  plane waves:    3291
 k-point 41 :   0.5000 0.4000 0.1000  plane waves:    3304
 k-point 42 :  -0.4000 0.4000 0.1000  plane waves:    3293
 k-point 43 :  -0.3000 0.4000 0.1000  plane waves:    3287
 k-point 44 :  -0.4000 0.5000 0.1000  plane waves:    3304
 k-point 45 :  -0.4000 0.4000 0.2000  plane waves:    3289
 k-point 46 :  -0.3000 0.4000 0.2000  plane waves:    3294
 k-point 47 :  -0.3000 0.5000 0.2000  plane waves:    3294

 maximum and minimum number of plane-waves per node :      3324     3278

 maximum number of plane-waves:      3324
 maximum index in each direction: 
   IXMAX=   10   IYMAX=   10   IZMAX=   10
   IXMIN=  -10   IYMIN=  -10   IZMIN=  -10

 NGX is ok and might be reduce to  42
 NGY is ok and might be reduce to  42
 NGZ is ok and might be reduce to  42

 serial   3D FFT for wavefunctions
 parallel 3D FFT for charge:
    minimum data exchange during FFTs selected (reduces bandwidth)


 total amount of memory used by VASP on root node    60751. kBytes
========================================================================

   base      :      30000. kBytes
   nonl-proj :      10104. kBytes
   fftplans  :       5401. kBytes
   grid      :      10217. kBytes
   one-center:          6. kBytes
   wavefun   :       5023. kBytes
 
     INWAV:  cpu time    0.0580: real time    0.1085
 Broyden mixing: mesh for mixing (old mesh)
   NGX = 21   NGY = 21   NGZ = 21
  (NGX  = 84   NGY  = 84   NGZ  = 84)
  gives a total of   9261 points

 charge density for first step will be calculated from the start-wavefunctions


--------------------------------------------------------------------------------------------------------


 Maximum index for augmentation-charges         5385 (set IRDMAX)


--------------------------------------------------------------------------------------------------------


 initial charge from wavefunction
 First call to EWALD:  gamma=   0.274
 Maximum number of real-space cells 3x 3x 3
 Maximum number of reciprocal cells 3x 3x 3

 FEWALD executed in parallel
    FEWALD:  cpu time    0.0220: real time    0.0112


----------------------------------------- Iteration    1(   1)  ---------------------------------------


    POTLOK:  cpu time    0.0940: real time    0.0471
    SETDIJ:  cpu time    0.0080: real time    0.0038
     EDDAV:  cpu time    2.8936: real time    1.5497
       DOS:  cpu time    0.0040: real time    0.0016
    CHARGE:  cpu time    0.5269: real time    0.2647
    MIXING:  cpu time    0.0130: real time    0.0078
    --------------------------------------------
      LOOP:  cpu time    3.5445: real time    1.8771

 eigenvalue-minimisations  :   376
 total energy-change (2. order) :-0.2382252E+01  (-0.3814613E-07)
 number of electron       8.0000000 magnetization 
 augmentation part       -1.3382563 magnetization 

 Broyden mixing:
  rms(total) = 0.69548E-05    rms(broyden)= 0.69539E-05
  rms(prec ) = 0.18026E-04
  weight for this iteration     100.00

 Free energy of the ion-electron system (eV)
  ---------------------------------------------------
  alpha Z        PSCENC =         1.24091711
  Ewald energy   TEWEN  =      -120.96490647
  -Hartree energ DENC   =       -50.87207721
  -exchange      EXHF   =         0.00000000
  -V(xc)+E(xc)   XCENC  =       -11.86598306
  PAW double counting   =         0.00000000        0.00000000
  entropy T*S    EENTRO =        -0.03986798
  eigenvalues    EBANDS =       -51.40188962
  atomic energy  EATOM  =       231.52155534
  Solvation  Ediel_sol  =         0.00000000
  ---------------------------------------------------
  free energy    TOTEN  =        -2.38225189 eV

  energy without entropy =       -2.34238390  energy(sigma->0) =       -2.36231789


--------------------------------------------------------------------------------------------------------




----------------------------------------- Iteration    1(   2)  ---------------------------------------


    POTLOK:  cpu time    0.0230: real time    0.0229
    SETDIJ:  cpu time    0.0010: real time    0.0013
     EDDAV:  cpu time    2.4566: real time    1.2128
       DOS:  cpu time    0.0040: real time    0.0016
    --------------------------------------------
      LOOP:  cpu time    2.4856: real time    1.2410

 eigenvalue-minimisations  :   376
 total energy-change (2. order) :-0.7539313E-08  (-0.6887704E-08)
 number of electron       8.0000000 magnetization 
 augmentation part       -1.3382563 magnetization 

 Free energy of the ion-electron system (eV)
  ---------------------------------------------------
  alpha Z        PSCENC =         1.24091711
  Ewald energy   TEWEN  =      -120.96490647
  -Hartree energ DENC   =       -50.87206441
  -exchange      EXHF   =         0.00000000
  -V(xc)+E(xc)   XCENC  =       -11.86598794
  PAW double counting   =         0.00000000        0.00000000
  entropy T*S    EENTRO =        -0.03986795
  eigenvalues    EBANDS =       -51.40189758
  atomic energy  EATOM  =       231.52155534
  Solvation  Ediel_sol  =         0.00000000
  ---------------------------------------------------
  free energy    TOTEN  =        -2.38225189 eV

  energy without entropy =       -2.34238394  energy(sigma->0) =       -2.36231792


--------------------------------------------------------------------------------------------------------




 average (electrostatic) potential at core
  the test charge radii are     1.2631
  (the norm of the test charge is              1.0000)
       1 -59.7832       2 -59.7832
 
 
 
 E-fermi :  -3.1461     XC(G=0):  -3.9867     alpha+bet : -1.6947


 k-point     1 :       0.0000    0.0000    0.0000
  band No.  band energies     occupation 
      1      -9.7913      2.00000
      2      -9.2617      2.00000
      3      -3.0926      0.44913
      4      -3.0926      0.44913
      5      -3.0926      0.44913
      6      -2.4074      0.00000
      7      -2.4074      0.00000
      8      -2.4074      0.00000

 k-point     2 :       0.1000    0.0000    0.0000
  band No.  band energies     occupation 
      1      -9.7823      2.00000
      2      -9.2722      2.00000
      3      -3.1099      0.60835
      4      -3.1091      0.60061
      5      -3.1091      0.60061
      6      -2.4012      0.00000
      7      -2.3869      0.00000
      8      -2.3869      0.00000

 k-point     3 :       0.2000    0.0000    0.0000
  band No.  band energies     occupation 
      1      -9.7567      2.00000
      2      -9.3017      2.00000
      3      -3.1586      1.13929
      4      -3.1483      1.02444
      5      -3.1483      1.02444
      6      -2.3744      0.00000
      7      -2.3374      0.00000
      8      -2.3374      0.00000

 k-point     4 :       0.3000    0.0000    0.0000
  band No.  band energies     occupation 
      1      -9.7198      2.00000
      2      -9.3434      2.00000
      3      -3.2221      1.71730
      4      -3.1907      1.47171
      5      -3.1907      1.47171
      6      -2.3251      0.00000
      7      -2.2827      0.00000
      8      -2.2827      0.00000

 k-point     5 :       0.4000    0.0000    0.0000
  band No.  band energies     occupation 
      1      -9.6827      2.00000
      2      -9.3844      2.00000
      3      -3.2742      1.92975
      4      -3.2215      1.71336
      5      -3.2215      1.71336
      6      -2.2754      0.00000
      7      -2.2424      0.00000
      8      -2.2424      0.00000

 k-point     6 :       0.5000    0.0000    0.0000
  band No.  band energies     occupation 
      1      -9.6656      2.00000
      2      -9.4031      2.00000
      3      -3.2939      1.96339
      4      -3.2326      1.77835
      5      -3.2326      1.77835
      6      -2.2545      0.00000
      7      -2.2278      0.00000
      8      -2.2278      0.00000

 k-point     7 :       0.1000    0.1000    0.0000
  band No.  band energies     occupation 
      1      -9.7792      2.00000
      2      -9.2758      2.00000
      3      -3.1319      0.84009
      4      -3.1319      0.84009
      5      -3.0765      0.32455
      6      -2.4438      0.00000
      7      -2.3600      0.00000
      8      -2.3600      0.00000

 k-point     8 :       0.2000    0.1000    0.0000
  band No.  band energies     occupation 
      1      -9.7589      2.00000
      2      -9.2992      2.00000
      3      -3.1822      1.38981
      4      -3.1738      1.30469
      5      -3.0758      0.31952
      6      -2.4587      0.00000
      7      -2.3073      0.00000
      8      -2.3073      0.00000

 k-point     9 :       0.3000    0.1000    0.0000
  band No.  band energies     occupation 
      1      -9.7250      2.00000
      2      -9.3376      2.00000
      3      -3.2522      1.86639
      4      -3.2155      1.67348
      5      -3.0969      0.48652
      6      -2.4363      0.00000
      7      -2.2529      0.00000
      8      -2.2434      0.00000

 k-point    10 :       0.4000    0.1000    0.0000
  band No.  band energies     occupation 
      1      -9.6861      2.00000
      2      -9.3807      2.00000
      3      -3.3170      1.98432
      4      -3.2430      1.82925
      5      -3.1253      0.76800
      6      -2.3944      0.00000
      7      -2.2156      0.00000
      8      -2.1853      0.00000

 k-point    11 :       0.5000    0.1000    0.0000
  band No.  band energies     occupation 
      1      -9.6594      2.00000
      2      -9.4097      2.00000
      3      -3.3540      1.99671
      4      -3.2493      1.85555
      5      -3.1465      1.00424
      6      -2.3611      0.00000
      7      -2.2059      0.00000
      8      -2.1512      0.00000

 k-point    12 :      -0.4000    0.1000    0.0000
  band No.  band energies     occupation 
      1      -9.6657      2.00000
      2      -9.4030      2.00000
      3      -3.3522      1.99643
      4      -3.2333      1.78210
      5      -3.1522      1.06787
      6      -2.3559      0.00000
      7      -2.2259      0.00000
      8      -2.1515      0.00000

 k-point    13 :      -0.3000    0.1000    0.0000
  band No.  band energies     occupation 
      1      -9.6992      2.00000
      2      -9.3664      2.00000
      3      -3.3125      1.98137
      4      -3.1986      1.54218
      5      -3.1416      0.94918
      6      -2.3779      0.00000
      7      -2.2705      0.00000
      8      -2.1852      0.00000

 k-point    14 :      -0.2000    0.1000    0.0000
  band No.  band energies     occupation 
      1      -9.7378      2.00000
      2      -9.3232      2.00000
      3      -3.2464      1.84358
      4      -3.1551      1.10083
      5      -3.1227      0.74066
      6      -2.4055      0.00000
      7      -2.3266      0.00000
      8      -2.2447      0.00000

 k-point    15 :      -0.1000    0.1000    0.0000
  band No.  band energies     occupation 
      1      -9.7676      2.00000
      2      -9.2892      2.00000
      3      -3.1717      1.28270
      4      -3.1190      0.70110
      5      -3.1087      0.59646
      6      -2.4139      0.00000
      7      -2.3730      0.00000
      8      -2.3187      0.00000

 k-point    16 :       0.2000    0.2000    0.0000
  band No.  band energies     occupation 
      1      -9.7439      2.00000
      2      -9.3163      2.00000
      3      -3.2173      1.68599
      4      -3.2173      1.68599
      5      -3.0319      0.10619
      6      -2.5327      0.00000
      7      -2.2523      0.00000
      8      -2.2523      0.00000

 k-point    17 :       0.3000    0.2000    0.0000
  band No.  band energies     occupation 
      1      -9.7141      2.00000
      2      -9.3498      2.00000
      3      -3.2757      1.93309
      4      -3.2593      1.89058
      5      -3.0155      0.06471
      6      -2.5580      0.00000
      7      -2.1966      0.00000
      8      -2.1904      0.00000

 k-point    18 :       0.4000    0.2000    0.0000
  band No.  band energies     occupation 
      1      -9.6754      2.00000
      2      -9.3924      2.00000
      3      -3.3461      1.99531
      4      -3.2859      1.95195
      5      -3.0170      0.06778
      6      -2.5394      0.00000
      7      -2.1594      0.00000
      8      -2.1318      0.00000

 k-point    19 :       0.5000    0.2000    0.0000
  band No.  band energies     occupation 
      1      -9.6415      2.00000
      2      -9.4289      2.00000
      3      -3.4003      1.99968
      4      -3.2903      1.95849
      5      -3.0302      0.10110
      6      -2.5002      0.00000
      7      -2.1515      0.00000
      8      -2.0921      0.00000

 k-point    20 :      -0.4000    0.2000    0.0000
  band No.  band energies     occupation 
      1      -9.6366      2.00000
      2      -9.4340      2.00000
      3      -3.4189      1.99989
      4      -3.2715      1.92382
      5      -3.0477      0.16380
      6      -2.4669      0.00000
      7      -2.1748      0.00000
      8      -2.0822      0.00000

 k-point    21 :      -0.3000    0.2000    0.0000
  band No.  band energies     occupation 
      1      -9.6659      2.00000
      2      -9.4027      2.00000
      3      -3.3953      1.99957
      4      -3.2344      1.78814
      5      -3.0670      0.26324
      6      -2.4486      0.00000
      7      -2.2229      0.00000
      8      -2.1054      0.00000

 k-point    22 :      -0.2000    0.2000    0.0000
  band No.  band energies     occupation 
      1      -9.7051      2.00000
      2      -9.3599      2.00000
      3      -3.3336      1.99198
      4      -3.1898      1.46346
      5      -3.0917      0.44149
      6      -2.4334      0.00000
      7      -2.2809      0.00000
      8      -2.1607      0.00000

 k-point    23 :       0.3000    0.3000    0.0000
  band No.  band energies     occupation 
      1      -9.6884      2.00000
      2      -9.3783      2.00000
      3      -3.3026      1.97309
      4      -3.3026      1.97309
      5      -2.9685      0.01198
      6      -2.6371      0.00000
      7      -2.1383      0.00000
      8      -2.1383      0.00000

 k-point    24 :       0.4000    0.3000    0.0000
  band No.  band energies     occupation 
      1      -9.6517      2.00000
      2      -9.4180      2.00000
      3      -3.3523      1.99644
      4      -3.3307      1.99094
      5      -2.9396      0.00350
      6      -2.6626      0.00000
      7      -2.0985      0.00000
      8      -2.0894      0.00000

 k-point    25 :       0.5000    0.3000    0.0000
  band No.  band energies     occupation 
      1      -9.6133      2.00000
      2      -9.4587      2.00000
      3      -3.4095      1.99980
      4      -3.3361      1.99277
      5      -2.9287      0.00210
      6      -2.6412      0.00000
      7      -2.0891      0.00000
      8      -2.0545      0.00000

 k-point    26 :      -0.4000    0.3000    0.0000
  band No.  band energies     occupation 
      1      -9.5988      2.00000
      2      -9.4737      2.00000
      3      -3.4450      1.99998
      4      -3.3176      1.98466
      5      -2.9491      0.00532
      6      -2.5863      0.00000
      7      -2.1128      0.00000
      8      -2.0430      0.00000

 k-point    27 :      -0.3000    0.3000    0.0000
  band No.  band energies     occupation 
      1      -9.6264      2.00000
      2      -9.4448      2.00000
      3      -3.4416      1.99997
      4      -3.2799      1.94152
      5      -2.9981      0.03635
      6      -2.5188      0.00000
      7      -2.1626      0.00000
      8      -2.0590      0.00000

 k-point    28 :       0.4000    0.4000    0.0000
  band No.  band energies     occupation 
      1      -9.6173      2.00000
      2      -9.4545      2.00000
      3      -3.3616      1.99769
      4      -3.3616      1.99769
      5      -2.8961      0.00041
      6      -2.7341      0.00000
      7      -2.0547      0.00000
      8      -2.0547      0.00000

 k-point    29 :       0.5000    0.4000    0.0000
  band No.  band energies     occupation 
      1      -9.5773      2.00000
      2      -9.4960      2.00000
      3      -3.3940      1.99954
      4      -3.3701      1.99846
      5      -2.8596      0.00005
      6      -2.7561      0.00000
      7      -2.0417      0.00000
      8      -2.0321      0.00000

 k-point    30 :      -0.4000    0.4000    0.0000
  band No.  band energies     occupation 
      1      -9.5618      2.00000
      2      -9.5117      2.00000
      3      -3.4316      1.99995
      4      -3.3540      1.99671
      5      -2.8764      0.00014
      6      -2.6975      0.00000
      7      -2.0631      0.00000
      8      -2.0273      0.00000

 k-point    31 :       0.5000    0.5000    0.0000
  band No.  band energies     occupation 
      1      -9.5369      2.00000
      2      -9.5369      2.00000
      3      -3.3824      1.99917
      4      -3.3824      1.99917
      5      -2.8190      0.00000
      6      -2.8190      0.00000
      7      -2.0242      0.00000
      8      -2.0242      0.00000

 k-point    32 :       0.3000    0.2000    0.1000
  band No.  band energies     occupation 
      1      -9.7340      2.00000
      2      -9.3276      2.00000
      3      -3.2561      1.87997
      4      -3.2004      1.55689
      5      -3.0610      0.22857
      6      -2.4852      0.00000
      7      -2.2734      0.00000
      8      -2.2248      0.00000

 k-point    33 :       0.4000    0.2000    0.1000
  band No.  band energies     occupation 
      1      -9.6975      2.00000
      2      -9.3683      2.00000
      3      -3.3300      1.99070
      4      -3.2349      1.79055
      5      -3.0593      0.21933
      6      -2.4789      0.00000
      7      -2.2275      0.00000
      8      -2.1569      0.00000

 k-point    34 :       0.5000    0.2000    0.1000
  band No.  band energies     occupation 
      1      -9.6596      2.00000
      2      -9.4095      2.00000
      3      -3.3835      1.99921
      4      -3.2634      1.90264
      5      -3.0639      0.24475
      6      -2.4571      0.00000
      7      -2.1900      0.00000
      8      -2.1130      0.00000

 k-point    35 :      -0.4000    0.2000    0.1000
  band No.  band energies     occupation 
      1      -9.6414      2.00000
      2      -9.4290      2.00000
      3      -3.4031      1.99972
      4      -3.2740      1.92941
      5      -3.0668      0.26168
      6      -2.4456      0.00000
      7      -2.1760      0.00000
      8      -2.0976      0.00000

 k-point    36 :       0.4000    0.3000    0.1000
  band No.  band energies     occupation 
      1      -9.6810      2.00000
      2      -9.3863      2.00000
      3      -3.3355      1.99260
      4      -3.2906      1.95892
      5      -2.9850      0.02271
      6      -2.5906      0.00000
      7      -2.1557      0.00000
      8      -2.1257      0.00000

 k-point    37 :       0.5000    0.3000    0.1000
  band No.  band energies     occupation 
      1      -9.6416      2.00000
      2      -9.4287      2.00000
      3      -3.3929      1.99952
      4      -3.3156      1.98347
      5      -2.9639      0.00995
      6      -2.5885      0.00000
      7      -2.1256      0.00000
      8      -2.0806      0.00000

 k-point    38 :      -0.4000    0.3000    0.1000
  band No.  band energies     occupation 
      1      -9.6131      2.00000
      2      -9.4588      2.00000
      3      -3.4300      1.99994
      4      -3.3205      1.98631
      5      -2.9614      0.00897
      6      -2.5655      0.00000
      7      -2.1210      0.00000
      8      -2.0585      0.00000

 k-point    39 :      -0.3000    0.3000    0.1000
  band No.  band energies     occupation 
      1      -9.6229      2.00000
      2      -9.4485      2.00000
      3      -3.4332      1.99995
      4      -3.3017      1.97222
      5      -2.9798      0.01862
      6      -2.5382      0.00000
      7      -2.1444      0.00000
      8      -2.0620      0.00000

 k-point    40 :      -0.2000    0.3000    0.1000
  band No.  band energies     occupation 
      1      -9.6597      2.00000
      2      -9.4094      2.00000
      3      -3.3980      1.99963
      4      -3.2673      1.91339
      5      -3.0157      0.06508
      6      -2.5114      0.00000
      7      -2.1859      0.00000
      8      -2.0942      0.00000

 k-point    41 :       0.5000    0.4000    0.1000
  band No.  band energies     occupation 
      1      -9.6133      2.00000
      2      -9.4586      2.00000
      3      -3.3843      1.99924
      4      -3.3592      1.99742
      5      -2.8954      0.00039
      6      -2.6976      0.00000
      7      -2.0688      0.00000
      8      -2.0552      0.00000

 k-point    42 :      -0.4000    0.4000    0.1000
  band No.  band energies     occupation 
      1      -9.5772      2.00000
      2      -9.4960      2.00000
      3      -3.4221      1.99991
      4      -3.3655      1.99808
      5      -2.8663      0.00008
      6      -2.6925      0.00000
      7      -2.0665      0.00000
      8      -2.0385      0.00000

 k-point    43 :      -0.3000    0.4000    0.1000
  band No.  band energies     occupation 
      1      -9.5842      2.00000
      2      -9.4888      2.00000
      3      -3.4452      1.99998
      4      -3.3422      1.99444
      5      -2.9028      0.00058
      6      -2.6260      0.00000
      7      -2.0961      0.00000
      8      -2.0389      0.00000

 k-point    44 :      -0.4000    0.5000    0.1000
  band No.  band energies     occupation 
      1      -9.5368      2.00000
      2      -9.5368      2.00000
      3      -3.3924      1.99950
      4      -3.3924      1.99950
      5      -2.7991      0.00000
      6      -2.7991      0.00000
      7      -2.0335      0.00000
      8      -2.0335      0.00000

 k-point    45 :      -0.4000    0.4000    0.2000
  band No.  band energies     occupation 
      1      -9.6019      2.00000
      2      -9.4705      2.00000
      3      -3.4248      1.99992
      4      -3.3508      1.99621
      5      -2.8987      0.00047
      6      -2.6340      0.00000
      7      -2.0955      0.00000
      8      -2.0515      0.00000

 k-point    46 :      -0.3000    0.4000    0.2000
  band No.  band energies     occupation 
      1      -9.5771      2.00000
      2      -9.4960      2.00000
      3      -3.4341      1.99995
      4      -3.3680      1.99830
      5      -2.8638      0.00007
      6      -2.6586      0.00000
      7      -2.0816      0.00000
      8      -2.0442      0.00000

 k-point    47 :      -0.3000    0.5000    0.2000
  band No.  band energies     occupation 
      1      -9.5368      2.00000
      2      -9.5368      2.00000
      3      -3.4076      1.99978
      4      -3.4076      1.99978
      5      -2.7672      0.00000
      6      -2.7672      0.00000
      7      -2.0492      0.00000
      8      -2.0492      0.00000


--------------------------------------------------------------------------------------------------------


 soft charge-density along one line, spin component           1
         0         1         2         3         4         5         6         7         8         9
 total charge-density along one line
 
 pseudopotential strength for first ion, spin component:           1
  5.814 -20.527  -0.000  -0.000  -0.000   0.000   0.000   0.000
-20.527  89.313   0.000   0.000   0.000  -0.000  -0.000  -0.000
 -0.000   0.000   9.956   0.000   0.000 -22.270   0.000   0.000
 -0.000   0.000   0.000   9.956   0.000   0.000 -22.270   0.000
 -0.000   0.000   0.000   0.000   9.956   0.000   0.000 -22.270
  0.000  -0.000 -22.270   0.000   0.000  95.113  -0.000  -0.000
  0.000  -0.000   0.000 -22.270   0.000  -0.000  95.113  -0.000
  0.000  -0.000   0.000   0.000 -22.270  -0.000  -0.000  95.113
 total augmentation occupancy for first ion, spin component:           1
  8.851   0.009   0.021   0.020  -0.027  -0.000   0.000  -0.000
  0.009   0.000   0.001   0.001  -0.001  -0.000  -0.000   0.000
  0.021   0.001   0.338  -0.005   0.026  -0.001  -0.000   0.000
  0.020   0.001  -0.005   0.145  -0.007  -0.000  -0.000   0.000
 -0.027  -0.001   0.026  -0.007   0.290   0.000   0.000  -0.001
 -0.000  -0.000  -0.001  -0.000   0.000   0.000   0.000  -0.000
  0.000  -0.000  -0.000  -0.000   0.000   0.000   0.000  -0.000
 -0.000   0.000   0.000   0.000  -0.001  -0.000  -0.000   0.000


------------------------ aborting loop because EDIFF is reached ----------------------------------------


    CHARGE:  cpu time    0.5199: real time    0.2722
    FORLOC:  cpu time    0.0300: real time    0.0186
    FORNL :  cpu time    0.1410: real time    0.0812
    STRESS:  cpu time    0.3449: real time    0.3465
    FORCOR:  cpu time    0.0260: real time    0.0255
    FORHAR:  cpu time    0.0220: real time    0.0227
    MIXING:  cpu time    0.0040: real time    0.0033
    OFIELD:  cpu time    0.0000: real time    0.0000

  FORCE on cell =-STRESS in cart. coord.  units (eV):
  Direction    XX          YY          ZZ          XY          YZ          ZX
  --------------------------------------------------------------------------------------
  Alpha Z     1.24092     1.24092     1.24092
  Ewald     -40.32165   -40.32165   -40.32165     0.00000     0.00000     0.00000
  Hartree    16.95729    16.95729    16.95729     0.00000     0.00000     0.00000
  E(xc)     -20.64573   -20.64573   -20.64573    -0.00000    -0.00000    -0.00000
  Local     -62.05287   -62.05287   -62.05287    -0.00000    -0.00000    -0.00000
  n-local    69.77341    70.88412    66.37542     0.58980    -0.11082    -0.16848
  augment   -19.64632   -19.82861   -19.08594    -0.09694     0.01850     0.02631
  Kinetic    53.71552    55.98575    46.35536     1.35321    -0.45466    -0.04780
  Fock        0.00000     0.00000     0.00000     0.00000     0.00000     0.00000
  -------------------------------------------------------------------------------------
  Total      -3.31247    -3.31247    -3.31247     0.00000     0.00000     0.00000
  in kB     -19.65534   -19.65534   -19.65534     0.00000     0.00000     0.00000
  external pressure =      -19.66 kB  Pullay stress =        0.00 kB


 VOLUME and BASIS-vectors are now :
 -----------------------------------------------------------------------------
  energy-cutoff  :      307.00
  volume of cell :      270.01
      direct lattice vectors                 reciprocal lattice vectors
     0.000000000  5.130000000  5.130000000    -0.097465887  0.097465887  0.097465887
     5.130000000  0.000000000  5.130000000     0.097465887 -0.097465887  0.097465887
     5.130000000  5.130000000  0.000000000     0.097465887  0.097465887 -0.097465887

  length of vectors
     7.254915575  7.254915575  7.254915575     0.168815868  0.168815868  0.168815868


 FORCES acting on ions
    electron-ion (+dipol)            ewald-force                    non-local-force                 convergence-correction
 -----------------------------------------------------------------------------------------------
   -.783E-09 -.783E-09 -.667E-09   -.447E-14 -.498E-14 -.527E-14   0.000E+00 0.000E+00 -.867E-18   -.155E-11 -.155E-11 -.154E-11
   0.782E-09 0.782E-09 0.667E-09   0.449E-14 0.481E-14 0.514E-14   0.000E+00 0.000E+00 -.173E-17   0.154E-11 0.154E-11 0.155E-11
 -----------------------------------------------------------------------------------------------
   -.902E-13 -.730E-13 -.239E-13   0.196E-16 -.173E-15 -.123E-15   0.000E+00 0.000E+00 -.260E-17   -.819E-14 -.789E-14 0.135E-14
 
 
 POSITION                                       TOTAL-FORCE (eV/Angst)
 -----------------------------------------------------------------------------------
      0.00000      0.00000      0.00000         0.000000      0.000000      0.000000
      2.56500      2.56500      2.56500        -0.000000     -0.000000     -0.000000
 -----------------------------------------------------------------------------------
    total drift:                               -0.000000     -0.000000     -0.000000


--------------------------------------------------------------------------------------------------------



  FREE ENERGIE OF THE ION-ELECTRON SYSTEM (eV)
  ---------------------------------------------------
  free  energy   TOTEN  =        -2.38225189 eV

  energy  without entropy=       -2.34238394  energy(sigma->0) =       -2.36231792
 


--------------------------------------------------------------------------------------------------------


    POTLOK:  cpu time    0.0270: real time    0.0268


--------------------------------------------------------------------------------------------------------


 writing wavefunctions
     LOOP+:  cpu time    7.6998: real time    4.6407
    4ORBIT:  cpu time    0.0000: real time    0.0000

 total amount of memory used by VASP on root node    60751. kBytes
========================================================================

   base      :      30000. kBytes
   nonl-proj :      10104. kBytes
   fftplans  :       5401. kBytes
   grid      :      10217. kBytes
   one-center:          6. kBytes
   wavefun   :       5023. kBytes
 
  
  
 General timing and accounting informations for this job:
 ========================================================
  
                  Total CPU time used (sec):        9.493
                            User time (sec):        9.011
                          System time (sec):        0.482
                         Elapsed time (sec):        7.114
  
                   Maximum memory used (kb):       76492.
                   Average memory used (kb):           0.
  
                          Minor page faults:        29403
                          Major page faults:            7
                 Voluntary context switches:         1269
