 running on    4 total cores
 distrk:  each k-point on    4 cores,    1 groups
 distr:  one band on    1 cores,    4 groups
 using from now: INCAR     
 vasp.5.4.1 24Jun15 (build Jul 19 2016 16:50:41) complex                        
  
 POSCAR found :  1 types and       2 ions
 LDA part: xc-table for Ceperly-Alder, standard interpolation
 found WAVECAR, reading the header
 POSCAR, INCAR and KPOINTS ok, starting setup
 FFT: planning ...
 reading WAVECAR
 the WAVECAR file was read successfully
 initial charge from wavefunction
 entering main loop
       N       E                     dE             d eps       ncg     rms          rms(c)
DAV:   1    -0.238225188536E+01   -0.23823E+01   -0.38146E-07   376   0.226E-03    0.695E-05
DAV:   2    -0.238225189290E+01   -0.75393E-08   -0.68877E-08   376   0.109E-03
   1 F= -.23822519E+01 E0= -.23623179E+01  d E =-.398679E-01
 writing wavefunctions
