<?xml version="1.0" encoding="ISO-8859-1"?>
<modeling>
 <generator>
  <i name="program" type="string">vasp </i>
  <i name="version" type="string">5.4.1  </i>
  <i name="subversion" type="string">24Jun15 (build Jul 19 2016 16:50:41) complex                          parallel </i>
  <i name="platform" type="string">IFC91_ompi </i>
  <i name="date" type="string">2019 11 12 </i>
  <i name="time" type="string">12:31:41 </i>
 </generator>
 <incar>
  <i type="string" name="SYSTEM"> Si diamante</i>
  <i type="string" name="PREC">accurate</i>
  <i type="int" name="IBRION">    -1</i>
  <i name="EDIFF">      0.00001000</i>
  <i name="ENMAX">    307.00000000</i>
  <i type="int" name="ISMEAR">     0</i>
  <i name="SIGMA">      0.10000000</i>
  <v type="int" name="KPOINT_BSE">    -1     0     0     0</v>
 </incar>
 <kpoints>
  <generation param="Gamma">
   <v type="int" name="divisions">      10       10       10 </v>
   <v name="usershift">      0.00000000       0.00000000       0.00000000 </v>
   <v name="genvec1">      0.10000000       0.00000000       0.00000000 </v>
   <v name="genvec2">      0.00000000       0.10000000       0.00000000 </v>
   <v name="genvec3">      0.00000000       0.00000000       0.10000000 </v>
   <v name="shift">      0.00000000       0.00000000       0.00000000 </v>
  </generation>
  <varray name="kpointlist" >
   <v>       0.00000000       0.00000000       0.00000000 </v>
   <v>       0.10000000       0.00000000       0.00000000 </v>
   <v>       0.20000000       0.00000000       0.00000000 </v>
   <v>       0.30000000       0.00000000       0.00000000 </v>
   <v>       0.40000000       0.00000000       0.00000000 </v>
   <v>       0.50000000       0.00000000       0.00000000 </v>
   <v>       0.10000000       0.10000000       0.00000000 </v>
   <v>       0.20000000       0.10000000       0.00000000 </v>
   <v>       0.30000000       0.10000000       0.00000000 </v>
   <v>       0.40000000       0.10000000       0.00000000 </v>
   <v>       0.50000000       0.10000000       0.00000000 </v>
   <v>      -0.40000000       0.10000000       0.00000000 </v>
   <v>      -0.30000000       0.10000000       0.00000000 </v>
   <v>      -0.20000000       0.10000000       0.00000000 </v>
   <v>      -0.10000000       0.10000000       0.00000000 </v>
   <v>       0.20000000       0.20000000       0.00000000 </v>
   <v>       0.30000000       0.20000000       0.00000000 </v>
   <v>       0.40000000       0.20000000       0.00000000 </v>
   <v>       0.50000000       0.20000000       0.00000000 </v>
   <v>      -0.40000000       0.20000000       0.00000000 </v>
   <v>      -0.30000000       0.20000000       0.00000000 </v>
   <v>      -0.20000000       0.20000000       0.00000000 </v>
   <v>       0.30000000       0.30000000       0.00000000 </v>
   <v>       0.40000000       0.30000000       0.00000000 </v>
   <v>       0.50000000       0.30000000       0.00000000 </v>
   <v>      -0.40000000       0.30000000       0.00000000 </v>
   <v>      -0.30000000       0.30000000       0.00000000 </v>
   <v>       0.40000000       0.40000000       0.00000000 </v>
   <v>       0.50000000       0.40000000       0.00000000 </v>
   <v>      -0.40000000       0.40000000       0.00000000 </v>
   <v>       0.50000000       0.50000000       0.00000000 </v>
   <v>       0.30000000       0.20000000       0.10000000 </v>
   <v>       0.40000000       0.20000000       0.10000000 </v>
   <v>       0.50000000       0.20000000       0.10000000 </v>
   <v>      -0.40000000       0.20000000       0.10000000 </v>
   <v>       0.40000000       0.30000000       0.10000000 </v>
   <v>       0.50000000       0.30000000       0.10000000 </v>
   <v>      -0.40000000       0.30000000       0.10000000 </v>
   <v>      -0.30000000       0.30000000       0.10000000 </v>
   <v>      -0.20000000       0.30000000       0.10000000 </v>
   <v>       0.50000000       0.40000000       0.10000000 </v>
   <v>      -0.40000000       0.40000000       0.10000000 </v>
   <v>      -0.30000000       0.40000000       0.10000000 </v>
   <v>      -0.40000000       0.50000000       0.10000000 </v>
   <v>      -0.40000000       0.40000000       0.20000000 </v>
   <v>      -0.30000000       0.40000000       0.20000000 </v>
   <v>      -0.30000000       0.50000000       0.20000000 </v>
  </varray>
  <varray name="weights" >
   <v>       0.00100000 </v>
   <v>       0.00800000 </v>
   <v>       0.00800000 </v>
   <v>       0.00800000 </v>
   <v>       0.00800000 </v>
   <v>       0.00400000 </v>
   <v>       0.00600000 </v>
   <v>       0.02400000 </v>
   <v>       0.02400000 </v>
   <v>       0.02400000 </v>
   <v>       0.02400000 </v>
   <v>       0.02400000 </v>
   <v>       0.02400000 </v>
   <v>       0.02400000 </v>
   <v>       0.01200000 </v>
   <v>       0.00600000 </v>
   <v>       0.02400000 </v>
   <v>       0.02400000 </v>
   <v>       0.02400000 </v>
   <v>       0.02400000 </v>
   <v>       0.02400000 </v>
   <v>       0.01200000 </v>
   <v>       0.00600000 </v>
   <v>       0.02400000 </v>
   <v>       0.02400000 </v>
   <v>       0.02400000 </v>
   <v>       0.01200000 </v>
   <v>       0.00600000 </v>
   <v>       0.02400000 </v>
   <v>       0.01200000 </v>
   <v>       0.00300000 </v>
   <v>       0.02400000 </v>
   <v>       0.04800000 </v>
   <v>       0.04800000 </v>
   <v>       0.02400000 </v>
   <v>       0.02400000 </v>
   <v>       0.04800000 </v>
   <v>       0.04800000 </v>
   <v>       0.04800000 </v>
   <v>       0.02400000 </v>
   <v>       0.02400000 </v>
   <v>       0.04800000 </v>
   <v>       0.02400000 </v>
   <v>       0.01200000 </v>
   <v>       0.02400000 </v>
   <v>       0.02400000 </v>
   <v>       0.01200000 </v>
  </varray>
 </kpoints>
 <parameters>
  <separator name="general" >
   <i type="string" name="SYSTEM">Si diamante</i>
   <i type="logical" name="LCOMPAT"> F  </i>
  </separator>
  <separator name="electronic" >
   <i type="string" name="PREC">accura</i>
   <i name="ENMAX">    307.00000000</i>
   <i name="ENAUG">    241.94500000</i>
   <i name="EDIFF">      0.00001000</i>
   <i type="int" name="IALGO">    38</i>
   <i type="int" name="IWAVPR">    10</i>
   <i type="int" name="NBANDS">     8</i>
   <i name="NELECT">      8.00000000</i>
   <i type="int" name="TURBO">     0</i>
   <i type="int" name="IRESTART">     0</i>
   <i type="int" name="NREBOOT">     0</i>
   <i type="int" name="NMIN">     0</i>
   <i name="EREF">      0.00000000</i>
   <separator name="electronic smearing" >
    <i type="int" name="ISMEAR">     0</i>
    <i name="SIGMA">      0.10000000</i>
    <i name="KSPACING">      0.50000000</i>
    <i type="logical" name="KGAMMA"> T  </i>
   </separator>
   <separator name="electronic projectors" >
    <i type="logical" name="LREAL"> F  </i>
    <v name="ROPT">      0.00000000</v>
    <i type="int" name="LMAXPAW">  -100</i>
    <i type="int" name="LMAXMIX">     2</i>
    <i type="logical" name="NLSPLINE"> F  </i>
   </separator>
   <separator name="electronic startup" >
    <i type="int" name="ISTART">     1</i>
    <i type="int" name="ICHARG">     0</i>
    <i type="int" name="INIWAV">     1</i>
   </separator>
   <separator name="electronic spin" >
    <i type="int" name="ISPIN">     1</i>
    <i type="logical" name="LNONCOLLINEAR"> F  </i>
    <v name="MAGMOM">      1.00000000      1.00000000</v>
    <i name="NUPDOWN">     -1.00000000</i>
    <i type="logical" name="LSORBIT"> F  </i>
    <v name="SAXIS">      0.00000000      0.00000000      1.00000000</v>
    <i type="logical" name="LSPIRAL"> F  </i>
    <v name="QSPIRAL">      0.00000000      0.00000000      0.00000000</v>
    <i type="logical" name="LZEROZ"> F  </i>
   </separator>
   <separator name="electronic exchange-correlation" >
    <i type="logical" name="LASPH"> F  </i>
    <i type="logical" name="LMETAGGA"> F  </i>
   </separator>
   <separator name="electronic convergence" >
    <i type="int" name="NELM">    60</i>
    <i type="int" name="NELMDL">     0</i>
    <i type="int" name="NELMIN">     2</i>
    <i name="ENINI">    307.00000000</i>
    <separator name="electronic convergence detail" >
     <i type="logical" name="LDIAG"> T  </i>
     <i type="logical" name="LSUBROT"> F  </i>
     <i name="WEIMIN">      0.00000000</i>
     <i name="EBREAK">      0.00000031</i>
     <i name="DEPER">      0.30000000</i>
     <i type="int" name="NRMM">     4</i>
     <i name="TIME">      0.40000000</i>
    </separator>
   </separator>
   <separator name="electronic mixer" >
    <i name="AMIX">      0.80000000</i>
    <i name="BMIX">      1.00000000</i>
    <i name="AMIN">      0.10000000</i>
    <i name="AMIX_MAG">      3.20000000</i>
    <i name="BMIX_MAG">      1.00000000</i>
    <separator name="electronic mixer details" >
     <i type="int" name="IMIX">     4</i>
     <i type="logical" name="MIXFIRST"> F  </i>
     <i type="int" name="MAXMIX">   -45</i>
     <i name="WC">    100.00000000</i>
     <i type="int" name="INIMIX">     1</i>
     <i type="int" name="MIXPRE">     1</i>
     <i type="int" name="MREMOVE">     5</i>
    </separator>
   </separator>
   <separator name="electronic dipolcorrection" >
    <i type="logical" name="LDIPOL"> F  </i>
    <i type="logical" name="LMONO"> F  </i>
    <i type="int" name="IDIPOL">     0</i>
    <i name="EPSILON">      1.00000000</i>
    <v name="DIPOL">   -100.00000000   -100.00000000   -100.00000000</v>
    <i name="EFIELD">      0.00000000</i>
   </separator>
  </separator>
  <separator name="grids" >
   <i type="int" name="NGX">    42</i>
   <i type="int" name="NGY">    42</i>
   <i type="int" name="NGZ">    42</i>
   <i type="int" name="NGXF">    84</i>
   <i type="int" name="NGYF">    84</i>
   <i type="int" name="NGZF">    84</i>
   <i type="logical" name="ADDGRID"> F  </i>
  </separator>
  <separator name="ionic" >
   <i type="int" name="NSW">     0</i>
   <i type="int" name="IBRION">    -1</i>
   <i type="int" name="ISIF">     2</i>
   <i name="PSTRESS">      0.00000000</i>
   <i name="EDIFFG">      0.00010000</i>
   <i type="int" name="NFREE">     0</i>
   <i name="POTIM">      0.50000000</i>
   <i name="SMASS">     -3.00000000</i>
   <i name="SCALEE">      1.00000000</i>
  </separator>
  <separator name="ionic md" >
   <i name="TEBEG">      0.00010000</i>
   <i name="TEEND">      0.00010000</i>
   <i type="int" name="NBLOCK">     1</i>
   <i type="int" name="KBLOCK">     1</i>
   <i type="int" name="NPACO">   256</i>
   <i name="APACO">     16.00000000</i>
  </separator>
  <separator name="symmetry" >
   <i type="int" name="ISYM">     1</i>
   <i name="SYMPREC">      0.00001000</i>
  </separator>
  <separator name="dos" >
   <i type="logical" name="LORBIT"> F  </i>
   <v name="RWIGS">     -1.00000000</v>
   <i type="int" name="NEDOS">   301</i>
   <i name="EMIN">     10.00000000</i>
   <i name="EMAX">    -10.00000000</i>
   <i name="EFERMI">      0.00000000</i>
  </separator>
  <separator name="writing" >
   <i type="int" name="NWRITE">     2</i>
   <i type="logical" name="LWAVE"> T  </i>
   <i type="logical" name="LCHARG"> T  </i>
   <i type="logical" name="LPARD"> F  </i>
   <i type="logical" name="LVTOT"> F  </i>
   <i type="logical" name="LVHAR"> F  </i>
   <i type="logical" name="LELF"> F  </i>
   <i type="logical" name="LOPTICS"> F  </i>
   <v name="STM">      0.00000000      0.00000000      0.00000000      0.00000000      0.00000000      0.00000000      0.00000000</v>
  </separator>
  <separator name="performance" >
   <i type="int" name="NPAR">     4</i>
   <i type="int" name="NSIM">     4</i>
   <i type="int" name="NBLK">    -1</i>
   <i type="logical" name="LPLANE"> T  </i>
   <i type="logical" name="LSCALAPACK"> F  </i>
   <i type="logical" name="LSCAAWARE"> F  </i>
   <i type="logical" name="LSCALU"> F  </i>
   <i type="logical" name="LASYNC"> F  </i>
   <i type="logical" name="LORBITALREAL"> F  </i>
  </separator>
  <separator name="miscellaneous" >
   <i type="int" name="IDIOT">     3</i>
   <i type="logical" name="LMUSIC"> F  </i>
   <v name="POMASS">     28.08500000</v>
   <v name="DARWINR">      0.00000000</v>
   <v name="DARWINV">      1.00000000</v>
   <i type="logical" name="LCORR"> T  </i>
  </separator>
  <i type="logical" name="GGA_COMPAT"> T  </i>
  <i type="logical" name="LBERRY"> F  </i>
  <i type="int" name="ICORELEVEL">     0</i>
  <i type="logical" name="LDAU"> F  </i>
  <i type="int" name="I_CONSTRAINED_M">     0</i>
  <separator name="electronic exchange-correlation" >
   <i type="string" name="GGA">--</i>
   <i type="int" name="VOSKOWN">     0</i>
   <i type="logical" name="LHFCALC"> F  </i>
   <i type="string" name="PRECFOCK"></i>
   <i type="logical" name="LSYMGRAD"> F  </i>
   <i type="logical" name="LHFONE"> F  </i>
   <i type="logical" name="LRHFCALC"> F  </i>
   <i type="logical" name="LTHOMAS"> F  </i>
   <i type="logical" name="LMODELHF"> F  </i>
   <i name="ENCUT4O">     -1.00000000</i>
   <i type="int" name="EXXOEP">     0</i>
   <i type="int" name="FOURORBIT">     0</i>
   <i name="AEXX">      0.00000000</i>
   <i name="HFALPHA">      0.00000000</i>
   <i name="MCALPHA">      0.00000000</i>
   <i name="ALDAX">      1.00000000</i>
   <i name="AGGAX">      1.00000000</i>
   <i name="ALDAC">      1.00000000</i>
   <i name="AGGAC">      1.00000000</i>
   <i type="int" name="NKREDX">     1</i>
   <i type="int" name="NKREDY">     1</i>
   <i type="int" name="NKREDZ">     1</i>
   <i type="logical" name="SHIFTRED"> F  </i>
   <i type="logical" name="ODDONLY"> F  </i>
   <i type="logical" name="EVENONLY"> F  </i>
   <i type="int" name="LMAXFOCK">     0</i>
   <i type="int" name="NMAXFOCKAE">     0</i>
   <i type="logical" name="LFOCKAEDFT"> F  </i>
   <i name="HFSCREEN">      0.00000000</i>
   <i name="HFSCREENC">      0.00000000</i>
   <i type="int" name="NBANDSGWLOW">     0</i>
  </separator>
  <separator name="vdW DFT" >
   <i type="logical" name="LUSE_VDW"> F  </i>
   <i name="Zab_VDW">     -0.84910000</i>
   <i name="PARAM1">      0.12340000</i>
   <i name="PARAM2">      1.00000000</i>
   <i name="PARAM3">      0.00000000</i>
  </separator>
  <separator name="model GW" >
   <i type="int" name="MODEL_GW">     0</i>
   <i name="MODEL_EPS0">     81.00341820</i>
   <i name="MODEL_ALPHA">      1.00000000</i>
  </separator>
  <separator name="linear response parameters" >
   <i type="logical" name="LEPSILON"> F  </i>
   <i type="logical" name="LRPA"> F  </i>
   <i type="logical" name="LNABLA"> F  </i>
   <i type="logical" name="LVEL"> F  </i>
   <i type="int" name="KINTER">     0</i>
   <i name="CSHIFT">      0.10000000</i>
   <i name="OMEGAMAX">     -1.00000000</i>
   <i name="DEG_THRESHOLD">      0.00200000</i>
  </separator>
  <separator name="orbital magnetization" >
   <i type="logical" name="NUCIND"> F  </i>
   <v name="MAGPOS">      0.00000000      0.00000000      0.00000000</v>
   <i type="logical" name="LNICSALL"> T  </i>
   <i type="logical" name="ORBITALMAG"> F  </i>
   <i type="logical" name="LMAGBLOCH"> F  </i>
   <i type="logical" name="LCHIMAG"> F  </i>
   <i type="logical" name="LGAUGE"> T  </i>
   <i type="int" name="MAGATOM">     0</i>
   <v name="MAGDIPOL">      0.00000000      0.00000000      0.00000000</v>
   <v name="AVECCONST">      0.00000000      0.00000000      0.00000000</v>
  </separator>
  <separator name="response functions" >
   <i type="logical" name="LADDER"> F  </i>
   <i type="logical" name="LFXC"> F  </i>
   <i type="logical" name="LHARTREE"> T  </i>
   <i type="int" name="IBSE">     0</i>
   <v type="int" name="KPOINT">    -1     0     0     0</v>
   <i type="logical" name="LTCTE"> F  </i>
   <i type="logical" name="LTETE"> F  </i>
   <i type="logical" name="LTRIPLET"> F  </i>
   <i type="logical" name="LFXCEPS"> F  </i>
   <i type="logical" name="LFXHEG"> F  </i>
   <i type="int" name="NATURALO">     0</i>
   <i type="logical" name="L2ORDER"> F  </i>
   <i type="logical" name="LUSEW"> F  </i>
   <i name="ENCUTGW">     -2.00000000</i>
   <i name="ENCUTGWSOFT">     -2.00000000</i>
   <i name="ENCUTLF">     -1.00000000</i>
   <i type="int" name="LMAXMP2">    -1</i>
   <i name="SCISSOR">      0.00000000</i>
   <i type="int" name="NOMEGA">     0</i>
   <i type="int" name="NOMEGAR">     0</i>
   <i type="int" name="NBANDSGW">    -1</i>
   <i type="int" name="NBANDSO">    -1</i>
   <i type="int" name="NBANDSV">    -1</i>
   <i type="int" name="NELM">     1</i>
   <i type="int" name="NELMHF">     1</i>
   <i type="int" name="DIM">     3</i>
   <i type="int" name="ANTIRES">     0</i>
   <i name="OMEGAMAX">    -30.00000000</i>
   <i name="OMEGAMIN">    -30.00000000</i>
   <i name="OMEGATL">   -200.00000000</i>
   <i type="int" name="OMEGAGRID">     0</i>
   <i name="CSHIFT">     -0.10000000</i>
   <i type="logical" name="SELFENERGY"> F  </i>
   <i type="logical" name="LSPECTRAL"> F  </i>
   <i type="logical" name="LSPECTRALGW"> F  </i>
   <i type="logical" name="LSINGLES"> F  </i>
   <i type="logical" name="LFERMIGW"> F  </i>
   <i type="logical" name="ODDONLYGW"> F  </i>
   <i type="logical" name="EVENONLYGW"> F  </i>
   <i type="int" name="NKREDLFX">     1</i>
   <i type="int" name="NKREDLFY">     1</i>
   <i type="int" name="NKREDLFZ">     1</i>
   <i type="int" name="MAXMEM">  1800</i>
   <i type="int" name="TELESCOPE">     0</i>
   <i type="int" name="TAUPAR">     1</i>
   <i type="int" name="OMEGAPAR">    -1</i>
   <i name="LAMBDA">      1.00000000</i>
  </separator>
  <separator name="External order field" >
   <i name="OFIELD_KAPPA">      0.00000000</i>
   <v name="OFIELD_K">      0.00000000      0.00000000      0.00000000</v>
   <i name="OFIELD_Q6_NEAR">      0.00000000</i>
   <i name="OFIELD_Q6_FAR">      0.00000000</i>
   <i name="OFIELD_A">      0.00000000</i>
  </separator>
 </parameters>
 <atominfo>
  <atoms>       2 </atoms>
  <types>       1 </types>
  <array name="atoms" >
   <dimension dim="1">ion</dimension>
   <field type="string">element</field>
   <field type="int">atomtype</field>
   <set>
    <rc><c>Si</c><c>   1</c></rc>
    <rc><c>Si</c><c>   1</c></rc>
   </set>
  </array>
  <array name="atomtypes" >
   <dimension dim="1">type</dimension>
   <field type="int">atomspertype</field>
   <field type="string">element</field>
   <field>mass</field>
   <field>valence</field>
   <field type="string">pseudopotential</field>
   <set>
    <rc><c>   2</c><c>Si</c><c>     28.08500000</c><c>      4.00000000</c><c>  US Si                                 </c></rc>
   </set>
  </array>
 </atominfo>
 <structure name="initialpos" >
  <crystal>
   <varray name="basis" >
    <v>       0.00000000       5.13000000       5.13000000 </v>
    <v>       5.13000000       0.00000000       5.13000000 </v>
    <v>       5.13000000       5.13000000       0.00000000 </v>
   </varray>
   <i name="volume">    270.01139400 </i>
   <varray name="rec_basis" >
    <v>      -0.09746589       0.09746589       0.09746589 </v>
    <v>       0.09746589      -0.09746589       0.09746589 </v>
    <v>       0.09746589       0.09746589      -0.09746589 </v>
   </varray>
  </crystal>
  <varray name="positions" >
   <v>       0.00000000       0.00000000       0.00000000 </v>
   <v>       0.25000000       0.25000000       0.25000000 </v>
  </varray>
 </structure>
 <calculation>
  <scstep>
   <time name="dav">    2.89    1.55</time>
   <time name="total">    3.54    1.88</time>
   <energy>
    <i name="alphaZ">      1.24091711 </i>
    <i name="ewald">   -120.96490647 </i>
    <i name="hartreedc">    -50.87207721 </i>
    <i name="XCdc">    -11.86598306 </i>
    <i name="pawpsdc">      0.00000000 </i>
    <i name="pawaedc">      0.00000000 </i>
    <i name="eentropy">     -0.03986798 </i>
    <i name="bandstr">    -51.40188962 </i>
    <i name="atom">    231.52155534 </i>
    <i name="e_fr_energy">     -2.38225189 </i>
    <i name="e_wo_entrp">     -2.34238390 </i>
    <i name="e_0_energy">     -2.36231789 </i>
   </energy>
  </scstep>
  <scstep>
   <time name="dav">    2.46    1.21</time>
   <time name="total">    2.49    1.24</time>
   <energy>
    <i name="alphaZ">      1.24091711 </i>
    <i name="ewald">   -120.96490647 </i>
    <i name="hartreedc">    -50.87206441 </i>
    <i name="XCdc">    -11.86598794 </i>
    <i name="pawpsdc">      0.00000000 </i>
    <i name="pawaedc">      0.00000000 </i>
    <i name="eentropy">     -0.03986795 </i>
    <i name="bandstr">    -51.40189758 </i>
    <i name="atom">    231.52155534 </i>
    <i name="e_fr_energy">     -2.38225189 </i>
    <i name="e_wo_entrp">     -2.34238394 </i>
    <i name="e_0_energy">     -2.36231792 </i>
   </energy>
  </scstep>
  <structure>
   <crystal>
    <varray name="basis" >
     <v>       0.00000000       5.13000000       5.13000000 </v>
     <v>       5.13000000       0.00000000       5.13000000 </v>
     <v>       5.13000000       5.13000000       0.00000000 </v>
    </varray>
    <i name="volume">    270.01139400 </i>
    <varray name="rec_basis" >
     <v>      -0.09746589       0.09746589       0.09746589 </v>
     <v>       0.09746589      -0.09746589       0.09746589 </v>
     <v>       0.09746589       0.09746589      -0.09746589 </v>
    </varray>
   </crystal>
   <varray name="positions" >
    <v>       0.00000000       0.00000000       0.00000000 </v>
    <v>       0.25000000       0.25000000       0.25000000 </v>
   </varray>
  </structure>
  <varray name="forces" >
   <v>       0.00000000       0.00000000       0.00000000 </v>
   <v>      -0.00000000      -0.00000000      -0.00000000 </v>
  </varray>
  <varray name="stress" >
   <v>     -19.65533832      -0.00000000       0.00000000 </v>
   <v>       0.00000000     -19.65533832       0.00000000 </v>
   <v>      -0.00000000       0.00000000     -19.65533832 </v>
  </varray>
  <energy>
   <i name="e_fr_energy">     -2.38225189 </i>
   <i name="e_wo_entrp">     -2.36231792 </i>
   <i name="e_0_energy">     -0.03986795 </i>
  </energy>
  <time name="totalsc">    7.70    4.64</time>
  <eigenvalues>
   <array>
    <dimension dim="1">band</dimension>
    <dimension dim="2">kpoint</dimension>
    <dimension dim="3">spin</dimension>
    <field>eigene</field>
    <field>occ</field>
    <set>
     <set comment="spin 1">
      <set comment="kpoint 1">
       <r>   -9.7913    1.0000 </r>
       <r>   -9.2617    1.0000 </r>
       <r>   -3.0926    0.2246 </r>
       <r>   -3.0926    0.2246 </r>
       <r>   -3.0926    0.2246 </r>
       <r>   -2.4074    0.0000 </r>
       <r>   -2.4074    0.0000 </r>
       <r>   -2.4074    0.0000 </r>
      </set>
      <set comment="kpoint 2">
       <r>   -9.7823    1.0000 </r>
       <r>   -9.2722    1.0000 </r>
       <r>   -3.1099    0.3042 </r>
       <r>   -3.1091    0.3003 </r>
       <r>   -3.1091    0.3003 </r>
       <r>   -2.4012    0.0000 </r>
       <r>   -2.3869    0.0000 </r>
       <r>   -2.3869    0.0000 </r>
      </set>
      <set comment="kpoint 3">
       <r>   -9.7567    1.0000 </r>
       <r>   -9.3017    1.0000 </r>
       <r>   -3.1586    0.5696 </r>
       <r>   -3.1483    0.5122 </r>
       <r>   -3.1483    0.5122 </r>
       <r>   -2.3744    0.0000 </r>
       <r>   -2.3374    0.0000 </r>
       <r>   -2.3374    0.0000 </r>
      </set>
      <set comment="kpoint 4">
       <r>   -9.7198    1.0000 </r>
       <r>   -9.3434    1.0000 </r>
       <r>   -3.2221    0.8586 </r>
       <r>   -3.1907    0.7359 </r>
       <r>   -3.1907    0.7359 </r>
       <r>   -2.3251    0.0000 </r>
       <r>   -2.2827    0.0000 </r>
       <r>   -2.2827    0.0000 </r>
      </set>
      <set comment="kpoint 5">
       <r>   -9.6827    1.0000 </r>
       <r>   -9.3844    1.0000 </r>
       <r>   -3.2742    0.9649 </r>
       <r>   -3.2215    0.8567 </r>
       <r>   -3.2215    0.8567 </r>
       <r>   -2.2754    0.0000 </r>
       <r>   -2.2424    0.0000 </r>
       <r>   -2.2424    0.0000 </r>
      </set>
      <set comment="kpoint 6">
       <r>   -9.6656    1.0000 </r>
       <r>   -9.4031    1.0000 </r>
       <r>   -3.2939    0.9817 </r>
       <r>   -3.2326    0.8892 </r>
       <r>   -3.2326    0.8892 </r>
       <r>   -2.2545    0.0000 </r>
       <r>   -2.2278    0.0000 </r>
       <r>   -2.2278    0.0000 </r>
      </set>
      <set comment="kpoint 7">
       <r>   -9.7792    1.0000 </r>
       <r>   -9.2758    1.0000 </r>
       <r>   -3.1319    0.4200 </r>
       <r>   -3.1319    0.4200 </r>
       <r>   -3.0765    0.1623 </r>
       <r>   -2.4438    0.0000 </r>
       <r>   -2.3600    0.0000 </r>
       <r>   -2.3600    0.0000 </r>
      </set>
      <set comment="kpoint 8">
       <r>   -9.7589    1.0000 </r>
       <r>   -9.2992    1.0000 </r>
       <r>   -3.1822    0.6949 </r>
       <r>   -3.1738    0.6523 </r>
       <r>   -3.0758    0.1598 </r>
       <r>   -2.4587    0.0000 </r>
       <r>   -2.3073    0.0000 </r>
       <r>   -2.3073    0.0000 </r>
      </set>
      <set comment="kpoint 9">
       <r>   -9.7250    1.0000 </r>
       <r>   -9.3376    1.0000 </r>
       <r>   -3.2522    0.9332 </r>
       <r>   -3.2155    0.8367 </r>
       <r>   -3.0969    0.2433 </r>
       <r>   -2.4363    0.0000 </r>
       <r>   -2.2529    0.0000 </r>
       <r>   -2.2434    0.0000 </r>
      </set>
      <set comment="kpoint 10">
       <r>   -9.6861    1.0000 </r>
       <r>   -9.3807    1.0000 </r>
       <r>   -3.3170    0.9922 </r>
       <r>   -3.2430    0.9146 </r>
       <r>   -3.1253    0.3840 </r>
       <r>   -2.3944    0.0000 </r>
       <r>   -2.2156    0.0000 </r>
       <r>   -2.1853    0.0000 </r>
      </set>
      <set comment="kpoint 11">
       <r>   -9.6594    1.0000 </r>
       <r>   -9.4097    1.0000 </r>
       <r>   -3.3540    0.9984 </r>
       <r>   -3.2493    0.9278 </r>
       <r>   -3.1465    0.5021 </r>
       <r>   -2.3611    0.0000 </r>
       <r>   -2.2059    0.0000 </r>
       <r>   -2.1512    0.0000 </r>
      </set>
      <set comment="kpoint 12">
       <r>   -9.6657    1.0000 </r>
       <r>   -9.4030    1.0000 </r>
       <r>   -3.3522    0.9982 </r>
       <r>   -3.2333    0.8910 </r>
       <r>   -3.1522    0.5339 </r>
       <r>   -2.3559    0.0000 </r>
       <r>   -2.2259    0.0000 </r>
       <r>   -2.1515    0.0000 </r>
      </set>
      <set comment="kpoint 13">
       <r>   -9.6992    1.0000 </r>
       <r>   -9.3664    1.0000 </r>
       <r>   -3.3125    0.9907 </r>
       <r>   -3.1986    0.7711 </r>
       <r>   -3.1416    0.4746 </r>
       <r>   -2.3779    0.0000 </r>
       <r>   -2.2705    0.0000 </r>
       <r>   -2.1852    0.0000 </r>
      </set>
      <set comment="kpoint 14">
       <r>   -9.7378    1.0000 </r>
       <r>   -9.3232    1.0000 </r>
       <r>   -3.2464    0.9218 </r>
       <r>   -3.1551    0.5504 </r>
       <r>   -3.1227    0.3703 </r>
       <r>   -2.4055    0.0000 </r>
       <r>   -2.3266    0.0000 </r>
       <r>   -2.2447    0.0000 </r>
      </set>
      <set comment="kpoint 15">
       <r>   -9.7676    1.0000 </r>
       <r>   -9.2892    1.0000 </r>
       <r>   -3.1717    0.6414 </r>
       <r>   -3.1190    0.3506 </r>
       <r>   -3.1087    0.2982 </r>
       <r>   -2.4139    0.0000 </r>
       <r>   -2.3730    0.0000 </r>
       <r>   -2.3187    0.0000 </r>
      </set>
      <set comment="kpoint 16">
       <r>   -9.7439    1.0000 </r>
       <r>   -9.3163    1.0000 </r>
       <r>   -3.2173    0.8430 </r>
       <r>   -3.2173    0.8430 </r>
       <r>   -3.0319    0.0531 </r>
       <r>   -2.5327    0.0000 </r>
       <r>   -2.2523    0.0000 </r>
       <r>   -2.2523    0.0000 </r>
      </set>
      <set comment="kpoint 17">
       <r>   -9.7141    1.0000 </r>
       <r>   -9.3498    1.0000 </r>
       <r>   -3.2757    0.9665 </r>
       <r>   -3.2593    0.9453 </r>
       <r>   -3.0155    0.0324 </r>
       <r>   -2.5580    0.0000 </r>
       <r>   -2.1966    0.0000 </r>
       <r>   -2.1904    0.0000 </r>
      </set>
      <set comment="kpoint 18">
       <r>   -9.6754    1.0000 </r>
       <r>   -9.3924    1.0000 </r>
       <r>   -3.3461    0.9977 </r>
       <r>   -3.2859    0.9760 </r>
       <r>   -3.0170    0.0339 </r>
       <r>   -2.5394    0.0000 </r>
       <r>   -2.1594    0.0000 </r>
       <r>   -2.1318    0.0000 </r>
      </set>
      <set comment="kpoint 19">
       <r>   -9.6415    1.0000 </r>
       <r>   -9.4289    1.0000 </r>
       <r>   -3.4003    0.9998 </r>
       <r>   -3.2903    0.9792 </r>
       <r>   -3.0302    0.0506 </r>
       <r>   -2.5002    0.0000 </r>
       <r>   -2.1515    0.0000 </r>
       <r>   -2.0921    0.0000 </r>
      </set>
      <set comment="kpoint 20">
       <r>   -9.6366    1.0000 </r>
       <r>   -9.4340    1.0000 </r>
       <r>   -3.4189    0.9999 </r>
       <r>   -3.2715    0.9619 </r>
       <r>   -3.0477    0.0819 </r>
       <r>   -2.4669    0.0000 </r>
       <r>   -2.1748    0.0000 </r>
       <r>   -2.0822    0.0000 </r>
      </set>
      <set comment="kpoint 21">
       <r>   -9.6659    1.0000 </r>
       <r>   -9.4027    1.0000 </r>
       <r>   -3.3953    0.9998 </r>
       <r>   -3.2344    0.8941 </r>
       <r>   -3.0670    0.1316 </r>
       <r>   -2.4486    0.0000 </r>
       <r>   -2.2229    0.0000 </r>
       <r>   -2.1054    0.0000 </r>
      </set>
      <set comment="kpoint 22">
       <r>   -9.7051    1.0000 </r>
       <r>   -9.3599    1.0000 </r>
       <r>   -3.3336    0.9960 </r>
       <r>   -3.1898    0.7317 </r>
       <r>   -3.0917    0.2207 </r>
       <r>   -2.4334    0.0000 </r>
       <r>   -2.2809    0.0000 </r>
       <r>   -2.1607    0.0000 </r>
      </set>
      <set comment="kpoint 23">
       <r>   -9.6884    1.0000 </r>
       <r>   -9.3783    1.0000 </r>
       <r>   -3.3026    0.9865 </r>
       <r>   -3.3026    0.9865 </r>
       <r>   -2.9685    0.0060 </r>
       <r>   -2.6371    0.0000 </r>
       <r>   -2.1383    0.0000 </r>
       <r>   -2.1383    0.0000 </r>
      </set>
      <set comment="kpoint 24">
       <r>   -9.6517    1.0000 </r>
       <r>   -9.4180    1.0000 </r>
       <r>   -3.3523    0.9982 </r>
       <r>   -3.3307    0.9955 </r>
       <r>   -2.9396    0.0017 </r>
       <r>   -2.6626    0.0000 </r>
       <r>   -2.0985    0.0000 </r>
       <r>   -2.0894    0.0000 </r>
      </set>
      <set comment="kpoint 25">
       <r>   -9.6133    1.0000 </r>
       <r>   -9.4587    1.0000 </r>
       <r>   -3.4095    0.9999 </r>
       <r>   -3.3361    0.9964 </r>
       <r>   -2.9287    0.0011 </r>
       <r>   -2.6412    0.0000 </r>
       <r>   -2.0891    0.0000 </r>
       <r>   -2.0545    0.0000 </r>
      </set>
      <set comment="kpoint 26">
       <r>   -9.5988    1.0000 </r>
       <r>   -9.4737    1.0000 </r>
       <r>   -3.4450    1.0000 </r>
       <r>   -3.3176    0.9923 </r>
       <r>   -2.9491    0.0027 </r>
       <r>   -2.5863    0.0000 </r>
       <r>   -2.1128    0.0000 </r>
       <r>   -2.0430    0.0000 </r>
      </set>
      <set comment="kpoint 27">
       <r>   -9.6264    1.0000 </r>
       <r>   -9.4448    1.0000 </r>
       <r>   -3.4416    1.0000 </r>
       <r>   -3.2799    0.9708 </r>
       <r>   -2.9981    0.0182 </r>
       <r>   -2.5188    0.0000 </r>
       <r>   -2.1626    0.0000 </r>
       <r>   -2.0590    0.0000 </r>
      </set>
      <set comment="kpoint 28">
       <r>   -9.6173    1.0000 </r>
       <r>   -9.4545    1.0000 </r>
       <r>   -3.3616    0.9988 </r>
       <r>   -3.3616    0.9988 </r>
       <r>   -2.8961    0.0002 </r>
       <r>   -2.7341    0.0000 </r>
       <r>   -2.0547    0.0000 </r>
       <r>   -2.0547    0.0000 </r>
      </set>
      <set comment="kpoint 29">
       <r>   -9.5773    1.0000 </r>
       <r>   -9.4960    1.0000 </r>
       <r>   -3.3940    0.9998 </r>
       <r>   -3.3701    0.9992 </r>
       <r>   -2.8596    0.0000 </r>
       <r>   -2.7561    0.0000 </r>
       <r>   -2.0417    0.0000 </r>
       <r>   -2.0321    0.0000 </r>
      </set>
      <set comment="kpoint 30">
       <r>   -9.5618    1.0000 </r>
       <r>   -9.5117    1.0000 </r>
       <r>   -3.4316    1.0000 </r>
       <r>   -3.3540    0.9984 </r>
       <r>   -2.8764    0.0001 </r>
       <r>   -2.6975    0.0000 </r>
       <r>   -2.0631    0.0000 </r>
       <r>   -2.0273    0.0000 </r>
      </set>
      <set comment="kpoint 31">
       <r>   -9.5369    1.0000 </r>
       <r>   -9.5369    1.0000 </r>
       <r>   -3.3824    0.9996 </r>
       <r>   -3.3824    0.9996 </r>
       <r>   -2.8190    0.0000 </r>
       <r>   -2.8190    0.0000 </r>
       <r>   -2.0242    0.0000 </r>
       <r>   -2.0242    0.0000 </r>
      </set>
      <set comment="kpoint 32">
       <r>   -9.7340    1.0000 </r>
       <r>   -9.3276    1.0000 </r>
       <r>   -3.2561    0.9400 </r>
       <r>   -3.2004    0.7784 </r>
       <r>   -3.0610    0.1143 </r>
       <r>   -2.4852    0.0000 </r>
       <r>   -2.2734    0.0000 </r>
       <r>   -2.2248    0.0000 </r>
      </set>
      <set comment="kpoint 33">
       <r>   -9.6975    1.0000 </r>
       <r>   -9.3683    1.0000 </r>
       <r>   -3.3300    0.9953 </r>
       <r>   -3.2349    0.8953 </r>
       <r>   -3.0593    0.1097 </r>
       <r>   -2.4789    0.0000 </r>
       <r>   -2.2275    0.0000 </r>
       <r>   -2.1569    0.0000 </r>
      </set>
      <set comment="kpoint 34">
       <r>   -9.6596    1.0000 </r>
       <r>   -9.4095    1.0000 </r>
       <r>   -3.3835    0.9996 </r>
       <r>   -3.2634    0.9513 </r>
       <r>   -3.0639    0.1224 </r>
       <r>   -2.4571    0.0000 </r>
       <r>   -2.1900    0.0000 </r>
       <r>   -2.1130    0.0000 </r>
      </set>
      <set comment="kpoint 35">
       <r>   -9.6414    1.0000 </r>
       <r>   -9.4290    1.0000 </r>
       <r>   -3.4031    0.9999 </r>
       <r>   -3.2740    0.9647 </r>
       <r>   -3.0668    0.1308 </r>
       <r>   -2.4456    0.0000 </r>
       <r>   -2.1760    0.0000 </r>
       <r>   -2.0976    0.0000 </r>
      </set>
      <set comment="kpoint 36">
       <r>   -9.6810    1.0000 </r>
       <r>   -9.3863    1.0000 </r>
       <r>   -3.3355    0.9963 </r>
       <r>   -3.2906    0.9795 </r>
       <r>   -2.9850    0.0114 </r>
       <r>   -2.5906    0.0000 </r>
       <r>   -2.1557    0.0000 </r>
       <r>   -2.1257    0.0000 </r>
      </set>
      <set comment="kpoint 37">
       <r>   -9.6416    1.0000 </r>
       <r>   -9.4287    1.0000 </r>
       <r>   -3.3929    0.9998 </r>
       <r>   -3.3156    0.9917 </r>
       <r>   -2.9639    0.0050 </r>
       <r>   -2.5885    0.0000 </r>
       <r>   -2.1256    0.0000 </r>
       <r>   -2.0806    0.0000 </r>
      </set>
      <set comment="kpoint 38">
       <r>   -9.6131    1.0000 </r>
       <r>   -9.4588    1.0000 </r>
       <r>   -3.4300    1.0000 </r>
       <r>   -3.3205    0.9932 </r>
       <r>   -2.9614    0.0045 </r>
       <r>   -2.5655    0.0000 </r>
       <r>   -2.1210    0.0000 </r>
       <r>   -2.0585    0.0000 </r>
      </set>
      <set comment="kpoint 39">
       <r>   -9.6229    1.0000 </r>
       <r>   -9.4485    1.0000 </r>
       <r>   -3.4332    1.0000 </r>
       <r>   -3.3017    0.9861 </r>
       <r>   -2.9798    0.0093 </r>
       <r>   -2.5382    0.0000 </r>
       <r>   -2.1444    0.0000 </r>
       <r>   -2.0620    0.0000 </r>
      </set>
      <set comment="kpoint 40">
       <r>   -9.6597    1.0000 </r>
       <r>   -9.4094    1.0000 </r>
       <r>   -3.3980    0.9998 </r>
       <r>   -3.2673    0.9567 </r>
       <r>   -3.0157    0.0325 </r>
       <r>   -2.5114    0.0000 </r>
       <r>   -2.1859    0.0000 </r>
       <r>   -2.0942    0.0000 </r>
      </set>
      <set comment="kpoint 41">
       <r>   -9.6133    1.0000 </r>
       <r>   -9.4586    1.0000 </r>
       <r>   -3.3843    0.9996 </r>
       <r>   -3.3592    0.9987 </r>
       <r>   -2.8954    0.0002 </r>
       <r>   -2.6976    0.0000 </r>
       <r>   -2.0688    0.0000 </r>
       <r>   -2.0552    0.0000 </r>
      </set>
      <set comment="kpoint 42">
       <r>   -9.5772    1.0000 </r>
       <r>   -9.4960    1.0000 </r>
       <r>   -3.4221    1.0000 </r>
       <r>   -3.3655    0.9990 </r>
       <r>   -2.8663    0.0000 </r>
       <r>   -2.6925    0.0000 </r>
       <r>   -2.0665    0.0000 </r>
       <r>   -2.0385    0.0000 </r>
      </set>
      <set comment="kpoint 43">
       <r>   -9.5842    1.0000 </r>
       <r>   -9.4888    1.0000 </r>
       <r>   -3.4452    1.0000 </r>
       <r>   -3.3422    0.9972 </r>
       <r>   -2.9028    0.0003 </r>
       <r>   -2.6260    0.0000 </r>
       <r>   -2.0961    0.0000 </r>
       <r>   -2.0389    0.0000 </r>
      </set>
      <set comment="kpoint 44">
       <r>   -9.5368    1.0000 </r>
       <r>   -9.5368    1.0000 </r>
       <r>   -3.3924    0.9998 </r>
       <r>   -3.3924    0.9998 </r>
       <r>   -2.7991    0.0000 </r>
       <r>   -2.7991    0.0000 </r>
       <r>   -2.0335    0.0000 </r>
       <r>   -2.0335    0.0000 </r>
      </set>
      <set comment="kpoint 45">
       <r>   -9.6019    1.0000 </r>
       <r>   -9.4705    1.0000 </r>
       <r>   -3.4248    1.0000 </r>
       <r>   -3.3508    0.9981 </r>
       <r>   -2.8987    0.0002 </r>
       <r>   -2.6340    0.0000 </r>
       <r>   -2.0955    0.0000 </r>
       <r>   -2.0515    0.0000 </r>
      </set>
      <set comment="kpoint 46">
       <r>   -9.5771    1.0000 </r>
       <r>   -9.4960    1.0000 </r>
       <r>   -3.4341    1.0000 </r>
       <r>   -3.3680    0.9991 </r>
       <r>   -2.8638    0.0000 </r>
       <r>   -2.6586    0.0000 </r>
       <r>   -2.0816    0.0000 </r>
       <r>   -2.0442    0.0000 </r>
      </set>
      <set comment="kpoint 47">
       <r>   -9.5368    1.0000 </r>
       <r>   -9.5368    1.0000 </r>
       <r>   -3.4076    0.9999 </r>
       <r>   -3.4076    0.9999 </r>
       <r>   -2.7672    0.0000 </r>
       <r>   -2.7672    0.0000 </r>
       <r>   -2.0492    0.0000 </r>
       <r>   -2.0492    0.0000 </r>
      </set>
     </set>
    </set>
   </array>
  </eigenvalues>
  <separator name="orbital magnetization" >
   <v name="MAGDIPOLOUT">      0.00000000      0.00000000      0.00000000</v>
  </separator>
  <dos>
   <i name="efermi">     -3.14614299 </i>
   <total>
    <array>
     <dimension dim="1">gridpoints</dimension>
     <dimension dim="2">spin</dimension>
     <field>energy</field>
     <field>total</field>
     <field>integrated</field>
     <set>
      <set comment="spin 1">
       <r>   -10.7913     0.0000     0.0000 </r>
       <r>   -10.7587     0.0000     0.0000 </r>
       <r>   -10.7262     0.0000     0.0000 </r>
       <r>   -10.6936     0.0000     0.0000 </r>
       <r>   -10.6610     0.0000     0.0000 </r>
       <r>   -10.6285     0.0000     0.0000 </r>
       <r>   -10.5959     0.0000     0.0000 </r>
       <r>   -10.5634     0.0000     0.0000 </r>
       <r>   -10.5308     0.0000     0.0000 </r>
       <r>   -10.4983     0.0000     0.0000 </r>
       <r>   -10.4657     0.0000     0.0000 </r>
       <r>   -10.4332     0.0000     0.0000 </r>
       <r>   -10.4006     0.0000     0.0000 </r>
       <r>   -10.3680     0.0000     0.0000 </r>
       <r>   -10.3355     0.0000     0.0000 </r>
       <r>   -10.3029     0.0000     0.0000 </r>
       <r>   -10.2704     0.0000     0.0000 </r>
       <r>   -10.2378     0.0000     0.0000 </r>
       <r>   -10.2053     0.0000     0.0000 </r>
       <r>   -10.1727     0.0000     0.0000 </r>
       <r>   -10.1401     0.0000     0.0000 </r>
       <r>   -10.1076     0.0000     0.0000 </r>
       <r>   -10.0750     0.0000     0.0000 </r>
       <r>   -10.0425     0.0002     0.0000 </r>
       <r>   -10.0099     0.0012     0.0000 </r>
       <r>    -9.9774     0.0061     0.0002 </r>
       <r>    -9.9448     0.0252     0.0011 </r>
       <r>    -9.9122     0.0867     0.0039 </r>
       <r>    -9.8797     0.2521     0.0121 </r>
       <r>    -9.8471     0.6245     0.0324 </r>
       <r>    -9.8146     1.3315     0.0758 </r>
       <r>    -9.7820     2.4716     0.1562 </r>
       <r>    -9.7495     4.0351     0.2876 </r>
       <r>    -9.7169     5.8406     0.4778 </r>
       <r>    -9.6843     7.5360     0.7231 </r>
       <r>    -9.6518     8.7093     1.0067 </r>
       <r>    -9.6192     9.0994     1.3029 </r>
       <r>    -9.5867     8.7884     1.5890 </r>
       <r>    -9.5541     8.2036     1.8561 </r>
       <r>    -9.5216     7.8620     2.1121 </r>
       <r>    -9.4890     8.0197     2.3732 </r>
       <r>    -9.4564     8.4976     2.6498 </r>
       <r>    -9.4239     8.8233     2.9371 </r>
       <r>    -9.3913     8.5649     3.2159 </r>
       <r>    -9.3588     7.5900     3.4630 </r>
       <r>    -9.3262     6.0885     3.6613 </r>
       <r>    -9.2937     4.4088     3.8048 </r>
       <r>    -9.2611     2.8717     3.8983 </r>
       <r>    -9.2285     1.6701     3.9527 </r>
       <r>    -9.1960     0.8575     3.9806 </r>
       <r>    -9.1634     0.3836     3.9931 </r>
       <r>    -9.1309     0.1475     3.9979 </r>
       <r>    -9.0983     0.0482     3.9994 </r>
       <r>    -9.0658     0.0133     3.9999 </r>
       <r>    -9.0332     0.0031     4.0000 </r>
       <r>    -9.0006     0.0006     4.0000 </r>
       <r>    -8.9681     0.0001     4.0000 </r>
       <r>    -8.9355     0.0000     4.0000 </r>
       <r>    -8.9030     0.0000     4.0000 </r>
       <r>    -8.8704     0.0000     4.0000 </r>
       <r>    -8.8379     0.0000     4.0000 </r>
       <r>    -8.8053     0.0000     4.0000 </r>
       <r>    -8.7728     0.0000     4.0000 </r>
       <r>    -8.7402     0.0000     4.0000 </r>
       <r>    -8.7076     0.0000     4.0000 </r>
       <r>    -8.6751     0.0000     4.0000 </r>
       <r>    -8.6425     0.0000     4.0000 </r>
       <r>    -8.6100     0.0000     4.0000 </r>
       <r>    -8.5774     0.0000     4.0000 </r>
       <r>    -8.5449     0.0000     4.0000 </r>
       <r>    -8.5123     0.0000     4.0000 </r>
       <r>    -8.4797     0.0000     4.0000 </r>
       <r>    -8.4472     0.0000     4.0000 </r>
       <r>    -8.4146     0.0000     4.0000 </r>
       <r>    -8.3821     0.0000     4.0000 </r>
       <r>    -8.3495     0.0000     4.0000 </r>
       <r>    -8.3170     0.0000     4.0000 </r>
       <r>    -8.2844     0.0000     4.0000 </r>
       <r>    -8.2518     0.0000     4.0000 </r>
       <r>    -8.2193     0.0000     4.0000 </r>
       <r>    -8.1867     0.0000     4.0000 </r>
       <r>    -8.1542     0.0000     4.0000 </r>
       <r>    -8.1216     0.0000     4.0000 </r>
       <r>    -8.0891     0.0000     4.0000 </r>
       <r>    -8.0565     0.0000     4.0000 </r>
       <r>    -8.0239     0.0000     4.0000 </r>
       <r>    -7.9914     0.0000     4.0000 </r>
       <r>    -7.9588     0.0000     4.0000 </r>
       <r>    -7.9263     0.0000     4.0000 </r>
       <r>    -7.8937     0.0000     4.0000 </r>
       <r>    -7.8612     0.0000     4.0000 </r>
       <r>    -7.8286     0.0000     4.0000 </r>
       <r>    -7.7960     0.0000     4.0000 </r>
       <r>    -7.7635     0.0000     4.0000 </r>
       <r>    -7.7309     0.0000     4.0000 </r>
       <r>    -7.6984     0.0000     4.0000 </r>
       <r>    -7.6658     0.0000     4.0000 </r>
       <r>    -7.6333     0.0000     4.0000 </r>
       <r>    -7.6007     0.0000     4.0000 </r>
       <r>    -7.5681     0.0000     4.0000 </r>
       <r>    -7.5356     0.0000     4.0000 </r>
       <r>    -7.5030     0.0000     4.0000 </r>
       <r>    -7.4705     0.0000     4.0000 </r>
       <r>    -7.4379     0.0000     4.0000 </r>
       <r>    -7.4054     0.0000     4.0000 </r>
       <r>    -7.3728     0.0000     4.0000 </r>
       <r>    -7.3402     0.0000     4.0000 </r>
       <r>    -7.3077     0.0000     4.0000 </r>
       <r>    -7.2751     0.0000     4.0000 </r>
       <r>    -7.2426     0.0000     4.0000 </r>
       <r>    -7.2100     0.0000     4.0000 </r>
       <r>    -7.1775     0.0000     4.0000 </r>
       <r>    -7.1449     0.0000     4.0000 </r>
       <r>    -7.1124     0.0000     4.0000 </r>
       <r>    -7.0798     0.0000     4.0000 </r>
       <r>    -7.0472     0.0000     4.0000 </r>
       <r>    -7.0147     0.0000     4.0000 </r>
       <r>    -6.9821     0.0000     4.0000 </r>
       <r>    -6.9496     0.0000     4.0000 </r>
       <r>    -6.9170     0.0000     4.0000 </r>
       <r>    -6.8845     0.0000     4.0000 </r>
       <r>    -6.8519     0.0000     4.0000 </r>
       <r>    -6.8193     0.0000     4.0000 </r>
       <r>    -6.7868     0.0000     4.0000 </r>
       <r>    -6.7542     0.0000     4.0000 </r>
       <r>    -6.7217     0.0000     4.0000 </r>
       <r>    -6.6891     0.0000     4.0000 </r>
       <r>    -6.6566     0.0000     4.0000 </r>
       <r>    -6.6240     0.0000     4.0000 </r>
       <r>    -6.5914     0.0000     4.0000 </r>
       <r>    -6.5589     0.0000     4.0000 </r>
       <r>    -6.5263     0.0000     4.0000 </r>
       <r>    -6.4938     0.0000     4.0000 </r>
       <r>    -6.4612     0.0000     4.0000 </r>
       <r>    -6.4287     0.0000     4.0000 </r>
       <r>    -6.3961     0.0000     4.0000 </r>
       <r>    -6.3635     0.0000     4.0000 </r>
       <r>    -6.3310     0.0000     4.0000 </r>
       <r>    -6.2984     0.0000     4.0000 </r>
       <r>    -6.2659     0.0000     4.0000 </r>
       <r>    -6.2333     0.0000     4.0000 </r>
       <r>    -6.2008     0.0000     4.0000 </r>
       <r>    -6.1682     0.0000     4.0000 </r>
       <r>    -6.1356     0.0000     4.0000 </r>
       <r>    -6.1031     0.0000     4.0000 </r>
       <r>    -6.0705     0.0000     4.0000 </r>
       <r>    -6.0380     0.0000     4.0000 </r>
       <r>    -6.0054     0.0000     4.0000 </r>
       <r>    -5.9729     0.0000     4.0000 </r>
       <r>    -5.9403     0.0000     4.0000 </r>
       <r>    -5.9077     0.0000     4.0000 </r>
       <r>    -5.8752     0.0000     4.0000 </r>
       <r>    -5.8426     0.0000     4.0000 </r>
       <r>    -5.8101     0.0000     4.0000 </r>
       <r>    -5.7775     0.0000     4.0000 </r>
       <r>    -5.7450     0.0000     4.0000 </r>
       <r>    -5.7124     0.0000     4.0000 </r>
       <r>    -5.6799     0.0000     4.0000 </r>
       <r>    -5.6473     0.0000     4.0000 </r>
       <r>    -5.6147     0.0000     4.0000 </r>
       <r>    -5.5822     0.0000     4.0000 </r>
       <r>    -5.5496     0.0000     4.0000 </r>
       <r>    -5.5171     0.0000     4.0000 </r>
       <r>    -5.4845     0.0000     4.0000 </r>
       <r>    -5.4520     0.0000     4.0000 </r>
       <r>    -5.4194     0.0000     4.0000 </r>
       <r>    -5.3868     0.0000     4.0000 </r>
       <r>    -5.3543     0.0000     4.0000 </r>
       <r>    -5.3217     0.0000     4.0000 </r>
       <r>    -5.2892     0.0000     4.0000 </r>
       <r>    -5.2566     0.0000     4.0000 </r>
       <r>    -5.2241     0.0000     4.0000 </r>
       <r>    -5.1915     0.0000     4.0000 </r>
       <r>    -5.1589     0.0000     4.0000 </r>
       <r>    -5.1264     0.0000     4.0000 </r>
       <r>    -5.0938     0.0000     4.0000 </r>
       <r>    -5.0613     0.0000     4.0000 </r>
       <r>    -5.0287     0.0000     4.0000 </r>
       <r>    -4.9962     0.0000     4.0000 </r>
       <r>    -4.9636     0.0000     4.0000 </r>
       <r>    -4.9310     0.0000     4.0000 </r>
       <r>    -4.8985     0.0000     4.0000 </r>
       <r>    -4.8659     0.0000     4.0000 </r>
       <r>    -4.8334     0.0000     4.0000 </r>
       <r>    -4.8008     0.0000     4.0000 </r>
       <r>    -4.7683     0.0000     4.0000 </r>
       <r>    -4.7357     0.0000     4.0000 </r>
       <r>    -4.7031     0.0000     4.0000 </r>
       <r>    -4.6706     0.0000     4.0000 </r>
       <r>    -4.6380     0.0000     4.0000 </r>
       <r>    -4.6055     0.0000     4.0000 </r>
       <r>    -4.5729     0.0000     4.0000 </r>
       <r>    -4.5404     0.0000     4.0000 </r>
       <r>    -4.5078     0.0000     4.0000 </r>
       <r>    -4.4752     0.0000     4.0000 </r>
       <r>    -4.4427     0.0000     4.0000 </r>
       <r>    -4.4101     0.0000     4.0000 </r>
       <r>    -4.3776     0.0000     4.0000 </r>
       <r>    -4.3450     0.0000     4.0000 </r>
       <r>    -4.3125     0.0000     4.0000 </r>
       <r>    -4.2799     0.0000     4.0000 </r>
       <r>    -4.2473     0.0000     4.0000 </r>
       <r>    -4.2148     0.0000     4.0000 </r>
       <r>    -4.1822     0.0000     4.0000 </r>
       <r>    -4.1497     0.0000     4.0000 </r>
       <r>    -4.1171     0.0000     4.0000 </r>
       <r>    -4.0846     0.0000     4.0000 </r>
       <r>    -4.0520     0.0000     4.0000 </r>
       <r>    -4.0195     0.0000     4.0000 </r>
       <r>    -3.9869     0.0000     4.0000 </r>
       <r>    -3.9543     0.0000     4.0000 </r>
       <r>    -3.9218     0.0000     4.0000 </r>
       <r>    -3.8892     0.0000     4.0000 </r>
       <r>    -3.8567     0.0000     4.0000 </r>
       <r>    -3.8241     0.0000     4.0000 </r>
       <r>    -3.7916     0.0000     4.0000 </r>
       <r>    -3.7590     0.0000     4.0000 </r>
       <r>    -3.7264     0.0003     4.0000 </r>
       <r>    -3.6939     0.0019     4.0001 </r>
       <r>    -3.6613     0.0106     4.0004 </r>
       <r>    -3.6288     0.0475     4.0020 </r>
       <r>    -3.5962     0.1753     4.0077 </r>
       <r>    -3.5637     0.5359     4.0251 </r>
       <r>    -3.5311     1.3635     4.0695 </r>
       <r>    -3.4985     2.9083     4.1642 </r>
       <r>    -3.4660     5.2503     4.3351 </r>
       <r>    -3.4334     8.1233     4.5996 </r>
       <r>    -3.4009    10.9443     4.9559 </r>
       <r>    -3.3683    13.0856     5.3819 </r>
       <r>    -3.3358    14.1769     5.8435 </r>
       <r>    -3.3032    14.2020     6.3059 </r>
       <r>    -3.2706    13.3873     6.7417 </r>
       <r>    -3.2381    12.0570     7.1343 </r>
       <r>    -3.2055    10.5571     7.4780 </r>
       <r>    -3.1730     9.2072     7.7777 </r>
       <r>    -3.1404     8.2205     8.0454 </r>
       <r>    -3.1079     7.6314     8.2938 </r>
       <r>    -3.0753     7.3117     8.5319 </r>
       <r>    -3.0427     7.0754     8.7622 </r>
       <r>    -3.0102     6.7853     8.9831 </r>
       <r>    -2.9776     6.3855     9.1910 </r>
       <r>    -2.9451     5.8679     9.3820 </r>
       <r>    -2.9125     5.2381     9.5526 </r>
       <r>    -2.8800     4.5186     9.6997 </r>
       <r>    -2.8474     3.7732     9.8225 </r>
       <r>    -2.8148     3.1170     9.9240 </r>
       <r>    -2.7823     2.6831    10.0114 </r>
       <r>    -2.7497     2.5596    10.0947 </r>
       <r>    -2.7172     2.7430    10.1840 </r>
       <r>    -2.6846     3.1484    10.2865 </r>
       <r>    -2.6521     3.6622    10.4057 </r>
       <r>    -2.6195     4.1923    10.5422 </r>
       <r>    -2.5869     4.6850    10.6948 </r>
       <r>    -2.5544     5.1137    10.8612 </r>
       <r>    -2.5218     5.4605    11.0390 </r>
       <r>    -2.4893     5.6994    11.2246 </r>
       <r>    -2.4567     5.7942    11.4132 </r>
       <r>    -2.4242     5.7327    11.5999 </r>
       <r>    -2.3916     5.5795    11.7815 </r>
       <r>    -2.3591     5.4912    11.9603 </r>
       <r>    -2.3265     5.6709    12.1449 </r>
       <r>    -2.2939     6.2895    12.3497 </r>
       <r>    -2.2614     7.4123    12.5910 </r>
       <r>    -2.2288     8.9639    12.8828 </r>
       <r>    -2.1963    10.7471    13.2327 </r>
       <r>    -2.1637    12.4840    13.6392 </r>
       <r>    -2.1312    13.8220    14.0892 </r>
       <r>    -2.0986    14.3306    14.5557 </r>
       <r>    -2.0660    13.6131    14.9989 </r>
       <r>    -2.0335    11.5702    15.3756 </r>
       <r>    -2.0009     8.6072    15.6558 </r>
       <r>    -1.9684     5.5036    15.8350 </r>
       <r>    -1.9358     2.9831    15.9321 </r>
       <r>    -1.9033     1.3568    15.9763 </r>
       <r>    -1.8707     0.5140    15.9930 </r>
       <r>    -1.8381     0.1613    15.9983 </r>
       <r>    -1.8056     0.0418    15.9997 </r>
       <r>    -1.7730     0.0089    15.9999 </r>
       <r>    -1.7405     0.0016    16.0000 </r>
       <r>    -1.7079     0.0002    16.0000 </r>
       <r>    -1.6754     0.0000    16.0000 </r>
       <r>    -1.6428     0.0000    16.0000 </r>
       <r>    -1.6102     0.0000    16.0000 </r>
       <r>    -1.5777     0.0000    16.0000 </r>
       <r>    -1.5451     0.0000    16.0000 </r>
       <r>    -1.5126     0.0000    16.0000 </r>
       <r>    -1.4800     0.0000    16.0000 </r>
       <r>    -1.4475     0.0000    16.0000 </r>
       <r>    -1.4149     0.0000    16.0000 </r>
       <r>    -1.3823     0.0000    16.0000 </r>
       <r>    -1.3498     0.0000    16.0000 </r>
       <r>    -1.3172     0.0000    16.0000 </r>
       <r>    -1.2847     0.0000    16.0000 </r>
       <r>    -1.2521     0.0000    16.0000 </r>
       <r>    -1.2196     0.0000    16.0000 </r>
       <r>    -1.1870     0.0000    16.0000 </r>
       <r>    -1.1544     0.0000    16.0000 </r>
       <r>    -1.1219     0.0000    16.0000 </r>
       <r>    -1.0893     0.0000    16.0000 </r>
       <r>    -1.0568     0.0000    16.0000 </r>
       <r>    -1.0242     0.0000    16.0000 </r>
      </set>
     </set>
    </array>
   </total>
  </dos>
 </calculation>
 <structure name="finalpos" >
  <crystal>
   <varray name="basis" >
    <v>       0.00000000       5.13000000       5.13000000 </v>
    <v>       5.13000000       0.00000000       5.13000000 </v>
    <v>       5.13000000       5.13000000       0.00000000 </v>
   </varray>
   <i name="volume">    270.01139400 </i>
   <varray name="rec_basis" >
    <v>      -0.09746589       0.09746589       0.09746589 </v>
    <v>       0.09746589      -0.09746589       0.09746589 </v>
    <v>       0.09746589       0.09746589      -0.09746589 </v>
   </varray>
  </crystal>
  <varray name="positions" >
   <v>       0.00000000       0.00000000       0.00000000 </v>
   <v>       0.25000000       0.25000000       0.25000000 </v>
  </varray>
 </structure>
</modeling>
