   2   2   0   0
  0.1350057E+03  0.7254916E-09  0.7254916E-09  0.7254916E-09  0.5000000E-15
  1.000000000000000E-004
  CAR 
 Si diamante                             
     -1.02422027    -10.79127616  301     -3.14614299      1.00000000
    -10.791  0.0000E+00  0.0000E+00
    -10.759  0.0000E+00  0.0000E+00
    -10.726  0.0000E+00  0.0000E+00
    -10.694  0.0000E+00  0.0000E+00
    -10.661  0.0000E+00  0.0000E+00
    -10.628  0.0000E+00  0.0000E+00
    -10.596  0.0000E+00  0.0000E+00
    -10.563  0.0000E+00  0.0000E+00
    -10.531  0.0000E+00  0.0000E+00
    -10.498  0.0000E+00  0.0000E+00
    -10.466  0.0000E+00  0.0000E+00
    -10.433  0.0000E+00  0.0000E+00
    -10.401  0.0000E+00  0.0000E+00
    -10.368  0.5797E-16  0.1887E-17
    -10.335  0.2991E-14  0.9925E-16
    -10.303  0.1087E-12  0.3638E-14
    -10.270  0.3177E-11  0.1071E-12
    -10.238  0.7580E-10  0.2575E-11
    -10.205  0.1477E-08  0.5066E-10
    -10.173  0.2352E-07  0.8166E-09
    -10.140  0.3067E-06  0.1080E-07
    -10.108  0.3277E-05  0.1175E-06
    -10.075  0.2875E-04  0.1054E-05
    -10.042  0.2077E-03  0.7815E-05
    -10.010  0.1238E-02  0.4814E-04
     -9.977  0.6119E-02  0.2474E-03
     -9.945  0.2517E-01  0.1067E-02
     -9.912  0.8672E-01  0.3890E-02
     -9.880  0.2521E+00  0.1210E-01
     -9.847  0.6245E+00  0.3243E-01
     -9.815  0.1332E+01  0.7578E-01
     -9.782  0.2472E+01  0.1562E+00
     -9.749  0.4035E+01  0.2876E+00
     -9.717  0.5841E+01  0.4778E+00
     -9.684  0.7536E+01  0.7231E+00
     -9.652  0.8709E+01  0.1007E+01
     -9.619  0.9099E+01  0.1303E+01
     -9.587  0.8788E+01  0.1589E+01
     -9.554  0.8204E+01  0.1856E+01
     -9.522  0.7862E+01  0.2112E+01
     -9.489  0.8020E+01  0.2373E+01
     -9.456  0.8498E+01  0.2650E+01
     -9.424  0.8823E+01  0.2937E+01
     -9.391  0.8565E+01  0.3216E+01
     -9.359  0.7590E+01  0.3463E+01
     -9.326  0.6088E+01  0.3661E+01
     -9.294  0.4409E+01  0.3805E+01
     -9.261  0.2872E+01  0.3898E+01
     -9.229  0.1670E+01  0.3953E+01
     -9.196  0.8575E+00  0.3981E+01
     -9.163  0.3836E+00  0.3993E+01
     -9.131  0.1475E+00  0.3998E+01
     -9.098  0.4823E-01  0.3999E+01
     -9.066  0.1328E-01  0.4000E+01
     -9.033  0.3056E-02  0.4000E+01
     -9.001  0.5844E-03  0.4000E+01
     -8.968  0.9251E-04  0.4000E+01
     -8.936  0.1208E-04  0.4000E+01
     -8.903  0.1297E-05  0.4000E+01
     -8.870  0.1143E-06  0.4000E+01
     -8.838  0.8250E-08  0.4000E+01
     -8.805  0.4873E-09  0.4000E+01
     -8.773  0.2352E-10  0.4000E+01
     -8.740  0.9274E-12  0.4000E+01
     -8.708  0.2963E-13  0.4000E+01
     -8.675  0.7161E-15  0.4000E+01
     -8.643  0.0000E+00  0.4000E+01
     -8.610  0.0000E+00  0.4000E+01
     -8.577  0.0000E+00  0.4000E+01
     -8.545  0.0000E+00  0.4000E+01
     -8.512  0.0000E+00  0.4000E+01
     -8.480  0.0000E+00  0.4000E+01
     -8.447  0.0000E+00  0.4000E+01
     -8.415  0.0000E+00  0.4000E+01
     -8.382  0.0000E+00  0.4000E+01
     -8.350  0.0000E+00  0.4000E+01
     -8.317  0.0000E+00  0.4000E+01
     -8.284  0.0000E+00  0.4000E+01
     -8.252  0.0000E+00  0.4000E+01
     -8.219  0.0000E+00  0.4000E+01
     -8.187  0.0000E+00  0.4000E+01
     -8.154  0.0000E+00  0.4000E+01
     -8.122  0.0000E+00  0.4000E+01
     -8.089  0.0000E+00  0.4000E+01
     -8.057  0.0000E+00  0.4000E+01
     -8.024  0.0000E+00  0.4000E+01
     -7.991  0.0000E+00  0.4000E+01
     -7.959  0.0000E+00  0.4000E+01
     -7.926  0.0000E+00  0.4000E+01
     -7.894  0.0000E+00  0.4000E+01
     -7.861  0.0000E+00  0.4000E+01
     -7.829  0.0000E+00  0.4000E+01
     -7.796  0.0000E+00  0.4000E+01
     -7.763  0.0000E+00  0.4000E+01
     -7.731  0.0000E+00  0.4000E+01
     -7.698  0.0000E+00  0.4000E+01
     -7.666  0.0000E+00  0.4000E+01
     -7.633  0.0000E+00  0.4000E+01
     -7.601  0.0000E+00  0.4000E+01
     -7.568  0.0000E+00  0.4000E+01
     -7.536  0.0000E+00  0.4000E+01
     -7.503  0.0000E+00  0.4000E+01
     -7.470  0.0000E+00  0.4000E+01
     -7.438  0.0000E+00  0.4000E+01
     -7.405  0.0000E+00  0.4000E+01
     -7.373  0.0000E+00  0.4000E+01
     -7.340  0.0000E+00  0.4000E+01
     -7.308  0.0000E+00  0.4000E+01
     -7.275  0.0000E+00  0.4000E+01
     -7.243  0.0000E+00  0.4000E+01
     -7.210  0.0000E+00  0.4000E+01
     -7.177  0.0000E+00  0.4000E+01
     -7.145  0.0000E+00  0.4000E+01
     -7.112  0.0000E+00  0.4000E+01
     -7.080  0.0000E+00  0.4000E+01
     -7.047  0.0000E+00  0.4000E+01
     -7.015  0.0000E+00  0.4000E+01
     -6.982  0.0000E+00  0.4000E+01
     -6.950  0.0000E+00  0.4000E+01
     -6.917  0.0000E+00  0.4000E+01
     -6.884  0.0000E+00  0.4000E+01
     -6.852  0.0000E+00  0.4000E+01
     -6.819  0.0000E+00  0.4000E+01
     -6.787  0.0000E+00  0.4000E+01
     -6.754  0.0000E+00  0.4000E+01
     -6.722  0.0000E+00  0.4000E+01
     -6.689  0.0000E+00  0.4000E+01
     -6.657  0.0000E+00  0.4000E+01
     -6.624  0.0000E+00  0.4000E+01
     -6.591  0.0000E+00  0.4000E+01
     -6.559  0.0000E+00  0.4000E+01
     -6.526  0.0000E+00  0.4000E+01
     -6.494  0.0000E+00  0.4000E+01
     -6.461  0.0000E+00  0.4000E+01
     -6.429  0.0000E+00  0.4000E+01
     -6.396  0.0000E+00  0.4000E+01
     -6.364  0.0000E+00  0.4000E+01
     -6.331  0.0000E+00  0.4000E+01
     -6.298  0.0000E+00  0.4000E+01
     -6.266  0.0000E+00  0.4000E+01
     -6.233  0.0000E+00  0.4000E+01
     -6.201  0.0000E+00  0.4000E+01
     -6.168  0.0000E+00  0.4000E+01
     -6.136  0.0000E+00  0.4000E+01
     -6.103  0.0000E+00  0.4000E+01
     -6.071  0.0000E+00  0.4000E+01
     -6.038  0.0000E+00  0.4000E+01
     -6.005  0.0000E+00  0.4000E+01
     -5.973  0.0000E+00  0.4000E+01
     -5.940  0.0000E+00  0.4000E+01
     -5.908  0.0000E+00  0.4000E+01
     -5.875  0.0000E+00  0.4000E+01
     -5.843  0.0000E+00  0.4000E+01
     -5.810  0.0000E+00  0.4000E+01
     -5.778  0.0000E+00  0.4000E+01
     -5.745  0.0000E+00  0.4000E+01
     -5.712  0.0000E+00  0.4000E+01
     -5.680  0.0000E+00  0.4000E+01
     -5.647  0.0000E+00  0.4000E+01
     -5.615  0.0000E+00  0.4000E+01
     -5.582  0.0000E+00  0.4000E+01
     -5.550  0.0000E+00  0.4000E+01
     -5.517  0.0000E+00  0.4000E+01
     -5.485  0.0000E+00  0.4000E+01
     -5.452  0.0000E+00  0.4000E+01
     -5.419  0.0000E+00  0.4000E+01
     -5.387  0.0000E+00  0.4000E+01
     -5.354  0.0000E+00  0.4000E+01
     -5.322  0.0000E+00  0.4000E+01
     -5.289  0.0000E+00  0.4000E+01
     -5.257  0.0000E+00  0.4000E+01
     -5.224  0.0000E+00  0.4000E+01
     -5.191  0.0000E+00  0.4000E+01
     -5.159  0.0000E+00  0.4000E+01
     -5.126  0.0000E+00  0.4000E+01
     -5.094  0.0000E+00  0.4000E+01
     -5.061  0.0000E+00  0.4000E+01
     -5.029  0.0000E+00  0.4000E+01
     -4.996  0.0000E+00  0.4000E+01
     -4.964  0.0000E+00  0.4000E+01
     -4.931  0.0000E+00  0.4000E+01
     -4.898  0.0000E+00  0.4000E+01
     -4.866  0.0000E+00  0.4000E+01
     -4.833  0.0000E+00  0.4000E+01
     -4.801  0.0000E+00  0.4000E+01
     -4.768  0.0000E+00  0.4000E+01
     -4.736  0.0000E+00  0.4000E+01
     -4.703  0.0000E+00  0.4000E+01
     -4.671  0.0000E+00  0.4000E+01
     -4.638  0.0000E+00  0.4000E+01
     -4.605  0.0000E+00  0.4000E+01
     -4.573  0.0000E+00  0.4000E+01
     -4.540  0.0000E+00  0.4000E+01
     -4.508  0.0000E+00  0.4000E+01
     -4.475  0.0000E+00  0.4000E+01
     -4.443  0.0000E+00  0.4000E+01
     -4.410  0.0000E+00  0.4000E+01
     -4.378  0.0000E+00  0.4000E+01
     -4.345  0.0000E+00  0.4000E+01
     -4.312  0.0000E+00  0.4000E+01
     -4.280  0.0000E+00  0.4000E+01
     -4.247  0.0000E+00  0.4000E+01
     -4.215  0.0000E+00  0.4000E+01
     -4.182  0.0000E+00  0.4000E+01
     -4.150  0.0000E+00  0.4000E+01
     -4.117  0.0000E+00  0.4000E+01
     -4.085  0.0000E+00  0.4000E+01
     -4.052  0.0000E+00  0.4000E+01
     -4.019  0.1228E-14  0.4000E+01
     -3.987  0.5271E-13  0.4000E+01
     -3.954  0.1791E-11  0.4000E+01
     -3.922  0.4931E-10  0.4000E+01
     -3.889  0.1106E-08  0.4000E+01
     -3.857  0.2019E-07  0.4000E+01
     -3.824  0.3006E-06  0.4000E+01
     -3.792  0.3651E-05  0.4000E+01
     -3.759  0.3621E-04  0.4000E+01
     -3.726  0.2936E-03  0.4000E+01
     -3.694  0.1949E-02  0.4000E+01
     -3.661  0.1061E-01  0.4000E+01
     -3.629  0.4750E-01  0.4002E+01
     -3.596  0.1753E+00  0.4008E+01
     -3.564  0.5359E+00  0.4025E+01
     -3.531  0.1364E+01  0.4070E+01
     -3.499  0.2908E+01  0.4164E+01
     -3.466  0.5250E+01  0.4335E+01
     -3.433  0.8123E+01  0.4600E+01
     -3.401  0.1094E+02  0.4956E+01
     -3.368  0.1309E+02  0.5382E+01
     -3.336  0.1418E+02  0.5843E+01
     -3.303  0.1420E+02  0.6306E+01
     -3.271  0.1339E+02  0.6742E+01
     -3.238  0.1206E+02  0.7134E+01
     -3.206  0.1056E+02  0.7478E+01
     -3.173  0.9207E+01  0.7778E+01
     -3.140  0.8221E+01  0.8045E+01
     -3.108  0.7631E+01  0.8294E+01
     -3.075  0.7312E+01  0.8532E+01
     -3.043  0.7075E+01  0.8762E+01
     -3.010  0.6785E+01  0.8983E+01
     -2.978  0.6386E+01  0.9191E+01
     -2.945  0.5868E+01  0.9382E+01
     -2.913  0.5238E+01  0.9553E+01
     -2.880  0.4519E+01  0.9700E+01
     -2.847  0.3773E+01  0.9823E+01
     -2.815  0.3117E+01  0.9924E+01
     -2.782  0.2683E+01  0.1001E+02
     -2.750  0.2560E+01  0.1009E+02
     -2.717  0.2743E+01  0.1018E+02
     -2.685  0.3148E+01  0.1029E+02
     -2.652  0.3662E+01  0.1041E+02
     -2.620  0.4192E+01  0.1054E+02
     -2.587  0.4685E+01  0.1069E+02
     -2.554  0.5114E+01  0.1086E+02
     -2.522  0.5460E+01  0.1104E+02
     -2.489  0.5699E+01  0.1122E+02
     -2.457  0.5794E+01  0.1141E+02
     -2.424  0.5733E+01  0.1160E+02
     -2.392  0.5579E+01  0.1178E+02
     -2.359  0.5491E+01  0.1196E+02
     -2.326  0.5671E+01  0.1214E+02
     -2.294  0.6290E+01  0.1235E+02
     -2.261  0.7412E+01  0.1259E+02
     -2.229  0.8964E+01  0.1288E+02
     -2.196  0.1075E+02  0.1323E+02
     -2.164  0.1248E+02  0.1364E+02
     -2.131  0.1382E+02  0.1409E+02
     -2.099  0.1433E+02  0.1456E+02
     -2.066  0.1361E+02  0.1500E+02
     -2.033  0.1157E+02  0.1538E+02
     -2.001  0.8607E+01  0.1566E+02
     -1.968  0.5504E+01  0.1584E+02
     -1.936  0.2983E+01  0.1593E+02
     -1.903  0.1357E+01  0.1598E+02
     -1.871  0.5140E+00  0.1599E+02
     -1.838  0.1613E+00  0.1600E+02
     -1.806  0.4176E-01  0.1600E+02
     -1.773  0.8896E-02  0.1600E+02
     -1.740  0.1555E-02  0.1600E+02
     -1.708  0.2228E-03  0.1600E+02
     -1.675  0.2611E-04  0.1600E+02
     -1.643  0.2500E-05  0.1600E+02
     -1.610  0.1955E-06  0.1600E+02
     -1.578  0.1247E-07  0.1600E+02
     -1.545  0.6483E-09  0.1600E+02
     -1.513  0.2746E-10  0.1600E+02
     -1.480  0.9476E-12  0.1600E+02
     -1.447  0.2656E-13  0.1600E+02
     -1.415  0.1637E-15  0.1600E+02
     -1.382  0.0000E+00  0.1600E+02
     -1.350  0.0000E+00  0.1600E+02
     -1.317  0.0000E+00  0.1600E+02
     -1.285  0.0000E+00  0.1600E+02
     -1.252  0.0000E+00  0.1600E+02
     -1.220  0.0000E+00  0.1600E+02
     -1.187  0.0000E+00  0.1600E+02
     -1.154  0.0000E+00  0.1600E+02
     -1.122  0.0000E+00  0.1600E+02
     -1.089  0.0000E+00  0.1600E+02
     -1.057  0.0000E+00  0.1600E+02
     -1.024  0.0000E+00  0.1600E+02
