Fe BCC                                  
   2.70000000000000     
    -0.500000    0.500000    0.500000
     0.500000   -0.500000    0.500000
     0.500000    0.500000   -0.500000
   Fe
     1
Direct
  0.000000  0.000000  0.000000
 
   32   32   32
 0.83087483138E+02 0.81337470297E+02 0.76322281609E+02 0.68685757471E+02 0.59324062482E+02
 0.49195529028E+02 0.39163277349E+02 0.29908270814E+02 0.21909036661E+02 0.15455294572E+02
 0.10661026382E+02 0.74640922311E+01 0.56259523732E+01 0.47570921259E+01 0.43843233402E+01
 0.41688398044E+01 0.40939300561E+01 0.41688398044E+01 0.43843233402E+01 0.47570921259E+01
 0.56259523732E+01 0.74640922311E+01 0.10661026382E+02 0.15455294572E+02 0.21909036661E+02
 0.29908270814E+02 0.39163277349E+02 0.49195529028E+02 0.59324062482E+02 0.68685757471E+02
 0.76322281609E+02 0.81337470297E+02 0.81337470297E+02 0.80758944839E+02 0.76847339753E+02
 0.70114658761E+02 0.61379077934E+02 0.51581748510E+02 0.41615784351E+02 0.32216161564E+02
 0.23920096978E+02 0.17072761585E+02 0.11842268901E+02 0.82230202991E+01 0.60330875601E+01
 0.49291364932E+01 0.44594534949E+01 0.42054238946E+01 0.40832063318E+01 0.41080270468E+01
 0.42769955816E+01 0.45756413598E+01 0.52035460085E+01 0.66235542488E+01 0.92599744709E+01
 0.13406263783E+02 0.19185857247E+02 0.26545901173E+02 0.35259959771E+02 0.44920151762E+02
 0.54921877118E+02 0.64469319926E+02 0.72637286511E+02 0.78504864415E+02 0.76322281609E+02
 0.76847339753E+02 0.74142394954E+02 0.68566751742E+02 0.60818213159E+02 0.51770721208E+02
 0.42302794481E+02 0.33171268109E+02 0.24952007828E+02 0.18032974536E+02 0.12626657404E+02
 0.87762293787E+01 0.63532958194E+01 0.50659508186E+01 0.44992236950E+01 0.42138709059E+01
 0.40513023004E+01 0.40278731852E+01 0.41461919485E+01 0.43926884574E+01 0.48232680692E+01
 0.58228616847E+01 0.78328513921E+01 0.11194039362E+02 0.16092159266E+02 0.22540369060E+02
 0.30380375365E+02 0.39280264289E+02 0.48723061007E+02 0.58004610032E+02 0.66273672258E+02
 0.72637286511E+02 0.68685757471E+02 0.70114658761E+02 0.68566751742E+02 0.64250829561E+02
 0.57720854136E+02 0.49743842548E+02 0.41140431967E+02 0.32652494093E+02 0.24868096477E+02
 0.18200212846E+02 0.12892733817E+02 0.90271953941E+01 0.65219235317E+01 0.51363048434E+01
 0.45009560636E+01 0.41919135523E+01 0.39990712272E+01 0.39335650609E+01 0.40018372723E+01
 0.41977934963E+01 0.45106844887E+01 0.51522324733E+01 0.65500734505E+01 0.90779506529E+01
 0.12979698271E+02 0.18336944559E+02 0.25063242957E+02 0.32904706705E+02 0.41434900572E+02
 0.50052098273E+02 0.58004610032E+02 0.64469319926E+02 0.59324062482E+02 0.61379077934E+02
 0.60818213159E+02 0.57720854136E+02 0.52494486197E+02 0.45776222933E+02 0.38294866435E+02
 0.30742693280E+02 0.23691373565E+02 0.17557831580E+02 0.12601795834E+02 0.89307536783E+01
 0.65002998312E+01 0.51167401994E+01 0.44595285361E+01 0.41394263945E+01 0.39280851978E+01
 0.38300323166E+01 0.38534838765E+01 0.39973772976E+01 0.42500631092E+01 0.46502482445E+01
 0.55264441223E+01 0.72639466732E+01 0.10153489585E+02 0.14343399171E+02 0.19821740189E+02
 0.26414393419E+02 0.33784822312E+02 0.41434900572E+02 0.48723061007E+02 0.54921877118E+02
 0.49195529028E+02 0.51581748510E+02 0.51770721208E+02 0.49743842548E+02 0.45776222933E+02
 0.40369779146E+02 0.34141426647E+02 0.27707219858E+02 0.21596664702E+02 0.16209536826E+02
 0.11805042027E+02 0.85034228290E+01 0.62867696943E+01 0.50011422869E+01 0.43735515723E+01
 0.40586486560E+01 0.38407851185E+01 0.37216145831E+01 0.37091216624E+01 0.38046971674E+01
 0.40042597170E+01 0.42953708120E+01 0.48017604412E+01 0.58742257446E+01 0.78311378298E+01
 0.10878852623E+02 0.15079393710E+02 0.20340254358E+02 0.26414393419E+02 0.32904706705E+02
 0.39280264289E+02 0.44920151762E+02 0.39163277349E+02 0.41615784351E+02 0.42302794481E+02
 0.41140431967E+02 0.38294866435E+02 0.34141426647E+02 0.29179121499E+02 0.23931998126E+02
 0.18868212301E+02 0.14352515105E+02 0.10628710870E+02 0.78174181792E+01 0.59165937282E+01
 0.48036774572E+01 0.42488974430E+01 0.39540626505E+01 0.37405609468E+01 0.36119747557E+01
 0.35744772958E+01 0.36297436642E+01 0.37777328592E+01 0.40138345769E+01 0.43362481788E+01
 0.49328042317E+01 0.61197665472E+01 0.81440536930E+01 0.11134431527E+02 0.15079393710E+02
 0.19821740189E+02 0.25063242957E+02 0.30380375365E+02 0.35259959771E+02 0.29908270814E+02
 0.32216161564E+02 0.33171268109E+02 0.32652494093E+02 0.30742693280E+02 0.27707219858E+02
 0.23931998126E+02 0.19843736097E+02 0.15838090688E+02 0.12232196293E+02 0.92429068487E+01
 0.69810939124E+01 0.54514027058E+01 0.45545087787E+01 0.40980003809E+01 0.38319333971E+01
 0.36316828231E+01 0.35041955221E+01 0.34529063293E+01 0.34783301542E+01 0.35816597763E+01
 0.37639610018E+01 0.40211918290E+01 0.43670142640E+01 0.50088727636E+01 0.62081915660E+01
 0.81440536930E+01 0.10878852623E+02 0.14343399171E+02 0.18336944559E+02 0.22540369060E+02
 0.26545901173E+02 0.21909036661E+02 0.23920096978E+02 0.24952007828E+02 0.24868096477E+02
 0.23691373565E+02 0.21596664702E+02 0.18868212301E+02 0.15838090688E+02 0.12825724629E+02
 0.10093805229E+02 0.78248381070E+01 0.61128885351E+01 0.49623624264E+01 0.42902630963E+01
 0.39354447908E+01 0.36995966765E+01 0.35190483049E+01 0.34009478539E+01 0.33457836720E+01
 0.33522635592E+01 0.34210411332E+01 0.35552478949E+01 0.37575927397E+01 0.40248383251E+01
 0.43786003575E+01 0.50088727636E+01 0.61197665472E+01 0.78311378298E+01 0.10153489585E+02
 0.12979698271E+02 0.16092159266E+02 0.19185857247E+02 0.15455294572E+02 0.17072761585E+02
 0.18032974536E+02 0.18200212846E+02 0.17557831580E+02 0.16209536826E+02 0.14352515105E+02
 0.12232196293E+02 0.10093805229E+02 0.81438357379E+01 0.65270548613E+01 0.53167581592E+01
 0.45126066604E+01 0.40426917575E+01 0.37716349567E+01 0.35646457709E+01 0.34077784800E+01
 0.33046328739E+01 0.32531767921E+01 0.32503550802E+01 0.32955053437E+01 0.33915633215E+01
 0.35437219914E+01 0.37557401255E+01 0.40248383251E+01 0.43670142640E+01 0.49328042317E+01
 0.58742257446E+01 0.72639466732E+01 0.90779506529E+01 0.11194039362E+02 0.13406263783E+02
 0.10661026382E+02 0.11842268901E+02 0.12626657404E+02 0.12892733817E+02 0.12601795834E+02
 0.11805042027E+02 0.10628710870E+02 0.92429068487E+01 0.78248381070E+01 0.65270548613E+01
 0.54565249669E+01 0.46644487288E+01 0.41433481325E+01 0.38287851674E+01 0.36112522425E+01
 0.34341819810E+01 0.33027556581E+01 0.32174547253E+01 0.31745798598E+01 0.31698422578E+01
 0.32012426582E+01 0.32704792784E+01 0.33825787665E+01 0.35437219914E+01 0.37575927397E+01
 0.40211918290E+01 0.43362481788E+01 0.48017604412E+01 0.55264441223E+01 0.65500734505E+01
 0.78328513921E+01 0.92599744709E+01 0.74640922311E+01 0.82230202991E+01 0.87762293787E+01
 0.90271953941E+01 0.89307536783E+01 0.85034228290E+01 0.78174181792E+01 0.69810939124E+01
 0.61128885351E+01 0.53167581592E+01 0.46644487288E+01 0.41858101903E+01 0.38654828965E+01
 0.36443750647E+01 0.34608951687E+01 0.33142535647E+01 0.32082179534E+01 0.31414379179E+01
 0.31095520278E+01 0.31078067724E+01 0.31333037831E+01 0.31863258044E+01 0.32704792784E+01
 0.33915633215E+01 0.35552478949E+01 0.37639610018E+01 0.40138345769E+01 0.42953708120E+01
 0.46502482445E+01 0.51522324733E+01 0.58228616847E+01 0.66235542488E+01 0.56259523732E+01
 0.60330875601E+01 0.63532958194E+01 0.65219235317E+01 0.65002998312E+01 0.62867696943E+01
 0.59165937282E+01 0.54514027058E+01 0.49623624264E+01 0.45126066604E+01 0.41433481325E+01
 0.38654828965E+01 0.36563356187E+01 0.34772968823E+01 0.33265944187E+01 0.32095358682E+01
 0.31275024530E+01 0.30784260679E+01 0.30581735542E+01 0.30622939688E+01 0.30876119048E+01
 0.31333037831E+01 0.32012426582E+01 0.32955053437E+01 0.34210411332E+01 0.35816597763E+01
 0.37777328592E+01 0.40042597170E+01 0.42500631092E+01 0.45106844887E+01 0.48232680692E+01
 0.52035460085E+01 0.47570921259E+01 0.49291364932E+01 0.50659508186E+01 0.51363048434E+01
 0.51167401994E+01 0.50011422869E+01 0.48036774572E+01 0.45545087787E+01 0.42902630963E+01
 0.40426917575E+01 0.38287851674E+01 0.36443750647E+01 0.34772968823E+01 0.33317993399E+01
 0.32128924949E+01 0.31232402652E+01 0.30629747791E+01 0.30300902736E+01 0.30212813282E+01
 0.30329726911E+01 0.30622939688E+01 0.31078067724E+01 0.31698422578E+01 0.32503550802E+01
 0.33522635592E+01 0.34783301542E+01 0.36297436642E+01 0.38046971674E+01 0.39973772976E+01
 0.41977934963E+01 0.43926884574E+01 0.45756413598E+01 0.43843233402E+01 0.44594534949E+01
 0.44992236950E+01 0.45009560636E+01 0.44595285361E+01 0.43735515723E+01 0.42488974430E+01
 0.40980003809E+01 0.39354447908E+01 0.37716349567E+01 0.36112522425E+01 0.34608951687E+01
 0.33265944187E+01 0.32128924949E+01 0.31226897497E+01 0.30572049045E+01 0.30161254427E+01
 0.29979538565E+01 0.30004798900E+01 0.30212813282E+01 0.30581735542E+01 0.31095520278E+01
 0.31745798598E+01 0.32531767921E+01 0.33457836720E+01 0.34529063293E+01 0.35744772958E+01
 0.37091216624E+01 0.38534838765E+01 0.40018372723E+01 0.41461919485E+01 0.42769955816E+01
 0.41688398044E+01 0.42054238946E+01 0.42138709059E+01 0.41919135523E+01 0.41394263945E+01
 0.40586486560E+01 0.39540626505E+01 0.38319333971E+01 0.36995966765E+01 0.35646457709E+01
 0.34341819810E+01 0.33142535647E+01 0.32095358682E+01 0.31232402652E+01 0.30572049045E+01
 0.30121116730E+01 0.29877719828E+01 0.29834198770E+01 0.29979538565E+01 0.30300902736E+01
 0.30784260679E+01 0.31414379179E+01 0.32174547253E+01 0.33046328739E+01 0.34009478539E+01
 0.35041955221E+01 0.36119747557E+01 0.37216145831E+01 0.38300323166E+01 0.39335650609E+01
 0.40278731852E+01 0.41080270468E+01 0.40939300561E+01 0.40832063318E+01 0.40513023004E+01
 0.39990712272E+01 0.39280851978E+01 0.38407851185E+01 0.37405609468E+01 0.36316828231E+01
 0.35190483049E+01 0.34077784800E+01 0.33027556581E+01 0.32082179534E+01 0.31275024530E+01
 0.30629747791E+01 0.30161254427E+01 0.29877719828E+01 0.29782867284E+01 0.29877719828E+01
 0.30161254427E+01 0.30629747791E+01 0.31275024530E+01 0.32082179534E+01 0.33027556581E+01
 0.34077784800E+01 0.35190483049E+01 0.36316828231E+01 0.37405609468E+01 0.38407851185E+01
 0.39280851978E+01 0.39990712272E+01 0.40513023004E+01 0.40832063318E+01 0.41688398044E+01
 0.41080270468E+01 0.40278731852E+01 0.39335650609E+01 0.38300323166E+01 0.37216145831E+01
 0.36119747557E+01 0.35041955221E+01 0.34009478539E+01 0.33046328739E+01 0.32174547253E+01
 0.31414379179E+01 0.30784260679E+01 0.30300902736E+01 0.29979538565E+01 0.29834198770E+01
 0.29877719828E+01 0.30121116730E+01 0.30572049045E+01 0.31232402652E+01 0.32095358682E+01
 0.33142535647E+01 0.34341819810E+01 0.35646457709E+01 0.36995966765E+01 0.38319333971E+01
 0.39540626505E+01 0.40586486560E+01 0.41394263945E+01 0.41919135523E+01 0.42138709059E+01
 0.42054238946E+01 0.43843233402E+01 0.42769955816E+01 0.41461919485E+01 0.40018372723E+01
 0.38534838765E+01 0.37091216624E+01 0.35744772958E+01 0.34529063293E+01 0.33457836720E+01
 0.32531767921E+01 0.31745798598E+01 0.31095520278E+01 0.30581735542E+01 0.30212813282E+01
 0.30004798900E+01 0.29979538565E+01 0.30161254427E+01 0.30572049045E+01 0.31226897497E+01
 0.32128924949E+01 0.33265944187E+01 0.34608951687E+01 0.36112522425E+01 0.37716349567E+01
 0.39354447908E+01 0.40980003809E+01 0.42488974430E+01 0.43735515723E+01 0.44595285361E+01
 0.45009560636E+01 0.44992236950E+01 0.44594534949E+01 0.47570921259E+01 0.45756413598E+01
 0.43926884574E+01 0.41977934963E+01 0.39973772976E+01 0.38046971674E+01 0.36297436642E+01
 0.34783301542E+01 0.33522635592E+01 0.32503550802E+01 0.31698422578E+01 0.31078067724E+01
 0.30622939688E+01 0.30329726911E+01 0.30212813282E+01 0.30300902736E+01 0.30629747791E+01
 0.31232402652E+01 0.32128924949E+01 0.33317993399E+01 0.34772968823E+01 0.36443750647E+01
 0.38287851674E+01 0.40426917575E+01 0.42902630963E+01 0.45545087787E+01 0.48036774572E+01
 0.50011422869E+01 0.51167401994E+01 0.51363048434E+01 0.50659508186E+01 0.49291364932E+01
 0.56259523732E+01 0.52035460085E+01 0.48232680692E+01 0.45106844887E+01 0.42500631092E+01
 0.40042597170E+01 0.37777328592E+01 0.35816597763E+01 0.34210411332E+01 0.32955053437E+01
 0.32012426582E+01 0.31333037831E+01 0.30876119048E+01 0.30622939688E+01 0.30581735542E+01
 0.30784260679E+01 0.31275024530E+01 0.32095358682E+01 0.33265944187E+01 0.34772968823E+01
 0.36563356187E+01 0.38654828965E+01 0.41433481325E+01 0.45126066604E+01 0.49623624264E+01
 0.54514027058E+01 0.59165937282E+01 0.62867696943E+01 0.65002998312E+01 0.65219235317E+01
 0.63532958194E+01 0.60330875601E+01 0.74640922311E+01 0.66235542488E+01 0.58228616847E+01
 0.51522324733E+01 0.46502482445E+01 0.42953708120E+01 0.40138345769E+01 0.37639610018E+01
 0.35552478949E+01 0.33915633215E+01 0.32704792784E+01 0.31863258044E+01 0.31333037831E+01
 0.31078067724E+01 0.31095520278E+01 0.31414379179E+01 0.32082179534E+01 0.33142535647E+01
 0.34608951687E+01 0.36443750647E+01 0.38654828965E+01 0.41858101903E+01 0.46644487288E+01
 0.53167581592E+01 0.61128885351E+01 0.69810939124E+01 0.78174181792E+01 0.85034228290E+01
 0.89307536783E+01 0.90271953941E+01 0.87762293787E+01 0.82230202991E+01 0.10661026382E+02
 0.92599744709E+01 0.78328513921E+01 0.65500734505E+01 0.55264441223E+01 0.48017604412E+01
 0.43362481788E+01 0.40211918290E+01 0.37575927397E+01 0.35437219914E+01 0.33825787665E+01
 0.32704792784E+01 0.32012426582E+01 0.31698422578E+01 0.31745798598E+01 0.32174547253E+01
 0.33027556581E+01 0.34341819810E+01 0.36112522425E+01 0.38287851674E+01 0.41433481325E+01
 0.46644487288E+01 0.54565249669E+01 0.65270548613E+01 0.78248381070E+01 0.92429068487E+01
 0.10628710870E+02 0.11805042027E+02 0.12601795834E+02 0.12892733817E+02 0.12626657404E+02
 0.11842268901E+02 0.15455294572E+02 0.13406263783E+02 0.11194039362E+02 0.90779506529E+01
 0.72639466732E+01 0.58742257446E+01 0.49328042317E+01 0.43670142640E+01 0.40248383251E+01
 0.37557401255E+01 0.35437219914E+01 0.33915633215E+01 0.32955053437E+01 0.32503550802E+01
 0.32531767921E+01 0.33046328739E+01 0.34077784800E+01 0.35646457709E+01 0.37716349567E+01
 0.40426917575E+01 0.45126066604E+01 0.53167581592E+01 0.65270548613E+01 0.81438357379E+01
 0.10093805229E+02 0.12232196293E+02 0.14352515105E+02 0.16209536826E+02 0.17557831580E+02
 0.18200212846E+02 0.18032974536E+02 0.17072761585E+02 0.21909036661E+02 0.19185857247E+02
 0.16092159266E+02 0.12979698271E+02 0.10153489585E+02 0.78311378298E+01 0.61197665472E+01
 0.50088727636E+01 0.43786003575E+01 0.40248383251E+01 0.37575927397E+01 0.35552478949E+01
 0.34210411332E+01 0.33522635592E+01 0.33457836720E+01 0.34009478539E+01 0.35190483049E+01
 0.36995966765E+01 0.39354447908E+01 0.42902630963E+01 0.49623624264E+01 0.61128885351E+01
 0.78248381070E+01 0.10093805229E+02 0.12825724629E+02 0.15838090688E+02 0.18868212301E+02
 0.21596664702E+02 0.23691373565E+02 0.24868096477E+02 0.24952007828E+02 0.23920096978E+02
 0.29908270814E+02 0.26545901173E+02 0.22540369060E+02 0.18336944559E+02 0.14343399171E+02
 0.10878852623E+02 0.81440536930E+01 0.62081915660E+01 0.50088727636E+01 0.43670142640E+01
 0.40211918290E+01 0.37639610018E+01 0.35816597763E+01 0.34783301542E+01 0.34529063293E+01
 0.35041955221E+01 0.36316828231E+01 0.38319333971E+01 0.40980003809E+01 0.45545087787E+01
 0.54514027058E+01 0.69810939124E+01 0.92429068487E+01 0.12232196293E+02 0.15838090688E+02
 0.19843736097E+02 0.23931998126E+02 0.27707219858E+02 0.30742693280E+02 0.32652494093E+02
 0.33171268109E+02 0.32216161564E+02 0.39163277349E+02 0.35259959771E+02 0.30380375365E+02
 0.25063242957E+02 0.19821740189E+02 0.15079393710E+02 0.11134431527E+02 0.81440536930E+01
 0.61197665472E+01 0.49328042317E+01 0.43362481788E+01 0.40138345769E+01 0.37777328592E+01
 0.36297436642E+01 0.35744772958E+01 0.36119747557E+01 0.37405609468E+01 0.39540626505E+01
 0.42488974430E+01 0.48036774572E+01 0.59165937282E+01 0.78174181792E+01 0.10628710870E+02
 0.14352515105E+02 0.18868212301E+02 0.23931998126E+02 0.29179121499E+02 0.34141426647E+02
 0.38294866435E+02 0.41140431967E+02 0.42302794481E+02 0.41615784351E+02 0.49195529028E+02
 0.44920151762E+02 0.39280264289E+02 0.32904706705E+02 0.26414393419E+02 0.20340254358E+02
 0.15079393710E+02 0.10878852623E+02 0.78311378298E+01 0.58742257446E+01 0.48017604412E+01
 0.42953708120E+01 0.40042597170E+01 0.38046971674E+01 0.37091216624E+01 0.37216145831E+01
 0.38407851185E+01 0.40586486560E+01 0.43735515723E+01 0.50011422869E+01 0.62867696943E+01
 0.85034228290E+01 0.11805042027E+02 0.16209536826E+02 0.21596664702E+02 0.27707219858E+02
 0.34141426647E+02 0.40369779146E+02 0.45776222933E+02 0.49743842548E+02 0.51770721208E+02
 0.51581748510E+02 0.59324062482E+02 0.54921877118E+02 0.48723061007E+02 0.41434900572E+02
 0.33784822312E+02 0.26414393419E+02 0.19821740189E+02 0.14343399171E+02 0.10153489585E+02
 0.72639466732E+01 0.55264441223E+01 0.46502482445E+01 0.42500631092E+01 0.39973772976E+01
 0.38534838765E+01 0.38300323166E+01 0.39280851978E+01 0.41394263945E+01 0.44595285361E+01
 0.51167401994E+01 0.65002998312E+01 0.89307536783E+01 0.12601795834E+02 0.17557831580E+02
 0.23691373565E+02 0.30742693280E+02 0.38294866435E+02 0.45776222933E+02 0.52494486197E+02
 0.57720854136E+02 0.60818213159E+02 0.61379077934E+02 0.68685757471E+02 0.64469319926E+02
 0.58004610032E+02 0.50052098273E+02 0.41434900572E+02 0.32904706705E+02 0.25063242957E+02
 0.18336944559E+02 0.12979698271E+02 0.90779506529E+01 0.65500734505E+01 0.51522324733E+01
 0.45106844887E+01 0.41977934963E+01 0.40018372723E+01 0.39335650609E+01 0.39990712272E+01
 0.41919135523E+01 0.45009560636E+01 0.51363048434E+01 0.65219235317E+01 0.90271953941E+01
 0.12892733817E+02 0.18200212846E+02 0.24868096477E+02 0.32652494093E+02 0.41140431967E+02
 0.49743842548E+02 0.57720854136E+02 0.64250829561E+02 0.68566751742E+02 0.70114658761E+02
 0.76322281609E+02 0.72637286511E+02 0.66273672258E+02 0.58004610032E+02 0.48723061007E+02
 0.39280264289E+02 0.30380375365E+02 0.22540369060E+02 0.16092159266E+02 0.11194039362E+02
 0.78328513921E+01 0.58228616847E+01 0.48232680692E+01 0.43926884574E+01 0.41461919485E+01
 0.40278731852E+01 0.40513023004E+01 0.42138709059E+01 0.44992236950E+01 0.50659508186E+01
 0.63532958194E+01 0.87762293787E+01 0.12626657404E+02 0.18032974536E+02 0.24952007828E+02
 0.33171268109E+02 0.42302794481E+02 0.51770721208E+02 0.60818213159E+02 0.68566751742E+02
 0.74142394954E+02 0.76847339753E+02 0.81337470297E+02 0.78504864415E+02 0.72637286511E+02
 0.64469319926E+02 0.54921877118E+02 0.44920151762E+02 0.35259959771E+02 0.26545901173E+02
 0.19185857247E+02 0.13406263783E+02 0.92599744709E+01 0.66235542488E+01 0.52035460085E+01
 0.45756413598E+01 0.42769955816E+01 0.41080270468E+01 0.40832063318E+01 0.42054238946E+01
 0.44594534949E+01 0.49291364932E+01 0.60330875601E+01 0.82230202991E+01 0.11842268901E+02
 0.17072761585E+02 0.23920096978E+02 0.32216161564E+02 0.41615784351E+02 0.51581748510E+02
 0.61379077934E+02 0.70114658761E+02 0.76847339753E+02 0.80758944839E+02 0.81337470297E+02
 0.80758944839E+02 0.76847339753E+02 0.70114658761E+02 0.61379077934E+02 0.51581748510E+02
 0.41615784351E+02 0.32216161564E+02 0.23920096978E+02 0.17072761585E+02 0.11842268901E+02
 0.82230202991E+01 0.60330875601E+01 0.49291364932E+01 0.44594534949E+01 0.42054238946E+01
 0.40832063318E+01 0.41080270468E+01 0.42769955816E+01 0.45756413598E+01 0.52035460085E+01
 0.66235542488E+01 0.92599744709E+01 0.13406263783E+02 0.19185857247E+02 0.26545901173E+02
 0.35259959771E+02 0.44920151762E+02 0.54921877118E+02 0.64469319926E+02 0.72637286511E+02
 0.78504864415E+02 0.80758944839E+02 0.81337470227E+02 0.78504864282E+02 0.72637286336E+02
 0.64469319732E+02 0.54921876930E+02 0.44920151599E+02 0.35259959642E+02 0.26545901079E+02
 0.19185857179E+02 0.13406263731E+02 0.92599744247E+01 0.66235542028E+01 0.52035459628E+01
 0.45756413197E+01 0.42769955546E+01 0.41080270389E+01 0.40832063453E+01 0.42054239267E+01
 0.44594535394E+01 0.49291365424E+01 0.60330876089E+01 0.82230203471E+01 0.11842268953E+02
 0.17072761650E+02 0.23920097065E+02 0.32216161679E+02 0.41615784491E+02 0.51581748663E+02
 0.61379078082E+02 0.70114658879E+02 0.76847339819E+02 0.76847339753E+02 0.78504864282E+02
 0.76847339634E+02 0.72096860406E+02 0.64862656907E+02 0.55993804916E+02 0.46400229103E+02
 0.36903987974E+02 0.28155973217E+02 0.20614501620E+02 0.14555513044E+02 0.10082903678E+02
 0.71278420884E+01 0.54503128527E+01 0.46666503548E+01 0.43183886767E+01 0.41100271757E+01
 0.40378496428E+01 0.41100272121E+01 0.43183887412E+01 0.46666504340E+01 0.54503129343E+01
 0.71278421666E+01 0.10082903757E+02 0.14555513137E+02 0.20614501746E+02 0.28155973394E+02
 0.36903988205E+02 0.46400229380E+02 0.55993805214E+02 0.64862657186E+02 0.72096860623E+02
 0.70114658761E+02 0.72637286336E+02 0.72096860406E+02 0.68566751613E+02 0.62508601496E+02
 0.54658611129E+02 0.45864890397E+02 0.36935204013E+02 0.28537582916E+02 0.21161929516E+02
 0.15120831885E+02 0.10559072402E+02 0.74551093180E+01 0.56208450774E+01 0.47204751890E+01
 0.43251935905E+01 0.40877244459E+01 0.39746883396E+01 0.39981547134E+01 0.41559585867E+01
 0.44317408461E+01 0.49473682928E+01 0.61182753745E+01 0.83524033611E+01 0.11941919660E+02
 0.17020540321E+02 0.23552785711E+02 0.31335297045E+02 0.39992656694E+02 0.48968958193E+02
 0.57538088028E+02 0.64862657130E+02 0.61379077934E+02 0.64469319732E+02 0.64862656907E+02
 0.62508601496E+02 0.57720854035E+02 0.51099474184E+02 0.43394001338E+02 0.35359124252E+02
 0.27647493478E+02 0.20756955186E+02 0.15020074677E+02 0.10609753428E+02 0.75417614010E+01
 0.56743873120E+01 0.47214323317E+01 0.42956650464E+01 0.40408302199E+01 0.38966582086E+01
 0.38771447803E+01 0.39841679398E+01 0.42088090085E+01 0.45556819482E+01 0.52957096450E+01
 0.68375038981E+01 0.95125951884E+01 0.13516533263E+02 0.18884696086E+02 0.25488874525E+02
 0.33037091904E+02 0.41070321894E+02 0.48968958152E+02 0.55993805120E+02 0.51581748510E+02
 0.54921876930E+02 0.55993804916E+02 0.54658611129E+02 0.51099474184E+02 0.45776222884E+02
 0.39318311702E+02 0.32397194392E+02 0.25620135333E+02 0.19468240437E+02 0.14275404326E+02
 0.10228246233E+02 0.73682225153E+01 0.55917568823E+01 0.46596144641E+01 0.42310853886E+01
 0.39705733185E+01 0.38068012162E+01 0.37534774101E+01 0.38143251218E+01 0.39864441545E+01
 0.42569196204E+01 0.46991362347E+01 0.56560090902E+01 0.74782158271E+01 0.10413213616E+02
 0.14565988827E+02 0.19885581133E+02 0.26163931429E+02 0.33037091879E+02 0.39992656631E+02
 0.46400229271E+02 0.41615784351E+02 0.44920151599E+02 0.46400229103E+02 0.45864890397E+02
 0.43394001338E+02 0.39318311702E+02 0.34141426650E+02 0.28433675077E+02 0.22734170915E+02
 0.17485629579E+02 0.13005416473E+02 0.94795521033E+01 0.69632948522E+01 0.53817040809E+01
 0.45369372191E+01 0.41351748064E+01 0.38798507664E+01 0.37082864702E+01 0.36322602574E+01
 0.36553832920E+01 0.37778241955E+01 0.39952492401E+01 0.42985649027E+01 0.48399100198E+01
 0.59528726265E+01 0.79185621332E+01 0.10903640564E+02 0.14933719466E+02 0.19885581122E+02
 0.25488874491E+02 0.31335296977E+02 0.36903988100E+02 0.32216161564E+02 0.35259959642E+02
 0.36903987974E+02 0.36935204013E+02 0.35359124252E+02 0.32397194392E+02 0.28433675077E+02
 0.23931998162E+02 0.19349702147E+02 0.15075358903E+02 0.11395248668E+02 0.84824244476E+01
 0.63952656487E+01 0.50781948148E+01 0.43678210812E+01 0.40143953718E+01 0.37731289468E+01
 0.36044765881E+01 0.35171095600E+01 0.35131363960E+01 0.35934093085E+01 0.37583403692E+01
 0.40038052456E+01 0.43338894646E+01 0.49435158067E+01 0.61200826310E+01 0.80751084937E+01
 0.10903640562E+02 0.14565988816E+02 0.18884696055E+02 0.23552785652E+02 0.28155973304E+02
 0.23920096978E+02 0.26545901079E+02 0.28155973217E+02 0.28537582916E+02 0.27647493478E+02
 0.25620135333E+02 0.22734170915E+02 0.19349702147E+02 0.15838090731E+02 0.12524847081E+02
 0.96553259475E+01 0.73804820325E+01 0.57534523682E+01 0.47301272707E+01 0.41746132296E+01
 0.38767996174E+01 0.36560783444E+01 0.34989497274E+01 0.34103564332E+01 0.33902187699E+01
 0.34385504330E+01 0.35573699446E+01 0.37486864867E+01 0.40091566358E+01 0.43549547231E+01
 0.49816147405E+01 0.61200826344E+01 0.79185621355E+01 0.10413213610E+02 0.13516533239E+02
 0.17020540275E+02 0.20614501677E+02 0.17072761585E+02 0.19185857179E+02 0.20614501620E+02
 0.21161929516E+02 0.20756955186E+02 0.19468240437E+02 0.17485629579E+02 0.15075358903E+02
 0.12524847081E+02 0.10093805258E+02 0.79816811354E+01 0.63118428922E+01 0.51265917488E+01
 0.43873642198E+01 0.39796890216E+01 0.37307329855E+01 0.35350008733E+01 0.33954169326E+01
 0.33134285309E+01 0.32867594822E+01 0.33139359894E+01 0.33966192359E+01 0.35390575305E+01
 0.37447051852E+01 0.40108861407E+01 0.43549547273E+01 0.49435158141E+01 0.59528726327E+01
 0.74782158257E+01 0.95125951727E+01 0.11941919626E+02 0.14555513085E+02 0.11842268901E+02
 0.13406263731E+02 0.14555513044E+02 0.15120831885E+02 0.15020074677E+02 0.14275404326E+02
 0.13005416473E+02 0.11395248668E+02 0.96553259475E+01 0.79816811354E+01 0.65270548663E+01
 0.53850503538E+01 0.45841447277E+01 0.40874048632E+01 0.37969582259E+01 0.35844118401E+01
 0.34161717107E+01 0.32975353390E+01 0.32272589809E+01 0.32013898838E+01 0.32170157875E+01
 0.32745652902E+01 0.33781037839E+01 0.35334961109E+01 0.37447051875E+01 0.40091566417E+01
 0.43338894727E+01 0.48399100263E+01 0.56560090895E+01 0.68375038847E+01 0.83524033323E+01
 0.10082903714E+02 0.82230202991E+01 0.92599744247E+01 0.10082903678E+02 0.10559072402E+02
 0.10609753428E+02 0.10228246233E+02 0.94795521033E+01 0.84824244476E+01 0.73804820325E+01
 0.63118428922E+01 0.53850503538E+01 0.46644487144E+01 0.41638197284E+01 0.38456425870E+01
 0.36264012982E+01 0.34451706312E+01 0.33052395076E+01 0.32086749885E+01 0.31526311499E+01
 0.31323008416E+01 0.31438306358E+01 0.31863337775E+01 0.32625660972E+01 0.33781037837E+01
 0.35390575319E+01 0.37486864903E+01 0.40038052501E+01 0.42985649045E+01 0.46991362291E+01
 0.52957096280E+01 0.61182753443E+01 0.71278421248E+01 0.60330875601E+01 0.66235542028E+01
 0.71278420884E+01 0.74551093180E+01 0.75417614010E+01 0.73682225153E+01 0.69632948522E+01
 0.63952656487E+01 0.57534523682E+01 0.51265917488E+01 0.45841447277E+01 0.41638197284E+01
 0.38654828738E+01 0.36501842098E+01 0.34684184390E+01 0.33190527378E+01 0.32068009667E+01
 0.31317193164E+01 0.30904258264E+01 0.30781296417E+01 0.30907263656E+01 0.31263906530E+01
 0.31863337756E+01 0.32745652874E+01 0.33966192335E+01 0.35573699428E+01 0.37583403665E+01
 0.39952492335E+01 0.42569196063E+01 0.45556819237E+01 0.49473682571E+01 0.54503128895E+01
 0.49291364932E+01 0.52035459628E+01 0.54503128527E+01 0.56208450774E+01 0.56743873120E+01
 0.55917568823E+01 0.53817040809E+01 0.50781948148E+01 0.47301272707E+01 0.43873642198E+01
 0.40874048632E+01 0.38456425870E+01 0.36501842098E+01 0.34772968619E+01 0.33290255138E+01
 0.32106038315E+01 0.31242045955E+01 0.30689607701E+01 0.30417672511E+01 0.30385483520E+01
 0.30556056102E+01 0.30907263637E+01 0.31438306316E+01 0.32170157817E+01 0.33139359826E+01
 0.34385504250E+01 0.35934092980E+01 0.37778241801E+01 0.39864441318E+01 0.42088089767E+01
 0.44317408054E+01 0.46666503868E+01 0.44594534949E+01 0.45756413197E+01 0.46666503548E+01
 0.47204751890E+01 0.47214323317E+01 0.46596144641E+01 0.45369372191E+01 0.43678210812E+01
 0.41746132296E+01 0.39796890216E+01 0.37969582259E+01 0.36264012982E+01 0.34684184390E+01
 0.33290255138E+01 0.32128924827E+01 0.31228170505E+01 0.30595735370E+01 0.30221111476E+01
 0.30080728975E+01 0.30144979261E+01 0.30385483517E+01 0.30781296395E+01 0.31323008371E+01
 0.32013898769E+01 0.32867594730E+01 0.33902187580E+01 0.35131363804E+01 0.36553832712E+01
 0.38143250943E+01 0.39841679053E+01 0.41559585459E+01 0.43183886966E+01 0.42054238946E+01
 0.42769955546E+01 0.43183886767E+01 0.43251935905E+01 0.42956650464E+01 0.42310853886E+01
 0.41351748064E+01 0.40143953718E+01 0.38767996174E+01 0.37307329855E+01 0.35844118401E+01
 0.34451706312E+01 0.33190527378E+01 0.32106038315E+01 0.31228170505E+01 0.30572049008E+01
 0.30139912789E+01 0.29924036705E+01 0.29910151706E+01 0.30080728997E+01 0.30417672535E+01
 0.30904258276E+01 0.31526311487E+01 0.32272589768E+01 0.33134285236E+01 0.34103564220E+01
 0.35171095443E+01 0.36322602366E+01 0.37534773841E+01 0.38771447496E+01 0.39981546796E+01
 0.41100271777E+01 0.40832063318E+01 0.41080270389E+01 0.41100271757E+01 0.40877244459E+01
 0.40408302199E+01 0.39705733185E+01 0.38798507664E+01 0.37731289468E+01 0.36560783444E+01
 0.35350008733E+01 0.34161717107E+01 0.33052395076E+01 0.32068009667E+01 0.31242045955E+01
 0.30595735370E+01 0.30139912789E+01 0.29877719854E+01 0.29807336956E+01 0.29924036749E+01
 0.30221111550E+01 0.30689607789E+01 0.31317193250E+01 0.32086749951E+01 0.32975353424E+01
 0.33954169318E+01 0.34989497217E+01 0.36044765774E+01 0.37082864551E+01 0.38068011977E+01
 0.38966581883E+01 0.39746883195E+01 0.40378496251E+01 0.41080270468E+01 0.40832063453E+01
 0.40378496428E+01 0.39746883396E+01 0.38966582086E+01 0.38068012162E+01 0.37082864702E+01
 0.36044765881E+01 0.34989497274E+01 0.33954169326E+01 0.32975353390E+01 0.32086749885E+01
 0.31317193164E+01 0.30689607701E+01 0.30221111476E+01 0.29924036705E+01 0.29807336956E+01
 0.29877719907E+01 0.30139912895E+01 0.30595735523E+01 0.31242046140E+01 0.32068009861E+01
 0.33052395254E+01 0.34161717248E+01 0.35350008820E+01 0.36560783472E+01 0.37731289442E+01
 0.38798507600E+01 0.39705733106E+01 0.40408302132E+01 0.40877244427E+01 0.41100271777E+01
 0.42769955816E+01 0.42054239267E+01 0.41100272121E+01 0.39981547134E+01 0.38771447803E+01
 0.37534774101E+01 0.36322602574E+01 0.35171095600E+01 0.34103564332E+01 0.33134285309E+01
 0.32272589809E+01 0.31526311499E+01 0.30904258264E+01 0.30417672511E+01 0.30080728975E+01
 0.29910151706E+01 0.29924036749E+01 0.30139912895E+01 0.30572049187E+01 0.31228170752E+01
 0.32106038611E+01 0.33190527693E+01 0.34451706612E+01 0.35844118652E+01 0.37307330035E+01
 0.38767996278E+01 0.40143953761E+01 0.41351748075E+01 0.42310853901E+01 0.42956650520E+01