   1   1   1   0
  0.9841500E+01  0.2338269E-09  0.2338269E-09  0.2338269E-09  0.5000000E-15
  1.000000000000000E-004
  CAR 
 Fe BCC                                  
     52.62994863     -4.08905671  301      7.52487494      1.00000000
     -4.089  0.0000E+00  0.0000E+00  0.0000E+00  0.0000E+00
     -3.900  0.0000E+00  0.0000E+00  0.0000E+00  0.0000E+00
     -3.711  0.0000E+00  0.0000E+00  0.0000E+00  0.0000E+00
     -3.522  0.0000E+00  0.0000E+00  0.0000E+00  0.0000E+00
     -3.333  0.0000E+00  0.0000E+00  0.0000E+00  0.0000E+00
     -3.144  0.0000E+00  0.0000E+00  0.0000E+00  0.0000E+00
     -2.955  0.0000E+00  0.0000E+00  0.0000E+00  0.0000E+00
     -2.766  0.0000E+00  0.0000E+00  0.0000E+00  0.0000E+00
     -2.577  0.0000E+00  0.0000E+00  0.0000E+00  0.0000E+00
     -2.387  0.0000E+00  0.0000E+00  0.0000E+00  0.0000E+00
     -2.198  0.0000E+00  0.0000E+00  0.0000E+00  0.0000E+00
     -2.009  0.0000E+00  0.0000E+00  0.0000E+00  0.0000E+00
     -1.820  0.0000E+00  0.0000E+00  0.0000E+00  0.0000E+00
     -1.631  0.0000E+00  0.0000E+00  0.0000E+00  0.0000E+00
     -1.442  0.1092E-01  0.0000E+00  0.1324E-02  0.0000E+00
     -1.253  0.1663E-01  0.1092E-01  0.3942E-02  0.1387E-02
     -1.064  0.2147E-01  0.1637E-01  0.7557E-02  0.3981E-02
     -0.875  0.2545E-01  0.2095E-01  0.1201E-01  0.7522E-02
     -0.686  0.3190E-01  0.2466E-01  0.1736E-01  0.1185E-01
     -0.497  0.3824E-01  0.3057E-01  0.2401E-01  0.1700E-01
     -0.308  0.4315E-01  0.3633E-01  0.3173E-01  0.2335E-01
     -0.119  0.4490E-01  0.4062E-01  0.4008E-01  0.3065E-01
      0.070  0.5052E-01  0.4101E-01  0.4909E-01  0.3849E-01
      0.259  0.5674E-01  0.4517E-01  0.5922E-01  0.4663E-01
      0.448  0.6355E-01  0.4966E-01  0.7058E-01  0.5559E-01
      0.638  0.7094E-01  0.5447E-01  0.8328E-01  0.6543E-01
      0.827  0.7892E-01  0.5961E-01  0.9744E-01  0.7621E-01
      1.016  0.9278E-01  0.6506E-01  0.1134E+00  0.8799E-01
      1.205  0.1143E+00  0.6978E-01  0.1329E+00  0.1008E+00
      1.394  0.1377E+00  0.7913E-01  0.1567E+00  0.1149E+00
      1.583  0.1847E+00  0.8852E-01  0.1866E+00  0.1307E+00
      1.772  0.2589E+00  0.9735E-01  0.2282E+00  0.1483E+00
      1.961  0.4949E+00  0.1072E+00  0.3104E+00  0.1676E+00
      2.150  0.5857E+00  0.1216E+00  0.4127E+00  0.1892E+00
      2.339  0.9804E+00  0.1394E+00  0.5444E+00  0.2138E+00
      2.528  0.9352E+00  0.1601E+00  0.7323E+00  0.2421E+00
      2.717  0.6958E+00  0.1836E+00  0.8878E+00  0.2745E+00
      2.906  0.4625E+00  0.2823E+00  0.9926E+00  0.3137E+00
      3.095  0.3468E+00  0.3818E+00  0.1070E+01  0.3807E+00
      3.284  0.3390E+00  0.3936E+00  0.1129E+01  0.4535E+00
      3.473  0.1891E+01  0.4113E+00  0.1248E+01  0.5299E+00
      3.663  0.1377E+01  0.5109E+00  0.1513E+01  0.6205E+00
      3.852  0.8428E+00  0.7109E+00  0.1736E+01  0.7307E+00
      4.041  0.5698E+00  0.6158E+00  0.1858E+01  0.8703E+00
      4.230  0.6752E+00  0.4291E+00  0.1972E+01  0.9699E+00
      4.419  0.9477E+00  0.2997E+00  0.2123E+01  0.1038E+01
      4.608  0.1575E+01  0.1292E+00  0.2357E+01  0.1081E+01
      4.797  0.9569E+00  0.3448E+00  0.2631E+01  0.1114E+01
      4.986  0.4074E+00  0.1049E+01  0.2743E+01  0.1257E+01
      5.175  0.3401E+00  0.1238E+01  0.2813E+01  0.1470E+01
      5.364  0.3203E+00  0.1112E+01  0.2875E+01  0.1687E+01
      5.553  0.3296E+00  0.7780E+00  0.2936E+01  0.1847E+01
      5.742  0.4778E+00  0.8401E+00  0.3021E+01  0.2000E+01
      5.931  0.7394E+00  0.9257E+00  0.3131E+01  0.2166E+01
      6.120  0.1228E+01  0.1205E+01  0.3316E+01  0.2372E+01
      6.309  0.1654E+01  0.1021E+01  0.3601E+01  0.2597E+01
      6.498  0.1725E+01  0.6520E+00  0.3935E+01  0.2759E+01
      6.688  0.1840E+01  0.2694E+00  0.4245E+01  0.2833E+01
      6.877  0.1015E+01  0.2161E+00  0.4515E+01  0.2878E+01
      7.066  0.7764E+00  0.1800E+00  0.4684E+01  0.2916E+01
      7.255  0.6765E+00  0.1508E+00  0.4817E+01  0.2948E+01
      7.444  0.6550E+00  0.2235E+00  0.4941E+01  0.2981E+01
      7.633  0.8889E+00  0.2868E+00  0.5082E+01  0.3030E+01
      7.822  0.3056E+00  0.3836E+00  0.5207E+01  0.3093E+01
      8.011  0.1304E+00  0.5620E+00  0.5245E+01  0.3181E+01
      8.200  0.1314E+00  0.7570E+00  0.5270E+01  0.3306E+01
      8.389  0.1516E+00  0.1059E+01  0.5298E+01  0.3476E+01
      8.578  0.1517E+00  0.1257E+01  0.5326E+01  0.3698E+01
      8.767  0.1469E+00  0.1219E+01  0.5355E+01  0.3954E+01
      8.956  0.1399E+00  0.9493E+00  0.5382E+01  0.4149E+01
      9.145  0.1338E+00  0.1055E+01  0.5407E+01  0.4348E+01
      9.334  0.1335E+00  0.1367E+01  0.5433E+01  0.4706E+01
      9.524  0.1334E+00  0.9775E+00  0.5458E+01  0.4916E+01
      9.713  0.1333E+00  0.1022E+01  0.5483E+01  0.5110E+01
      9.902  0.1334E+00  0.2350E+00  0.5508E+01  0.5221E+01
     10.091  0.1337E+00  0.2226E+00  0.5533E+01  0.5259E+01
     10.280  0.1332E+00  0.2132E+00  0.5559E+01  0.5301E+01
     10.469  0.1317E+00  0.2011E+00  0.5584E+01  0.5340E+01
     10.658  0.1292E+00  0.1833E+00  0.5608E+01  0.5376E+01
     10.847  0.1343E+00  0.1686E+00  0.5633E+01  0.5409E+01
     11.036  0.1273E+00  0.1659E+00  0.5658E+01  0.5441E+01
     11.225  0.1200E+00  0.1641E+00  0.5681E+01  0.5472E+01
     11.414  0.1238E+00  0.1635E+00  0.5704E+01  0.5503E+01
     11.603  0.1158E+00  0.1625E+00  0.5728E+01  0.5534E+01
     11.792  0.1115E+00  0.1597E+00  0.5750E+01  0.5564E+01
     11.981  0.1073E+00  0.1550E+00  0.5771E+01  0.5594E+01
     12.170  0.1031E+00  0.1600E+00  0.5791E+01  0.5623E+01
     12.359  0.9897E-01  0.1442E+00  0.5810E+01  0.5652E+01
     12.549  0.9485E-01  0.1374E+00  0.5828E+01  0.5678E+01
     12.738  0.9029E-01  0.1383E+00  0.5845E+01  0.5704E+01
     12.927  0.8443E-01  0.1317E+00  0.5862E+01  0.5731E+01
     13.116  0.7862E-01  0.1235E+00  0.5877E+01  0.5755E+01
     13.305  0.7288E-01  0.1182E+00  0.5892E+01  0.5778E+01
     13.494  0.7611E-01  0.1130E+00  0.5905E+01  0.5800E+01
     13.683  0.7050E-01  0.1079E+00  0.5919E+01  0.5821E+01
     13.872  0.6179E-01  0.1029E+00  0.5932E+01  0.5841E+01
     14.061  0.4327E-01  0.9701E-01  0.5942E+01  0.5860E+01
     14.250  0.3985E-01  0.8978E-01  0.5949E+01  0.5877E+01
     14.439  0.3662E-01  0.9044E-01  0.5957E+01  0.5894E+01
     14.628  0.3235E-01  0.8320E-01  0.5965E+01  0.5910E+01
     14.817  0.2529E-01  0.7351E-01  0.5970E+01  0.5925E+01
     15.006  0.2005E-01  0.6136E-01  0.5974E+01  0.5938E+01
     15.195  0.1663E-01  0.4650E-01  0.5978E+01  0.5947E+01
     15.384  0.1504E-01  0.4242E-01  0.5981E+01  0.5955E+01
     15.574  0.1541E-01  0.3891E-01  0.5984E+01  0.5964E+01
     15.763  0.1783E-01  0.3022E-01  0.5987E+01  0.5971E+01
     15.952  0.2228E-01  0.2352E-01  0.5990E+01  0.5976E+01
     16.141  0.2878E-01  0.1881E-01  0.5995E+01  0.5980E+01
     16.330  0.5327E-01  0.1609E-01  0.6002E+01  0.5983E+01
     16.519  0.9309E-01  0.1534E-01  0.6017E+01  0.5986E+01
     16.708  0.1450E+00  0.1651E-01  0.6039E+01  0.5989E+01
     16.897  0.2007E+00  0.1962E-01  0.6073E+01  0.5993E+01
     17.086  0.2415E+00  0.2712E-01  0.6115E+01  0.5998E+01
     17.275  0.2540E+00  0.3252E-01  0.6162E+01  0.6003E+01
     17.464  0.2635E+00  0.3930E-01  0.6211E+01  0.6010E+01
     17.653  0.1816E+00  0.8973E-01  0.6257E+01  0.6022E+01
     17.842  0.1773E+00  0.1732E+00  0.6291E+01  0.6049E+01
     18.031  0.1726E+00  0.2262E+00  0.6324E+01  0.6087E+01
     18.220  0.1674E+00  0.2781E+00  0.6356E+01  0.6134E+01
     18.409  0.1617E+00  0.2975E+00  0.6387E+01  0.6190E+01
     18.599  0.1586E+00  0.2144E+00  0.6417E+01  0.6246E+01
     18.788  0.1755E+00  0.1993E+00  0.6448E+01  0.6285E+01
     18.977  0.1630E+00  0.1927E+00  0.6480E+01  0.6322E+01
     19.166  0.1426E+00  0.1896E+00  0.6511E+01  0.6358E+01
     19.355  0.1531E+00  0.1929E+00  0.6539E+01  0.6394E+01
     19.544  0.1590E+00  0.1562E+00  0.6568E+01  0.6436E+01
     19.733  0.1655E+00  0.1542E+00  0.6599E+01  0.6465E+01
     19.922  0.1813E+00  0.1556E+00  0.6633E+01  0.6494E+01
     20.111  0.1837E+00  0.1663E+00  0.6667E+01  0.6524E+01
     20.300  0.1871E+00  0.1725E+00  0.6702E+01  0.6556E+01
     20.489  0.1894E+00  0.1794E+00  0.6738E+01  0.6589E+01
     20.678  0.1924E+00  0.1940E+00  0.6774E+01  0.6626E+01
     20.867  0.1948E+00  0.1964E+00  0.6810E+01  0.6662E+01
     21.056  0.1959E+00  0.1995E+00  0.6847E+01  0.6700E+01
     21.245  0.1958E+00  0.2024E+00  0.6884E+01  0.6738E+01
     21.434  0.1944E+00  0.2049E+00  0.6921E+01  0.6776E+01
     21.624  0.1881E+00  0.2066E+00  0.6961E+01  0.6815E+01
     21.813  0.1782E+00  0.2070E+00  0.6995E+01  0.6854E+01
     22.002  0.1762E+00  0.2057E+00  0.7028E+01  0.6893E+01
     22.191  0.1742E+00  0.1920E+00  0.7061E+01  0.6933E+01
     22.380  0.1734E+00  0.1877E+00  0.7094E+01  0.6970E+01
     22.569  0.1724E+00  0.1856E+00  0.7127E+01  0.7006E+01
     22.758  0.1714E+00  0.1835E+00  0.7159E+01  0.7041E+01
     22.947  0.1703E+00  0.1815E+00  0.7192E+01  0.7075E+01
     23.136  0.1728E+00  0.1810E+00  0.7225E+01  0.7109E+01
     23.325  0.1698E+00  0.1801E+00  0.7257E+01  0.7144E+01
     23.514  0.1667E+00  0.1792E+00  0.7289E+01  0.7178E+01
     23.703  0.1655E+00  0.1784E+00  0.7320E+01  0.7211E+01
     23.892  0.1634E+00  0.1822E+00  0.7351E+01  0.7246E+01
     24.081  0.1626E+00  0.1762E+00  0.7382E+01  0.7280E+01
     24.270  0.1617E+00  0.1749E+00  0.7413E+01  0.7313E+01
     24.460  0.1609E+00  0.1730E+00  0.7443E+01  0.7346E+01
     24.649  0.1600E+00  0.1722E+00  0.7474E+01  0.7379E+01
     24.838  0.1645E+00  0.1716E+00  0.7505E+01  0.7411E+01
     25.027  0.1659E+00  0.1710E+00  0.7536E+01  0.7444E+01
     25.216  0.1686E+00  0.1703E+00  0.7567E+01  0.7476E+01
     25.405  0.1723E+00  0.1697E+00  0.7600E+01  0.7508E+01
     25.594  0.1776E+00  0.1690E+00  0.7633E+01  0.7540E+01
     25.783  0.1900E+00  0.1682E+00  0.7667E+01  0.7572E+01
     25.972  0.1924E+00  0.1779E+00  0.7704E+01  0.7606E+01
     26.161  0.2030E+00  0.1824E+00  0.7742E+01  0.7640E+01
     26.350  0.2088E+00  0.1880E+00  0.7781E+01  0.7675E+01
     26.539  0.2216E+00  0.2007E+00  0.7822E+01  0.7711E+01
     26.728  0.2302E+00  0.2055E+00  0.7865E+01  0.7751E+01
     26.917  0.2246E+00  0.2164E+00  0.7908E+01  0.7791E+01
     27.106  0.2275E+00  0.2315E+00  0.7950E+01  0.7833E+01
     27.295  0.2198E+00  0.2289E+00  0.7992E+01  0.7878E+01
     27.485  0.2224E+00  0.2245E+00  0.8034E+01  0.7921E+01
     27.674  0.2298E+00  0.2270E+00  0.8077E+01  0.7964E+01
     27.863  0.2365E+00  0.2288E+00  0.8121E+01  0.8007E+01
     28.052  0.2368E+00  0.2326E+00  0.8166E+01  0.8050E+01
     28.241  0.2451E+00  0.2372E+00  0.8211E+01  0.8095E+01
     28.430  0.2533E+00  0.2376E+00  0.8259E+01  0.8141E+01
     28.619  0.2618E+00  0.2437E+00  0.8307E+01  0.8186E+01
     28.808  0.2727E+00  0.2496E+00  0.8358E+01  0.8233E+01
     28.997  0.3023E+00  0.2589E+00  0.8411E+01  0.8281E+01
     29.186  0.2813E+00  0.2707E+00  0.8467E+01  0.8331E+01
     29.375  0.2737E+00  0.2833E+00  0.8519E+01  0.8383E+01
     29.564  0.2644E+00  0.2900E+00  0.8570E+01  0.8438E+01
     29.753  0.2547E+00  0.2950E+00  0.8619E+01  0.8496E+01
     29.942  0.2449E+00  0.2796E+00  0.8666E+01  0.8551E+01
     30.131  0.2344E+00  0.2658E+00  0.8712E+01  0.8602E+01
     30.320  0.2224E+00  0.2543E+00  0.8755E+01  0.8651E+01
     30.510  0.2098E+00  0.2431E+00  0.8796E+01  0.8698E+01
     30.699  0.1976E+00  0.2310E+00  0.8834E+01  0.8743E+01
     30.888  0.1796E+00  0.2209E+00  0.8870E+01  0.8786E+01
     31.077  0.1654E+00  0.2079E+00  0.8903E+01  0.8827E+01
     31.266  0.1542E+00  0.1886E+00  0.8933E+01  0.8864E+01
     31.455  0.1404E+00  0.1720E+00  0.8961E+01  0.8898E+01
     31.644  0.1388E+00  0.1551E+00  0.8987E+01  0.8929E+01
     31.833  0.1418E+00  0.1467E+00  0.9013E+01  0.8957E+01
     32.022  0.1468E+00  0.1390E+00  0.9040E+01  0.8984E+01
     32.211  0.1382E+00  0.1373E+00  0.9068E+01  0.9011E+01
     32.400  0.1377E+00  0.1502E+00  0.9094E+01  0.9038E+01
     32.589  0.1375E+00  0.1532E+00  0.9120E+01  0.9067E+01
     32.778  0.1476E+00  0.1564E+00  0.9149E+01  0.9096E+01
     32.967  0.1300E+00  0.1774E+00  0.9175E+01  0.9126E+01
     33.156  0.1329E+00  0.1410E+00  0.9200E+01  0.9157E+01
     33.345  0.1360E+00  0.1354E+00  0.9225E+01  0.9182E+01
     33.535  0.1393E+00  0.1358E+00  0.9251E+01  0.9208E+01
     33.724  0.1387E+00  0.1277E+00  0.9279E+01  0.9234E+01
     33.913  0.1416E+00  0.1290E+00  0.9305E+01  0.9259E+01
     34.102  0.1470E+00  0.1278E+00  0.9332E+01  0.9283E+01
     34.291  0.1547E+00  0.1275E+00  0.9361E+01  0.9308E+01
     34.480  0.2291E+00  0.1326E+00  0.9397E+01  0.9332E+01
     34.669  0.4075E+00  0.1443E+00  0.9450E+01  0.9358E+01
     34.858  0.2814E+00  0.2127E+00  0.9512E+01  0.9392E+01
     35.047  0.2491E+00  0.2759E+00  0.9562E+01  0.9439E+01
     35.236  0.2094E+00  0.3844E+00  0.9605E+01  0.9501E+01
     35.425  0.1900E+00  0.2833E+00  0.9644E+01  0.9565E+01
     35.614  0.1682E+00  0.2289E+00  0.9677E+01  0.9613E+01
     35.803  0.1648E+00  0.1906E+00  0.9708E+01  0.9652E+01
     35.992  0.1595E+00  0.1685E+00  0.9739E+01  0.9686E+01
     36.181  0.1541E+00  0.1608E+00  0.9769E+01  0.9717E+01
     36.371  0.1484E+00  0.1531E+00  0.9797E+01  0.9747E+01
     36.560  0.1423E+00  0.1454E+00  0.9825E+01  0.9775E+01
     36.749  0.1358E+00  0.1378E+00  0.9851E+01  0.9801E+01
     36.938  0.1705E+00  0.1336E+00  0.9879E+01  0.9827E+01
     37.127  0.1770E+00  0.1374E+00  0.9913E+01  0.9852E+01
     37.316  0.1490E+00  0.1442E+00  0.9942E+01  0.9879E+01
     37.505  0.1409E+00  0.1509E+00  0.9970E+01  0.9907E+01
     37.694  0.3865E+00  0.1834E+00  0.1000E+02  0.9937E+01
     37.883  0.2174E+00  0.1457E+00  0.1004E+02  0.9970E+01
     38.072  0.2544E+00  0.1410E+00  0.1009E+02  0.9997E+01
     38.261  0.2882E+00  0.2152E+00  0.1014E+02  0.1003E+02
     38.450  0.3054E+00  0.2381E+00  0.1020E+02  0.1007E+02
     38.639  0.3135E+00  0.2764E+00  0.1025E+02  0.1012E+02
     38.828  0.3122E+00  0.3182E+00  0.1031E+02  0.1018E+02
     39.017  0.3017E+00  0.3209E+00  0.1037E+02  0.1024E+02
     39.206  0.2866E+00  0.3115E+00  0.1043E+02  0.1030E+02
     39.396  0.2855E+00  0.3007E+00  0.1048E+02  0.1036E+02
     39.585  0.2712E+00  0.2875E+00  0.1054E+02  0.1041E+02
     39.774  0.2514E+00  0.2718E+00  0.1058E+02  0.1047E+02
     39.963  0.2413E+00  0.2747E+00  0.1063E+02  0.1052E+02
     40.152  0.2334E+00  0.2614E+00  0.1068E+02  0.1057E+02
     40.341  0.2233E+00  0.2480E+00  0.1072E+02  0.1062E+02
     40.530  0.2182E+00  0.2418E+00  0.1076E+02  0.1066E+02
     40.719  0.2148E+00  0.2359E+00  0.1080E+02  0.1071E+02
     40.908  0.2354E+00  0.2271E+00  0.1085E+02  0.1075E+02
     41.097  0.2068E+00  0.2239E+00  0.1089E+02  0.1080E+02
     41.286  0.1910E+00  0.2260E+00  0.1092E+02  0.1084E+02
     41.475  0.1944E+00  0.2417E+00  0.1096E+02  0.1088E+02
     41.664  0.2029E+00  0.1990E+00  0.1100E+02  0.1093E+02
     41.853  0.2146E+00  0.1994E+00  0.1104E+02  0.1097E+02
     42.042  0.2366E+00  0.2044E+00  0.1108E+02  0.1100E+02
     42.231  0.2536E+00  0.2178E+00  0.1113E+02  0.1104E+02
     42.421  0.2667E+00  0.2244E+00  0.1118E+02  0.1109E+02
     42.610  0.2785E+00  0.2344E+00  0.1123E+02  0.1113E+02
     42.799  0.3030E+00  0.2482E+00  0.1128E+02  0.1117E+02
     42.988  0.3003E+00  0.2624E+00  0.1134E+02  0.1122E+02
     43.177  0.2782E+00  0.2728E+00  0.1140E+02  0.1128E+02
     43.366  0.2310E+00  0.2754E+00  0.1144E+02  0.1133E+02
     43.555  0.2107E+00  0.2716E+00  0.1149E+02  0.1138E+02
     43.744  0.2028E+00  0.2625E+00  0.1152E+02  0.1143E+02
     43.933  0.1897E+00  0.2076E+00  0.1156E+02  0.1148E+02
     44.122  0.1830E+00  0.2006E+00  0.1160E+02  0.1152E+02
     44.311  0.1765E+00  0.1938E+00  0.1163E+02  0.1155E+02
     44.500  0.1701E+00  0.1873E+00  0.1166E+02  0.1159E+02
     44.689  0.1638E+00  0.1810E+00  0.1170E+02  0.1162E+02
     44.878  0.1653E+00  0.1750E+00  0.1173E+02  0.1166E+02
     45.067  0.1673E+00  0.1688E+00  0.1176E+02  0.1169E+02
     45.256  0.1617E+00  0.1717E+00  0.1179E+02  0.1172E+02
     45.446  0.1629E+00  0.1677E+00  0.1182E+02  0.1175E+02
     45.635  0.1461E+00  0.1582E+00  0.1185E+02  0.1179E+02
     45.824  0.8532E-01  0.1582E+00  0.1188E+02  0.1181E+02
     46.013  0.6630E-01  0.1402E+00  0.1189E+02  0.1184E+02
     46.202  0.6194E-01  0.1003E+00  0.1190E+02  0.1187E+02
     46.391  0.5774E-01  0.8239E-01  0.1191E+02  0.1188E+02
     46.580  0.5370E-01  0.6345E-01  0.1192E+02  0.1190E+02
     46.769  0.4982E-01  0.5912E-01  0.1193E+02  0.1191E+02
     46.958  0.4609E-01  0.5495E-01  0.1194E+02  0.1192E+02
     47.147  0.4253E-01  0.5095E-01  0.1195E+02  0.1193E+02
     47.336  0.3912E-01  0.4711E-01  0.1196E+02  0.1194E+02
     47.525  0.3586E-01  0.4343E-01  0.1196E+02  0.1195E+02
     47.714  0.2835E-01  0.3992E-01  0.1197E+02  0.1196E+02
     47.903  0.2593E-01  0.3223E-01  0.1198E+02  0.1196E+02
     48.092  0.2365E-01  0.2956E-01  0.1198E+02  0.1197E+02
     48.281  0.2150E-01  0.2702E-01  0.1199E+02  0.1198E+02
     48.471  0.1949E-01  0.2462E-01  0.1199E+02  0.1198E+02
     48.660  0.1572E-01  0.2236E-01  0.1200E+02  0.1199E+02
     48.849  0.9545E-02  0.2024E-01  0.1200E+02  0.1199E+02
     49.038  0.5135E-02  0.1576E-01  0.1200E+02  0.1199E+02
     49.227  0.4965E-03  0.1102E-01  0.1200E+02  0.1200E+02
     49.416  0.0000E+00  0.4882E-02  0.1200E+02  0.1200E+02
     49.605  0.0000E+00  0.2410E-02  0.1200E+02  0.1200E+02
     49.794  0.0000E+00  0.8023E-03  0.1200E+02  0.1200E+02
     49.983  0.0000E+00  0.5705E-04  0.1200E+02  0.1200E+02
     50.172  0.0000E+00  0.0000E+00  0.1200E+02  0.1200E+02
     50.361  0.0000E+00  0.0000E+00  0.1200E+02  0.1200E+02
     50.550  0.0000E+00  0.0000E+00  0.1200E+02  0.1200E+02
     50.739  0.0000E+00  0.0000E+00  0.1200E+02  0.1200E+02
     50.928  0.0000E+00  0.0000E+00  0.1200E+02  0.1200E+02
     51.117  0.0000E+00  0.0000E+00  0.1200E+02  0.1200E+02
     51.307  0.0000E+00  0.0000E+00  0.1200E+02  0.1200E+02
     51.496  0.0000E+00  0.0000E+00  0.1200E+02  0.1200E+02
     51.685  0.0000E+00  0.0000E+00  0.1200E+02  0.1200E+02
     51.874  0.0000E+00  0.0000E+00  0.1200E+02  0.1200E+02
     52.063  0.0000E+00  0.0000E+00  0.1200E+02  0.1200E+02
     52.252  0.0000E+00  0.0000E+00  0.1200E+02  0.1200E+02
     52.441  0.0000E+00  0.0000E+00  0.1200E+02  0.1200E+02
     52.630  0.0000E+00  0.0000E+00  0.1200E+02  0.1200E+02
     52.62994863     -4.08905671  301      7.52487494      1.00000000
     -4.089  0.0000E+00  0.0000E+00  0.0000E+00  0.0000E+00  0.0000E+00  0.0000E+00  0.0000E+00  0.0000E+00  0.0000E+00  0.0000E+00  0.0000E+00  0.0000E+00  0.0000E+00  0.0000E+00  0.0000E+00  0.0000E+00  0.0000E+00  0.0000E+00
     -3.900  0.0000E+00  0.0000E+00  0.0000E+00  0.0000E+00  0.0000E+00  0.0000E+00  0.0000E+00  0.0000E+00  0.0000E+00  0.0000E+00  0.0000E+00  0.0000E+00  0.0000E+00  0.0000E+00  0.0000E+00  0.0000E+00  0.0000E+00  0.0000E+00
     -3.711  0.0000E+00  0.0000E+00  0.0000E+00  0.0000E+00  0.0000E+00  0.0000E+00  0.0000E+00  0.0000E+00  0.0000E+00  0.0000E+00  0.0000E+00  0.0000E+00  0.0000E+00  0.0000E+00  0.0000E+00  0.0000E+00  0.0000E+00  0.0000E+00
     -3.522  0.0000E+00  0.0000E+00  0.0000E+00  0.0000E+00  0.0000E+00  0.0000E+00  0.0000E+00  0.0000E+00  0.0000E+00  0.0000E+00  0.0000E+00  0.0000E+00  0.0000E+00  0.0000E+00  0.0000E+00  0.0000E+00  0.0000E+00  0.0000E+00
     -3.333  0.0000E+00  0.0000E+00  0.0000E+00  0.0000E+00  0.0000E+00  0.0000E+00  0.0000E+00  0.0000E+00  0.0000E+00  0.0000E+00  0.0000E+00  0.0000E+00  0.0000E+00  0.0000E+00  0.0000E+00  0.0000E+00  0.0000E+00  0.0000E+00
     -3.144  0.0000E+00  0.0000E+00  0.0000E+00  0.0000E+00  0.0000E+00  0.0000E+00  0.0000E+00  0.0000E+00  0.0000E+00  0.0000E+00  0.0000E+00  0.0000E+00  0.0000E+00  0.0000E+00  0.0000E+00  0.0000E+00  0.0000E+00  0.0000E+00
     -2.955  0.0000E+00  0.0000E+00  0.0000E+00  0.0000E+00  0.0000E+00  0.0000E+00  0.0000E+00  0.0000E+00  0.0000E+00  0.0000E+00  0.0000E+00  0.0000E+00  0.0000E+00  0.0000E+00  0.0000E+00  0.0000E+00  0.0000E+00  0.0000E+00
     -2.766  0.0000E+00  0.0000E+00  0.0000E+00  0.0000E+00  0.0000E+00  0.0000E+00  0.0000E+00  0.0000E+00  0.0000E+00  0.0000E+00  0.0000E+00  0.0000E+00  0.0000E+00  0.0000E+00  0.0000E+00  0.0000E+00  0.0000E+00  0.0000E+00
     -2.577  0.0000E+00  0.0000E+00  0.0000E+00  0.0000E+00  0.0000E+00  0.0000E+00  0.0000E+00  0.0000E+00  0.0000E+00  0.0000E+00  0.0000E+00  0.0000E+00  0.0000E+00  0.0000E+00  0.0000E+00  0.0000E+00  0.0000E+00  0.0000E+00
     -2.387  0.0000E+00  0.0000E+00  0.0000E+00  0.0000E+00  0.0000E+00  0.0000E+00  0.0000E+00  0.0000E+00  0.0000E+00  0.0000E+00  0.0000E+00  0.0000E+00  0.0000E+00  0.0000E+00  0.0000E+00  0.0000E+00  0.0000E+00  0.0000E+00
     -2.198  0.0000E+00  0.0000E+00  0.0000E+00  0.0000E+00  0.0000E+00  0.0000E+00  0.0000E+00  0.0000E+00  0.0000E+00  0.0000E+00  0.0000E+00  0.0000E+00  0.0000E+00  0.0000E+00  0.0000E+00  0.0000E+00  0.0000E+00  0.0000E+00
     -2.009  0.0000E+00  0.0000E+00  0.0000E+00  0.0000E+00  0.0000E+00  0.0000E+00  0.0000E+00  0.0000E+00  0.0000E+00  0.0000E+00  0.0000E+00  0.0000E+00  0.0000E+00  0.0000E+00  0.0000E+00  0.0000E+00  0.0000E+00  0.0000E+00
     -1.820  0.0000E+00  0.0000E+00  0.0000E+00  0.0000E+00  0.0000E+00  0.0000E+00  0.0000E+00  0.0000E+00  0.0000E+00  0.0000E+00  0.0000E+00  0.0000E+00  0.0000E+00  0.0000E+00  0.0000E+00  0.0000E+00  0.0000E+00  0.0000E+00
     -1.631  0.0000E+00  0.0000E+00  0.0000E+00  0.0000E+00  0.0000E+00  0.0000E+00  0.0000E+00  0.0000E+00  0.0000E+00  0.0000E+00  0.0000E+00  0.0000E+00  0.0000E+00  0.0000E+00  0.0000E+00  0.0000E+00  0.0000E+00  0.0000E+00
     -1.442  0.8857E-02  0.0000E+00  0.9672E-04  0.0000E+00  0.6586E-04  0.0000E+00  0.4164E-03  0.0000E+00  0.3022E-04  0.0000E+00  0.7777E-05  0.0000E+00  0.1105E-04  0.0000E+00  0.7403E-05  0.0000E+00  0.1224E-04  0.0000E+00
     -1.253  0.1322E-01  0.8917E-02  0.2095E-03  0.1011E-03  0.1320E-03  0.6822E-04  0.7394E-03  0.4238E-03  0.7323E-04  0.2169E-04  0.2124E-04  0.5950E-05  0.2768E-04  0.7524E-05  0.1598E-04  0.5691E-05  0.3053E-04  0.8897E-05
     -1.064  0.1679E-01  0.1313E-01  0.3252E-03  0.2131E-03  0.1866E-03  0.1332E-03  0.1099E-02  0.7406E-03  0.1272E-03  0.5073E-04  0.4049E-04  0.1495E-04  0.5093E-04  0.1808E-04  0.2470E-04  0.1179E-04  0.5882E-04  0.2095E-04
     -0.875  0.1954E-01  0.1654E-01  0.4439E-03  0.3280E-03  0.2295E-03  0.1869E-03  0.1495E-02  0.1091E-02  0.1921E-03  0.8659E-04  0.6553E-04  0.2706E-04  0.8082E-04  0.3260E-04  0.3356E-04  0.1779E-04  0.9709E-04  0.3900E-04
     -0.686  0.2398E-01  0.1915E-01  0.6583E-03  0.4459E-03  0.3377E-03  0.2293E-03  0.2077E-02  0.1476E-02  0.2981E-03  0.1293E-03  0.1344E-03  0.4228E-04  0.1289E-03  0.5110E-04  0.5424E-04  0.2368E-04  0.1580E-03  0.6304E-04
     -0.497  0.2807E-01  0.2328E-01  0.9155E-03  0.6545E-03  0.4958E-03  0.3335E-03  0.2669E-02  0.2031E-02  0.4435E-03  0.1970E-03  0.2643E-03  0.8257E-04  0.1974E-03  0.7946E-04  0.9454E-04  0.3712E-04  0.2437E-03  0.9992E-04
     -0.308  0.3080E-01  0.2710E-01  0.1181E-02  0.9053E-03  0.6801E-03  0.4870E-03  0.3202E-02  0.2595E-02  0.6193E-03  0.2857E-03  0.4476E-03  0.1568E-03  0.2834E-03  0.1169E-03  0.1524E-03  0.6209E-04  0.3507E-03  0.1493E-03
     -0.119  0.3029E-01  0.2960E-01  0.1434E-02  0.1164E-02  0.9165E-03  0.6656E-03  0.3774E-02  0.3097E-02  0.8855E-03  0.3892E-03  0.7308E-03  0.2598E-03  0.4506E-03  0.1616E-03  0.2643E-03  0.9694E-04  0.5964E-03  0.2092E-03
      0.070  0.3291E-01  0.2847E-01  0.1682E-02  0.1407E-02  0.1111E-02  0.9011E-03  0.4466E-02  0.3571E-02  0.1326E-02  0.5200E-03  0.9541E-03  0.4225E-03  0.7148E-03  0.2353E-03  0.3764E-03  0.1620E-03  0.8224E-03  0.3407E-03
      0.259  0.3569E-01  0.3053E-01  0.1940E-02  0.1639E-02  0.1315E-02  0.1081E-02  0.5241E-02  0.4167E-02  0.1860E-02  0.7444E-03  0.1217E-02  0.5368E-03  0.1042E-02  0.3493E-03  0.5155E-03  0.2219E-03  0.1089E-02  0.4586E-03
      0.448  0.3864E-01  0.3269E-01  0.2209E-02  0.1880E-02  0.1529E-02  0.1268E-02  0.6099E-02  0.4827E-02  0.2485E-02  0.1010E-02  0.1519E-02  0.6683E-03  0.1432E-02  0.4869E-03  0.6816E-03  0.2940E-03  0.1395E-02  0.5947E-03
      0.638  0.4177E-01  0.3494E-01  0.2488E-02  0.2128E-02  0.1752E-02  0.1463E-02  0.7041E-02  0.5552E-02  0.3203E-02  0.1316E-02  0.1862E-02  0.8170E-03  0.1885E-02  0.6479E-03  0.8746E-03  0.3784E-03  0.1741E-02  0.7491E-03
      0.827  0.4506E-01  0.3730E-01  0.2778E-02  0.2384E-02  0.1985E-02  0.1664E-02  0.8065E-02  0.6342E-02  0.4013E-02  0.1663E-02  0.2243E-02  0.9829E-03  0.2400E-02  0.8323E-03  0.1095E-02  0.4752E-03  0.2127E-02  0.9218E-03
      1.016  0.4960E-01  0.3976E-01  0.3327E-02  0.2648E-02  0.2538E-02  0.1872E-02  0.9501E-02  0.7196E-02  0.5614E-02  0.2050E-02  0.3630E-02  0.1166E-02  0.3535E-02  0.1040E-02  0.1749E-02  0.5842E-03  0.2839E-02  0.1113E-02
      1.205  0.5590E-01  0.4140E-01  0.4037E-02  0.2869E-02  0.3290E-02  0.2087E-02  0.1165E-01  0.8049E-02  0.8440E-02  0.2480E-02  0.6024E-02  0.1404E-02  0.5724E-02  0.1291E-02  0.2665E-02  0.7685E-03  0.4207E-02  0.1317E-02
      1.394  0.6070E-01  0.4461E-01  0.4525E-02  0.3371E-02  0.3903E-02  0.2599E-02  0.1418E-01  0.9301E-02  0.1235E-01  0.3377E-02  0.8897E-02  0.2188E-02  0.8998E-02  0.1833E-02  0.3753E-02  0.1084E-02  0.6158E-02  0.1718E-02
      1.583  0.7055E-01  0.4723E-01  0.5114E-02  0.3806E-02  0.4426E-02  0.3093E-02  0.1817E-01  0.1067E-01  0.2277E-01  0.4440E-02  0.1426E-01  0.3107E-02  0.1702E-01  0.2543E-02  0.5005E-02  0.1438E-02  0.9482E-02  0.2273E-02
      1.772  0.8477E-01  0.4886E-01  0.5815E-02  0.4117E-02  0.5067E-02  0.3524E-02  0.2293E-01  0.1208E-01  0.4160E-01  0.5698E-02  0.2324E-01  0.4137E-02  0.3164E-01  0.3445E-02  0.6445E-02  0.1821E-02  0.1416E-01  0.2982E-02
      1.961  0.1050E+00  0.5041E-01  0.6615E-02  0.4349E-02  0.6814E-02  0.3871E-02  0.3000E-01  0.1358E-01  0.8502E-01  0.7468E-02  0.5343E-01  0.5313E-02  0.1042E+00  0.4679E-02  0.9064E-02  0.2221E-02  0.5486E-01  0.3817E-02
      2.150  0.1034E+00  0.5374E-01  0.6924E-02  0.4695E-02  0.7653E-02  0.4251E-02  0.3498E-01  0.1536E-01  0.9358E-01  0.1019E-01  0.6316E-01  0.6815E-02  0.1431E+00  0.6450E-02  0.1291E-01  0.2638E-02  0.7380E-01  0.4779E-02
      2.339  0.1340E+00  0.5776E-01  0.9047E-02  0.5061E-02  0.1077E-01  0.4648E-02  0.6769E-01  0.1736E-01  0.1575E+00  0.1390E-01  0.7668E-01  0.8705E-02  0.2993E+00  0.8851E-02  0.2305E-01  0.3095E-02  0.1252E+00  0.5893E-02
      2.528  0.9552E-01  0.6223E-01  0.9996E-02  0.5432E-02  0.1043E-01  0.5069E-02  0.6145E-01  0.1955E-01  0.1234E+00  0.1847E-01  0.8885E-01  0.1096E-01  0.2870E+00  0.1182E-01  0.3937E-01  0.3602E-02  0.1482E+00  0.7161E-02
      2.717  0.5714E-01  0.6714E-01  0.8503E-02  0.5809E-02  0.7263E-02  0.5515E-02  0.4165E-01  0.2193E-01  0.9110E-01  0.2391E-01  0.9320E-01  0.1359E-01  0.1663E+00  0.1536E-01  0.4946E-01  0.4160E-02  0.1326E+00  0.8582E-02
      2.906  0.3012E-01  0.8864E-01  0.7193E-02  0.7419E-02  0.4543E-02  0.7396E-02  0.2218E-01  0.2673E-01  0.5673E-01  0.4776E-01  0.9035E-01  0.3036E-01  0.7158E-01  0.3009E-01  0.4630E-01  0.5074E-02  0.1045E+00  0.1407E-01
      3.095  0.1482E-01  0.9834E-01  0.6851E-02  0.7528E-02  0.2808E-02  0.9029E-02  0.1611E-01  0.3480E-01  0.3198E-01  0.6857E-01  0.6935E-01  0.5193E-01  0.4748E-01  0.4845E-01  0.3481E-01  0.8357E-02  0.1008E+00  0.2355E-01
      3.284  0.4852E-02  0.8947E-01  0.1043E-01  0.6724E-02  0.4052E-02  0.8949E-02  0.1404E-01  0.3781E-01  0.1845E-01  0.7149E-01  0.5423E-01  0.5437E-01  0.6397E-01  0.5559E-01  0.3520E-01  0.1086E-01  0.1117E+00  0.2678E-01
      3.473  0.1402E-02  0.8360E-01  0.5338E-01  0.6321E-02  0.4011E-01  0.8712E-02  0.3024E-01  0.4029E-01  0.5128E+00  0.7444E-01  0.1636E+00  0.5780E-01  0.1386E+00  0.6290E-01  0.6865E+00  0.1392E-01  0.1965E+00  0.3090E-01
      3.663  0.3077E-02  0.7401E-01  0.3011E-01  0.6660E-02  0.1987E-01  0.8570E-02  0.1834E-01  0.4489E-01  0.2040E+00  0.7316E-01  0.2419E+00  0.5701E-01  0.1366E+00  0.1095E+00  0.4987E+00  0.1781E-01  0.1731E+00  0.7756E-01
      3.852  0.3875E-02  0.7265E-01  0.1744E-01  0.8245E-02  0.8039E-02  0.8775E-02  0.1160E-01  0.6408E-01  0.1016E+00  0.8163E-01  0.1415E+00  0.5929E-01  0.1107E+00  0.1869E+00  0.2863E+00  0.2411E-01  0.1277E+00  0.1451E+00
      4.041  0.7330E-02  0.5257E-01  0.1534E-01  0.9806E-02  0.1618E-01  0.9576E-02  0.7430E-02  0.4664E-01  0.1279E+00  0.7450E-01  0.8377E-01  0.7159E-01  0.6520E-01  0.1748E+00  0.1754E+00  0.3047E-01  0.4915E-01  0.9679E-01
      4.230  0.1202E-01  0.3380E-01  0.2691E-01  0.8874E-02  0.2957E-01  0.7306E-02  0.1658E-01  0.2886E-01  0.1569E+00  0.5262E-01  0.1286E+00  0.6907E-01  0.5146E-01  0.9996E-01  0.1608E+00  0.3132E-01  0.6408E-01  0.6570E-01
      4.419  0.1846E-01  0.1841E-01  0.3884E-01  0.7941E-02  0.3830E-01  0.4722E-02  0.2829E-01  0.1865E-01  0.2144E+00  0.3195E-01  0.2208E+00  0.5773E-01  0.6146E-01  0.5405E-01  0.1846E+00  0.2826E-01  0.1023E+00  0.5704E-01
      4.608  0.3024E-01  0.1114E-03  0.6191E-01  0.6318E-02  0.4614E-01  0.1079E-02  0.5647E-01  0.5078E-02  0.3532E+00  0.3006E-02  0.3655E+00  0.1098E-02  0.8210E-01  0.4024E-01  0.3291E+00  0.3245E-02  0.1860E+00  0.5672E-01
      4.797  0.1935E-01  0.2157E-03  0.4070E-01  0.1919E-01  0.2987E-01  0.8437E-02  0.3007E-01  0.1123E-01  0.2139E+00  0.5594E-01  0.1851E+00  0.1588E-01  0.4139E-01  0.5298E-01  0.2475E+00  0.6893E-01  0.1104E+00  0.8929E-01
      4.986  0.1021E-01  0.9242E-03  0.2516E-01  0.4856E-01  0.1915E-01  0.2114E-01  0.1480E-01  0.2836E-01  0.5990E-01  0.1930E+00  0.8499E-01  0.1213E+00  0.1719E-01  0.1017E+00  0.9051E-01  0.3490E+00  0.6546E-01  0.1373E+00
      5.175  0.7055E-02  0.2103E-02  0.1974E-01  0.4318E-01  0.1468E-01  0.2338E-01  0.1115E-01  0.2187E-01  0.4818E-01  0.1996E+00  0.7640E-01  0.2094E+00  0.1434E-01  0.1087E+00  0.7978E-01  0.4533E+00  0.5314E-01  0.1297E+00
      5.364  0.5147E-02  0.3880E-02  0.1638E-01  0.4736E-01  0.1238E-01  0.3217E-01  0.8463E-02  0.2333E-01  0.5120E-01  0.1665E+00  0.7490E-01  0.1862E+00  0.1627E-01  0.1092E+00  0.7802E-01  0.3562E+00  0.4432E-01  0.1379E+00