       N       E                     dE             d eps       ncg     rms          rms(c)
DAV:   1     0.179991651980E+02    0.17999E+02   -0.35583E+03  1352   0.757E+02
DAV:   2    -0.772873182614E+01   -0.25728E+02   -0.23832E+02  1300   0.123E+02
DAV:   3    -0.830877306131E+01   -0.58004E+00   -0.57537E+00  1452   0.211E+01
DAV:   4    -0.831067550636E+01   -0.19024E-02   -0.18995E-02  1380   0.108E+00
DAV:   5    -0.831068521361E+01   -0.97072E-05   -0.97123E-05  1444   0.809E-02    0.154E+01
DAV:   6    -0.809698896919E+01    0.21370E+00   -0.68915E+00  1412   0.357E+01    0.391E+00
DAV:   7    -0.809849920415E+01   -0.15102E-02   -0.10792E-01  1452   0.439E+00    0.237E+00
DAV:   8    -0.808408676967E+01    0.14412E-01   -0.11809E-02  1592   0.778E-01    0.134E+00
DAV:   9    -0.807741231483E+01    0.66745E-02   -0.41042E-03  1648   0.405E-01    0.251E-01
DAV:  10    -0.807838147222E+01   -0.96916E-03   -0.94534E-04  1372   0.272E-01    0.563E-02
DAV:  11    -0.807851043940E+01   -0.12897E-03   -0.71347E-05  1444   0.990E-02    0.411E-02
DAV:  12    -0.807856577738E+01   -0.55338E-04   -0.32961E-06  1332   0.152E-02    0.159E-02
DAV:  13    -0.807856683646E+01   -0.10591E-05   -0.49970E-07   676   0.611E-03    0.896E-03
DAV:  14    -0.807854361555E+01    0.23221E-04   -0.76876E-07   716   0.561E-03    0.123E-03
DAV:  15    -0.807854138840E+01    0.22271E-05   -0.36133E-08   664   0.161E-03    0.580E-04
DAV:  16    -0.807853969775E+01    0.16907E-05   -0.51578E-09   660   0.578E-04    0.557E-04
DAV:  17    -0.807854001555E+01   -0.31779E-06   -0.94526E-10   652   0.270E-04
   1 F= -.80785400E+01 E0= -.80785400E+01  d E =0.000000E+00  mag=     1.9978
