Fe BCC                                  
   2.90000000000000     
    -0.500000    0.500000    0.500000
     0.500000   -0.500000    0.500000
     0.500000    0.500000   -0.500000
   Fe
     1
Direct
  0.000000  0.000000  0.000000
 
   32   32   32
 0.10359821433E+03 0.10108072402E+03 0.93917748294E+02 0.83160729749E+02 0.70228703495E+02
 0.56571509019E+02 0.43421772830E+02 0.31690937146E+02 0.21973387442E+02 0.14578287880E+02
 0.95333963935E+01 0.65685282411E+01 0.51329326140E+01 0.44945748493E+01 0.40811276822E+01
 0.38322968101E+01 0.37501216164E+01 0.38322968101E+01 0.40811276822E+01 0.44945748493E+01
 0.51329326140E+01 0.65685282411E+01 0.95333963935E+01 0.14578287880E+02 0.21973387442E+02
 0.31690937146E+02 0.43421772830E+02 0.56571509019E+02 0.70228703495E+02 0.83160729749E+02
 0.93917748294E+02 0.10108072402E+03 0.10108072402E+03 0.10024856539E+03 0.94656834284E+02
 0.85145674735E+02 0.73023418478E+02 0.59734911281E+02 0.46579210969E+02 0.34560147640E+02
 0.24361756648E+02 0.16377317237E+02 0.10723619302E+02 0.72271010374E+01 0.54247668911E+01
 0.46344138251E+01 0.41762354307E+01 0.38764075119E+01 0.37414788436E+01 0.37684034469E+01
 0.39581367014E+01 0.43126903300E+01 0.48329013205E+01 0.58773011787E+01 0.81779533005E+01
 0.12357772851E+02 0.18787098503E+02 0.27540764694E+02 0.38408630604E+02 0.50902659226E+02
 0.64233166755E+02 0.77288876372E+02 0.88697554458E+02 0.97023702427E+02 0.93917748294E+02
 0.94656834284E+02 0.90801271331E+02 0.82941064068E+02 0.72196861883E+02 0.59922244063E+02
 0.47411532996E+02 0.35714036888E+02 0.25575090690E+02 0.17451392805E+02 0.11530354741E+02
 0.77230299372E+01 0.56574129554E+01 0.47248425802E+01 0.42329137365E+01 0.38950130399E+01
 0.37152046135E+01 0.36900980569E+01 0.38186730138E+01 0.41050254656E+01 0.45451208031E+01
 0.52616414692E+01 0.68786445021E+01 0.10062177690E+02 0.15274969232E+02 0.22701918587E+02
 0.32243215931E+02 0.43526077088E+02 0.55894905032E+02 0.68390434557E+02 0.79779157143E+02
 0.88697554458E+02 0.83160729749E+02 0.85145674735E+02 0.82941064068E+02 0.76891192974E+02
 0.67886184522E+02 0.57118256751E+02 0.45804931457E+02 0.34984080980E+02 0.25423667484E+02
 0.17616665512E+02 0.11798577368E+02 0.79471260731E+01 0.57744788486E+01 0.47565162277E+01
 0.42435634566E+01 0.38832988913E+01 0.36705349398E+01 0.36015996695E+01 0.36730378437E+01
 0.38888390034E+01 0.42532514124E+01 0.47722115343E+01 0.58016855512E+01 0.79995345225E+01
 0.11899076646E+02 0.17793534900E+02 0.25701637731E+02 0.35372448727E+02 0.46287050661E+02
 0.57647294727E+02 0.68390434557E+02 0.77288876372E+02 0.70228703495E+02 0.73023418478E+02
 0.72196861883E+02 0.67886184522E+02 0.60746096513E+02 0.51766544419E+02 0.42030641958E+02
 0.32509811864E+02 0.23952066674E+02 0.16855657161E+02 0.11479307646E+02 0.78462710827E+01
 0.57391366558E+01 0.47184516254E+01 0.42050865487E+01 0.38386775674E+01 0.36069913243E+01
 0.35058299766E+01 0.35291253267E+01 0.36789539451E+01 0.39635516869E+01 0.43836653394E+01
 0.50176013456E+01 0.63751640531E+01 0.90233390614E+01 0.13348211635E+02 0.19488764749E+02
 0.27322381407E+02 0.36468174897E+02 0.46287050661E+02 0.55894905032E+02 0.64233166755E+02
 0.56571509019E+02 0.59734911281E+02 0.59922244063E+02 0.57118256751E+02 0.51766544419E+02
 0.44644749336E+02 0.36667191534E+02 0.28696216949E+02 0.21421614895E+02 0.15317015457E+02
 0.10640335578E+02 0.74392145935E+01 0.55496458386E+01 0.46091014484E+01 0.41194906858E+01
 0.37617382320E+01 0.35252199491E+01 0.34048360614E+01 0.33920506155E+01 0.34859813401E+01
 0.36950951321E+01 0.40292547839E+01 0.44865089637E+01 0.52557551556E+01 0.68570362650E+01
 0.97368986382E+01 0.14143517505E+02 0.20085153429E+02 0.27322381407E+02 0.35372448727E+02
 0.43526077088E+02 0.50902659226E+02 0.43421772830E+02 0.46579210969E+02 0.47411532996E+02
 0.45804931457E+02 0.42030641958E+02 0.36667191534E+02 0.30448970432E+02 0.24103928083E+02
 0.18235705395E+02 0.13269342399E+02 0.94421758273E+01 0.68082150280E+01 0.52401904782E+01
 0.44405934308E+01 0.39934909378E+01 0.36565457031E+01 0.34276324129E+01 0.33004898855E+01
 0.32645789386E+01 0.33158541065E+01 0.34605366489E+01 0.37115312192E+01 0.40776853590E+01
 0.45643593695E+01 0.54316765259E+01 0.71314732935E+01 0.99921256512E+01 0.14143517505E+02
 0.19488764749E+02 0.25701637731E+02 0.32243215931E+02 0.38408630604E+02 0.31690937146E+02
 0.34560147640E+02 0.35714036888E+02 0.34984080980E+02 0.32509811864E+02 0.28696216949E+02
 0.24103928083E+02 0.19317501186E+02 0.14838744285E+02 0.11028565794E+02 0.80903074303E+01
 0.60714996390E+01 0.48680108303E+01 0.42347214668E+01 0.38373593095E+01 0.35302284693E+01
 0.33186042901E+01 0.31951217616E+01 0.31479867781E+01 0.31704875746E+01 0.32655399024E+01
 0.34449211663E+01 0.37231115757E+01 0.41062416421E+01 0.46083710530E+01 0.54966095069E+01
 0.71314732935E+01 0.97368986382E+01 0.13348211635E+02 0.17793534900E+02 0.22701918587E+02
 0.27540764694E+02 0.21973387442E+02 0.24361756648E+02 0.25575090690E+02 0.25423667484E+02
 0.23952066674E+02 0.21421614895E+02 0.18235705395E+02 0.14838744285E+02 0.11625783535E+02
 0.88862608349E+01 0.67825168511E+01 0.53482195301E+01 0.44929826235E+01 0.40130528067E+01
 0.36633841234E+01 0.33919814672E+01 0.32041437367E+01 0.30918315681E+01 0.30429472896E+01
 0.30490723089E+01 0.31099013862E+01 0.32339986967E+01 0.34357772482E+01 0.37286861610E+01
 0.41155360183E+01 0.46083710530E+01 0.54316765259E+01 0.68570362650E+01 0.90233390614E+01
 0.11899076646E+02 0.15274969232E+02 0.18787098503E+02 0.14578287880E+02 0.16377317237E+02
 0.17451392805E+02 0.17616665512E+02 0.16855657161E+02 0.15317015457E+02 0.13269342399E+02
 0.11028565794E+02 0.88862608349E+01 0.70595884457E+01 0.56678928152E+01 0.47278878105E+01
 0.41573313059E+01 0.37868290126E+01 0.34842462155E+01 0.32517154373E+01 0.30911002450E+01
 0.29943751410E+01 0.29501496874E+01 0.29494672892E+01 0.29896075175E+01 0.30754783535E+01
 0.32184661548E+01 0.34326627931E+01 0.37286861610E+01 0.41062416421E+01 0.45643593695E+01
 0.52557551556E+01 0.63751640531E+01 0.79995345225E+01 0.10062177690E+02 0.12357772851E+02
 0.95333963935E+01 0.10723619302E+02 0.11530354741E+02 0.11798577368E+02 0.11479307646E+02
 0.10640335578E+02 0.94421758273E+01 0.80903074303E+01 0.67825168511E+01 0.56678928152E+01
 0.48242554959E+01 0.42509686603E+01 0.38709134793E+01 0.35653398139E+01 0.33115223396E+01
 0.31186296956E+01 0.29861120388E+01 0.29066837396E+01 0.28705420660E+01 0.28693314648E+01
 0.28990492365E+01 0.29615176726E+01 0.30642276220E+01 0.32184661548E+01 0.34357772482E+01
 0.37231115757E+01 0.40776853590E+01 0.44865089637E+01 0.50176013456E+01 0.58016855512E+01
 0.68786445021E+01 0.81779533005E+01 0.65685282411E+01 0.72271010374E+01 0.77230299372E+01
 0.79471260731E+01 0.78462710827E+01 0.74392145935E+01 0.68082150280E+01 0.60714996390E+01
 0.53482195301E+01 0.47278878105E+01 0.42509686603E+01 0.39007706504E+01 0.36120126243E+01
 0.33598879793E+01 0.31544841763E+01 0.29999978171E+01 0.28945741697E+01 0.28322066300E+01
 0.28052541602E+01 0.28068616498E+01 0.28328903434E+01 0.28831189498E+01 0.29615176726E+01
 0.30754783535E+01 0.32339986967E+01 0.34449211663E+01 0.37115312192E+01 0.40292547839E+01
 0.43836653394E+01 0.47722115343E+01 0.52616414692E+01 0.58773011787E+01 0.51329326140E+01
 0.54247668911E+01 0.56574129554E+01 0.57744788486E+01 0.57391366558E+01 0.55496458386E+01
 0.52401904782E+01 0.48680108303E+01 0.44929826235E+01 0.41573313059E+01 0.38709134793E+01
 0.36120126243E+01 0.33783494567E+01 0.31790475949E+01 0.30193646326E+01 0.29004295023E+01
 0.28199238619E+01 0.27733381562E+01 0.27553675690E+01 0.27611711772E+01 0.27873938033E+01
 0.28328903434E+01 0.28990492365E+01 0.29896075175E+01 0.31099013862E+01 0.32655399024E+01
 0.34605366489E+01 0.36950951321E+01 0.39635516869E+01 0.42532514124E+01 0.45451208031E+01
 0.48329013205E+01 0.44945748493E+01 0.46344138251E+01 0.47248425802E+01 0.47565162277E+01
 0.47184516254E+01 0.46091014484E+01 0.44405934308E+01 0.42347214668E+01 0.40130528067E+01
 0.37868290126E+01 0.35653398139E+01 0.33598879793E+01 0.31790475949E+01 0.30281314080E+01
 0.29092287447E+01 0.28217751055E+01 0.27634590251E+01 0.27311668747E+01 0.27217309432E+01
 0.27324104441E+01 0.27611711772E+01 0.28068616498E+01 0.28693314648E+01 0.29494672892E+01
 0.30490723089E+01 0.31704875746E+01 0.33158541065E+01 0.34859813401E+01 0.36789539451E+01
 0.38888390034E+01 0.41050254656E+01 0.43126903300E+01 0.40811276822E+01 0.41762354307E+01
 0.42329137365E+01 0.42435634566E+01 0.42050865487E+01 0.41194906858E+01 0.39934909378E+01
 0.38373593095E+01 0.36633841234E+01 0.34842462155E+01 0.33115223396E+01 0.31544841763E+01
 0.30193646326E+01 0.29092287447E+01 0.28244573614E+01 0.27636652062E+01 0.27247369243E+01
 0.27056602380E+01 0.27049617025E+01 0.27217309432E+01 0.27553675690E+01 0.28052541602E+01
 0.28705420660E+01 0.29501496874E+01 0.30429472896E+01 0.31479867781E+01 0.32645789386E+01
 0.33920506155E+01 0.35291253267E+01 0.36730378437E+01 0.38186730138E+01 0.39581367014E+01
 0.38322968101E+01 0.38764075119E+01 0.38950130399E+01 0.38832988913E+01 0.38386775674E+01
 0.37617382320E+01 0.36565457031E+01 0.35302284693E+01 0.33919814672E+01 0.32517154373E+01
 0.31186296956E+01 0.29999978171E+01 0.29004295023E+01 0.28217751055E+01 0.27636652062E+01
 0.27244788630E+01 0.27024005167E+01 0.26962212166E+01 0.27056602380E+01 0.27311668747E+01
 0.27733381562E+01 0.28322066300E+01 0.29066837396E+01 0.29943751410E+01 0.30918315681E+01
 0.31951217616E+01 0.33004898855E+01 0.34048360614E+01 0.35058299766E+01 0.36015996695E+01
 0.36900980569E+01 0.37684034469E+01 0.37501216164E+01 0.37414788436E+01 0.37152046135E+01
 0.36705349398E+01 0.36069913243E+01 0.35252199491E+01 0.34276324129E+01 0.33186042901E+01
 0.32041437367E+01 0.30911002450E+01 0.29861120388E+01 0.28945741697E+01 0.28199238619E+01
 0.27634590251E+01 0.27247369243E+01 0.27024005167E+01 0.26951325169E+01 0.27024005167E+01
 0.27247369243E+01 0.27634590251E+01 0.28199238619E+01 0.28945741697E+01 0.29861120388E+01
 0.30911002450E+01 0.32041437367E+01 0.33186042901E+01 0.34276324129E+01 0.35252199491E+01
 0.36069913243E+01 0.36705349398E+01 0.37152046135E+01 0.37414788436E+01 0.38322968101E+01
 0.37684034469E+01 0.36900980569E+01 0.36015996695E+01 0.35058299766E+01 0.34048360614E+01
 0.33004898855E+01 0.31951217616E+01 0.30918315681E+01 0.29943751410E+01 0.29066837396E+01
 0.28322066300E+01 0.27733381562E+01 0.27311668747E+01 0.27056602380E+01 0.26962212166E+01
 0.27024005167E+01 0.27244788630E+01 0.27636652062E+01 0.28217751055E+01 0.29004295023E+01
 0.29999978171E+01 0.31186296956E+01 0.32517154373E+01 0.33919814672E+01 0.35302284693E+01
 0.36565457031E+01 0.37617382320E+01 0.38386775674E+01 0.38832988913E+01 0.38950130399E+01
 0.38764075119E+01 0.40811276822E+01 0.39581367014E+01 0.38186730138E+01 0.36730378437E+01
 0.35291253267E+01 0.33920506155E+01 0.32645789386E+01 0.31479867781E+01 0.30429472896E+01
 0.29501496874E+01 0.28705420660E+01 0.28052541602E+01 0.27553675690E+01 0.27217309432E+01
 0.27049617025E+01 0.27056602380E+01 0.27247369243E+01 0.27636652062E+01 0.28244573614E+01
 0.29092287447E+01 0.30193646326E+01 0.31544841763E+01 0.33115223396E+01 0.34842462155E+01
 0.36633841234E+01 0.38373593095E+01 0.39934909378E+01 0.41194906858E+01 0.42050865487E+01
 0.42435634566E+01 0.42329137365E+01 0.41762354307E+01 0.44945748493E+01 0.43126903300E+01
 0.41050254656E+01 0.38888390034E+01 0.36789539451E+01 0.34859813401E+01 0.33158541065E+01
 0.31704875746E+01 0.30490723089E+01 0.29494672892E+01 0.28693314648E+01 0.28068616498E+01
 0.27611711772E+01 0.27324104441E+01 0.27217309432E+01 0.27311668747E+01 0.27634590251E+01
 0.28217751055E+01 0.29092287447E+01 0.30281314080E+01 0.31790475949E+01 0.33598879793E+01
 0.35653398139E+01 0.37868290126E+01 0.40130528067E+01 0.42347214668E+01 0.44405934308E+01
 0.46091014484E+01 0.47184516254E+01 0.47565162277E+01 0.47248425802E+01 0.46344138251E+01
 0.51329326140E+01 0.48329013205E+01 0.45451208031E+01 0.42532514124E+01 0.39635516869E+01
 0.36950951321E+01 0.34605366489E+01 0.32655399024E+01 0.31099013862E+01 0.29896075175E+01
 0.28990492365E+01 0.28328903434E+01 0.27873938033E+01 0.27611711772E+01 0.27553675690E+01
 0.27733381562E+01 0.28199238619E+01 0.29004295023E+01 0.30193646326E+01 0.31790475949E+01
 0.33783494567E+01 0.36120126243E+01 0.38709134793E+01 0.41573313059E+01 0.44929826235E+01
 0.48680108303E+01 0.52401904782E+01 0.55496458386E+01 0.57391366558E+01 0.57744788486E+01
 0.56574129554E+01 0.54247668911E+01 0.65685282411E+01 0.58773011787E+01 0.52616414692E+01
 0.47722115343E+01 0.43836653394E+01 0.40292547839E+01 0.37115312192E+01 0.34449211663E+01
 0.32339986967E+01 0.30754783535E+01 0.29615176726E+01 0.28831189498E+01 0.28328903434E+01
 0.28068616498E+01 0.28052541602E+01 0.28322066300E+01 0.28945741697E+01 0.29999978171E+01
 0.31544841763E+01 0.33598879793E+01 0.36120126243E+01 0.39007706504E+01 0.42509686603E+01
 0.47278878105E+01 0.53482195301E+01 0.60714996390E+01 0.68082150280E+01 0.74392145935E+01
 0.78462710827E+01 0.79471260731E+01 0.77230299372E+01 0.72271010374E+01 0.95333963935E+01
 0.81779533005E+01 0.68786445021E+01 0.58016855512E+01 0.50176013456E+01 0.44865089637E+01
 0.40776853590E+01 0.37231115757E+01 0.34357772482E+01 0.32184661548E+01 0.30642276220E+01
 0.29615176726E+01 0.28990492365E+01 0.28693314648E+01 0.28705420660E+01 0.29066837396E+01
 0.29861120388E+01 0.31186296956E+01 0.33115223396E+01 0.35653398139E+01 0.38709134793E+01
 0.42509686603E+01 0.48242554959E+01 0.56678928152E+01 0.67825168511E+01 0.80903074303E+01
 0.94421758273E+01 0.10640335578E+02 0.11479307646E+02 0.11798577368E+02 0.11530354741E+02
 0.10723619302E+02 0.14578287880E+02 0.12357772851E+02 0.10062177690E+02 0.79995345225E+01
 0.63751640531E+01 0.52557551556E+01 0.45643593695E+01 0.41062416421E+01 0.37286861610E+01
 0.34326627931E+01 0.32184661548E+01 0.30754783535E+01 0.29896075175E+01 0.29494672892E+01
 0.29501496874E+01 0.29943751410E+01 0.30911002450E+01 0.32517154373E+01 0.34842462155E+01
 0.37868290126E+01 0.41573313059E+01 0.47278878105E+01 0.56678928152E+01 0.70595884457E+01
 0.88862608349E+01 0.11028565794E+02 0.13269342399E+02 0.15317015457E+02 0.16855657161E+02
 0.17616665512E+02 0.17451392805E+02 0.16377317237E+02 0.21973387442E+02 0.18787098503E+02
 0.15274969232E+02 0.11899076646E+02 0.90233390614E+01 0.68570362650E+01 0.54316765259E+01
 0.46083710530E+01 0.41155360183E+01 0.37286861610E+01 0.34357772482E+01 0.32339986967E+01
 0.31099013862E+01 0.30490723089E+01 0.30429472896E+01 0.30918315681E+01 0.32041437367E+01
 0.33919814672E+01 0.36633841234E+01 0.40130528067E+01 0.44929826235E+01 0.53482195301E+01
 0.67825168511E+01 0.88862608349E+01 0.11625783535E+02 0.14838744285E+02 0.18235705395E+02
 0.21421614895E+02 0.23952066674E+02 0.25423667484E+02 0.25575090690E+02 0.24361756648E+02
 0.31690937146E+02 0.27540764694E+02 0.22701918587E+02 0.17793534900E+02 0.13348211635E+02
 0.97368986382E+01 0.71314732935E+01 0.54966095069E+01 0.46083710530E+01 0.41062416421E+01
 0.37231115757E+01 0.34449211663E+01 0.32655399024E+01 0.31704875746E+01 0.31479867781E+01
 0.31951217616E+01 0.33186042901E+01 0.35302284693E+01 0.38373593095E+01 0.42347214668E+01
 0.48680108303E+01 0.60714996390E+01 0.80903074303E+01 0.11028565794E+02 0.14838744285E+02
 0.19317501186E+02 0.24103928083E+02 0.28696216949E+02 0.32509811864E+02 0.34984080980E+02
 0.35714036888E+02 0.34560147640E+02 0.43421772830E+02 0.38408630604E+02 0.32243215931E+02
 0.25701637731E+02 0.19488764749E+02 0.14143517505E+02 0.99921256512E+01 0.71314732935E+01
 0.54316765259E+01 0.45643593695E+01 0.40776853590E+01 0.37115312192E+01 0.34605366489E+01
 0.33158541065E+01 0.32645789386E+01 0.33004898855E+01 0.34276324129E+01 0.36565457031E+01
 0.39934909378E+01 0.44405934308E+01 0.52401904782E+01 0.68082150280E+01 0.94421758273E+01
 0.13269342399E+02 0.18235705395E+02 0.24103928083E+02 0.30448970432E+02 0.36667191534E+02
 0.42030641958E+02 0.45804931457E+02 0.47411532996E+02 0.46579210969E+02 0.56571509019E+02
 0.50902659226E+02 0.43526077088E+02 0.35372448727E+02 0.27322381407E+02 0.20085153429E+02
 0.14143517505E+02 0.97368986382E+01 0.68570362650E+01 0.52557551556E+01 0.44865089637E+01
 0.40292547839E+01 0.36950951321E+01 0.34859813401E+01 0.33920506155E+01 0.34048360614E+01
 0.35252199491E+01 0.37617382320E+01 0.41194906858E+01 0.46091014484E+01 0.55496458386E+01
 0.74392145935E+01 0.10640335578E+02 0.15317015457E+02 0.21421614895E+02 0.28696216949E+02
 0.36667191534E+02 0.44644749336E+02 0.51766544419E+02 0.57118256751E+02 0.59922244063E+02
 0.59734911281E+02 0.70228703495E+02 0.64233166755E+02 0.55894905032E+02 0.46287050661E+02
 0.36468174897E+02 0.27322381407E+02 0.19488764749E+02 0.13348211635E+02 0.90233390614E+01
 0.63751640531E+01 0.50176013456E+01 0.43836653394E+01 0.39635516869E+01 0.36789539451E+01
 0.35291253267E+01 0.35058299766E+01 0.36069913243E+01 0.38386775674E+01 0.42050865487E+01
 0.47184516254E+01 0.57391366558E+01 0.78462710827E+01 0.11479307646E+02 0.16855657161E+02
 0.23952066674E+02 0.32509811864E+02 0.42030641958E+02 0.51766544419E+02 0.60746096513E+02
 0.67886184522E+02 0.72196861883E+02 0.73023418478E+02 0.83160729749E+02 0.77288876372E+02
 0.68390434557E+02 0.57647294727E+02 0.46287050661E+02 0.35372448727E+02 0.25701637731E+02
 0.17793534900E+02 0.11899076646E+02 0.79995345225E+01 0.58016855512E+01 0.47722115343E+01
 0.42532514124E+01 0.38888390034E+01 0.36730378437E+01 0.36015996695E+01 0.36705349398E+01
 0.38832988913E+01 0.42435634566E+01 0.47565162277E+01 0.57744788486E+01 0.79471260731E+01
 0.11798577368E+02 0.17616665512E+02 0.25423667484E+02 0.34984080980E+02 0.45804931457E+02
 0.57118256751E+02 0.67886184522E+02 0.76891192974E+02 0.82941064068E+02 0.85145674735E+02
 0.93917748294E+02 0.88697554458E+02 0.79779157143E+02 0.68390434557E+02 0.55894905032E+02
 0.43526077088E+02 0.32243215931E+02 0.22701918587E+02 0.15274969232E+02 0.10062177690E+02
 0.68786445021E+01 0.52616414692E+01 0.45451208031E+01 0.41050254656E+01 0.38186730138E+01
 0.36900980569E+01 0.37152046135E+01 0.38950130399E+01 0.42329137365E+01 0.47248425802E+01
 0.56574129554E+01 0.77230299372E+01 0.11530354741E+02 0.17451392805E+02 0.25575090690E+02
 0.35714036888E+02 0.47411532996E+02 0.59922244063E+02 0.72196861883E+02 0.82941064068E+02
 0.90801271331E+02 0.94656834284E+02 0.10108072402E+03 0.97023702427E+02 0.88697554458E+02
 0.77288876372E+02 0.64233166755E+02 0.50902659226E+02 0.38408630604E+02 0.27540764694E+02
 0.18787098503E+02 0.12357772851E+02 0.81779533005E+01 0.58773011787E+01 0.48329013205E+01
 0.43126903300E+01 0.39581367014E+01 0.37684034469E+01 0.37414788436E+01 0.38764075119E+01
 0.41762354307E+01 0.46344138251E+01 0.54247668911E+01 0.72271010374E+01 0.10723619302E+02
 0.16377317237E+02 0.24361756648E+02 0.34560147640E+02 0.46579210969E+02 0.59734911281E+02
 0.73023418478E+02 0.85145674735E+02 0.94656834284E+02 0.10024856539E+03 0.10108072381E+03
 0.10024856539E+03 0.94656834495E+02 0.85145675091E+02 0.73023418871E+02 0.59734911605E+02
 0.46579211148E+02 0.34560147651E+02 0.24361756519E+02 0.16377317031E+02 0.10723619090E+02
 0.72271008757E+01 0.54247668065E+01 0.46344138135E+01 0.41762354647E+01 0.38764075547E+01
 0.37414788623E+01 0.37684034238E+01 0.39581366398E+01 0.43126902543E+01 0.48329012702E+01
 0.58773011958E+01 0.81779534131E+01 0.12357773058E+02 0.18787098767E+02 0.27540764945E+02
 0.38408630760E+02 0.50902659218E+02 0.64233166559E+02 0.77288876021E+02 0.88697554039E+02
 0.97023702056E+02 0.10024856539E+03 0.10108072350E+03 0.97023701358E+02 0.88697552798E+02
 0.77288874128E+02 0.64233164086E+02 0.50902656453E+02 0.38408628126E+02 0.27540762841E+02
 0.18787097407E+02 0.12357772404E+02 0.81779532249E+01 0.58773011701E+01 0.48329011902E+01
 0.43126900686E+01 0.39581364378E+01 0.37684033343E+01 0.37414789473E+01 0.38764077683E+01
 0.41762357023E+01 0.46344140174E+01 0.54247670559E+01 0.72271013946E+01 0.10723620155E+02
 0.16377318821E+02 0.24361758994E+02 0.34560150529E+02 0.46579213992E+02 0.59734913995E+02
 0.73023420560E+02 0.85145676056E+02 0.94656834887E+02 0.94656834495E+02 0.97023701358E+02
 0.94656833623E+02 0.87922015010E+02 0.77807437380E+02 0.65648997578E+02 0.52815369556E+02
 0.40474576972E+02 0.29493243439E+02 0.20435491739E+02 0.13588124419E+02 0.89622814438E+01
 0.62803140599E+01 0.49983754426E+01 0.44088168032E+01 0.40130036553E+01 0.37762191584E+01
 0.36982419686E+01 0.37762194518E+01 0.40130040573E+01 0.44088170875E+01 0.49983755381E+01
 0.62803141739E+01 0.89622820240E+01 0.13588125959E+02 0.20435494527E+02 0.29493247384E+02
 0.40474581601E+02 0.52815374185E+02 0.65649001572E+02 0.77807440352E+02 0.87922016877E+02
 0.85145675091E+02 0.88697552798E+02 0.87922015010E+02 0.82941063349E+02 0.74503522325E+02
 0.63772136356E+02 0.52032997761E+02 0.40447063720E+02 0.29915254938E+02 0.21050005388E+02
 0.14193015577E+02 0.94231401797E+01 0.65461496803E+01 0.51047596855E+01 0.44541452963E+01
 0.40335383997E+01 0.37618485831E+01 0.36406829794E+01 0.36653259361E+01 0.38371303183E+01
 0.41609823790E+01 0.46316526896E+01 0.54717097137E+01 0.73346719025E+01 0.10819853433E+02
 0.16304111930E+02 0.23889540169E+02 0.33404409695E+02 0.44409846920E+02 0.56186772077E+02
 0.67729306728E+02 0.77807439775E+02 0.73023418871E+02 0.77288874128E+02 0.77807437380E+02
 0.74503522325E+02 0.67886183942E+02 0.58903046536E+02 0.48693859433E+02 0.38349197084E+02
 0.28754728594E+02 0.20536386484E+02 0.14064622769E+02 0.94640445210E+01 0.66080958110E+01
 0.51231166886E+01 0.44432690951E+01 0.40148536250E+01 0.37228726474E+01 0.35700311548E+01
 0.35497989265E+01 0.36610181911E+01 0.39101226401E+01 0.43004265649E+01 0.48607047868E+01
 0.60244814285E+01 0.84058371085E+01 0.12462231914E+02 0.18408763128E+02 0.26195698976E+02
 0.35512848838E+02 0.45788412874E+02 0.56186771335E+02 0.65649000253E+02 0.59734911605E+02
 0.64233164086E+02 0.65648997578E+02 0.63772136356E+02 0.58903046536E+02 0.51766544356E+02
 0.43318327294E+02 0.34528604575E+02 0.26221361697E+02 0.18999922779E+02 0.13235957058E+02
 0.90767640123E+01 0.64444943743E+01 0.50387721508E+01 0.43765531998E+01 0.39558574303E+01
 0.36585570759E+01 0.34872757602E+01 0.34337583347E+01 0.34938490523E+01 0.36728936862E+01
 0.39804356356E+01 0.44152543774E+01 0.50998326508E+01 0.65517814210E+01 0.92747644342E+01
 0.13583607493E+02 0.19552411932E+02 0.27004096732E+02 0.35512848068E+02 0.44409845413E+02
 0.52815372116E+02 0.46579211148E+02 0.50902656453E+02 0.52815369556E+02 0.52032997761E+02
 0.48693859433E+02 0.43318327294E+02 0.36667192239E+02 0.29560397240E+02 0.22725115436E+02
 0.16711144803E+02 0.11866690155E+02 0.83408195220E+01 0.60856721667E+01 0.48600877268E+01
 0.42594279194E+01 0.38596901280E+01 0.35706029366E+01 0.33938881352E+01 0.33197685988E+01
 0.33411785190E+01 0.34607362228E+01 0.36894345418E+01 0.40371055943E+01 0.45034332947E+01
 0.53065515708E+01 0.69304539863E+01 0.97592666043E+01 0.13980745230E+02 0.19552411304E+02
 0.26195697599E+02 0.33404407609E+02 0.40474578994E+02 0.34560147651E+02 0.38408628126E+02
 0.40474576972E+02 0.40447063720E+02 0.38349197084E+02 0.34528604575E+02 0.29560397240E+02
 0.24103929321E+02 0.18769074311E+02 0.14030589877E+02 0.10194810514E+02 0.73965360294E+01
 0.56023658221E+01 0.46160816961E+01 0.41023152596E+01 0.37333333188E+01 0.34633716930E+01
 0.32924194171E+01 0.32095797767E+01 0.32054613529E+01 0.32794108962E+01 0.34406507808E+01
 0.37032098209E+01 0.40749550251E+01 0.45637309972E+01 0.54272237663E+01 0.70679198397E+01
 0.97592662200E+01 0.13583606522E+02 0.18408761469E+02 0.23889537868E+02 0.29493244637E+02
 0.24361756519E+02 0.27540762841E+02 0.29493243439E+02 0.29915254938E+02 0.28754728594E+02
 0.26221361697E+02 0.22725115436E+02 0.18769074311E+02 0.14838745382E+02 0.11322521712E+02
 0.84739509156E+01 0.64035552708E+01 0.50816179885E+01 0.43448733673E+01 0.39178661639E+01
 0.35865633549E+01 0.33435087465E+01 0.31867296971E+01 0.31048480815E+01 0.30870836187E+01
 0.31298586885E+01 0.32391144246E+01 0.34282197602E+01 0.37114033160E+01 0.40934040491E+01
 0.45856430156E+01 0.54272236115E+01 0.69304535004E+01 0.92747634544E+01 0.12462230353E+02
 0.16304109829E+02 0.20435492077E+02 0.16377317031E+02 0.18787097407E+02 0.20435491739E+02
 0.21050005388E+02 0.20536386484E+02 0.18999922779E+02 0.16711144803E+02 0.14030589877E+02
 0.11322521712E+02 0.88862611858E+01 0.69182806895E+01 0.55001996719E+01 0.45998317508E+01
 0.40781291977E+01 0.37197056747E+01 0.34305204222E+01 0.32190518366E+01 0.30817517468E+01
 0.30075694323E+01 0.29854499199E+01 0.30098047158E+01 0.30831436198E+01 0.32156965078E+01
 0.34219241040E+01 0.37140120259E+01 0.40934040299E+01 0.45637308693E+01 0.53065512083E+01
 0.65517806955E+01 0.84058359400E+01 0.10819851846E+02 0.13588124120E+02 0.10723619090E+02
 0.12357772404E+02 0.13588124419E+02 0.14193015577E+02 0.14064622769E+02 0.13235957058E+02
 0.11866690155E+02 0.10194810514E+02 0.84739509156E+01 0.69182806895E+01 0.56678923702E+01
 0.47747001426E+01 0.42012606694E+01 0.38270020280E+01 0.35210621968E+01 0.32761679064E+01
 0.30982284906E+01 0.29828486049E+01 0.29201216245E+01 0.28998131913E+01 0.29154851641E+01
 0.29669126998E+01 0.30605480896E+01 0.32079156872E+01 0.34219241268E+01 0.37114033430E+01
 0.40749550090E+01 0.45034331550E+01 0.50998322881E+01 0.60244807646E+01 0.73346709370E+01
 0.89622808815E+01 0.72271008757E+01 0.81779532249E+01 0.89622814438E+01 0.94231401797E+01
 0.94640445210E+01 0.90767640123E+01 0.83408195220E+01 0.73965360294E+01 0.64035552708E+01
 0.55001996719E+01 0.47747001426E+01 0.42509679000E+01 0.38855446806E+01 0.35877036093E+01
 0.33334506302E+01 0.31328967898E+01 0.29882201047E+01 0.28949567889E+01 0.28449727043E+01
 0.28297330084E+01 0.28430873063E+01 0.28831615697E+01 0.29531068408E+01 0.30605481126E+01
 0.32156965525E+01 0.34282198279E+01 0.37032099002E+01 0.40371056427E+01 0.44152543203E+01
 0.48607045465E+01 0.54717092642E+01 0.62803135923E+01 0.54247668065E+01 0.58773011701E+01
 0.62803140599E+01 0.65461496803E+01 0.66080958110E+01 0.64444943743E+01 0.60856721667E+01
 0.56023658221E+01 0.50816179885E+01 0.45998317508E+01 0.42012606694E+01 0.38855446806E+01
 0.36120120808E+01 0.33688504466E+01 0.31657098539E+01 0.30075160553E+01 0.28941938612E+01
 0.28217892614E+01 0.27842372784E+01 0.27752141436E+01 0.27897521921E+01 0.28254549499E+01
 0.28831615965E+01 0.29669127344E+01 0.30831436588E+01 0.32391144839E+01 0.34406508764E+01
 0.36894346616E+01 0.39804357264E+01 0.43004265532E+01 0.46316525302E+01 0.49983752660E+01
 0.46344138135E+01 0.48329011902E+01 0.49983754426E+01 0.51047596855E+01 0.51231166886E+01
 0.50387721508E+01 0.48600877268E+01 0.46160816961E+01 0.43448733673E+01 0.40781291977E+01
 0.38270020280E+01 0.35877036093E+01 0.33688504466E+01 0.31790474380E+01 0.30234776164E+01
 0.29038271546E+01 0.28188535116E+01 0.27653703784E+01 0.27393152977E+01 0.27366663786E+01
 0.27541476310E+01 0.27897522321E+01 0.28430873551E+01 0.29154851909E+01 0.30098047161E+01
 0.31298586881E+01 0.32794109287E+01 0.34607362973E+01 0.36728937688E+01 0.39101226664E+01
 0.41609822962E+01 0.44088169013E+01 0.41762354647E+01 0.43126900686E+01 0.44088168032E+01
 0.44541452963E+01 0.44432690951E+01 0.43765531998E+01 0.42594279194E+01 0.41023152596E+01
 0.39178661639E+01 0.37197056747E+01 0.35210621968E+01 0.33334506302E+01 0.31657098539E+01
 0.30234776164E+01 0.29092288078E+01 0.28228606651E+01 0.27626210681E+01 0.27260697325E+01
 0.27108041641E+01 0.27148356591E+01 0.27366664225E+01 0.27752142118E+01 0.28297330594E+01
 0.28998131916E+01 0.29854498671E+01 0.30870835430E+01 0.32054612955E+01 0.33411785004E+01
 0.34938490536E+01 0.36610181623E+01 0.38371302101E+01 0.40130038600E+01 0.38764075547E+01
 0.39581364378E+01 0.40130036553E+01 0.40335383997E+01 0.40148536250E+01 0.39558574303E+01
 0.38596901280E+01 0.37333333188E+01 0.35865633549E+01 0.34305204222E+01 0.32761679064E+01
 0.31328967898E+01 0.30075160553E+01 0.29038271546E+01 0.28228606651E+01 0.27636652904E+01
 0.27243638139E+01 0.27031217720E+01 0.26987468035E+01 0.27108041914E+01 0.27393153543E+01
 0.27842373397E+01 0.28449727340E+01 0.29201215970E+01 0.30075693489E+01 0.31048479699E+01
 0.32095796729E+01 0.33197685241E+01 0.34337582812E+01 0.35497988616E+01 0.36653258236E+01
 0.37762192777E+01 0.37414788623E+01 0.37684033343E+01 0.37762191584E+01 0.37618485831E+01
 0.37228726474E+01 0.36585570759E+01 0.35706029366E+01 0.34633716930E+01 0.33435087465E+01
 0.32190518366E+01 0.30982284906E+01 0.29882201047E+01 0.28941938612E+01 0.28188535116E+01
 0.27626210681E+01 0.27243638139E+01 0.27024005702E+01 0.26954367142E+01 0.27031217741E+01
 0.27260697465E+01 0.27653704040E+01 0.28217892873E+01 0.28949567987E+01 0.29828485865E+01
 0.30817516997E+01 0.31867296328E+01 0.32924193530E+01 0.33938880842E+01 0.34872757238E+01
 0.35700311223E+01 0.36406829353E+01 0.36982419029E+01 0.37684034238E+01 0.37414789473E+01
 0.36982419686E+01 0.36406829794E+01 0.35700311548E+01 0.34872757602E+01 0.33938881352E+01
 0.32924194171E+01 0.31867296971E+01 0.30817517468E+01 0.29828486049E+01 0.28949567889E+01
 0.28217892614E+01 0.27653703784E+01 0.27260697325E+01 0.27031217720E+01 0.26954367142E+01
 0.27024005605E+01 0.27243637896E+01 0.27626210366E+01 0.28188534904E+01 0.28941938686E+01
 0.29882201493E+01 0.30982285655E+01 0.32190519217E+01 0.33435088186E+01 0.34633717374E+01
 0.35706029546E+01 0.36585570836E+01 0.37228726667E+01 0.37618486294E+01 0.37762192328E+01
 0.39581366398E+01 0.38764077683E+01 0.37762194518E+01 0.36653259361E+01 0.35497989265E+01
 0.34337583347E+01 0.33197685988E+01 0.32095797767E+01 0.31048480815E+01 0.30075694323E+01
 0.29201216245E+01 0.28449727043E+01 0.27842372784E+01 0.27393152977E+01 0.27108041641E+01
 0.26987468035E+01 0.27031217741E+01 0.27243637896E+01 0.27636652316E+01 0.28228605980E+01
 0.29038271311E+01 0.30075161275E+01 0.31328969795E+01 0.32761681874E+01 0.34305207276E+01
 0.35865636058E+01 0.37333334616E+01 0.38596901596E+01 0.39558573979E+01 0.40148536010E+01