   1   1   1   0
  0.1219450E+02  0.2511474E-09  0.2511474E-09  0.2511474E-09  0.5000000E-15
  1.000000000000000E-004
  CAR 
 Fe BCC                                  
     44.79542221     -4.82255278  301      5.01036041      1.00000000
     -4.823  0.0000E+00  0.0000E+00  0.0000E+00  0.0000E+00
     -4.657  0.0000E+00  0.0000E+00  0.0000E+00  0.0000E+00
     -4.492  0.0000E+00  0.0000E+00  0.0000E+00  0.0000E+00
     -4.326  0.0000E+00  0.0000E+00  0.0000E+00  0.0000E+00
     -4.161  0.0000E+00  0.0000E+00  0.0000E+00  0.0000E+00
     -3.996  0.0000E+00  0.0000E+00  0.0000E+00  0.0000E+00
     -3.830  0.0000E+00  0.0000E+00  0.0000E+00  0.0000E+00
     -3.665  0.0000E+00  0.0000E+00  0.0000E+00  0.0000E+00
     -3.499  0.0000E+00  0.0000E+00  0.0000E+00  0.0000E+00
     -3.334  0.0000E+00  0.0000E+00  0.0000E+00  0.0000E+00
     -3.169  0.0000E+00  0.0000E+00  0.0000E+00  0.0000E+00
     -3.003  0.0000E+00  0.0000E+00  0.0000E+00  0.0000E+00
     -2.838  0.0000E+00  0.0000E+00  0.0000E+00  0.0000E+00
     -2.672  0.0000E+00  0.0000E+00  0.0000E+00  0.0000E+00
     -2.507  0.1280E-01  0.0000E+00  0.1340E-02  0.0000E+00
     -2.342  0.1952E-01  0.1513E-01  0.4029E-02  0.2193E-02
     -2.176  0.2514E-01  0.2118E-01  0.7737E-02  0.5212E-02
     -2.011  0.2966E-01  0.2612E-01  0.1228E-01  0.9139E-02
     -1.845  0.3735E-01  0.3071E-01  0.1778E-01  0.1380E-01
     -1.680  0.4427E-01  0.3819E-01  0.2455E-01  0.1952E-01
     -1.515  0.4938E-01  0.4384E-01  0.3232E-01  0.2633E-01
     -1.349  0.5059E-01  0.4764E-01  0.4057E-01  0.3392E-01
     -1.184  0.5630E-01  0.4760E-01  0.4940E-01  0.4165E-01
     -1.019  0.6253E-01  0.5188E-01  0.5922E-01  0.4987E-01
     -0.853  0.6929E-01  0.5643E-01  0.7011E-01  0.5883E-01
     -0.688  0.7657E-01  0.6125E-01  0.8217E-01  0.6855E-01
     -0.522  0.8438E-01  0.6634E-01  0.9547E-01  0.7910E-01
     -0.357  0.9544E-01  0.7171E-01  0.1102E+00  0.9052E-01
     -0.192  0.1122E+00  0.7637E-01  0.1273E+00  0.1028E+00
     -0.026  0.1302E+00  0.8346E-01  0.1474E+00  0.1160E+00
      0.139  0.1514E+00  0.9028E-01  0.1705E+00  0.1304E+00
      0.305  0.1867E+00  0.9626E-01  0.1983E+00  0.1458E+00
      0.470  0.2337E+00  0.1025E+00  0.2329E+00  0.1622E+00
      0.635  0.2915E+00  0.1105E+00  0.2761E+00  0.1798E+00
      0.801  0.5065E+00  0.1206E+00  0.3554E+00  0.1989E+00
      0.966  0.7716E+00  0.1321E+00  0.4636E+00  0.2198E+00
      1.132  0.1043E+01  0.1449E+00  0.6140E+00  0.2427E+00
      1.297  0.1056E+01  0.1589E+00  0.8027E+00  0.2678E+00
      1.462  0.6491E+00  0.1760E+00  0.9489E+00  0.2953E+00
      1.628  0.4877E+00  0.2133E+00  0.1043E+01  0.3269E+00
      1.793  0.4073E+00  0.2779E+00  0.1108E+01  0.3673E+00
      1.959  0.2191E+01  0.3927E+00  0.1218E+01  0.4224E+00
      2.124  0.1814E+01  0.3805E+00  0.1537E+01  0.4859E+00
      2.289  0.9711E+00  0.3913E+00  0.1778E+01  0.5500E+00
      2.455  0.8572E+00  0.3878E+00  0.1919E+01  0.6146E+00
      2.620  0.1195E+01  0.4577E+00  0.2082E+01  0.6825E+00
      2.786  0.2125E+01  0.7020E+00  0.2345E+01  0.7814E+00
      2.951  0.1079E+01  0.6124E+00  0.2656E+01  0.9026E+00
      3.116  0.5270E+00  0.4505E+00  0.2768E+01  0.9908E+00
      3.282  0.4556E+00  0.2260E+00  0.2848E+01  0.1046E+01
      3.447  0.4634E+00  0.1810E+00  0.2924E+01  0.1077E+01
      3.613  0.7022E+00  0.6229E+00  0.3026E+01  0.1131E+01
      3.778  0.1285E+01  0.1190E+01  0.3181E+01  0.1313E+01
      3.943  0.2384E+01  0.1701E+01  0.3477E+01  0.1551E+01
      4.109  0.2468E+01  0.1155E+01  0.3880E+01  0.1800E+01
      4.274  0.2484E+01  0.1151E+01  0.4312E+01  0.1997E+01
      4.439  0.1284E+01  0.1260E+01  0.4570E+01  0.2188E+01
      4.605  0.9238E+00  0.1394E+01  0.4748E+01  0.2427E+01
      4.770  0.8664E+00  0.1181E+01  0.4896E+01  0.2648E+01
      4.936  0.1107E+01  0.7639E+00  0.5051E+01  0.2816E+01
      5.101  0.3723E+00  0.2502E+00  0.5202E+01  0.2881E+01
      5.266  0.1571E+00  0.1542E+00  0.5238E+01  0.2910E+01
      5.432  0.1564E+00  0.1586E+00  0.5264E+01  0.2936E+01
      5.597  0.1613E+00  0.2128E+00  0.5290E+01  0.2964E+01
      5.763  0.1813E+00  0.3439E+00  0.5320E+01  0.3013E+01
      5.928  0.1724E+00  0.4791E+00  0.5350E+01  0.3080E+01
      6.093  0.1634E+00  0.7273E+00  0.5378E+01  0.3177E+01
      6.259  0.1573E+00  0.1023E+01  0.5404E+01  0.3323E+01
      6.424  0.1572E+00  0.1451E+01  0.5430E+01  0.3519E+01
      6.590  0.1572E+00  0.1823E+01  0.5456E+01  0.3790E+01
      6.755  0.1571E+00  0.1284E+01  0.5482E+01  0.4064E+01
      6.920  0.1570E+00  0.1450E+01  0.5508E+01  0.4278E+01
      7.086  0.1567E+00  0.4142E+01  0.5534E+01  0.4657E+01
      7.251  0.1562E+00  0.1435E+01  0.5560E+01  0.4953E+01
      7.417  0.1544E+00  0.7847E+00  0.5585E+01  0.5177E+01
      7.582  0.1513E+00  0.2897E+00  0.5611E+01  0.5246E+01
      7.747  0.1550E+00  0.3005E+00  0.5636E+01  0.5298E+01
      7.913  0.1495E+00  0.2713E+00  0.5661E+01  0.5345E+01
      8.078  0.1429E+00  0.2355E+00  0.5685E+01  0.5387E+01
      8.244  0.1849E+00  0.2222E+00  0.5709E+01  0.5424E+01
      8.409  0.1325E+00  0.2178E+00  0.5733E+01  0.5461E+01
      8.574  0.1272E+00  0.2150E+00  0.5755E+01  0.5497E+01
      8.740  0.1220E+00  0.2122E+00  0.5775E+01  0.5532E+01
      8.905  0.1168E+00  0.2062E+00  0.5795E+01  0.5567E+01
      9.070  0.1118E+00  0.1971E+00  0.5814E+01  0.5600E+01
      9.236  0.1068E+00  0.1929E+00  0.5832E+01  0.5633E+01
      9.401  0.1000E+00  0.1762E+00  0.5849E+01  0.5663E+01
      9.567  0.9346E-01  0.1723E+00  0.5865E+01  0.5692E+01
      9.732  0.8696E-01  0.2114E+00  0.5880E+01  0.5721E+01
      9.897  0.8055E-01  0.1536E+00  0.5894E+01  0.5748E+01
     10.063  0.8346E-01  0.1459E+00  0.5907E+01  0.5773E+01
     10.228  0.7663E-01  0.1385E+00  0.5921E+01  0.5796E+01
     10.394  0.6748E-01  0.1314E+00  0.5933E+01  0.5819E+01
     10.559  0.4792E-01  0.1246E+00  0.5942E+01  0.5840E+01
     10.724  0.4414E-01  0.1161E+00  0.5950E+01  0.5860E+01
     10.890  0.4058E-01  0.1068E+00  0.5957E+01  0.5878E+01
     11.055  0.3629E-01  0.1059E+00  0.5965E+01  0.5896E+01
     11.221  0.2824E-01  0.9539E-01  0.5970E+01  0.5913E+01
     11.386  0.2232E-01  0.8273E-01  0.5974E+01  0.5927E+01
     11.551  0.1854E-01  0.5863E-01  0.5978E+01  0.5939E+01
     11.717  0.1704E-01  0.5347E-01  0.5981E+01  0.5949E+01
     11.882  0.2054E-01  0.4862E-01  0.5984E+01  0.5957E+01
     12.048  0.4426E-01  0.4457E-01  0.5989E+01  0.5966E+01
     12.213  0.7326E-01  0.3401E-01  0.5998E+01  0.5973E+01
     12.378  0.1078E+00  0.2605E-01  0.6013E+01  0.5978E+01
     12.544  0.1540E+00  0.2066E-01  0.6034E+01  0.5981E+01
     12.709  0.2172E+00  0.1786E-01  0.6066E+01  0.5984E+01
     12.875  0.2395E+00  0.1825E-01  0.6104E+01  0.5987E+01
     13.040  0.2551E+00  0.2245E-01  0.6145E+01  0.5991E+01
     13.205  0.2638E+00  0.3043E-01  0.6189E+01  0.5995E+01
     13.371  0.2571E+00  0.6330E-01  0.6232E+01  0.6003E+01
     13.536  0.2144E+00  0.1099E+00  0.6271E+01  0.6017E+01
     13.701  0.1845E+00  0.1789E+00  0.6302E+01  0.6041E+01
     13.867  0.1805E+00  0.2436E+00  0.6333E+01  0.6078E+01
     14.032  0.1762E+00  0.2961E+00  0.6362E+01  0.6122E+01
     14.198  0.1728E+00  0.3036E+00  0.6391E+01  0.6171E+01
     14.363  0.1717E+00  0.3128E+00  0.6419E+01  0.6223E+01
     14.528  0.1746E+00  0.2192E+00  0.6448E+01  0.6269E+01
     14.694  0.1809E+00  0.2131E+00  0.6478E+01  0.6305E+01
     14.859  0.1826E+00  0.2063E+00  0.6508E+01  0.6340E+01
     15.025  0.1815E+00  0.2064E+00  0.6538E+01  0.6374E+01
     15.190  0.1717E+00  0.2080E+00  0.6569E+01  0.6408E+01
     15.355  0.1755E+00  0.2228E+00  0.6598E+01  0.6445E+01
     15.521  0.1816E+00  0.1773E+00  0.6628E+01  0.6479E+01
     15.686  0.1883E+00  0.1850E+00  0.6658E+01  0.6509E+01
     15.852  0.2048E+00  0.1878E+00  0.6692E+01  0.6540E+01
     16.017  0.2067E+00  0.1912E+00  0.6726E+01  0.6571E+01
     16.182  0.2089E+00  0.1952E+00  0.6760E+01  0.6603E+01
     16.348  0.2119E+00  0.2010E+00  0.6795E+01  0.6636E+01
     16.513  0.2145E+00  0.2084E+00  0.6830E+01  0.6670E+01
     16.679  0.2233E+00  0.2220E+00  0.6868E+01  0.6708E+01
     16.844  0.2292E+00  0.2240E+00  0.6905E+01  0.6744E+01
     17.009  0.2343E+00  0.2263E+00  0.6944E+01  0.6782E+01
     17.175  0.1976E+00  0.2286E+00  0.6979E+01  0.6819E+01
     17.340  0.1950E+00  0.2373E+00  0.7012E+01  0.6860E+01
     17.506  0.1924E+00  0.2971E+00  0.7044E+01  0.6900E+01
     17.671  0.1899E+00  0.2222E+00  0.7075E+01  0.6938E+01
     17.836  0.1877E+00  0.2076E+00  0.7106E+01  0.6974E+01
     18.002  0.1866E+00  0.2048E+00  0.7137E+01  0.7008E+01
     18.167  0.1849E+00  0.2021E+00  0.7168E+01  0.7042E+01
     18.333  0.1915E+00  0.1995E+00  0.7199E+01  0.7075E+01
     18.498  0.1832E+00  0.1971E+00  0.7230E+01  0.7108E+01
     18.663  0.1780E+00  0.1960E+00  0.7259E+01  0.7140E+01
     18.829  0.1767E+00  0.1944E+00  0.7289E+01  0.7173E+01
     18.994  0.1752E+00  0.1928E+00  0.7318E+01  0.7205E+01
     19.159  0.1727E+00  0.1954E+00  0.7347E+01  0.7238E+01
     19.325  0.1711E+00  0.1875E+00  0.7375E+01  0.7269E+01
     19.490  0.1695E+00  0.1866E+00  0.7403E+01  0.7300E+01
     19.656  0.1680E+00  0.1846E+00  0.7431E+01  0.7331E+01
     19.821  0.1664E+00  0.1824E+00  0.7459E+01  0.7361E+01
     19.986  0.1649E+00  0.1809E+00  0.7486E+01  0.7391E+01
     20.152  0.1637E+00  0.1795E+00  0.7513E+01  0.7421E+01
     20.317  0.1694E+00  0.1781E+00  0.7542E+01  0.7450E+01
     20.483  0.1705E+00  0.1767E+00  0.7570E+01  0.7480E+01
     20.648  0.1734E+00  0.1755E+00  0.7598E+01  0.7509E+01
     20.813  0.1774E+00  0.1743E+00  0.7627E+01  0.7538E+01
     20.979  0.1838E+00  0.1725E+00  0.7657E+01  0.7567E+01
     21.144  0.1972E+00  0.1791E+00  0.7688E+01  0.7596E+01
     21.310  0.2050E+00  0.1821E+00  0.7722E+01  0.7626E+01
     21.475  0.2280E+00  0.1886E+00  0.7759E+01  0.7656E+01
     21.640  0.2232E+00  0.1998E+00  0.7797E+01  0.7689E+01
     21.806  0.2312E+00  0.2126E+00  0.7835E+01  0.7722E+01
     21.971  0.2382E+00  0.2298E+00  0.7874E+01  0.7760E+01
     22.137  0.2453E+00  0.2476E+00  0.7914E+01  0.7801E+01
     22.302  0.2527E+00  0.2440E+00  0.7955E+01  0.7841E+01
     22.467  0.2599E+00  0.2529E+00  0.7997E+01  0.7882E+01
     22.633  0.2691E+00  0.2603E+00  0.8041E+01  0.7925E+01
     22.798  0.2796E+00  0.2674E+00  0.8086E+01  0.7968E+01
     22.964  0.2864E+00  0.2728E+00  0.8134E+01  0.8013E+01
     23.129  0.2977E+00  0.2704E+00  0.8182E+01  0.8057E+01
     23.294  0.3176E+00  0.2828E+00  0.8233E+01  0.8103E+01
     23.460  0.3278E+00  0.2930E+00  0.8286E+01  0.8150E+01
     23.625  0.3131E+00  0.3143E+00  0.8339E+01  0.8200E+01
     23.790  0.3112E+00  0.3124E+00  0.8390E+01  0.8251E+01
     23.956  0.3087E+00  0.3338E+00  0.8442E+01  0.8305E+01
     24.121  0.2980E+00  0.3252E+00  0.8492E+01  0.8360E+01
     24.287  0.2969E+00  0.3202E+00  0.8540E+01  0.8413E+01
     24.452  0.2892E+00  0.3172E+00  0.8589E+01  0.8466E+01
     24.617  0.2814E+00  0.3064E+00  0.8636E+01  0.8517E+01
     24.783  0.2722E+00  0.3021E+00  0.8682E+01  0.8568E+01
     24.948  0.2612E+00  0.2917E+00  0.8726E+01  0.8617E+01
     25.114  0.2504E+00  0.2813E+00  0.8768E+01  0.8664E+01
     25.279  0.2347E+00  0.2695E+00  0.8809E+01  0.8710E+01
     25.444  0.2065E+00  0.2552E+00  0.8845E+01  0.8753E+01
     25.610  0.1840E+00  0.2382E+00  0.8878E+01  0.8794E+01
     25.775  0.1650E+00  0.2229E+00  0.8907E+01  0.8832E+01
     25.941  0.1554E+00  0.1946E+00  0.8933E+01  0.8867E+01
     26.106  0.1565E+00  0.1776E+00  0.8959E+01  0.8898E+01
     26.271  0.1583E+00  0.1667E+00  0.8985E+01  0.8926E+01
     26.437  0.1611E+00  0.1589E+00  0.9011E+01  0.8953E+01
     26.602  0.1601E+00  0.1618E+00  0.9038E+01  0.8980E+01
     26.768  0.1531E+00  0.1578E+00  0.9064E+01  0.9006E+01
     26.933  0.1527E+00  0.1619E+00  0.9089E+01  0.9032E+01
     27.098  0.1525E+00  0.1563E+00  0.9114E+01  0.9059E+01
     27.264  0.1629E+00  0.1555E+00  0.9140E+01  0.9085E+01
     27.429  0.1615E+00  0.1545E+00  0.9166E+01  0.9110E+01
     27.595  0.1583E+00  0.1501E+00  0.9193E+01  0.9136E+01
     27.760  0.1510E+00  0.1603E+00  0.9219E+01  0.9163E+01
     27.925  0.1538E+00  0.1499E+00  0.9244E+01  0.9189E+01
     28.091  0.1596E+00  0.1487E+00  0.9270E+01  0.9213E+01
     28.256  0.1659E+00  0.1531E+00  0.9297E+01  0.9238E+01
     28.421  0.1729E+00  0.1589E+00  0.9325E+01  0.9264E+01
     28.587  0.1804E+00  0.1661E+00  0.9354E+01  0.9291E+01
     28.752  0.2294E+00  0.1742E+00  0.9386E+01  0.9319E+01
     28.918  0.3595E+00  0.1802E+00  0.9437E+01  0.9350E+01
     29.083  0.3253E+00  0.2108E+00  0.9500E+01  0.9381E+01
     29.248  0.2356E+00  0.2960E+00  0.9545E+01  0.9422E+01
     29.414  0.2199E+00  0.3001E+00  0.9583E+01  0.9490E+01
     29.579  0.2075E+00  0.2793E+00  0.9618E+01  0.9538E+01
     29.745  0.1883E+00  0.2564E+00  0.9651E+01  0.9583E+01
     29.910  0.1731E+00  0.2305E+00  0.9681E+01  0.9623E+01
     30.075  0.1711E+00  0.1979E+00  0.9709E+01  0.9658E+01
     30.241  0.1690E+00  0.1950E+00  0.9737E+01  0.9691E+01
     30.406  0.1765E+00  0.1957E+00  0.9765E+01  0.9723E+01
     30.572  0.2078E+00  0.1941E+00  0.9797E+01  0.9755E+01
     30.737  0.2029E+00  0.1865E+00  0.9831E+01  0.9787E+01
     30.902  0.1953E+00  0.1789E+00  0.9864E+01  0.9817E+01
     31.068  0.1849E+00  0.1714E+00  0.9896E+01  0.9846E+01
     31.233  0.1709E+00  0.1809E+00  0.9925E+01  0.9875E+01
     31.399  0.2389E+00  0.1796E+00  0.9963E+01  0.9905E+01
     31.564  0.2577E+00  0.1653E+00  0.1000E+02  0.9933E+01
     31.729  0.2664E+00  0.1554E+00  0.1005E+02  0.9959E+01
     31.895  0.2891E+00  0.2289E+00  0.1009E+02  0.9999E+01
     32.060  0.3103E+00  0.2695E+00  0.1014E+02  0.1004E+02
     32.226  0.3282E+00  0.2883E+00  0.1020E+02  0.1009E+02
     32.391  0.3485E+00  0.3194E+00  0.1025E+02  0.1014E+02
     32.556  0.3489E+00  0.3362E+00  0.1031E+02  0.1019E+02
     32.722  0.3309E+00  0.3347E+00  0.1037E+02  0.1025E+02
     32.887  0.3451E+00  0.3395E+00  0.1042E+02  0.1030E+02
     33.053  0.3401E+00  0.3379E+00  0.1048E+02  0.1036E+02
     33.218  0.3287E+00  0.3471E+00  0.1054E+02  0.1042E+02
     33.383  0.2741E+00  0.3386E+00  0.1059E+02  0.1047E+02
     33.549  0.2606E+00  0.3207E+00  0.1063E+02  0.1053E+02
     33.714  0.2503E+00  0.2945E+00  0.1067E+02  0.1058E+02
     33.879  0.2367E+00  0.2688E+00  0.1071E+02  0.1062E+02
     34.045  0.2270E+00  0.2565E+00  0.1075E+02  0.1067E+02
     34.210  0.2255E+00  0.2491E+00  0.1079E+02  0.1071E+02
     34.376  0.2134E+00  0.2474E+00  0.1083E+02  0.1075E+02
     34.541  0.2141E+00  0.2385E+00  0.1086E+02  0.1079E+02
     34.706  0.2179E+00  0.2552E+00  0.1090E+02  0.1083E+02
     34.872  0.2316E+00  0.2205E+00  0.1093E+02  0.1087E+02
     35.037  0.2455E+00  0.2139E+00  0.1097E+02  0.1091E+02
     35.203  0.2597E+00  0.2194E+00  0.1102E+02  0.1094E+02
     35.368  0.2742E+00  0.2344E+00  0.1106E+02  0.1098E+02
     35.533  0.2873E+00  0.2525E+00  0.1111E+02  0.1102E+02
     35.699  0.3024E+00  0.2694E+00  0.1116E+02  0.1106E+02
     35.864  0.3763E+00  0.2837E+00  0.1121E+02  0.1111E+02
     36.030  0.3552E+00  0.3157E+00  0.1128E+02  0.1116E+02
     36.195  0.3188E+00  0.3263E+00  0.1133E+02  0.1121E+02
     36.360  0.2787E+00  0.3590E+00  0.1138E+02  0.1127E+02
     36.526  0.2443E+00  0.3288E+00  0.1142E+02  0.1133E+02
     36.691  0.2368E+00  0.2927E+00  0.1146E+02  0.1138E+02
     36.857  0.2236E+00  0.2506E+00  0.1150E+02  0.1143E+02
     37.022  0.2158E+00  0.2327E+00  0.1154E+02  0.1147E+02
     37.187  0.2079E+00  0.2248E+00  0.1157E+02  0.1150E+02
     37.353  0.2001E+00  0.2170E+00  0.1161E+02  0.1154E+02
     37.518  0.1922E+00  0.2091E+00  0.1164E+02  0.1157E+02
     37.684  0.1843E+00  0.2013E+00  0.1167E+02  0.1161E+02
     37.849  0.1797E+00  0.1875E+00  0.1170E+02  0.1164E+02
     38.014  0.1667E+00  0.1807E+00  0.1173E+02  0.1167E+02
     38.180  0.1765E+00  0.1741E+00  0.1176E+02  0.1170E+02
     38.345  0.1772E+00  0.1759E+00  0.1179E+02  0.1173E+02
     38.510  0.1740E+00  0.1807E+00  0.1182E+02  0.1176E+02
     38.676  0.1463E+00  0.1949E+00  0.1185E+02  0.1179E+02
     38.841  0.1033E+00  0.1933E+00  0.1187E+02  0.1182E+02
     39.007  0.8357E-01  0.1295E+00  0.1188E+02  0.1185E+02
     39.172  0.7019E-01  0.1014E+00  0.1190E+02  0.1187E+02
     39.337  0.6321E-01  0.7973E-01  0.1191E+02  0.1189E+02
     39.503  0.5889E-01  0.6702E-01  0.1192E+02  0.1190E+02
     39.668  0.5498E-01  0.6279E-01  0.1193E+02  0.1191E+02
     39.834  0.5123E-01  0.5874E-01  0.1194E+02  0.1192E+02
     39.999  0.4765E-01  0.5485E-01  0.1194E+02  0.1193E+02
     40.164  0.4422E-01  0.5110E-01  0.1195E+02  0.1194E+02
     40.330  0.4096E-01  0.4751E-01  0.1196E+02  0.1194E+02
     40.495  0.3786E-01  0.4407E-01  0.1196E+02  0.1195E+02
     40.661  0.3492E-01  0.4078E-01  0.1197E+02  0.1196E+02
     40.826  0.3214E-01  0.3765E-01  0.1198E+02  0.1197E+02
     40.991  0.2952E-01  0.3467E-01  0.1198E+02  0.1197E+02
     41.157  0.2707E-01  0.2700E-01  0.1199E+02  0.1198E+02
     41.322  0.2064E-01  0.2489E-01  0.1199E+02  0.1198E+02
     41.488  0.1550E-01  0.2291E-01  0.1200E+02  0.1199E+02
     41.653  0.3965E-02  0.2106E-01  0.1200E+02  0.1199E+02
     41.818  0.3515E-02  0.1587E-01  0.1200E+02  0.1200E+02
     41.984  0.3084E-02  0.9084E-02  0.1200E+02  0.1200E+02
     42.149  0.2672E-02  0.4773E-02  0.1200E+02  0.1200E+02
     42.315  0.2280E-02  0.2934E-02  0.1200E+02  0.1200E+02
     42.480  0.0000E+00  0.2495E-02  0.1200E+02  0.1200E+02
     42.645  0.0000E+00  0.0000E+00  0.1200E+02  0.1200E+02
     42.811  0.0000E+00  0.0000E+00  0.1200E+02  0.1200E+02
     42.976  0.0000E+00  0.0000E+00  0.1200E+02  0.1200E+02
     43.141  0.0000E+00  0.0000E+00  0.1200E+02  0.1200E+02
     43.307  0.0000E+00  0.0000E+00  0.1200E+02  0.1200E+02
     43.472  0.0000E+00  0.0000E+00  0.1200E+02  0.1200E+02
     43.638  0.0000E+00  0.0000E+00  0.1200E+02  0.1200E+02
     43.803  0.0000E+00  0.0000E+00  0.1200E+02  0.1200E+02
     43.968  0.0000E+00  0.0000E+00  0.1200E+02  0.1200E+02
     44.134  0.0000E+00  0.0000E+00  0.1200E+02  0.1200E+02
     44.299  0.0000E+00  0.0000E+00  0.1200E+02  0.1200E+02
     44.465  0.0000E+00  0.0000E+00  0.1200E+02  0.1200E+02
     44.630  0.0000E+00  0.0000E+00  0.1200E+02  0.1200E+02
     44.795  0.0000E+00  0.0000E+00  0.1200E+02  0.1200E+02
     44.79542221     -4.82255278  301      5.01036041      1.00000000
     -4.823  0.0000E+00  0.0000E+00  0.0000E+00  0.0000E+00  0.0000E+00  0.0000E+00  0.0000E+00  0.0000E+00  0.0000E+00  0.0000E+00  0.0000E+00  0.0000E+00  0.0000E+00  0.0000E+00  0.0000E+00  0.0000E+00  0.0000E+00  0.0000E+00
     -4.657  0.0000E+00  0.0000E+00  0.0000E+00  0.0000E+00  0.0000E+00  0.0000E+00  0.0000E+00  0.0000E+00  0.0000E+00  0.0000E+00  0.0000E+00  0.0000E+00  0.0000E+00  0.0000E+00  0.0000E+00  0.0000E+00  0.0000E+00  0.0000E+00
     -4.492  0.0000E+00  0.0000E+00  0.0000E+00  0.0000E+00  0.0000E+00  0.0000E+00  0.0000E+00  0.0000E+00  0.0000E+00  0.0000E+00  0.0000E+00  0.0000E+00  0.0000E+00  0.0000E+00  0.0000E+00  0.0000E+00  0.0000E+00  0.0000E+00
     -4.326  0.0000E+00  0.0000E+00  0.0000E+00  0.0000E+00  0.0000E+00  0.0000E+00  0.0000E+00  0.0000E+00  0.0000E+00  0.0000E+00  0.0000E+00  0.0000E+00  0.0000E+00  0.0000E+00  0.0000E+00  0.0000E+00  0.0000E+00  0.0000E+00
     -4.161  0.0000E+00  0.0000E+00  0.0000E+00  0.0000E+00  0.0000E+00  0.0000E+00  0.0000E+00  0.0000E+00  0.0000E+00  0.0000E+00  0.0000E+00  0.0000E+00  0.0000E+00  0.0000E+00  0.0000E+00  0.0000E+00  0.0000E+00  0.0000E+00
     -3.996  0.0000E+00  0.0000E+00  0.0000E+00  0.0000E+00  0.0000E+00  0.0000E+00  0.0000E+00  0.0000E+00  0.0000E+00  0.0000E+00  0.0000E+00  0.0000E+00  0.0000E+00  0.0000E+00  0.0000E+00  0.0000E+00  0.0000E+00  0.0000E+00
     -3.830  0.0000E+00  0.0000E+00  0.0000E+00  0.0000E+00  0.0000E+00  0.0000E+00  0.0000E+00  0.0000E+00  0.0000E+00  0.0000E+00  0.0000E+00  0.0000E+00  0.0000E+00  0.0000E+00  0.0000E+00  0.0000E+00  0.0000E+00  0.0000E+00
     -3.665  0.0000E+00  0.0000E+00  0.0000E+00  0.0000E+00  0.0000E+00  0.0000E+00  0.0000E+00  0.0000E+00  0.0000E+00  0.0000E+00  0.0000E+00  0.0000E+00  0.0000E+00  0.0000E+00  0.0000E+00  0.0000E+00  0.0000E+00  0.0000E+00
     -3.499  0.0000E+00  0.0000E+00  0.0000E+00  0.0000E+00  0.0000E+00  0.0000E+00  0.0000E+00  0.0000E+00  0.0000E+00  0.0000E+00  0.0000E+00  0.0000E+00  0.0000E+00  0.0000E+00  0.0000E+00  0.0000E+00  0.0000E+00  0.0000E+00
     -3.334  0.0000E+00  0.0000E+00  0.0000E+00  0.0000E+00  0.0000E+00  0.0000E+00  0.0000E+00  0.0000E+00  0.0000E+00  0.0000E+00  0.0000E+00  0.0000E+00  0.0000E+00  0.0000E+00  0.0000E+00  0.0000E+00  0.0000E+00  0.0000E+00
     -3.169  0.0000E+00  0.0000E+00  0.0000E+00  0.0000E+00  0.0000E+00  0.0000E+00  0.0000E+00  0.0000E+00  0.0000E+00  0.0000E+00  0.0000E+00  0.0000E+00  0.0000E+00  0.0000E+00  0.0000E+00  0.0000E+00  0.0000E+00  0.0000E+00
     -3.003  0.0000E+00  0.0000E+00  0.0000E+00  0.0000E+00  0.0000E+00  0.0000E+00  0.0000E+00  0.0000E+00  0.0000E+00  0.0000E+00  0.0000E+00  0.0000E+00  0.0000E+00  0.0000E+00  0.0000E+00  0.0000E+00  0.0000E+00  0.0000E+00
     -2.838  0.0000E+00  0.0000E+00  0.0000E+00  0.0000E+00  0.0000E+00  0.0000E+00  0.0000E+00  0.0000E+00  0.0000E+00  0.0000E+00  0.0000E+00  0.0000E+00  0.0000E+00  0.0000E+00  0.0000E+00  0.0000E+00  0.0000E+00  0.0000E+00
     -2.672  0.0000E+00  0.0000E+00  0.0000E+00  0.0000E+00  0.0000E+00  0.0000E+00  0.0000E+00  0.0000E+00  0.0000E+00  0.0000E+00  0.0000E+00  0.0000E+00  0.0000E+00  0.0000E+00  0.0000E+00  0.0000E+00  0.0000E+00  0.0000E+00
     -2.507  0.8134E-02  0.0000E+00  0.7907E-04  0.0000E+00  0.5348E-04  0.0000E+00  0.3345E-03  0.0000E+00  0.2548E-04  0.0000E+00  0.6761E-05  0.0000E+00  0.9446E-05  0.0000E+00  0.6445E-05  0.0000E+00  0.1093E-04  0.0000E+00
     -2.342  0.1220E-01  0.9503E-02  0.1723E-03  0.1138E-03  0.1076E-03  0.7444E-04  0.5990E-03  0.4246E-03  0.6228E-04  0.2208E-04  0.1856E-04  0.6447E-05  0.2397E-04  0.7869E-05  0.1411E-04  0.5840E-05  0.2785E-04  0.9585E-05
     -2.176  0.1547E-01  0.1311E-01  0.2680E-03  0.2073E-03  0.1518E-03  0.1242E-03  0.8930E-03  0.6929E-03  0.1085E-03  0.4469E-04  0.3540E-04  0.1379E-04  0.4439E-04  0.1674E-04  0.2205E-04  0.1044E-04  0.5412E-04  0.2065E-04
     -2.011  0.1795E-01  0.1594E-01  0.3662E-03  0.3032E-03  0.1861E-03  0.1645E-03  0.1217E-02  0.9884E-03  0.1642E-03  0.7219E-04  0.5729E-04  0.2327E-04  0.7073E-04  0.2861E-04  0.3024E-04  0.1497E-04  0.8975E-04  0.3641E-04
     -1.845  0.2218E-01  0.1844E-01  0.5499E-03  0.4159E-03  0.2813E-03  0.2061E-03  0.1696E-02  0.1337E-02  0.2584E-03  0.1069E-03  0.1215E-03  0.3729E-04  0.1138E-03  0.4419E-04  0.5119E-04  0.2032E-04  0.1470E-03  0.5773E-04
     -1.680  0.2574E-01  0.2254E-01  0.7585E-03  0.6162E-03  0.4111E-03  0.3188E-03  0.2161E-02  0.1813E-02  0.3848E-03  0.1633E-03  0.2351E-03  0.7736E-04  0.1731E-03  0.6784E-04  0.8972E-04  0.3498E-04  0.2248E-03  0.9027E-04
     -1.515  0.2801E-01  0.2539E-01  0.9733E-03  0.8222E-03  0.5623E-03  0.4522E-03  0.2572E-02  0.2237E-02  0.5384E-03  0.2294E-03  0.3932E-03  0.1369E-03  0.2469E-03  0.9587E-04  0.1445E-03  0.5694E-04  0.3212E-03  0.1300E-03
     -1.349  0.2729E-01  0.2700E-01  0.1169E-02  0.1034E-02  0.7522E-03  0.6062E-03  0.2999E-02  0.2607E-02  0.7813E-03  0.3054E-03  0.6267E-03  0.2160E-03  0.3976E-03  0.1283E-03  0.2480E-03  0.8618E-04  0.5476E-03  0.1770E-03
     -1.184  0.2946E-01  0.2588E-01  0.1363E-02  0.1213E-02  0.9047E-03  0.7887E-03  0.3519E-02  0.2988E-02  0.1156E-02  0.4193E-03  0.8094E-03  0.3201E-03  0.6173E-03  0.1927E-03  0.3476E-03  0.1374E-03  0.7520E-03  0.2873E-03
     -1.019  0.3175E-01  0.2759E-01  0.1564E-02  0.1400E-02  0.1063E-02  0.9321E-03  0.4099E-02  0.3459E-02  0.1603E-02  0.5757E-03  0.1024E-02  0.3991E-03  0.8859E-03  0.2710E-03  0.4696E-03  0.1827E-03  0.9909E-03  0.3783E-03
     -0.853  0.3417E-01  0.2937E-01  0.1773E-02  0.1594E-02  0.1228E-02  0.1080E-02  0.4736E-02  0.3976E-02  0.2123E-02  0.7568E-03  0.1270E-02  0.4887E-03  0.1203E-02  0.3632E-03  0.6139E-03  0.2359E-03  0.1264E-02  0.4819E-03
     -0.688  0.3671E-01  0.3122E-01  0.1988E-02  0.1793E-02  0.1399E-02  0.1233E-02  0.5432E-02  0.4540E-02  0.2716E-02  0.9626E-03  0.1549E-02  0.5889E-03  0.1570E-02  0.4691E-03  0.7805E-03  0.2970E-03  0.1572E-02  0.5980E-03
     -0.522  0.3938E-01  0.3314E-01  0.2211E-02  0.1998E-02  0.1576E-02  0.1391E-02  0.6187E-02  0.5150E-02  0.3382E-02  0.1193E-02  0.1859E-02  0.6997E-03  0.1985E-02  0.5888E-03  0.9694E-03  0.3660E-03  0.1914E-02  0.7267E-03
     -0.357  0.4221E-01  0.3513E-01  0.2548E-02  0.2210E-02  0.1924E-02  0.1554E-02  0.7121E-02  0.5806E-02  0.4542E-02  0.1448E-02  0.2841E-02  0.8210E-03  0.2801E-02  0.7223E-03  0.1486E-02  0.4430E-03  0.2461E-02  0.8680E-03
     -0.192  0.4622E-01  0.3630E-01  0.2998E-02  0.2415E-02  0.2404E-02  0.1767E-02  0.8428E-02  0.6481E-02  0.6476E-02  0.1791E-02  0.4519E-02  0.1059E-02  0.4270E-02  0.9172E-03  0.2165E-02  0.5995E-03  0.3479E-02  0.1036E-02
     -0.026  0.4962E-01  0.3813E-01  0.3371E-02  0.2744E-02  0.2855E-02  0.2105E-02  0.9914E-02  0.7322E-02  0.8889E-02  0.2335E-02  0.6523E-02  0.1525E-02  0.6250E-02  0.1242E-02  0.2951E-02  0.7979E-03  0.4884E-02  0.1317E-02
      0.139  0.5242E-01  0.3954E-01  0.3586E-02  0.3034E-02  0.3161E-02  0.2438E-02  0.1162E-01  0.8199E-02  0.1279E-01  0.2950E-02  0.8949E-02  0.2061E-02  0.9440E-02  0.1640E-02  0.3818E-02  0.1013E-02  0.6801E-02  0.1688E-02
      0.305  0.5834E-01  0.4026E-01  0.3959E-02  0.3245E-02  0.3519E-02  0.2729E-02  0.1381E-01  0.9065E-02  0.2003E-01  0.3653E-02  0.1273E-01  0.2648E-02  0.1496E-01  0.2125E-02  0.4771E-02  0.1242E-02  0.9303E-02  0.2144E-02
      0.470  0.6552E-01  0.4091E-01  0.4350E-02  0.3412E-02  0.3915E-02  0.2977E-02  0.1633E-01  0.9929E-02  0.3066E-01  0.4552E-02  0.1797E-01  0.3280E-02  0.2314E-01  0.2729E-02  0.5872E-02  0.1480E-02  0.1244E-01  0.2653E-02
      0.635  0.7379E-01  0.4221E-01  0.4752E-02  0.3621E-02  0.4354E-02  0.3236E-02  0.1914E-01  0.1088E-01  0.4447E-01  0.5698E-02  0.2463E-01  0.3992E-02  0.3385E-01  0.3464E-02  0.7134E-02  0.1728E-02  0.1621E-01  0.3207E-02
      0.801  0.9457E-01  0.4415E-01  0.5294E-02  0.3866E-02  0.5959E-02  0.3494E-02  0.2443E-01  0.1194E-01  0.9655E-01  0.7288E-02  0.6492E-01  0.4843E-02  0.7911E-01  0.4444E-02  0.1074E-01  0.1984E-02  0.3123E-01  0.3821E-02
      0.966  0.9905E-01  0.4628E-01  0.5716E-02  0.4116E-02  0.7284E-02  0.3762E-02  0.3552E-01  0.1310E-01  0.1186E+00  0.9207E-02  0.8142E-01  0.5830E-02  0.1742E+00  0.5623E-02  0.1735E-01  0.2265E-02  0.1027E+00  0.4499E-02
      1.132  0.9151E-01  0.4858E-01  0.6379E-02  0.4372E-02  0.8271E-02  0.4039E-02  0.4516E-01  0.1434E-01  0.1406E+00  0.1145E-01  0.9378E-01  0.6950E-02  0.3120E+00  0.7003E-02  0.3028E-01  0.2570E-02  0.1540E+00  0.5242E-02
      1.297  0.7026E-01  0.5106E-01  0.7108E-02  0.4633E-02  0.7537E-02  0.4325E-02  0.4468E-01  0.1567E-01  0.1322E+00  0.1403E-01  0.9485E-01  0.8205E-02  0.3220E+00  0.8583E-02  0.4274E-01  0.2900E-02  0.1805E+00  0.6050E-02
      1.462  0.3576E-01  0.5369E-01  0.5673E-02  0.4901E-02  0.4913E-02  0.4612E-02  0.2101E-01  0.1749E-01  0.8832E-01  0.1702E-01  0.1114E+00  0.9594E-02  0.1172E+00  0.1063E-01  0.5137E-01  0.3277E-02  0.1291E+00  0.7578E-02
      1.628  0.1854E-01  0.5815E-01  0.5272E-02  0.5475E-02  0.3140E-02  0.5579E-02  0.1451E-01  0.2020E-01  0.5530E-01  0.2293E-01  0.9465E-01  0.1630E-01  0.6911E-01  0.1502E-01  0.4151E-01  0.4560E-02  0.1262E+00  0.1062E-01
      1.793  0.5024E-02  0.6700E-01  0.7588E-02  0.6268E-02  0.3019E-02  0.6777E-02  0.1159E-01  0.2358E-01  0.2536E-01  0.3475E-01  0.6468E-01  0.2808E-01  0.7324E-01  0.2327E-01  0.2621E-01  0.5985E-02  0.1424E+00  0.1541E-01
      1.959  0.1047E-02  0.8149E-01  0.4583E-01  0.6464E-02  0.3098E-01  0.7348E-02  0.1998E-01  0.2890E-01  0.5375E+00  0.6275E-01  0.1433E+00  0.4667E-01  0.1949E+00  0.4160E-01  0.7804E+00  0.7693E-02  0.2439E+00  0.2279E-01
      2.124  0.2921E-02  0.7216E-01  0.2553E-01  0.5837E-02  0.1600E-01  0.7181E-02  0.1509E-01  0.2905E-01  0.2433E+00  0.6071E-01  0.3074E+00  0.4571E-01  0.1881E+00  0.4432E-01  0.6363E+00  0.9366E-02  0.2328E+00  0.2381E-01
      2.289  0.5255E-02  0.6847E-01  0.1367E-01  0.5574E-02  0.8864E-02  0.7125E-02  0.7172E-02  0.3020E-01  0.1471E+00  0.6213E-01  0.1445E+00  0.4888E-01  0.1311E+00  0.4839E-01  0.3167E+00  0.1151E-01  0.1191E+00  0.2629E-01
      2.455  0.9445E-02  0.6217E-01  0.1856E-01  0.5185E-02  0.1995E-01  0.6855E-02  0.1090E-01  0.3057E-01  0.1970E+00  0.6019E-01  0.1449E+00  0.4972E-01  0.7994E-01  0.5060E-01  0.2253E+00  0.1382E-01  0.7741E-01  0.2843E-01
      2.620  0.1575E-01  0.5895E-01  0.3002E-01  0.5128E-02  0.3042E-01  0.6951E-02  0.2090E-01  0.3765E-01  0.2694E+00  0.6433E-01  0.2690E+00  0.5298E-01  0.8297E-01  0.7250E-01  0.2427E+00  0.1859E-01  0.1281E+00  0.4904E-01
      2.786  0.2877E-01  0.5445E-01  0.5107E-01  0.6814E-02  0.3819E-01  0.7834E-02  0.4694E-01  0.4821E-01  0.4782E+00  0.6800E-01  0.4968E+00  0.6845E-01  0.1171E+00  0.1502E+00  0.4331E+00  0.2681E-01  0.2555E+00  0.1398E+00
      2.951  0.1702E-01  0.4009E-01  0.2923E-01  0.7691E-02  0.2270E-01  0.7750E-02  0.2119E-01  0.3546E-01  0.1916E+00  0.6468E-01  0.2270E+00  0.6791E-01  0.5162E-01  0.1546E+00  0.2779E+00  0.2861E-01  0.1496E+00  0.9635E-01
      3.116  0.9338E-02  0.2485E-01  0.1704E-01  0.7105E-02  0.1259E-01  0.5898E-02  0.1108E-01  0.2213E-01  0.7132E-01  0.4697E-01  0.1196E+00  0.5958E-01  0.2751E-01  0.1156E+00  0.1130E+00  0.2752E-01  0.9934E-01  0.6422E-01
      3.282  0.6229E-02  0.5183E-02  0.1216E-01  0.5646E-02  0.8700E-02  0.2027E-02  0.7859E-02  0.1053E-01  0.6299E-01  0.8140E-02  0.1114E+00  0.4405E-01  0.2696E-01  0.5436E-01  0.1024E+00  0.7827E-02  0.8235E-01  0.5140E-01
      3.447  0.4462E-02  0.5866E-04  0.9438E-02  0.7111E-02  0.6832E-02  0.1125E-02  0.5634E-02  0.5117E-02  0.7928E-01  0.4879E-02  0.1136E+00  0.1454E-02  0.3601E-01  0.5835E-01  0.1084E+00  0.4418E-02  0.7032E-01  0.6763E-01