 running on    4 total cores
 distrk:  each k-point on    4 cores,    1 groups
 distr:  one band on    1 cores,    4 groups
 using from now: INCAR     
 vasp.5.4.1 24Jun15 (build Jul 19 2016 16:50:41) complex                        
  
 POSCAR found type information on POSCAR  Fe
 POSCAR found :  1 types and       1 ions
 LDA part: xc-table for Pade appr. of Perdew
 POSCAR, INCAR and KPOINTS ok, starting setup
 WARNING: small aliasing (wrap around) errors must be expected
 FFT: planning ...
 WAVECAR not read
 entering main loop
       N       E                     dE             d eps       ncg     rms          rms(c)
DAV:   1     0.167773335095E+02    0.16777E+02   -0.37054E+03  1400   0.731E+02
DAV:   2    -0.808984398054E+01   -0.24867E+02   -0.22644E+02  1296   0.115E+02
DAV:   3    -0.872679960853E+01   -0.63696E+00   -0.63466E+00  1492   0.212E+01
DAV:   4    -0.872911769449E+01   -0.23181E-02   -0.23234E-02  1380   0.114E+00
DAV:   5    -0.872913220563E+01   -0.14511E-04   -0.14544E-04  1436   0.945E-02    0.115E+01
DAV:   6    -0.829834435554E+01    0.43079E+00   -0.10613E+01  1420   0.410E+01    0.585E+00
DAV:   7    -0.822094303586E+01    0.77401E-01   -0.70577E-01  1456   0.102E+01    0.348E+00
DAV:   8    -0.821350262000E+01    0.74404E-02   -0.90444E-03  1568   0.735E-01    0.122E+00
DAV:   9    -0.820800886145E+01    0.54938E-02   -0.10392E-02  1764   0.756E-01    0.262E-01
DAV:  10    -0.820813307451E+01   -0.12421E-03   -0.12151E-03  1384   0.460E-01    0.449E-02
DAV:  11    -0.820810557361E+01    0.27501E-04   -0.58818E-05  1400   0.689E-02    0.419E-02
DAV:  12    -0.820810182443E+01    0.37492E-05   -0.31149E-06  1380   0.210E-02    0.108E-02
DAV:  13    -0.820810118293E+01    0.64150E-06   -0.92508E-07   716   0.115E-02
   1 F= -.82081012E+01 E0= -.82081012E+01  d E =0.000000E+00  mag=     2.2879
 writing wavefunctions
