Si diamante                             
   5.50000000000000     
     0.000000    0.500000    0.500000
     0.500000    0.000000    0.500000
     0.500000    0.500000    0.000000
   Si
     2
Direct
  0.000000  0.000000  0.000000
  0.250000  0.250000  0.250000
 
   56   56   56
 -7.6610     -7.0465     -5.2758     -2.5554     0.80865      4.4596      8.0427      11.251      13.858      15.733    
  16.839      17.224      17.003      16.332      15.388      14.336      13.260      12.206      11.212      10.302    
  9.4927      8.7902      8.1934      7.6977      7.2978      6.9890      6.7691      6.6370      6.5929      6.6370    
  6.7691      6.9890      7.2978      7.6977      8.1934      8.7902      9.4927      10.302      11.212      12.206    
  13.260      14.336      15.388      16.332      17.003      17.224      16.839      15.733      13.858      11.251    
  8.0427      4.4597     0.80865     -2.5554     -5.2758     -7.0465     -7.0465     -5.7980     -3.4527     -.28697    
  3.3452      7.0684      10.540      13.488      15.739      17.217      17.935      17.985      17.506      16.670    
  15.653      14.581      13.509      12.477      11.516      10.646      9.8794      9.2182      8.6601      8.2006    
  7.8351      7.5613      7.3783      7.2865      7.2865      7.3783      7.5613      7.8351      8.2005      8.6601    
  9.2182      9.8794      10.646      11.515      12.477      13.509      14.581      15.653      16.670      17.506    
  17.985      17.935      17.217      15.739      13.488      10.540      7.0684      3.3451     -.28697     -3.4527    
 -5.7980     -7.0465     -5.2758     -3.4527     -.66566      2.7567      6.4378      10.012      13.173      15.705    
  17.490      18.509      18.822      18.551      17.855      16.907      15.861      14.793      13.744      12.750    
  11.835      11.015      10.297      9.6808      9.1640      8.7425      8.4139      8.1779      8.0354      7.9877    
  8.0354      8.1779      8.4139      8.7425      9.1640      9.6808      10.297      11.015      11.835      12.750    
  13.744      14.793      15.861      16.907      17.855      18.551      18.822      18.509      17.490      15.705    
  13.173      10.012      6.4378      2.7566     -.66567     -3.4527     -5.2758     -5.9101     -2.5554     -.28697    
  2.7567      6.2198      9.7323      12.964      15.663      17.675      18.943      19.498      19.436      18.899    
  18.051      17.056      16.015      14.974      13.968      13.026      12.169      11.406      10.740      10.171    
  9.6969      9.3148      9.0251      8.8298      8.7313      8.7313      8.8298      9.0251      9.3148      9.6969    
  10.171      10.740      11.406      12.169      13.026      13.968      14.974      16.015      17.056      18.051    
  18.899      19.436      19.498      18.943      17.675      15.663      12.964      9.7323      6.2198      2.7566    
 -.28698     -2.5554     -3.7674     -3.7674     0.80865      3.3452      6.4378      9.7323      12.891      15.637    
  17.782      19.236      19.995      20.130      19.760      19.037      18.120      17.131      16.122      15.129    
  14.184      13.308      12.515      11.813      11.201      10.679      10.247      9.9051      9.6563      9.5047    
  9.4537      9.5047      9.6563      9.9051      10.247      10.679      11.201      11.813      12.515      13.308    
  14.184      15.129      16.122      17.131      18.120      19.037      19.760      20.130      19.995      19.236    
  17.782      15.637      12.891      9.7323      6.4378      3.3451     0.80864     -.85831     -1.4397     -.85831    
  4.4596      7.0684      10.012      12.964      15.637      17.818      19.384      20.300      20.608      20.403    
  19.821      19.007      18.094      17.143      16.189      15.264      14.393      13.591      12.867      12.225    
  11.666      11.190      10.799      10.498      10.292      10.188      10.188      10.292      10.498      10.799    
  11.190      11.666      12.225      12.867      13.591      14.393      15.264      16.189      17.143      18.094    
  19.007      19.821      20.403      20.608      20.300      19.384      17.818      15.637      12.964      10.012    
  7.0684      4.4596      2.5043      1.4562      1.4562      2.5043      8.0427      10.540      13.173      15.663    
  17.782      19.384      20.403      20.852      20.802      20.365      19.675      18.861      17.992      17.103    
  16.226      15.383      14.594      13.869      13.214      12.630      12.120      11.687      11.336      11.077    
  10.917      10.863      10.917      11.077      11.336      11.687      12.120      12.630      13.214      13.869    
  14.594      15.383      16.226      17.103      17.992      18.861      19.675      20.365      20.802      20.852    
  20.403      19.384      17.782      15.663      13.173      10.540      8.0427      5.9810      4.6204      4.1449    
  4.6204      5.9810      11.251      13.488      15.705      17.675      19.236      20.300      20.852      20.936    
  20.644      20.091      19.396      18.631      17.831      17.025      16.237      15.485      14.781      14.131    
  13.539      13.008      12.543      12.149      11.839      11.624      11.513      11.513      11.624      11.839    
  12.149      12.543      13.008      13.539      14.131      14.781      15.485      16.237      17.025      17.831    
  18.631      19.396      20.091      20.644      20.936      20.852      20.300      19.236      17.675      15.705    
  13.488      11.251      9.2521      7.7461      6.9364      6.9364      7.7461      9.2521      13.858      15.739    
  17.490      18.943      19.995      20.608      20.802      20.644      20.232      19.670      19.028      18.337    
  17.626      16.916      16.226      15.566      14.943      14.363      13.827      13.342      12.916      12.561    
  12.292      12.124      12.067      12.124      12.292      12.561      12.916      13.342      13.827      14.363    
  14.943      15.566      16.226      16.916      17.626      18.337      19.028      19.670      20.232      20.644    
  20.802      20.608      19.995      18.943      17.490      15.739      13.858      12.056      10.558      9.5663    
  9.2189      9.5663      10.558      12.056      15.733      17.217      18.509      19.498      20.130      20.403    
  20.365      20.091      19.670      19.163      18.597      17.999      17.389      16.782      16.189      15.617    
  15.069      14.548      14.060      13.613      13.223      12.906      12.682      12.565      12.565      12.682    
  12.906      13.223      13.613      14.060      14.548      15.069      15.617      16.189      16.782      17.389    
  17.999      18.597      19.163      19.670      20.091      20.365      20.403      20.130      19.498      18.509    
  17.217      15.733      14.214      12.846      11.810      11.252      11.252      11.810      12.846      14.214    
  16.839      17.935      18.822      19.436      19.760      19.821      19.675      19.396      19.028      18.597    
  18.125      17.631      17.127      16.622      16.122      15.628      15.143      14.670      14.220      13.807    
  13.451      13.174      12.997      12.936      12.997      13.174      13.451      13.807      14.220      14.670    
  15.143      15.628      16.122      16.622      17.127      17.631      18.125      18.597      19.028      19.396    
  19.675      19.821      19.760      19.436      18.822      17.935      16.839      15.640      14.479      13.508    
  12.863      12.636      12.863      13.508      14.479      15.640      17.224      17.985      18.551      18.899    
  19.037      19.007      18.861      18.631      18.337      17.999      17.631      17.244      16.844      16.434    
  16.015      15.587      15.151      14.717      14.297      13.912      13.587      13.350      13.224      13.224    
  13.350      13.587      13.912      14.297      14.717      15.151      15.587      16.015      16.434      16.844    
  17.244      17.631      17.999      18.337      18.631      18.861      19.007      19.037      18.899      18.551    
  17.985      17.224      16.335      15.414      14.578      13.942      13.598      13.598      13.942      14.578    
  15.414      16.335      17.003      17.506      17.855      18.051      18.120      18.094      17.992      17.831    
  17.626      17.389      17.127      16.844      16.540      16.214      15.861      15.483      15.085      14.678    
  14.278      13.914      13.620      13.428      13.361      13.428      13.620      13.914      14.278      14.678    
  15.085      15.483      15.861      16.214      16.540      16.844      17.127      17.389      17.626      17.831    
  17.992      18.094      18.120      18.051      17.855      17.506      17.003      16.377      15.687      15.015    
  14.450      14.074      13.941      14.074      14.450      15.015      15.687      16.377      16.332      16.670    
  16.907      17.056      17.131      17.143      17.103      17.025      16.916      16.782      16.622      16.434    
  16.214      15.954      15.653      15.312      14.937      14.541      14.154      13.813      13.558      13.420    
  13.420      13.558      13.813      14.154      14.541      14.937      15.312      15.653      15.954      16.214    
  16.434      16.622      16.782      16.916      17.025      17.103      17.143      17.131      17.056      16.907    
  16.670      16.332      15.899      15.400      14.886      14.420      14.064      13.872      13.872      14.064    
  14.420      14.886      15.400      15.899      15.388      15.653      15.861      16.015      16.122      16.189    
  16.226      16.237      16.226      16.189      16.122      16.015      15.861      15.653      15.388      15.068    
  14.700      14.311      13.939      13.629      13.424      13.352      13.424      13.629      13.939      14.311    
  14.700      15.068      15.388      15.653      15.861      16.015      16.122      16.189      16.226      16.237    
  16.226      16.189      16.122      16.015      15.861      15.653      15.388      15.068      14.700      14.311    
  13.939      13.629      13.424      13.352      13.424      13.629      13.939      14.311      14.700      15.068    
  14.336      14.581      14.793      14.974      15.129      15.264      15.383      15.485      15.566      15.617    
  15.628      15.587      15.483      15.312      15.068      14.753      14.388      14.009      13.663      13.399    
  13.255      13.255      13.399      13.663      14.009      14.388      14.753      15.068      15.312      15.483    
  15.587      15.628      15.617      15.566      15.485      15.383      15.264      15.129      14.974      14.793    
  14.581      14.336      14.057      13.755      13.442      13.139      12.874      12.676      12.570      12.570    
  12.676      12.874      13.139      13.442      13.755      14.057      13.260      13.509      13.744      13.968    
  14.184      14.393      14.594      14.781      14.943      15.069      15.143      15.151      15.085      14.937    
  14.700      14.388      14.031      13.675      13.371      13.167      13.095      13.167      13.371      13.675    
  14.031      14.388      14.700      14.937      15.085      15.151      15.143      15.069      14.943      14.781    
  14.594      14.393      14.184      13.968      13.744      13.509      13.260      12.995      12.718      12.438    
  12.169      11.929      11.740      11.617      11.575      11.617      11.740      11.929      12.169      12.438    
  12.718      12.995      12.206      12.477      12.750      13.026      13.308      13.591      13.869      14.131    
  14.363      14.548      14.670      14.717      14.678      14.541      14.311      14.009      13.675      13.360    
  13.114      12.980      12.980      13.114      13.360      13.675      14.009      14.311      14.541      14.678    
  14.717      14.670      14.548      14.363      14.131      13.869      13.591      13.308      13.026      12.750    
  12.477      12.206      11.936      11.667      11.401      11.149      10.922      10.733      10.598      10.528    
  10.528      10.598      10.733      10.922      11.149      11.401      11.667      11.936      11.212      11.516    
  11.835      12.169      12.515      12.867      13.214      13.539      13.827      14.060      14.220      14.297    
  14.278      14.154      13.939      13.663      13.371      13.114      12.939      12.876      12.939      13.114    
  13.371      13.663      13.939      14.154      14.278      14.297      14.220      14.060      13.828      13.539    
  13.214      12.867      12.515      12.169      11.835      11.515      11.212      10.921      10.644      10.380    
  10.133      9.9112      9.7228      9.5785      9.4875      9.4564      9.4875      9.5785      9.7228      9.9112    
  10.133      10.380      10.644      10.921      10.302      10.646      11.015      11.406      11.813      12.225    
  12.630      13.008      13.342      13.613      13.807      13.912      13.914      13.813      13.629      13.399    
  13.167      12.980      12.876      12.876      12.980      13.167      13.399      13.629      13.813      13.914    
  13.912      13.807      13.613      13.342      13.008      12.630      12.225      11.813      11.406      11.015    
  10.646      10.302      9.9819      9.6851      9.4107      9.1597      8.9354      8.7432      8.5902      8.4833    
  8.4283      8.4283      8.4833      8.5902      8.7432      8.9353      9.1597      9.4107      9.6851      9.9819    
  9.4927      9.8794      10.297      10.740      11.201      11.666      12.120      12.543      12.916      13.223    
  13.451      13.587      13.620      13.558      13.424      13.255      13.095      12.980      12.939      12.980    
  13.095      13.255      13.424      13.558      13.620      13.587      13.451      13.223      12.916      12.543    
  12.120      11.666      11.201      10.740      10.297      9.8794      9.4927      9.1381      8.8149      8.5218    
  8.2583      8.0250      7.8248      7.6616      7.5403      7.4653      7.4400      7.4653      7.5403      7.6616    
  7.8248      8.0250      8.2583      8.5218      8.8149      9.1381      8.7902      9.2182      9.6808      10.171    
  10.679      11.190      11.687      12.149      12.561      12.906      13.174      13.350      13.428      13.420    
  13.352      13.255      13.167      13.114      13.114      13.167      13.255      13.352      13.420      13.428    
  13.350      13.174      12.906      12.561      12.149      11.687      11.190      10.679      10.171      9.6808    
  9.2182      8.7901      8.3996      8.0466      7.7301      7.4486      7.2014      6.9891      6.8137      6.6781    
  6.5854      6.5383      6.5383      6.5854      6.6781      6.8137      6.9891      7.2014      7.4486      7.7302    
  8.0466      8.3996      8.1934      8.6601      9.1640      9.6969      10.247      10.799      11.336      11.839    
  12.292      12.682      12.997      13.224      13.361      13.420      13.424      13.399      13.371      13.360    
  13.371      13.399      13.424      13.420      13.361      13.224      12.997      12.682      12.292      11.839    
  11.336      10.799      10.247      9.6969      9.1640      8.6601      8.1934      7.7678      7.3845      7.0425    
  6.7402      6.4759      6.2488      6.0594      5.9091      5.7996      5.7330      5.7106      5.7330      5.7996    
  5.9091      6.0594      6.2488      6.4759      6.7402      7.0425      7.3845      7.7678      7.6977      8.2006    
  8.7425      9.3148      9.9051      10.498      11.077      11.624      12.124      12.565      12.936      13.224    
  13.428      13.558      13.629      13.663      13.675      13.675      13.663      13.629      13.558      13.428    
  13.224      12.936      12.565      12.124      11.624      11.077      10.498      9.9051      9.3148      8.7425    
  8.2006      7.6977      7.2390      6.8261      6.4584      6.1341      5.8511      5.6078      5.4034      5.2380    
  5.1124      5.0278      4.9852      4.9852      5.0278      5.1124      5.2380      5.4034      5.6078      5.8511    
  6.1341      6.4584      6.8261      7.2390      7.2978      7.8351      8.4139      9.0251      9.6563      10.292    
  10.917      11.513      12.067      12.565      12.997      13.350      13.620      13.813      13.939      14.009    
  14.031      14.009      13.939      13.813      13.620      13.350      12.997      12.565      12.067      11.513    
  10.917      10.292      9.6563      9.0251      8.4139      7.8351      7.2978      6.8072      6.3655      5.9725    
  5.6261      5.3239      5.0637      4.8437      4.6633      4.5222      4.4208      4.3597      4.3393      4.3597    
  4.4208      4.5222      4.6633      4.8437      5.0637      5.3239      5.6261      5.9725      6.3655      6.8072    
  6.9890      7.5613      8.1779      8.8298      9.5047      10.188      10.863      11.513      12.124      12.682    
  13.174      13.587      13.914      14.154      14.311      14.388      14.388      14.311      14.154      13.914    
  13.587      13.174      12.682      12.124      11.513      10.863      10.188      9.5047      8.8298      8.1779    
  7.5613      6.9890      6.4666      5.9964      5.5779      5.2093      4.8877      4.6102      4.3746      4.1792    
  4.0232      3.9061      3.8279      3.7888      3.7888      3.8279      3.9061      4.0232      4.1792      4.3746    
  4.6102      4.8877      5.2093      5.5779      5.9964      6.4666      6.7691      7.3783      8.0354      8.7313    
  9.4537      10.188      10.917      11.624      12.292      12.906      13.451      13.912      14.278      14.541    
  14.700      14.753      14.700      14.541      14.278      13.912      13.451      12.906      12.292      11.624    
  10.917      10.188      9.4537      8.7313      8.0354      7.3783      6.7691      6.2133      5.7132      5.2684    
  4.8768      4.5350      4.2398      3.9882      3.7780      3.6074      3.4754      3.3815      3.3252      3.3065    
  3.3252      3.3815      3.4754      3.6074      3.7780      3.9882      4.2398      4.5350      4.8768      5.2684    
  5.7132      6.2133      6.6370      7.2865      7.9877      8.7313      9.5047      10.292      11.077      11.839    
  12.561      13.223      13.807      14.297      14.678      14.937      15.068      15.068      14.937      14.678    
  14.297      13.807      13.223      12.561      11.839      11.077      10.292      9.5047      8.7313      7.9877    
  7.2865      6.6370      6.0449      5.5125      5.0392      4.6227      4.2593      3.9453      3.6770      3.4515    
  3.2664      3.1201      3.0114      2.9393      2.9034      2.9034      2.9393      3.0114      3.1201      3.2664    
  3.4515      3.6770      3.9453      4.2593      4.6227      5.0392      5.5125      6.0449      6.5929      7.2865    
  8.0354      8.8298      9.6563      10.498      11.336      12.149      12.916      13.613      14.220      14.717    
  15.085      15.312      15.388      15.312      15.085      14.717      14.220      13.613      12.916      12.149    
  11.336      10.498      9.6563      8.8298      8.0354      7.2865      6.5929      5.9607      5.3924      4.8874    
  4.4431      4.0557      3.7209      3.4343      3.1926      2.9926      2.8320      2.7090      2.6221      2.5704    
  2.5533      2.5704      2.6221      2.7090      2.8320      2.9926      3.1926      3.4343      3.7208      4.0557    
  4.4431      4.8874      5.3924      5.9608      6.6370      7.3783      8.1779      9.0251      9.9051      10.799    
  11.687      12.543      13.342      14.060      14.670      15.151      15.483      15.653      15.653      15.483    
  15.151      14.670      14.060      13.342      12.543      11.687      10.799      9.9051      9.0251      8.1779    
  7.3783      6.6370      5.9607      5.3524      4.8117      4.3360      3.9213      3.5627      3.2556      2.9958    
  2.7797      2.6043      2.4669      2.3658      2.2993      2.2663      2.2663      2.2993      2.3658      2.4669    
  2.6043      2.7797      2.9958      3.2556      3.5627      3.9213      4.3360      4.8117      5.3524      5.9608    
  6.7691      7.5613      8.4139      9.3148      10.247      11.190      12.120      13.008      13.827      14.548    
  15.143      15.587      15.861      15.954      15.861      15.587      15.143      14.548      13.828      13.008    
  12.120      11.190      10.247      9.3148      8.4139      7.5613      6.7691      6.0449      5.3924      4.8117    
  4.3004      3.8543      3.4685      3.1378      2.8575      2.6233      2.4317      2.2794      2.1639      2.0831    
  2.0353      2.0194      2.0353      2.0831      2.1639      2.2794      2.4317      2.6233      2.8575      3.1378    
  3.4685      3.8543      4.3004      4.8117      5.3924      6.0449      6.9890      7.8351      8.7425      9.6969    
  10.679      11.666      12.630      13.539      14.363      15.069      15.628      16.015      16.214      16.214    
  16.015      15.628      15.069      14.363      13.539      12.630      11.666      10.679      9.6969      8.7425    
  7.8351      6.9890      6.2133      5.5125      4.8874      4.3360      3.8543      3.4372      3.0792      2.7752    
  2.5204      2.3106      2.1421      2.0116      1.9163      1.8541      1.8234      1.8234      1.8541      1.9163    
  2.0116      2.1421      2.3106      2.5204      2.7752      3.0792      3.4372      3.8543      4.3360      4.8874    
  5.5125      6.2133      7.2978      8.2005      9.1640      10.171      11.201      12.225      13.214      14.131    
  14.943      15.617      16.122      16.434      16.540      16.434      16.122      15.617      14.943      14.131    
  13.214      12.225      11.201      10.171      9.1640      8.2006      7.2978      6.4666      5.7132      5.0392    
  4.4431      3.9213      3.4685      3.0792      2.7479      2.4694      2.2388      2.0520      1.9051      1.7947    
  1.7181      1.6730      1.6581      1.6730      1.7181      1.7947      1.9051      2.0520      2.2388      2.4694    
  2.7479      3.0792      3.4685      3.9213      4.4431      5.0392      5.7132      6.4666      7.6977      8.6601    
  9.6808      10.740      11.813      12.867      13.869      14.781      15.566      16.189      16.622      16.844    
  16.844      16.622      16.189      15.566      14.781      13.869      12.867      11.813      10.740      9.6808    
  8.6601      7.6977      6.8072      5.9964      5.2684      4.6227      4.0557      3.5627      3.1378      2.7752    
  2.4694      2.2150      2.0074      1.8421      1.7153      1.6234      1.5639      1.5346      1.5346      1.5639    
  1.6234      1.7153      1.8421      2.0074      2.2150      2.4694      2.7752      3.1378      3.5627      4.0557    
  4.6227      5.2684      5.9964      6.8072      8.1934      9.2182      10.297      11.406      12.515      13.591    
  14.594      15.485      16.226      16.782      17.127      17.244      17.127      16.782      16.226      15.485    
  14.594      13.591      12.515      11.406      10.297      9.2182      8.1934      7.2390      6.3655      5.5779    
  4.8768      4.2593      3.7209      3.2556      2.8575      2.5204      2.2388      2.0074      1.8213      1.6760    
  1.5677      1.4929      1.4492      1.4347      1.4492      1.4929      1.5677      1.6760      1.8213      2.0074    
  2.2388      2.5204      2.8575      3.2556      3.7208      4.2593      4.8768      5.5779      6.3655      7.2390    
  8.7902      9.8794      11.015      12.169      13.308      14.393      15.383      16.237      16.916      17.389    
  17.631      17.631      17.389      16.916      16.237      15.383      14.393      13.308      12.169      11.015    
  9.8794      8.7901      7.7678      6.8261      5.9725      5.2093      4.5350      3.9453      3.4343      2.9958    
  2.6233      2.3106      2.0520      1.8421      1.6760      1.5493      1.4580      1.3990      1.3701      1.3701    
  1.3990      1.4580      1.5493      1.6760      1.8421      2.0520      2.3106      2.6233      2.9958      3.4343    
  3.9453      4.5350      5.2093      5.9725      6.8261      7.7678      9.4927      10.646      11.835      13.026    
  14.184      15.264      16.226      17.025      17.626      17.999      18.125      17.999      17.626      17.025    
  16.226      15.264      14.184      13.026      11.835      10.646      9.4927      8.3996      7.3845      6.4584    
  5.6261      4.8877      4.2398      3.6770      3.1926      2.7797      2.4317      2.1421      1.9051      1.7153    
  1.5677      1.4580      1.3825      1.3384      1.3238      1.3384      1.3825      1.4580      1.5677      1.7153    
  1.9051      2.1421      2.4317      2.7797      3.1926      3.6770      4.2398      4.8877      5.6261      6.4584    
  7.3845      8.3996      10.302      11.515      12.750      13.968      15.129      16.189      17.103      17.831    
  18.337      18.597      18.597      18.337      17.831      17.103      16.189      15.129      13.968      12.750    
  11.515      10.302      9.1381      8.0466      7.0425      6.1341      5.3239      4.6102      3.9882      3.4515    
  2.9926      2.6043      2.2794      2.0116      1.7947      1.6234      1.4929      1.3990      1.3384      1.3086    
  1.3086      1.3384      1.3990      1.4929      1.6234      1.7947      2.0116      2.2794      2.6042      2.9926    
  3.4515      3.9882      4.6102      5.3239      6.1341      7.0425      8.0466      9.1381      11.212      12.477    
  13.744      14.974      16.122      17.143      17.992      18.631      19.028      19.163      19.028      18.631    
  17.992      17.143      16.122      14.974      13.744      12.477      11.212      9.9819      8.8149      7.7301    
  6.7402      5.8511      5.0637      4.3746      3.7780      3.2664      2.8320      2.4669      2.1639      1.9163    
  1.7181      1.5639      1.4492      1.3701      1.3238      1.3086      1.3238      1.3701      1.4492      1.5639    
  1.7181      1.9163      2.1639      2.4669      2.8320      3.2664      3.7780      4.3746      5.0637      5.8511    
  6.7402      7.7302      8.8149      9.9819      12.206      13.509      14.793      16.015      17.131      18.094    
  18.861      19.396      19.670      19.670      19.396      18.861      18.094      17.131      16.015      14.793    
  13.509      12.206      10.921      9.6851      8.5218      7.4486      6.4759      5.6078      4.8437      4.1792    
  3.6074      3.1201      2.7090      2.3658      2.0831      1.8541      1.6730      1.5346      1.4347      1.3701    
  1.3384      1.3384      1.3701      1.4347      1.5346      1.6730      1.8541      2.0831      2.3658      2.7090    
  3.1201      3.6074      4.1792      4.8437      5.6078      6.4759      7.4487      8.5218      9.6851      10.921    
  13.260      14.581      15.861      17.056      18.120      19.007      19.675      20.091      20.232      20.091    
  19.675      19.007      18.120      17.056      15.861      14.581      13.260      11.936      10.644      9.4107    
  8.2583      7.2014      6.2488      5.4034      4.6633      4.0232      3.4754      3.0114      2.6221      2.2993    
  2.0353      1.8234      1.6581      1.5346      1.4492      1.3990      1.3825      1.3990      1.4492      1.5346    
  1.6581      1.8234      2.0353      2.2993      2.6221      3.0114      3.4754      4.0232      4.6633      5.4034    
  6.2488      7.2014      8.2583      9.4107      10.644      11.936      14.336      15.653      16.907      18.051    
  19.037      19.821      20.365      20.644      20.644      20.365      19.821      19.037      18.051      16.907    
  15.653      14.336      12.995      11.667      10.380      9.1597      8.0250      6.9891      6.0594      5.2380    
  4.5222      3.9061      3.3815      2.9393      2.5704      2.2663      2.0194      1.8234      1.6730      1.5639    
  1.4929      1.4580      1.4580      1.4929      1.5639      1.6730      1.8234      2.0194      2.2663      2.5704    
  2.9393      3.3815      3.9061      4.5222      5.2380      6.0594      6.9891      8.0250      9.1597      10.380    
  11.667      12.995      15.388      16.670      17.855      18.899      19.760      20.403      20.802      20.936    
  20.802      20.403      19.760      18.899      17.855      16.670      15.388      14.057      12.718      11.401    
  10.133      8.9354      7.8248      6.8137      5.9091      5.1124      4.4208      3.8279      3.3252      2.9034    
  2.5533      2.2663      2.0353      1.8541      1.7181      1.6234      1.5677      1.5493      1.5677      1.6234    
  1.7181      1.8541      2.0353      2.2663      2.5533      2.9034      3.3252      3.8279      4.4208      5.1124    
  5.9091      6.8137      7.8248      8.9354      10.133      11.401      12.718      14.057      16.332      17.506    
  18.551      19.436      20.130      20.608      20.852      20.852      20.608      20.130      19.436      18.551    
  17.506      16.332      15.068      13.755      12.438      11.149      9.9112      8.7432      7.6616      6.6781    
  5.7996      5.0278      4.3597      3.7888      3.3065      2.9034      2.5704      2.2993      2.0831      1.9163    
  1.7947      1.7153      1.6760      1.6760      1.7153      1.7947      1.9163      2.0831      2.2993      2.5704    