   2   2   0   0
  0.2079688E+02  0.3889087E-09  0.3889087E-09  0.3889087E-09  0.5000000E-15
  1.000000000000000E-004
  CAR 
 Si diamante                             
     16.31474930     -7.32762098  301      5.77661982      1.00000000
     -7.328  0.0000E+00  0.0000E+00
     -7.249  0.0000E+00  0.0000E+00
     -7.170  0.0000E+00  0.0000E+00
     -7.091  0.0000E+00  0.0000E+00
     -7.012  0.0000E+00  0.0000E+00
     -6.934  0.0000E+00  0.0000E+00
     -6.855  0.0000E+00  0.0000E+00
     -6.776  0.4795E-13  0.3779E-14
     -6.697  0.1203E-09  0.9485E-11
     -6.618  0.9043E-07  0.7136E-08
     -6.540  0.2064E-04  0.1634E-05
     -6.461  0.1461E-02  0.1167E-03
     -6.382  0.3303E-01  0.2720E-02
     -6.303  0.2502E+00  0.2244E-01
     -6.224  0.6877E+00  0.7663E-01
     -6.146  0.8129E+00  0.1407E+00
     -6.067  0.6025E+00  0.1882E+00
     -5.988  0.4471E+00  0.2234E+00
     -5.909  0.3732E+00  0.2528E+00
     -5.830  0.3317E+00  0.2790E+00
     -5.751  0.2981E+00  0.3025E+00
     -5.673  0.2817E+00  0.3247E+00
     -5.594  0.2557E+00  0.3448E+00
     -5.515  0.2495E+00  0.3645E+00
     -5.436  0.2341E+00  0.3829E+00
     -5.357  0.2179E+00  0.4001E+00
     -5.279  0.2249E+00  0.4178E+00
     -5.200  0.2036E+00  0.4339E+00
     -5.121  0.1912E+00  0.4489E+00
     -5.042  0.2212E+00  0.4664E+00
     -4.963  0.1717E+00  0.4799E+00
     -4.885  0.1793E+00  0.4940E+00
     -4.806  0.2207E+00  0.5114E+00
     -4.727  0.1533E+00  0.5235E+00
     -4.648  0.1715E+00  0.5370E+00
     -4.569  0.2077E+00  0.5534E+00
     -4.491  0.1795E+00  0.5675E+00
     -4.412  0.1525E+00  0.5795E+00
     -4.333  0.1906E+00  0.5946E+00
     -4.254  0.2336E+00  0.6130E+00
     -4.175  0.1968E+00  0.6285E+00
     -4.096  0.3158E+00  0.6534E+00
     -4.018  0.6660E+00  0.7059E+00
     -3.939  0.7879E+00  0.7679E+00
     -3.860  0.5261E+00  0.8094E+00
     -3.781  0.3567E+00  0.8375E+00
     -3.702  0.3494E+00  0.8651E+00
     -3.624  0.3244E+00  0.8906E+00
     -3.545  0.2407E+00  0.9096E+00
     -3.466  0.2078E+00  0.9260E+00
     -3.387  0.2467E+00  0.9454E+00
     -3.308  0.2726E+00  0.9669E+00
     -3.230  0.2099E+00  0.9834E+00
     -3.151  0.1644E+00  0.9964E+00
     -3.072  0.1828E+00  0.1011E+01
     -2.993  0.2400E+00  0.1030E+01
     -2.914  0.2221E+00  0.1047E+01
     -2.836  0.1635E+00  0.1060E+01
     -2.757  0.2380E+00  0.1079E+01
     -2.678  0.6678E+00  0.1131E+01
     -2.599  0.1175E+01  0.1224E+01
     -2.520  0.1090E+01  0.1310E+01
     -2.442  0.7995E+00  0.1373E+01
     -2.363  0.8033E+00  0.1436E+01
     -2.284  0.1652E+01  0.1567E+01
     -2.205  0.3384E+01  0.1833E+01
     -2.126  0.4108E+01  0.2157E+01
     -2.047  0.2996E+01  0.2393E+01
     -1.969  0.1351E+01  0.2500E+01
     -1.890  0.7846E+00  0.2561E+01
     -1.811  0.9287E+00  0.2635E+01
     -1.732  0.1274E+01  0.2735E+01
     -1.653  0.1377E+01  0.2843E+01
     -1.575  0.8158E+00  0.2908E+01
     -1.496  0.3547E+00  0.2936E+01
     -1.417  0.4809E+00  0.2974E+01
     -1.338  0.1013E+01  0.3053E+01
     -1.259  0.1438E+01  0.3167E+01
     -1.181  0.1208E+01  0.3262E+01
     -1.102  0.5991E+00  0.3309E+01
     -1.023  0.2382E+00  0.3328E+01
     -0.944  0.1826E+00  0.3342E+01
     -0.865  0.1494E+00  0.3354E+01
     -0.787  0.6652E-01  0.3359E+01
     -0.708  0.3990E-01  0.3362E+01
     -0.629  0.1312E+00  0.3373E+01
     -0.550  0.2057E+00  0.3389E+01
     -0.471  0.1162E+00  0.3398E+01
     -0.393  0.3523E-01  0.3401E+01
     -0.314  0.6687E-01  0.3406E+01
     -0.235  0.1237E+00  0.3416E+01
     -0.156  0.1316E+00  0.3426E+01
     -0.077  0.1176E+00  0.3436E+01
      0.002  0.7173E-01  0.3441E+01
      0.080  0.8982E-01  0.3448E+01
      0.159  0.1049E+00  0.3457E+01
      0.238  0.6983E-01  0.3462E+01
      0.317  0.9836E-01  0.3470E+01
      0.396  0.1132E+00  0.3479E+01
      0.474  0.1085E+00  0.3487E+01
      0.553  0.1080E+00  0.3496E+01
      0.632  0.5188E-01  0.3500E+01
      0.711  0.4854E-01  0.3504E+01
      0.790  0.1102E+00  0.3512E+01
      0.868  0.1325E+00  0.3523E+01
      0.947  0.1271E+00  0.3533E+01
      1.026  0.7400E-01  0.3539E+01
      1.105  0.2535E-01  0.3541E+01
      1.184  0.8148E-01  0.3547E+01
      1.262  0.3649E+00  0.3576E+01
      1.341  0.9581E+00  0.3651E+01
      1.420  0.1352E+01  0.3758E+01
      1.499  0.1338E+01  0.3863E+01
      1.578  0.1236E+01  0.3961E+01
      1.656  0.1207E+01  0.4056E+01
      1.735  0.1653E+01  0.4186E+01
      1.814  0.2156E+01  0.4356E+01
      1.893  0.1874E+01  0.4504E+01
      1.972  0.1376E+01  0.4612E+01
      2.051  0.1174E+01  0.4705E+01
      2.129  0.1095E+01  0.4791E+01
      2.208  0.1119E+01  0.4879E+01
      2.287  0.1104E+01  0.4966E+01
      2.366  0.1015E+01  0.5046E+01
      2.445  0.9872E+00  0.5124E+01
      2.523  0.1057E+01  0.5207E+01
      2.602  0.1317E+01  0.5311E+01
      2.681  0.1849E+01  0.5457E+01
      2.760  0.2036E+01  0.5617E+01
      2.839  0.1446E+01  0.5731E+01
      2.917  0.9821E+00  0.5809E+01
      2.996  0.9589E+00  0.5884E+01
      3.075  0.1075E+01  0.5969E+01
      3.154  0.9549E+00  0.6044E+01
      3.233  0.6826E+00  0.6098E+01
      3.311  0.6064E+00  0.6146E+01
      3.390  0.5103E+00  0.6186E+01
      3.469  0.4353E+00  0.6220E+01
      3.548  0.5307E+00  0.6262E+01
      3.627  0.5345E+00  0.6304E+01
      3.705  0.4811E+00  0.6342E+01
      3.784  0.5242E+00  0.6384E+01
      3.863  0.4932E+00  0.6422E+01
      3.942  0.5459E+00  0.6466E+01
      4.021  0.5535E+00  0.6509E+01
      4.100  0.5566E+00  0.6553E+01
      4.178  0.8164E+00  0.6617E+01
      4.257  0.1376E+01  0.6726E+01
      4.336  0.1831E+01  0.6870E+01
      4.415  0.1590E+01  0.6995E+01
      4.494  0.1039E+01  0.7077E+01
      4.572  0.7974E+00  0.7140E+01
      4.651  0.8411E+00  0.7206E+01
      4.730  0.7766E+00  0.7268E+01
      4.809  0.7300E+00  0.7325E+01
      4.888  0.7235E+00  0.7382E+01
      4.966  0.6166E+00  0.7431E+01
      5.045  0.6955E+00  0.7486E+01
      5.124  0.8267E+00  0.7551E+01
      5.203  0.7533E+00  0.7610E+01
      5.282  0.8438E+00  0.7677E+01
      5.360  0.1200E+01  0.7771E+01
      5.439  0.1503E+01  0.7890E+01
      5.518  0.1060E+01  0.7973E+01
      5.597  0.3082E+00  0.7997E+01
      5.676  0.3189E-01  0.8000E+01
      5.754  0.1091E-02  0.8000E+01
      5.833  0.9632E-04  0.8000E+01
      5.912  0.3836E-02  0.8000E+01
      5.991  0.5726E-01  0.8005E+01
      6.070  0.3060E+00  0.8029E+01
      6.149  0.7233E+00  0.8086E+01
      6.227  0.1099E+01  0.8173E+01
      6.306  0.1210E+01  0.8268E+01
      6.385  0.9469E+00  0.8342E+01
      6.464  0.7115E+00  0.8399E+01
      6.543  0.6076E+00  0.8446E+01
      6.621  0.5916E+00  0.8493E+01
      6.700  0.7422E+00  0.8552E+01
      6.779  0.9515E+00  0.8627E+01
      6.858  0.1244E+01  0.8725E+01
      6.937  0.1411E+01  0.8836E+01
      7.015  0.1167E+01  0.8928E+01
      7.094  0.1004E+01  0.9007E+01
      7.173  0.9308E+00  0.9080E+01
      7.252  0.8102E+00  0.9144E+01
      7.331  0.7975E+00  0.9207E+01
      7.409  0.8148E+00  0.9271E+01
      7.488  0.7573E+00  0.9331E+01
      7.567  0.7410E+00  0.9389E+01
      7.646  0.7362E+00  0.9447E+01
      7.725  0.7802E+00  0.9509E+01
      7.803  0.8231E+00  0.9574E+01
      7.882  0.9098E+00  0.9645E+01
      7.961  0.1409E+01  0.9756E+01
      8.040  0.2125E+01  0.9924E+01
      8.119  0.1781E+01  0.1006E+02
      8.198  0.1063E+01  0.1015E+02
      8.276  0.1016E+01  0.1023E+02
      8.355  0.1102E+01  0.1031E+02
      8.434  0.1172E+01  0.1041E+02
      8.513  0.1424E+01  0.1052E+02
      8.592  0.1658E+01  0.1065E+02
      8.670  0.1771E+01  0.1079E+02
      8.749  0.2273E+01  0.1097E+02
      8.828  0.3154E+01  0.1122E+02
      8.907  0.3224E+01  0.1147E+02
      8.986  0.2490E+01  0.1167E+02
      9.064  0.1617E+01  0.1180E+02
      9.143  0.1121E+01  0.1188E+02
      9.222  0.9361E+00  0.1196E+02
      9.301  0.7614E+00  0.1202E+02
      9.380  0.7950E+00  0.1208E+02
      9.458  0.1007E+01  0.1216E+02
      9.537  0.1646E+01  0.1229E+02
      9.616  0.2401E+01  0.1248E+02
      9.695  0.2435E+01  0.1267E+02
      9.774  0.1994E+01  0.1283E+02
      9.853  0.9994E+00  0.1291E+02
      9.931  0.3673E+00  0.1293E+02
     10.010  0.3353E+00  0.1296E+02
     10.089  0.2541E+00  0.1298E+02
     10.168  0.2009E+00  0.1300E+02
     10.247  0.4179E+00  0.1303E+02
     10.325  0.9828E+00  0.1311E+02
     10.404  0.1360E+01  0.1321E+02
     10.483  0.1242E+01  0.1331E+02
     10.562  0.8987E+00  0.1338E+02
     10.641  0.6916E+00  0.1344E+02
     10.719  0.6869E+00  0.1349E+02
     10.798  0.7334E+00  0.1355E+02
     10.877  0.7859E+00  0.1361E+02
     10.956  0.8453E+00  0.1368E+02
     11.035  0.8047E+00  0.1374E+02
     11.113  0.6391E+00  0.1379E+02
     11.192  0.5047E+00  0.1383E+02
     11.271  0.6442E+00  0.1388E+02
     11.350  0.8907E+00  0.1395E+02
     11.429  0.8222E+00  0.1402E+02
     11.507  0.6214E+00  0.1407E+02
     11.586  0.5192E+00  0.1411E+02
     11.665  0.6546E+00  0.1416E+02
     11.744  0.7552E+00  0.1422E+02
     11.823  0.7123E+00  0.1427E+02
     11.902  0.6680E+00  0.1433E+02
     11.980  0.6782E+00  0.1438E+02
     12.059  0.6372E+00  0.1443E+02
     12.138  0.4684E+00  0.1447E+02
     12.217  0.5679E+00  0.1451E+02
     12.296  0.8002E+00  0.1458E+02
     12.374  0.6806E+00  0.1463E+02
     12.453  0.4070E+00  0.1466E+02
     12.532  0.3259E+00  0.1469E+02
     12.611  0.5697E+00  0.1473E+02
     12.690  0.8677E+00  0.1480E+02
     12.768  0.7670E+00  0.1486E+02
     12.847  0.4259E+00  0.1489E+02
     12.926  0.3459E+00  0.1492E+02
     13.005  0.5533E+00  0.1497E+02
     13.084  0.7260E+00  0.1502E+02
     13.162  0.1161E+01  0.1511E+02
     13.241  0.1485E+01  0.1523E+02
     13.320  0.1245E+01  0.1533E+02
     13.399  0.7908E+00  0.1539E+02
     13.478  0.4459E+00  0.1543E+02
     13.556  0.2848E+00  0.1545E+02
     13.635  0.3835E+00  0.1548E+02
     13.714  0.3660E+00  0.1551E+02
     13.793  0.1440E+00  0.1552E+02
     13.872  0.9922E-01  0.1553E+02
     13.951  0.2061E+00  0.1554E+02
     14.029  0.1941E+00  0.1556E+02
     14.108  0.1947E+00  0.1557E+02
     14.187  0.3081E+00  0.1560E+02
     14.266  0.3149E+00  0.1562E+02
     14.345  0.1735E+00  0.1564E+02
     14.423  0.6903E-01  0.1564E+02
     14.502  0.1733E+00  0.1566E+02
     14.581  0.3609E+00  0.1568E+02
     14.660  0.3357E+00  0.1571E+02
     14.739  0.2220E+00  0.1573E+02
     14.817  0.2324E+00  0.1575E+02
     14.896  0.1958E+00  0.1576E+02
     14.975  0.2961E+00  0.1579E+02
     15.054  0.4891E+00  0.1582E+02
     15.133  0.5360E+00  0.1587E+02
     15.211  0.7019E+00  0.1592E+02
     15.290  0.6790E+00  0.1598E+02
     15.369  0.2751E+00  0.1600E+02
     15.448  0.3897E-01  0.1600E+02
     15.527  0.1806E-02  0.1600E+02
     15.605  0.2638E-04  0.1600E+02
     15.684  0.1185E-06  0.1600E+02
     15.763  0.1610E-09  0.1600E+02
     15.842  0.6525E-13  0.1600E+02
     15.921  0.0000E+00  0.1600E+02
     16.000  0.0000E+00  0.1600E+02
     16.078  0.0000E+00  0.1600E+02
     16.157  0.0000E+00  0.1600E+02
     16.236  0.0000E+00  0.1600E+02
     16.315  0.0000E+00  0.1600E+02
