       N       E                     dE             d eps       ncg     rms          rms(c)
DAV:   1     0.603840301316E+01    0.60384E+01   -0.30653E+03  1600   0.683E+02
DAV:   2    -0.995792068494E+01   -0.15996E+02   -0.15464E+02  2448   0.755E+01
DAV:   3    -0.102027646265E+02   -0.24484E+00   -0.24484E+00  2064   0.113E+01
DAV:   4    -0.102038987392E+02   -0.11341E-02   -0.11341E-02  2528   0.844E-01
DAV:   5    -0.102039017698E+02   -0.30306E-05   -0.30300E-05  2032   0.293E-02
DAV:   6    -0.102039018052E+02   -0.35383E-07   -0.35157E-07  2160   0.249E-03
   1 F= -.10203902E+02 E0= -.10203902E+02  d E =-.142980E-06
