 vasp.5.4.1 24Jun15 (build Jul 19 2016 16:50:41) complex                        
  
 executed on           IFC91_ompi date 2019.10.17  12:18:31
 running on    4 total cores
 distrk:  each k-point on    4 cores,    1 groups
 distr:  one band on NCORES_PER_BAND=   1 cores,    4 groups


--------------------------------------------------------------------------------------------------------


 INCAR:
 POTCAR:    PAW_PBE Si 05Jan2001                  
 POTCAR:    PAW_PBE Si 05Jan2001                  
   VRHFIN =Si: s2p2                                                             
   LEXCH  = PE                                                                  
   EATOM  =   103.0669 eV,    7.5752 Ry                                         
                                                                                
   TITEL  = PAW_PBE Si 05Jan2001                                                
   LULTRA =        F    use ultrasoft PP ?                                      
   IUNSCR =        1    unscreen: 0-lin 1-nonlin 2-no                           
   RPACOR =    1.500    partial core radius                                     
   POMASS =   28.085; ZVAL   =    4.000    mass and valenz                      
   RCORE  =    1.900    outmost cutoff radius                                   
   RWIGS  =    2.480; RWIGS  =    1.312    wigner-seitz radius (au A)           
   ENMAX  =  245.345; ENMIN  =  184.009 eV                                      
   ICORE  =        2    local potential                                         
   LCOR   =        T    correct aug charges                                     
   LPAW   =        T    paw PP                                                  
   EAUG   =  322.069                                                            
   DEXC   =    0.000                                                            
   RMAX   =    1.950    core radius for proj-oper                               
   RAUG   =    1.300    factor for augmentation sphere                          
   RDEP   =    1.993    radius for radial grids                                 
   RDEPT  =    1.837    core radius for aug-charge                              
                                                                                
   Atomic configuration                                                         
    6 entries                                                                   
     n  l   j            E        occ.                                          
     1  0  0.50     -1785.8828   2.0000                                         
     2  0  0.50      -139.4969   2.0000                                         
     2  1  1.50       -95.5546   6.0000                                         
     3  0  0.50       -10.8127   2.0000                                         
     3  1  0.50        -4.0811   2.0000                                         
     3  2  1.50        -4.0817   0.0000                                         
   Description                                                                  
     l       E           TYP  RCUT    TYP  RCUT                                 
     0    -10.8127223     23  1.900                                             
     0     -7.6451159     23  1.900                                             
     1     -4.0811372     23  1.900                                             
     1      2.4879257     23  1.900                                             
     2     -4.0817478      7  1.900                                             
  local pseudopotential read in
  partial core-charges read in
  partial kinetic energy density read in
  atomic valenz-charges read in
  non local Contribution for L=           0  read in
    real space projection operators read in
  non local Contribution for L=           0  read in
    real space projection operators read in
  non local Contribution for L=           1  read in
    real space projection operators read in
  non local Contribution for L=           1  read in
    real space projection operators read in
    PAW grid and wavefunctions read in
 
   number of l-projection  operators is LMAX  =           4
   number of lm-projection operators is LMMAX =           8
 
  PAW_PBE Si 05Jan2001                  :
 energy of atom  1       EATOM= -103.0669
 kinetic energy error for atom=    0.0009 (will be added to EATOM!!)
 
 
 POSCAR: diamond Si                              
  positions in cartesian coordinates
  No initial velocities read in
 exchange correlation table for  LEXCH =        8
   RHO(1)=    0.500       N(1)  =     2000
   RHO(2)=  100.500       N(2)  =     4000
 


--------------------------------------------------------------------------------------------------------


 ion  position               nearest neighbor table
   1  0.000  0.000  0.000-   2 2.38   2 2.38   2 2.38   2 2.38
   2  0.250  0.250  0.250-   1 2.38   1 2.38   1 2.38   1 2.38
 
  LATTYP: Found a face centered cubic cell.
 ALAT       =     5.5000000000
  
  Lattice vectors:
  
 A1 = (   0.0000000000,   2.7500000000,   2.7500000000)
 A2 = (   2.7500000000,   0.0000000000,   2.7500000000)
 A3 = (   2.7500000000,   2.7500000000,   0.0000000000)


Analysis of symmetry for initial positions (statically):
=====================================================================
 Subroutine PRICEL returns:
 Original cell was already a primitive cell.
 

 Routine SETGRP: Setting up the symmetry group for a 
 face centered cubic supercell.


 Subroutine GETGRP returns: Found 48 space group operations
 (whereof 24 operations were pure point group operations)
 out of a pool of 48 trial point group operations.


The static configuration has the point symmetry T_d .
 The point group associated with its full space group is O_h .


Analysis of symmetry for dynamics (positions and initial velocities):
=====================================================================
 Subroutine PRICEL returns:
 Original cell was already a primitive cell.
 

 Routine SETGRP: Setting up the symmetry group for a 
 face centered cubic supercell.


 Subroutine GETGRP returns: Found 48 space group operations
 (whereof 24 operations were pure point group operations)
 out of a pool of 48 trial point group operations.


The dynamic configuration has the point symmetry T_d .
 The point group associated with its full space group is O_h .


 Subroutine INISYM returns: Found 48 space group operations
 (whereof 24 operations are pure point group operations),
 and found     1 'primitive' translations

 
 
 KPOINTS: kpoints for bandstructure W-L-G-X-W-K   
  interpolating k-points between supplied coordinates
  k-points in reciprocal lattice
Space group operators:
 irot       det(A)        alpha          n_x          n_y          n_z        tau_x        tau_y        tau_z
    1     1.000000     0.000000     1.000000     0.000000     0.000000     0.000000     0.000000     0.000000
    2     1.000000   120.000000    -0.577350    -0.577350    -0.577350     0.000000     0.000000     0.000000
    3     1.000000   120.000000     0.577350     0.577350     0.577350     0.000000     0.000000     0.000000
    4    -1.000000    90.000000     0.000000     0.000000    -1.000000     0.000000     0.000000     0.000000
    5    -1.000000   180.000000     0.000000     0.707107     0.707107     0.000000     0.000000     0.000000
    6    -1.000000    90.000000     0.000000     1.000000     0.000000     0.000000     0.000000     0.000000
    7     1.000000   180.000000     0.000000     0.000000     1.000000     0.000000     0.000000     0.000000
    8     1.000000   120.000000    -0.577350     0.577350     0.577350     0.000000     0.000000     0.000000
    9     1.000000   120.000000    -0.577350     0.577350    -0.577350     0.000000     0.000000     0.000000
   10    -1.000000    90.000000     0.000000     0.000000     1.000000     0.000000     0.000000     0.000000
   11    -1.000000    90.000000    -1.000000     0.000000     0.000000     0.000000     0.000000     0.000000
   12    -1.000000   180.000000     0.707107     0.000000     0.707107     0.000000     0.000000     0.000000
   13     1.000000   120.000000     0.577350    -0.577350     0.577350     0.000000     0.000000     0.000000
   14     1.000000   120.000000    -0.577350    -0.577350     0.577350     0.000000     0.000000     0.000000
   15     1.000000   180.000000     1.000000     0.000000     0.000000     0.000000     0.000000     0.000000
   16    -1.000000    90.000000     0.000000    -1.000000     0.000000     0.000000     0.000000     0.000000
   17    -1.000000   180.000000     0.707107     0.707107     0.000000     0.000000     0.000000     0.000000
   18    -1.000000    90.000000     1.000000     0.000000     0.000000     0.000000     0.000000     0.000000
   19     1.000000   120.000000     0.577350    -0.577350    -0.577350     0.000000     0.000000     0.000000
   20     1.000000   180.000000     0.000000     1.000000     0.000000     0.000000     0.000000     0.000000
   21     1.000000   120.000000     0.577350     0.577350    -0.577350     0.000000     0.000000     0.000000
   22    -1.000000   180.000000     0.000000    -0.707107     0.707107     0.000000     0.000000     0.000000
   23    -1.000000   180.000000     0.707107    -0.707107     0.000000     0.000000     0.000000     0.000000
   24    -1.000000   180.000000     0.707107     0.000000    -0.707107     0.000000     0.000000     0.000000
   25    -1.000000     0.000000     1.000000     0.000000     0.000000     0.250000     0.250000     0.250000
   26    -1.000000   120.000000    -0.577350    -0.577350    -0.577350     0.250000     0.250000     0.250000
   27    -1.000000   120.000000     0.577350     0.577350     0.577350     0.250000     0.250000     0.250000
   28     1.000000    90.000000     0.000000     0.000000    -1.000000     0.250000     0.250000     0.250000
   29     1.000000   180.000000     0.000000     0.707107     0.707107     0.250000     0.250000     0.250000
   30     1.000000    90.000000     0.000000     1.000000     0.000000     0.250000     0.250000     0.250000
   31    -1.000000   180.000000     0.000000     0.000000     1.000000     0.250000     0.250000     0.250000
   32    -1.000000   120.000000    -0.577350     0.577350     0.577350     0.250000     0.250000     0.250000
   33    -1.000000   120.000000    -0.577350     0.577350    -0.577350     0.250000     0.250000     0.250000
   34     1.000000    90.000000     0.000000     0.000000     1.000000     0.250000     0.250000     0.250000
   35     1.000000    90.000000    -1.000000     0.000000     0.000000     0.250000     0.250000     0.250000
   36     1.000000   180.000000     0.707107     0.000000     0.707107     0.250000     0.250000     0.250000
   37    -1.000000   120.000000     0.577350    -0.577350     0.577350     0.250000     0.250000     0.250000
   38    -1.000000   120.000000    -0.577350    -0.577350     0.577350     0.250000     0.250000     0.250000
   39    -1.000000   180.000000     1.000000     0.000000     0.000000     0.250000     0.250000     0.250000
   40     1.000000    90.000000     0.000000    -1.000000     0.000000     0.250000     0.250000     0.250000
   41     1.000000   180.000000     0.707107     0.707107     0.000000     0.250000     0.250000     0.250000
   42     1.000000    90.000000     1.000000     0.000000     0.000000     0.250000     0.250000     0.250000
   43    -1.000000   120.000000     0.577350    -0.577350    -0.577350     0.250000     0.250000     0.250000
   44    -1.000000   180.000000     0.000000     1.000000     0.000000     0.250000     0.250000     0.250000
   45    -1.000000   120.000000     0.577350     0.577350    -0.577350     0.250000     0.250000     0.250000
   46     1.000000   180.000000     0.000000    -0.707107     0.707107     0.250000     0.250000     0.250000
   47     1.000000   180.000000     0.707107    -0.707107     0.000000     0.250000     0.250000     0.250000
   48     1.000000   180.000000     0.707107     0.000000    -0.707107     0.250000     0.250000     0.250000


--------------------------------------------------------------------------------------------------------




 Dimension of arrays:
   k-points           NKPTS =    100   k-points in BZ     NKDIM =    100   number of bands    NBANDS=      8
   number of dos      NEDOS =    301   number of ions     NIONS =      2
   non local maximal  LDIM  =      4   non local SUM 2l+1 LMDIM =      8
   total plane-waves  NPLWV =  21952
   max r-space proj   IRMAX =      1   max aug-charges    IRDMAX=  17843
   dimension x,y,z NGX =    28 NGY =   28 NGZ =   28
   dimension x,y,z NGXF=    56 NGYF=   56 NGZF=   56
   support grid    NGXF=    56 NGYF=   56 NGZF=   56
   ions per type =               2
 NGX,Y,Z   is equivalent  to a cutoff of  11.97, 11.97, 11.97 a.u.
 NGXF,Y,Z  is equivalent  to a cutoff of  23.94, 23.94, 23.94 a.u.


 I would recommend the setting:
   dimension x,y,z NGX =    27 NGY =   27 NGZ =   27
 SYSTEM =  Si diamante                             
 POSCAR =  diamond Si                              

 Startparameter for this run:
   NWRITE =      2    write-flag & timer
   PREC   = accura    normal or accurate (medium, high low for compatibility)
   ISTART =      0    job   : 0-new  1-cont  2-samecut
   ICHARG =     11    charge: 1-file 2-atom 10-const
   ISPIN  =      1    spin polarized calculation?
   LNONCOLLINEAR =      F non collinear calculations
   LSORBIT =      F    spin-orbit coupling
   INIWAV =      1    electr: 0-lowe 1-rand  2-diag
   LASPH  =      F    aspherical Exc in radial PAW
   METAGGA=      F    non-selfconsistent MetaGGA calc.

 Electronic Relaxation 1
   ENCUT  =  450.0 eV  33.07 Ry    5.75 a.u.   6.73  6.73  6.73*2*pi/ulx,y,z
   ENINI  =  450.0     initial cutoff
   ENAUG  =  322.1 eV  augmentation charge cutoff
   NELM   =     60;   NELMIN=  2; NELMDL=  0     # of ELM steps 
   EDIFF  = 0.1E-03   stopping-criterion for ELM
   LREAL  =      F    real-space projection
   NLSPLINE    = F    spline interpolate recip. space projectors
   LCOMPAT=      F    compatible to vasp.4.4
   GGA_COMPAT  = T    GGA compatible to vasp.4.4-vasp.4.6
   LMAXPAW     = -100 max onsite density
   LMAXMIX     =    2 max onsite mixed and CHGCAR
   VOSKOWN=      0    Vosko Wilk Nusair interpolation
   ROPT   =    0.00000
 Ionic relaxation
   EDIFFG = 0.1E-02   stopping-criterion for IOM
   NSW    =      0    number of steps for IOM
   NBLOCK =      1;   KBLOCK =      1    inner block; outer block 
   IBRION =     -1    ionic relax: 0-MD 1-quasi-New 2-CG
   NFREE  =      0    steps in history (QN), initial steepest desc. (CG)
   ISIF   =      2    stress and relaxation
   IWAVPR =     10    prediction:  0-non 1-charg 2-wave 3-comb
   ISYM   =      2    0-nonsym 1-usesym 2-fastsym
   LCORR  =      T    Harris-Foulkes like correction to forces

   POTIM  = 0.5000    time-step for ionic-motion
   TEIN   =    0.0    initial temperature
   TEBEG  =    0.0;   TEEND  =   0.0 temperature during run
   SMASS  =  -3.00    Nose mass-parameter (am)
   estimated Nose-frequenzy (Omega)   =  0.10E-29 period in steps =****** mass=  -0.346E-27a.u.
   SCALEE = 1.0000    scale energy and forces
   NPACO  =    256;   APACO  = 16.0  distance and # of slots for P.C.
   PSTRESS=    0.0 pullay stress

  Mass of Ions in am
   POMASS =  28.09
  Ionic Valenz
   ZVAL   =   4.00
  Atomic Wigner-Seitz radii
   RWIGS  =  -1.00
  virtual crystal weights 
   VCA    =   1.00
   NELECT =       8.0000    total number of electrons
   NUPDOWN=      -1.0000    fix difference up-down

 DOS related values:
   EMIN   =  10.00;   EMAX   =-10.00  energy-range for DOS
   EFERMI =   0.00
   ISMEAR =     0;   SIGMA  =   0.10  broadening in eV -4-tet -1-fermi 0-gaus

 Electronic relaxation 2 (details)
   IALGO  =     38    algorithm
   LDIAG  =      T    sub-space diagonalisation (order eigenvalues)
   LSUBROT=      F    optimize rotation matrix (better conditioning)
   TURBO    =      0    0=normal 1=particle mesh
   IRESTART =      0    0=no restart 2=restart with 2 vectors
   NREBOOT  =      0    no. of reboots
   NMIN     =      0    reboot dimension
   EREF     =   0.00    reference energy to select bands
   IMIX   =      4    mixing-type and parameters
     AMIX     =   0.40;   BMIX     =  1.00
     AMIX_MAG =   1.60;   BMIX_MAG =  1.00
     AMIN     =   0.10
     WC   =   100.;   INIMIX=   1;  MIXPRE=   1;  MAXMIX= -45

 Intra band minimization:
   WEIMIN = 0.0000     energy-eigenvalue tresh-hold
   EBREAK =  0.31E-05  absolut break condition
   DEPER  =   0.30     relativ break condition  

   TIME   =   0.40     timestep for ELM

  volume/ion in A,a.u.               =      20.80       140.34
  Fermi-wavevector in a.u.,A,eV,Ry     =   0.944993  1.785779 12.150174  0.893013
  Thomas-Fermi vector in A             =   2.072852
 
 Write flags
   LWAVE  =      T    write WAVECAR
   LCHARG =      T    write CHGCAR
   LVTOT  =      F    write LOCPOT, total local potential
   LVHAR  =      F    write LOCPOT, Hartree potential only
   LELF   =      F    write electronic localiz. function (ELF)
   LORBIT =      0    0 simple, 1 ext, 2 COOP (PROOUT)


 Dipole corrections
   LMONO  =      F    monopole corrections only (constant potential shift)
   LDIPOL =      F    correct potential (dipole corrections)
   IDIPOL =      0    1-x, 2-y, 3-z, 4-all directions 
   EPSILON=  1.0000000 bulk dielectric constant

 Exchange correlation treatment:
   GGA     =    --    GGA type
   LEXCH   =     8    internal setting for exchange type
   VOSKOWN=      0    Vosko Wilk Nusair interpolation
   LHFCALC =     F    Hartree Fock is set to
   LHFONE  =     F    Hartree Fock one center treatment
   AEXX    =    0.0000 exact exchange contribution

 Linear response parameters
   LEPSILON=     F    determine dielectric tensor
   LRPA    =     F    only Hartree local field effects (RPA)
   LNABLA  =     F    use nabla operator in PAW spheres
   LVEL    =     F    velocity operator in full k-point grid
   LINTERFAST=   F  fast interpolation
   KINTER  =     0    interpolate to denser k-point grid
   CSHIFT  =0.1000    complex shift for real part using Kramers Kronig
   OMEGAMAX=  -1.0    maximum frequency
   DEG_THRESHOLD= 0.2000000E-02 threshold for treating states as degnerate
   RTIME   =    0.100 relaxation time in fs

 Orbital magnetization related:
   ORBITALMAG=     F  switch on orbital magnetization
   LCHIMAG   =     F  perturbation theory with respect to B field
   DQ        =  0.001000  dq finite difference perturbation B field



--------------------------------------------------------------------------------------------------------


 Static calculation
 charge density and potential remain constant during run
 non-spin polarized calculation
 Variant of blocked Davidson
 Davidson routine will perform the subspace rotation
 perform sub-space diagonalisation
    after iterative eigenvector-optimisation
 no mixing
 using additional bands            4
 reciprocal scheme for non local part
 use partial core corrections
 calculate Harris-corrections to forces 
   (improved forces if not selfconsistent)
 use gradient corrections 
 WARNING: stress and forces are not correct
  (second derivative of E(xc) not defined)
 use of overlap-Matrix (Vanderbilt PP)
 Gauss-broadening in eV      SIGMA  =   0.10


--------------------------------------------------------------------------------------------------------


  energy-cutoff  :      450.00
  volume of cell :       41.59
      direct lattice vectors                 reciprocal lattice vectors
     0.000000000  2.750000000  2.750000000    -0.181818182  0.181818182  0.181818182
     2.750000000  0.000000000  2.750000000     0.181818182 -0.181818182  0.181818182
     2.750000000  2.750000000  0.000000000     0.181818182  0.181818182 -0.181818182

  length of vectors
     3.889087297  3.889087297  3.889087297     0.314918329  0.314918329  0.314918329


 
 k-points in units of 2pi/SCALE and weight: kpoints for bandstructure W-L-G-X-W-K   
   1.00000000  0.50000000  0.00000000       0.010
   0.97368421  0.50000000  0.02631579       0.010
   0.94736842  0.50000000  0.05263158       0.010
   0.92105263  0.50000000  0.07894737       0.010
   0.89473684  0.50000000  0.10526316       0.010
   0.86842105  0.50000000  0.13157895       0.010
   0.84210526  0.50000000  0.15789474       0.010
   0.81578947  0.50000000  0.18421053       0.010
   0.78947368  0.50000000  0.21052632       0.010
   0.76315789  0.50000000  0.23684211       0.010
   0.73684211  0.50000000  0.26315789       0.010
   0.71052632  0.50000000  0.28947368       0.010
   0.68421053  0.50000000  0.31578947       0.010
   0.65789474  0.50000000  0.34210526       0.010
   0.63157895  0.50000000  0.36842105       0.010
   0.60526316  0.50000000  0.39473684       0.010
   0.57894737  0.50000000  0.42105263       0.010
   0.55263158  0.50000000  0.44736842       0.010
   0.52631579  0.50000000  0.47368421       0.010
   0.50000000  0.50000000  0.50000000       0.010
   0.50000000  0.50000000  0.50000000       0.010
   0.47368421  0.47368421  0.47368421       0.010
   0.44736842  0.44736842  0.44736842       0.010
   0.42105263  0.42105263  0.42105263       0.010
   0.39473684  0.39473684  0.39473684       0.010
   0.36842105  0.36842105  0.36842105       0.010
   0.34210526  0.34210526  0.34210526       0.010
   0.31578947  0.31578947  0.31578947       0.010
   0.28947368  0.28947368  0.28947368       0.010
   0.26315789  0.26315789  0.26315789       0.010
   0.23684211  0.23684211  0.23684211       0.010
   0.21052632  0.21052632  0.21052632       0.010
   0.18421053  0.18421053  0.18421053       0.010
   0.15789474  0.15789474  0.15789474       0.010
   0.13157895  0.13157895  0.13157895       0.010
   0.10526316  0.10526316  0.10526316       0.010
   0.07894737  0.07894737  0.07894737       0.010
   0.05263158  0.05263158  0.05263158       0.010
   0.02631579  0.02631579  0.02631579       0.010
   0.00000000  0.00000000  0.00000000       0.010
   0.00000000  0.00000000  0.00000000       0.010
   0.00000000  0.00000000  0.05263158       0.010
   0.00000000  0.00000000  0.10526316       0.010
   0.00000000  0.00000000  0.15789474       0.010
   0.00000000  0.00000000  0.21052632       0.010
   0.00000000  0.00000000  0.26315789       0.010
   0.00000000  0.00000000  0.31578947       0.010
   0.00000000  0.00000000  0.36842105       0.010
   0.00000000  0.00000000  0.42105263       0.010
   0.00000000  0.00000000  0.47368421       0.010
   0.00000000  0.00000000  0.52631579       0.010
   0.00000000  0.00000000  0.57894737       0.010
   0.00000000  0.00000000  0.63157895       0.010
   0.00000000  0.00000000  0.68421053       0.010
   0.00000000  0.00000000  0.73684211       0.010
   0.00000000  0.00000000  0.78947368       0.010
   0.00000000  0.00000000  0.84210526       0.010
   0.00000000  0.00000000  0.89473684       0.010
   0.00000000  0.00000000  0.94736842       0.010
   0.00000000  0.00000000  1.00000000       0.010
   0.00000000  0.00000000  1.00000000       0.010
  -0.00000000  0.02631579  1.00000000       0.010
   0.00000000  0.05263158  1.00000000       0.010
   0.00000000  0.07894737  1.00000000       0.010
   0.00000000  0.10526316  1.00000000       0.010
   0.00000000  0.13157895  1.00000000       0.010
  -0.00000000  0.15789474  1.00000000       0.010
   0.00000000  0.18421053  1.00000000       0.010
  -0.00000000  0.21052632  1.00000000       0.010
  -0.00000000  0.23684211  1.00000000       0.010
   0.00000000  0.26315789  1.00000000       0.010
   0.00000000  0.28947368  1.00000000       0.010
  -0.00000000  0.31578947  1.00000000       0.010
   0.00000000  0.34210526  1.00000000       0.010
  -0.00000000  0.36842105  1.00000000       0.010
  -0.00000000  0.39473684  1.00000000       0.010
  -0.00000000  0.42105263  1.00000000       0.010
   0.00000000  0.44736842  1.00000000       0.010
  -0.00000000  0.47368421  1.00000000       0.010
   0.00000000  0.50000000  1.00000000       0.010
   0.00000000  0.50000000  1.00000000       0.010
   0.00000000  0.51315789  0.98684211       0.010
   0.00000000  0.52631579  0.97368421       0.010
   0.00000000  0.53947368  0.96052632       0.010
   0.00000000  0.55263158  0.94736842       0.010
   0.00000000  0.56578947  0.93421053       0.010
   0.00000000  0.57894737  0.92105263       0.010
   0.00000000  0.59210526  0.90789474       0.010
   0.00000000  0.60526316  0.89473684       0.010
   0.00000000  0.61842105  0.88157895       0.010
   0.00000000  0.63157895  0.86842105       0.010
   0.00000000  0.64473684  0.85526316       0.010
   0.00000000  0.65789474  0.84210526       0.010
   0.00000000  0.67105263  0.82894737       0.010
   0.00000000  0.68421053  0.81578947       0.010
   0.00000000  0.69736842  0.80263158       0.010
   0.00000000  0.71052632  0.78947368       0.010
   0.00000000  0.72368421  0.77631579       0.010
   0.00000000  0.73684211  0.76315789       0.010
   0.00000000  0.75000000  0.75000000       0.010
 
 k-points in reciprocal lattice and weights: kpoints for bandstructure W-L-G-X-W-K   
   0.25000000  0.50000000  0.75000000       0.010
   0.26315789  0.50000000  0.73684211       0.010
   0.27631579  0.50000000  0.72368421       0.010
   0.28947368  0.50000000  0.71052632       0.010
   0.30263158  0.50000000  0.69736842       0.010
   0.31578947  0.50000000  0.68421053       0.010
   0.32894737  0.50000000  0.67105263       0.010
   0.34210526  0.50000000  0.65789474       0.010
   0.35526316  0.50000000  0.64473684       0.010
   0.36842105  0.50000000  0.63157895       0.010
   0.38157895  0.50000000  0.61842105       0.010
   0.39473684  0.50000000  0.60526316       0.010
   0.40789474  0.50000000  0.59210526       0.010
   0.42105263  0.50000000  0.57894737       0.010
   0.43421053  0.50000000  0.56578947       0.010
   0.44736842  0.50000000  0.55263158       0.010
   0.46052632  0.50000000  0.53947368       0.010
   0.47368421  0.50000000  0.52631579       0.010
   0.48684211  0.50000000  0.51315789       0.010
   0.50000000  0.50000000  0.50000000       0.010
   0.50000000  0.50000000  0.50000000       0.010
   0.47368421  0.47368421  0.47368421       0.010
   0.44736842  0.44736842  0.44736842       0.010
   0.42105263  0.42105263  0.42105263       0.010
   0.39473684  0.39473684  0.39473684       0.010
   0.36842105  0.36842105  0.36842105       0.010
   0.34210526  0.34210526  0.34210526       0.010
   0.31578947  0.31578947  0.31578947       0.010
   0.28947368  0.28947368  0.28947368       0.010
   0.26315789  0.26315789  0.26315789       0.010
   0.23684211  0.23684211  0.23684211       0.010
   0.21052632  0.21052632  0.21052632       0.010
   0.18421053  0.18421053  0.18421053       0.010
   0.15789474  0.15789474  0.15789474       0.010
   0.13157895  0.13157895  0.13157895       0.010
   0.10526316  0.10526316  0.10526316       0.010
   0.07894737  0.07894737  0.07894737       0.010
   0.05263158  0.05263158  0.05263158       0.010
   0.02631579  0.02631579  0.02631579       0.010
   0.00000000  0.00000000  0.00000000       0.010
   0.00000000  0.00000000  0.00000000       0.010
   0.02631579  0.02631579  0.00000000       0.010
   0.05263158  0.05263158  0.00000000       0.010
   0.07894737  0.07894737  0.00000000       0.010
   0.10526316  0.10526316  0.00000000       0.010
   0.13157895  0.13157895  0.00000000       0.010
   0.15789474  0.15789474  0.00000000       0.010
   0.18421053  0.18421053  0.00000000       0.010
   0.21052632  0.21052632  0.00000000       0.010
   0.23684211  0.23684211  0.00000000       0.010
   0.26315789  0.26315789  0.00000000       0.010
   0.28947368  0.28947368  0.00000000       0.010
   0.31578947  0.31578947  0.00000000       0.010
   0.34210526  0.34210526  0.00000000       0.010
   0.36842105  0.36842105  0.00000000       0.010
   0.39473684  0.39473684  0.00000000       0.010
   0.42105263  0.42105263  0.00000000       0.010
   0.44736842  0.44736842  0.00000000       0.010
   0.47368421  0.47368421  0.00000000       0.010
   0.50000000  0.50000000  0.00000000       0.010
   0.50000000  0.50000000  0.00000000       0.010
   0.51315789  0.50000000  0.01315789       0.010
   0.52631579  0.50000000  0.02631579       0.010
   0.53947368  0.50000000  0.03947368       0.010
   0.55263158  0.50000000  0.05263158       0.010
   0.56578947  0.50000000  0.06578947       0.010
   0.57894737  0.50000000  0.07894737       0.010
   0.59210526  0.50000000  0.09210526       0.010
   0.60526316  0.50000000  0.10526316       0.010
   0.61842105  0.50000000  0.11842105       0.010
   0.63157895  0.50000000  0.13157895       0.010
   0.64473684  0.50000000  0.14473684       0.010
   0.65789474  0.50000000  0.15789474       0.010
   0.67105263  0.50000000  0.17105263       0.010
   0.68421053  0.50000000  0.18421053       0.010
   0.69736842  0.50000000  0.19736842       0.010
   0.71052632  0.50000000  0.21052632       0.010
   0.72368421  0.50000000  0.22368421       0.010
   0.73684211  0.50000000  0.23684211       0.010
   0.75000000  0.50000000  0.25000000       0.010
   0.75000000  0.50000000  0.25000000       0.010
   0.75000000  0.49342105  0.25657895       0.010
   0.75000000  0.48684211  0.26315789       0.010
   0.75000000  0.48026316  0.26973684       0.010
   0.75000000  0.47368421  0.27631579       0.010
   0.75000000  0.46710526  0.28289474       0.010
   0.75000000  0.46052632  0.28947368       0.010
   0.75000000  0.45394737  0.29605263       0.010
   0.75000000  0.44736842  0.30263158       0.010
   0.75000000  0.44078947  0.30921053       0.010
   0.75000000  0.43421053  0.31578947       0.010
   0.75000000  0.42763158  0.32236842       0.010
   0.75000000  0.42105263  0.32894737       0.010
   0.75000000  0.41447368  0.33552632       0.010
   0.75000000  0.40789474  0.34210526       0.010
   0.75000000  0.40131579  0.34868421       0.010
   0.75000000  0.39473684  0.35526316       0.010
   0.75000000  0.38815789  0.36184211       0.010
   0.75000000  0.38157895  0.36842105       0.010
   0.75000000  0.37500000  0.37500000       0.010
 
 position of ions in fractional coordinates (direct lattice) 
   0.00000000  0.00000000  0.00000000
   0.25000000  0.25000000  0.25000000
 
 position of ions in cartesian coordinates  (Angst):
   0.00000000  0.00000000  0.00000000
   1.37500000  1.37500000  1.37500000
 


--------------------------------------------------------------------------------------------------------


 k-point  1 :   0.2500 0.5000 0.7500  plane waves:     892
 k-point  2 :   0.2632 0.5000 0.7368  plane waves:     892
 k-point  3 :   0.2763 0.5000 0.7237  plane waves:     898
 k-point  4 :   0.2895 0.5000 0.7105  plane waves:     902
 k-point  5 :   0.3026 0.5000 0.6974  plane waves:     902
 k-point  6 :   0.3158 0.5000 0.6842  plane waves:     902
 k-point  7 :   0.3289 0.5000 0.6711  plane waves:     902
 k-point  8 :   0.3421 0.5000 0.6579  plane waves:     898
 k-point  9 :   0.3553 0.5000 0.6447  plane waves:     896
 k-point 10 :   0.3684 0.5000 0.6316  plane waves:     890
 k-point 11 :   0.3816 0.5000 0.6184  plane waves:     890
 k-point 12 :   0.3947 0.5000 0.6053  plane waves:     896
 k-point 13 :   0.4079 0.5000 0.5921  plane waves:     900
 k-point 14 :   0.4211 0.5000 0.5789  plane waves:     902
 k-point 15 :   0.4342 0.5000 0.5658  plane waves:     900
 k-point 16 :   0.4474 0.5000 0.5526  plane waves:     896
 k-point 17 :   0.4605 0.5000 0.5395  plane waves:     894
 k-point 18 :   0.4737 0.5000 0.5263  plane waves:     896
 k-point 19 :   0.4868 0.5000 0.5132  plane waves:     894
 k-point 20 :   0.5000 0.5000 0.5000  plane waves:     886
 k-point 21 :   0.5000 0.5000 0.5000  plane waves:     886
 k-point 22 :   0.4737 0.4737 0.4737  plane waves:     899
 k-point 23 :   0.4474 0.4474 0.4474  plane waves:     899
 k-point 24 :   0.4211 0.4211 0.4211  plane waves:     893
 k-point 25 :   0.3947 0.3947 0.3947  plane waves:     899
 k-point 26 :   0.3684 0.3684 0.3684  plane waves:     905
 k-point 27 :   0.3421 0.3421 0.3421  plane waves:     899
 k-point 28 :   0.3158 0.3158 0.3158  plane waves:     899
 k-point 29 :   0.2895 0.2895 0.2895  plane waves:     899
 k-point 30 :   0.2632 0.2632 0.2632  plane waves:     905
 k-point 31 :   0.2368 0.2368 0.2368  plane waves:     908
 k-point 32 :   0.2105 0.2105 0.2105  plane waves:     914
 k-point 33 :   0.1842 0.1842 0.1842  plane waves:     914
 k-point 34 :   0.1579 0.1579 0.1579  plane waves:     911
 k-point 35 :   0.1316 0.1316 0.1316  plane waves:     914
 k-point 36 :   0.1053 0.1053 0.1053  plane waves:     914
 k-point 37 :   0.0789 0.0789 0.0789  plane waves:     914
 k-point 38 :   0.0526 0.0526 0.0526  plane waves:     917
 k-point 39 :   0.0263 0.0263 0.0263  plane waves:     905
 k-point 40 :   0.0000 0.0000 0.0000  plane waves:     893
 k-point 41 :   0.0000 0.0000 0.0000  plane waves:     893
 k-point 42 :   0.0263 0.0263 0.0000  plane waves:     901
 k-point 43 :   0.0526 0.0526 0.0000  plane waves:     909
 k-point 44 :   0.0789 0.0789 0.0000  plane waves:     909
 k-point 45 :   0.1053 0.1053 0.0000  plane waves:     901
 k-point 46 :   0.1316 0.1316 0.0000  plane waves:     901
 k-point 47 :   0.1579 0.1579 0.0000  plane waves:     905
 k-point 48 :   0.1842 0.1842 0.0000  plane waves:     909
 k-point 49 :   0.2105 0.2105 0.0000  plane waves:     897
 k-point 50 :   0.2368 0.2368 0.0000  plane waves:     897
 k-point 51 :   0.2632 0.2632 0.0000  plane waves:     894
 k-point 52 :   0.2895 0.2895 0.0000  plane waves:     894
 k-point 53 :   0.3158 0.3158 0.0000  plane waves:     894
 k-point 54 :   0.3421 0.3421 0.0000  plane waves:     906
 k-point 55 :   0.3684 0.3684 0.0000  plane waves:     902
 k-point 56 :   0.3947 0.3947 0.0000  plane waves:     902
 k-point 57 :   0.4211 0.4211 0.0000  plane waves:     902
 k-point 58 :   0.4474 0.4474 0.0000  plane waves:     914
 k-point 59 :   0.4737 0.4737 0.0000  plane waves:     926
 k-point 60 :   0.5000 0.5000 0.0000  plane waves:     934
 k-point 61 :   0.5000 0.5000 0.0000  plane waves:     934
 k-point 62 :   0.5132 0.5000 0.0132  plane waves:     934
 k-point 63 :   0.5263 0.5000 0.0263  plane waves:     920
 k-point 64 :   0.5395 0.5000 0.0395  plane waves:     920
 k-point 65 :   0.5526 0.5000 0.0526  plane waves:     912
 k-point 66 :   0.5658 0.5000 0.0658  plane waves:     908
 k-point 67 :   0.5789 0.5000 0.0789  plane waves:     912
 k-point 68 :   0.5921 0.5000 0.0921  plane waves:     908
 k-point 69 :   0.6053 0.5000 0.1053  plane waves:     912
 k-point 70 :   0.6184 0.5000 0.1184  plane waves:     908
 k-point 71 :   0.6316 0.5000 0.1316  plane waves:     908
 k-point 72 :   0.6447 0.5000 0.1447  plane waves:     908
 k-point 73 :   0.6579 0.5000 0.1579  plane waves:     904
 k-point 74 :   0.6711 0.5000 0.1711  plane waves:     904
 k-point 75 :   0.6842 0.5000 0.1842  plane waves:     896
 k-point 76 :   0.6974 0.5000 0.1974  plane waves:     896
 k-point 77 :   0.7105 0.5000 0.2105  plane waves:     896
 k-point 78 :   0.7237 0.5000 0.2237  plane waves:     894
 k-point 79 :   0.7368 0.5000 0.2368  plane waves:     892
 k-point 80 :   0.7500 0.5000 0.2500  plane waves:     892
 k-point 81 :   0.7500 0.5000 0.2500  plane waves:     892
 k-point 82 :   0.7500 0.4934 0.2566  plane waves:     892
 k-point 83 :   0.7500 0.4868 0.2632  plane waves:     892
 k-point 84 :   0.7500 0.4803 0.2697  plane waves:     895
 k-point 85 :   0.7500 0.4737 0.2763  plane waves:     898
 k-point 86 :   0.7500 0.4671 0.2829  plane waves:     904
 k-point 87 :   0.7500 0.4605 0.2895  plane waves:     904
 k-point 88 :   0.7500 0.4539 0.2961  plane waves:     904
 k-point 89 :   0.7500 0.4474 0.3026  plane waves:     904
 k-point 90 :   0.7500 0.4408 0.3092  plane waves:     905
 k-point 91 :   0.7500 0.4342 0.3158  plane waves:     905
 k-point 92 :   0.7500 0.4276 0.3224  plane waves:     904
 k-point 93 :   0.7500 0.4211 0.3289  plane waves:     904
 k-point 94 :   0.7500 0.4145 0.3355  plane waves:     904
 k-point 95 :   0.7500 0.4079 0.3421  plane waves:     904
 k-point 96 :   0.7500 0.4013 0.3487  plane waves:     906
 k-point 97 :   0.7500 0.3947 0.3553  plane waves:     906
 k-point 98 :   0.7500 0.3882 0.3618  plane waves:     904
 k-point 99 :   0.7500 0.3816 0.3684  plane waves:     902
 k-point ** :   0.7500 0.3750 0.3750  plane waves:     902

 maximum and minimum number of plane-waves per node :       934      886

 maximum number of plane-waves:       934
 maximum index in each direction: 
   IXMAX=    6   IYMAX=    6   IZMAX=    6
   IXMIN=   -7   IYMIN=   -7   IZMIN=   -7

 NGX is ok and might be reduce to  28
 NGY is ok and might be reduce to  28
 NGZ is ok and might be reduce to  28

 serial   3D FFT for wavefunctions
 parallel 3D FFT for charge:
    minimum data exchange during FFTs selected (reduces bandwidth)


 total amount of memory used by VASP on root node    43739. kBytes
========================================================================

   base      :      30000. kBytes
   nonl-proj :       6020. kBytes
   fftplans  :       1619. kBytes
   grid      :       3048. kBytes
   one-center:          6. kBytes
   wavefun   :       3046. kBytes
 
     INWAV:  cpu time    0.0010: real time    0.0000
 initial charge density was supplied:
 number of electron       7.9999999 magnetization 
 keeping initial charge density in first step


--------------------------------------------------------------------------------------------------------


 Maximum index for augmentation-charges         4275 (set IRDMAX)


--------------------------------------------------------------------------------------------------------


 First call to EWALD:  gamma=   0.512
 Maximum number of real-space cells 3x 3x 3
 Maximum number of reciprocal cells 3x 3x 3

 FEWALD executed in parallel
    FEWALD:  cpu time    0.0020: real time    0.0010


----------------------------------------- Iteration    1(   1)  ---------------------------------------


    POTLOK:  cpu time    0.1160: real time    0.0701
    SETDIJ:  cpu time    0.0130: real time    0.0060
     EDDAV:  cpu time    5.1542: real time    3.2157
       DOS:  cpu time    0.0040: real time    0.0018
    --------------------------------------------
      LOOP:  cpu time    5.2902: real time    3.2959

 eigenvalue-minimisations  :  1600
 total energy-change (2. order) : 0.6038403E+01  (-0.3065270E+03)
 number of electron       7.9999999 magnetization 
 augmentation part        7.9999999 magnetization 

 Free energy of the ion-electron system (eV)
  ---------------------------------------------------
  alpha Z        PSCENC =         3.23732588
  Ewald energy   TEWEN  =      -225.65453461
  -Hartree energ DENC   =       -15.37331520
  -exchange      EXHF   =         0.00000000
  -V(xc)+E(xc)   XCENC  =       -18.13770262
  PAW double counting   =       800.87287296     -765.87716001
  entropy T*S    EENTRO =        -0.00340016
  eigenvalues    EBANDS =        20.84238930
  atomic energy  EATOM  =       206.13192747
  Solvation  Ediel_sol  =         0.00000000
  ---------------------------------------------------
  free energy    TOTEN  =         6.03840301 eV

  energy without entropy =        6.04180317  energy(sigma->0) =        6.04010309


--------------------------------------------------------------------------------------------------------




----------------------------------------- Iteration    1(   2)  ---------------------------------------


     EDDAV:  cpu time    7.0679: real time    4.5777
       DOS:  cpu time    0.0020: real time    0.0012
    --------------------------------------------
      LOOP:  cpu time    7.0729: real time    4.5812

 eigenvalue-minimisations  :  2448
 total energy-change (2. order) :-0.1599632E+02  (-0.1546404E+02)
 number of electron       7.9999999 magnetization 
 augmentation part        7.9999999 magnetization 

 Free energy of the ion-electron system (eV)
  ---------------------------------------------------
  alpha Z        PSCENC =         3.23732588
  Ewald energy   TEWEN  =      -225.65453461
  -Hartree energ DENC   =       -15.37331520
  -exchange      EXHF   =         0.00000000
  -V(xc)+E(xc)   XCENC  =       -18.13770262
  PAW double counting   =       800.87287296     -765.87716001
  entropy T*S    EENTRO =        -0.00000030
  eigenvalues    EBANDS =         4.84266575
  atomic energy  EATOM  =       206.13192747
  Solvation  Ediel_sol  =         0.00000000
  ---------------------------------------------------
  free energy    TOTEN  =        -9.95792068 eV

  energy without entropy =       -9.95792038  energy(sigma->0) =       -9.95792053


--------------------------------------------------------------------------------------------------------




----------------------------------------- Iteration    1(   3)  ---------------------------------------


     EDDAV:  cpu time    6.3440: real time    4.0205
       DOS:  cpu time    0.0030: real time    0.0014
    --------------------------------------------
      LOOP:  cpu time    6.3500: real time    4.0246

 eigenvalue-minimisations  :  2064
 total energy-change (2. order) :-0.2448439E+00  (-0.2448439E+00)
 number of electron       7.9999999 magnetization 
 augmentation part        7.9999999 magnetization 

 Free energy of the ion-electron system (eV)
  ---------------------------------------------------
  alpha Z        PSCENC =         3.23732588
  Ewald energy   TEWEN  =      -225.65453461
  -Hartree energ DENC   =       -15.37331520
  -exchange      EXHF   =         0.00000000
  -V(xc)+E(xc)   XCENC  =       -18.13770262
  PAW double counting   =       800.87287296     -765.87716001
  entropy T*S    EENTRO =        -0.00000014
  eigenvalues    EBANDS =         4.59782165
  atomic energy  EATOM  =       206.13192747
  Solvation  Ediel_sol  =         0.00000000
  ---------------------------------------------------
  free energy    TOTEN  =       -10.20276463 eV

  energy without entropy =      -10.20276448  energy(sigma->0) =      -10.20276455


--------------------------------------------------------------------------------------------------------




----------------------------------------- Iteration    1(   4)  ---------------------------------------


     EDDAV:  cpu time    7.7928: real time    4.7933
       DOS:  cpu time    0.0030: real time    0.0014
    --------------------------------------------
      LOOP:  cpu time    7.8008: real time    4.7975

 eigenvalue-minimisations  :  2528
 total energy-change (2. order) :-0.1134113E-02  (-0.1134113E-02)
 number of electron       7.9999999 magnetization 
 augmentation part        7.9999999 magnetization 

 Free energy of the ion-electron system (eV)
  ---------------------------------------------------
  alpha Z        PSCENC =         3.23732588
  Ewald energy   TEWEN  =      -225.65453461
  -Hartree energ DENC   =       -15.37331520
  -exchange      EXHF   =         0.00000000
  -V(xc)+E(xc)   XCENC  =       -18.13770262
  PAW double counting   =       800.87287296     -765.87716001
  entropy T*S    EENTRO =        -0.00000014
  eigenvalues    EBANDS =         4.59668754
  atomic energy  EATOM  =       206.13192747
  Solvation  Ediel_sol  =         0.00000000
  ---------------------------------------------------
  free energy    TOTEN  =       -10.20389874 eV

  energy without entropy =      -10.20389860  energy(sigma->0) =      -10.20389867


--------------------------------------------------------------------------------------------------------




----------------------------------------- Iteration    1(   5)  ---------------------------------------


     EDDAV:  cpu time    6.4650: real time    4.0210
       DOS:  cpu time    0.0030: real time    0.0012
    --------------------------------------------
      LOOP:  cpu time    6.4740: real time    4.0252

 eigenvalue-minimisations  :  2032
 total energy-change (2. order) :-0.3030562E-05  (-0.3030031E-05)
 number of electron       7.9999999 magnetization 
 augmentation part        7.9999999 magnetization 

 Free energy of the ion-electron system (eV)
  ---------------------------------------------------
  alpha Z        PSCENC =         3.23732588
  Ewald energy   TEWEN  =      -225.65453461
  -Hartree energ DENC   =       -15.37331520
  -exchange      EXHF   =         0.00000000
  -V(xc)+E(xc)   XCENC  =       -18.13770262
  PAW double counting   =       800.87287296     -765.87716001
  entropy T*S    EENTRO =        -0.00000014
  eigenvalues    EBANDS =         4.59668451
  atomic energy  EATOM  =       206.13192747
  Solvation  Ediel_sol  =         0.00000000
  ---------------------------------------------------
  free energy    TOTEN  =       -10.20390177 eV

  energy without entropy =      -10.20390163  energy(sigma->0) =      -10.20390170


--------------------------------------------------------------------------------------------------------




----------------------------------------- Iteration    1(   6)  ---------------------------------------


     EDDAV:  cpu time    7.1109: real time    4.4556
       DOS:  cpu time    0.0020: real time    0.0011
    --------------------------------------------
      LOOP:  cpu time    7.1189: real time    4.4599

 eigenvalue-minimisations  :  2160
 total energy-change (2. order) :-0.3538310E-07  (-0.3515725E-07)
 number of electron       7.9999999 magnetization 
 augmentation part        7.9999999 magnetization 

 Free energy of the ion-electron system (eV)
  ---------------------------------------------------
  alpha Z        PSCENC =         3.23732588
  Ewald energy   TEWEN  =      -225.65453461
  -Hartree energ DENC   =       -15.37331520
  -exchange      EXHF   =         0.00000000
  -V(xc)+E(xc)   XCENC  =       -18.13770262
  PAW double counting   =       800.87287296     -765.87716001
  entropy T*S    EENTRO =        -0.00000014
  eigenvalues    EBANDS =         4.59668447
  atomic energy  EATOM  =       206.13192747
  Solvation  Ediel_sol  =         0.00000000
  ---------------------------------------------------
  free energy    TOTEN  =       -10.20390181 eV

  energy without entropy =      -10.20390166  energy(sigma->0) =      -10.20390173


--------------------------------------------------------------------------------------------------------




 average (electrostatic) potential at core
  the test charge radii are     0.9892
  (the norm of the test charge is              1.0000)
       1 -83.6718       2 -83.6718
 
 
 
 E-fermi :   5.7766     XC(G=0):  -9.2613     alpha+bet :-11.5327


 k-point     1 :       0.2500    0.5000    0.7500
  band No.  band energies     occupation 
      1      -2.0984      2.00000
      2      -2.0984      2.00000
      3       1.7567      2.00000
      4       1.7567      2.00000
      5       9.7186      0.00000
      6       9.7186      0.00000
      7      10.3179      0.00000
      8      10.3179      0.00000

 k-point     2 :       0.2632    0.5000    0.7368
  band No.  band energies     occupation 
      1      -2.2659      2.00000
      2      -1.9338      2.00000
      3       1.6441      2.00000
      4       1.8898      2.00000
      5       9.5690      0.00000
      6       9.7746      0.00000
      7      10.2569      0.00000
      8      10.4968      0.00000

 k-point     3 :       0.2763    0.5000    0.7237
  band No.  band energies     occupation 
      1      -2.4330      2.00000
      2      -1.7760      2.00000
      3       1.5566      2.00000
      4       2.0393      2.00000
      5       9.4040      0.00000
      6       9.6732      0.00000
      7      10.3773      0.00000
      8      10.7156      0.00000

 k-point     4 :       0.2895    0.5000    0.7105
  band No.  band energies     occupation 
      1      -2.5972      2.00000
      2      -1.6296      2.00000
      3       1.4992      2.00000
      4       2.2019      2.00000
      5       9.2451      0.00000
      6       9.5076      0.00000
      7      10.5854      0.00000
      8      10.9531      0.00000

 k-point     5 :       0.3026    0.5000    0.6974
  band No.  band energies     occupation 
      1      -2.7567      2.00000
      2      -1.4998      2.00000
      3       1.4773      2.00000
      4       2.3745      2.00000
      5       9.0986      0.00000
      6       9.3307      0.00000
      7      10.8280      0.00000
      8      11.2029      0.00000

 k-point     6 :       0.3158    0.5000    0.6842
  band No.  band energies     occupation 
      1      -2.9097      2.00000
      2      -1.3913      2.00000
      3       1.4957      2.00000
      4       2.5540      2.00000
      5       8.9675      0.00000
      6       9.1554      0.00000
      7      11.0915      0.00000
      8      11.4620      0.00000

 k-point     7 :       0.3289    0.5000    0.6711
  band No.  band energies     occupation 
      1      -3.0553      2.00000
      2      -1.3075      2.00000
      3       1.5579      2.00000
      4       2.7378      2.00000
      5       8.8534      0.00000
      6       8.9853      0.00000
      7      11.3709      0.00000
      8      11.7284      0.00000

 k-point     8 :       0.3421    0.5000    0.6579
  band No.  band energies     occupation 
      1      -3.1924      2.00000
      2      -1.2493      2.00000
      3       1.6646      2.00000
      4       2.9230      2.00000
      5       8.7576      0.00000
      6       8.8213      0.00000
      7      11.6625      0.00000
      8      12.0002      0.00000

 k-point     9 :       0.3553    0.5000    0.6447
  band No.  band energies     occupation 
      1      -3.3203      2.00000
      2      -1.2151      2.00000
      3       1.8139      2.00000
      4       3.1068      2.00000
      5       8.6630      0.00000
      6       8.6812      0.00000
      7      11.8991      0.00000
      8      12.0657      0.00000

 k-point    10 :       0.3684    0.5000    0.6316
  band No.  band energies     occupation 
      1      -3.4385      2.00000
      2      -1.2014      2.00000
      3       2.0014      2.00000
      4       3.2862      2.00000
      5       8.5089      0.00000
      6       8.6248      0.00000
      7      11.4788      0.00000
      8      12.3379      0.00000

 k-point    11 :       0.3816    0.5000    0.6184
  band No.  band energies     occupation 
      1      -3.5465      2.00000
      2      -1.2033      2.00000
      3       2.2216      2.00000
      4       3.4582      2.00000
      5       8.3569      0.00000
      6       8.5889      0.00000
      7      11.0057      0.00000
      8      12.6460      0.00000

 k-point    12 :       0.3947    0.5000    0.6053
  band No.  band energies     occupation 
      1      -3.6439      2.00000
      2      -1.2161      2.00000
      3       2.4681      2.00000
      4       3.6198      2.00000
      5       8.2031      0.00000
      6       8.5734      0.00000
      7      10.5562      0.00000
      8      12.9905      0.00000

 k-point    13 :       0.4079    0.5000    0.5921
  band No.  band energies     occupation 
      1      -3.7304      2.00000
      2      -1.2355      2.00000
      3       2.7346      2.00000
      4       3.7683      2.00000
      5       8.0425      0.00000
      6       8.5774      0.00000
      7      10.1410      0.00000
      8      13.2837      0.00000

 k-point    14 :       0.4211    0.5000    0.5789
  band No.  band energies     occupation 
      1      -3.8058      2.00000
      2      -1.2580      2.00000
      3       3.0144      2.00000
      4       3.9011      2.00000
      5       7.8689      0.00000
      6       8.5987      0.00000
      7       9.7707      0.00000
      8      13.4083      0.00000

 k-point    15 :       0.4342    0.5000    0.5658
  band No.  band energies     occupation 
      1      -3.8699      2.00000
      2      -1.2808      2.00000
      3       3.3000      2.00000
      4       4.0161      2.00000
      5       7.6771      0.00000
      6       8.6339      0.00000
      7       9.4563      0.00000
      8      13.4525      0.00000

 k-point    16 :       0.4474    0.5000    0.5526
  band No.  band energies     occupation 
      1      -3.9225      2.00000
      2      -1.3019      2.00000
      3       3.5814      2.00000
      4       4.1116      2.00000
      5       7.4672      0.00000
      6       8.6779      0.00000
      7       9.2059      0.00000
      8      13.4088      0.00000

 k-point    17 :       0.4605    0.5000    0.5395
  band No.  band energies     occupation 
      1      -3.9636      2.00000
      2      -1.3197      2.00000
      3       3.8449      2.00000
      4       4.1866      2.00000
      5       7.2507      0.00000
      6       8.7240      0.00000
      7       9.0209      0.00000
      8      13.3162      0.00000

 k-point    18 :       0.4737    0.5000    0.5263
  band No.  band energies     occupation 
      1      -3.9930      2.00000
      2      -1.3332      2.00000
      3       4.0696      2.00000
      4       4.2404      2.00000
      5       7.0521      0.00000
      6       8.7648      0.00000
      7       8.8966      0.00000
      8      13.2197      0.00000

 k-point    19 :       0.4868    0.5000    0.5132
  band No.  band energies     occupation 
      1      -4.0106      2.00000
      2      -1.3415      2.00000
      3       4.2264      2.00000
      4       4.2728      2.00000
      5       6.9075      0.00000
      6       8.7929      0.00000
      7       8.8258      0.00000
      8      13.1505      0.00000

 k-point    20 :       0.5000    0.5000    0.5000
  band No.  band energies     occupation 
      1      -4.0165      2.00000
      2      -1.3443      2.00000
      3       4.2836      2.00000
      4       4.2836      2.00000
      5       6.8536      0.00000
      6       8.8030      0.00000
      7       8.8030      0.00000
      8      13.1256      0.00000

 k-point    21 :       0.5000    0.5000    0.5000
  band No.  band energies     occupation 
      1      -4.0165      2.00000
      2      -1.3443      2.00000
      3       4.2836      2.00000
      4       4.2836      2.00000
      5       6.8536      0.00000
      6       8.8030      0.00000
      7       8.8030      0.00000
      8      13.1256      0.00000

 k-point    22 :       0.4737    0.4737    0.4737
  band No.  band energies     occupation 
      1      -4.0532      2.00000
      2      -1.2910      2.00000
      3       4.2885      2.00000
      4       4.2885      2.00000
      5       6.8593      0.00000
      6       8.8081      0.00000
      7       8.8081      0.00000
      8      13.1335      0.00000

 k-point    23 :       0.4474    0.4474    0.4474
  band No.  band energies     occupation 
      1      -4.1551      2.00000
      2      -1.1392      2.00000
      3       4.3031      2.00000
      4       4.3031      2.00000
      5       6.8765      0.00000
      6       8.8232      0.00000
      7       8.8232      0.00000
      8      13.1562      0.00000

 k-point    24 :       0.4211    0.4211    0.4211
  band No.  band energies     occupation 
      1      -4.3037      2.00000
      2      -0.9075      2.00000
      3       4.3274      2.00000
      4       4.3274      2.00000
      5       6.9050      0.00000
      6       8.8467      0.00000
      7       8.8467      0.00000
      8      13.1900      0.00000

 k-point    25 :       0.3947    0.3947    0.3947
  band No.  band energies     occupation 
      1      -4.4798      2.00000
      2      -0.6154      2.00000
      3       4.3615      2.00000
      4       4.3615      2.00000
      5       6.9447      0.00000
      6       8.8763      0.00000
      7       8.8763      0.00000
      8      13.2262      0.00000

 k-point    26 :       0.3684    0.3684    0.3684
  band No.  band energies     occupation 
      1      -4.6689      2.00000
      2      -0.2776      2.00000
      3       4.4051      2.00000
      4       4.4051      2.00000
      5       6.9954      0.00000
      6       8.9084      0.00000
      7       8.9084      0.00000
      8      13.2441      0.00000

 k-point    27 :       0.3421    0.3421    0.3421
  band No.  band energies     occupation 
      1      -4.8610      2.00000
      2       0.0952      2.00000
      3       4.4581      2.00000
      4       4.4581      2.00000
      5       7.0568      0.00000
      6       8.9378      0.00000
      7       8.9378      0.00000
      8      13.2000      0.00000

 k-point    28 :       0.3158    0.3158    0.3158
  band No.  band energies     occupation 
      1      -5.0495      2.00000
      2       0.4961      2.00000
      3       4.5203      2.00000
      4       4.5203      2.00000
      5       7.1283      0.00000
      6       8.9584      0.00000
      7       8.9584      0.00000
      8      13.0207      0.00000

 k-point    29 :       0.2895    0.2895    0.2895
  band No.  band energies     occupation 
      1      -5.2301      2.00000
      2       0.9199      2.00000
      3       4.5912      2.00000
      4       4.5912      2.00000
      5       7.2093      0.00000
      6       8.9627      0.00000
      7       8.9627      0.00000
      8      12.7112      0.00000

 k-point    30 :       0.2632    0.2632    0.2632
  band No.  band energies     occupation 
      1      -5.3999      2.00000
      2       1.3626      2.00000
      3       4.6704      2.00000
      4       4.6704      2.00000
      5       7.2988      0.00000
      6       8.9433      0.00000
      7       8.9433      0.00000
      8      12.2787      0.00000

 k-point    31 :       0.2368    0.2368    0.2368
  band No.  band energies     occupation 
      1      -5.5569      2.00000
      2       1.8211      2.00000
      3       4.7570      2.00000
      4       4.7570      2.00000
      5       7.3957      0.00000
      6       8.8945      0.00000
      7       8.8945      0.00000
      8      11.8337      0.00000

 k-point    32 :       0.2105    0.2105    0.2105
  band No.  band energies     occupation 
      1      -5.6997      2.00000
      2       2.2921      2.00000
      3       4.8497      2.00000
      4       4.8497      2.00000
      5       7.4981      0.00000
      6       8.8145      0.00000
      7       8.8145      0.00000
      8      11.3713      0.00000

 k-point    33 :       0.1842    0.1842    0.1842
  band No.  band energies     occupation 
      1      -5.8273      2.00000
      2       2.7720      2.00000
      3       4.9470      2.00000
      4       4.9470      2.00000
      5       7.6038      0.00000
      6       8.7065      0.00000
      7       8.7065      0.00000
      8      10.8999      0.00000

 k-point    34 :       0.1579    0.1579    0.1579
  band No.  band energies     occupation 
      1      -5.9391      2.00000
      2       3.2567      2.00000
      3       5.0466      2.00000
      4       5.0466      2.00000
      5       7.7097      0.00000
      6       8.5781      0.00000
      7       8.5781      0.00000
      8      10.4252      0.00000

 k-point    35 :       0.1316    0.1316    0.1316
  band No.  band energies     occupation 
      1      -6.0343      2.00000
      2       3.7401      2.00000
      3       5.1453      2.00000
      4       5.1453      2.00000
      5       7.8115      0.00000
      6       8.4398      0.00000
      7       8.4398      0.00000
      8       9.9529      0.00000

 k-point    36 :       0.1053    0.1053    0.1053
  band No.  band energies     occupation 
      1      -6.1127      2.00000
      2       4.2130      2.00000
      3       5.2389      2.00000
      4       5.2389      2.00000
      5       7.9036      0.00000
      6       8.3033      0.00000
      7       8.3033      0.00000
      8       9.4927      0.00000

 k-point    37 :       0.0789    0.0789    0.0789
  band No.  band energies     occupation 
      1      -6.1739      2.00000
      2       4.6596      2.00000
      3       5.3221      2.00000
      4       5.3221      2.00000
      5       7.9780      0.00000
      6       8.1804      0.00000
      7       8.1804      0.00000
      8       9.0624      0.00000

 k-point    38 :       0.0526    0.0526    0.0526
  band No.  band energies     occupation 
      1      -6.2178      2.00000
      2       5.0516      2.00000
      3       5.3885      2.00000
      4       5.3885      2.00000
      5       8.0217      0.00000
      6       8.0822      0.00000
      7       8.0822      0.00000
      8       8.6971      0.00000

 k-point    39 :       0.0263    0.0263    0.0263
  band No.  band energies     occupation 
      1      -6.2442      2.00000
      2       5.3379      2.00000
      3       5.4318      2.00000
      4       5.4318      2.00000
      5       8.0177      0.00000
      6       8.0186      0.00000
      7       8.0186      0.00000
      8       8.4596      0.00000

 k-point    40 :       0.0000    0.0000    0.0000
  band No.  band energies     occupation 
      1      -6.2530      2.00000
      2       5.4469      2.00000
      3       5.4469      2.00000
      4       5.4469      2.00000
      5       7.9965      0.00000
      6       7.9965      0.00000
      7       7.9965      0.00000
      8       8.3872      0.00000

 k-point    41 :       0.0000    0.0000    0.0000
  band No.  band energies     occupation 
      1      -6.2530      2.00000
      2       5.4469      2.00000
      3       5.4469      2.00000
      4       5.4469      2.00000
      5       7.9965      0.00000
      6       7.9965      0.00000
      7       7.9965      0.00000
      8       8.3872      0.00000

 k-point    42 :       0.0263    0.0263    0.0000
  band No.  band energies     occupation 
      1      -6.2413      2.00000
      2       5.3587      2.00000
      3       5.3978      2.00000
      4       5.3978      2.00000
      5       7.9675      0.00000
      6       8.0601      0.00000
      7       8.0601      0.00000
      8       8.4736      0.00000

 k-point    43 :       0.0526    0.0526    0.0000
  band No.  band energies     occupation 
      1      -6.2061      2.00000
      2       5.1209      2.00000
      3       5.2637      2.00000
      4       5.2637      2.00000
      5       7.8842      0.00000
      6       8.2376      0.00000
      7       8.2376      0.00000
      8       8.7026      0.00000

 k-point    44 :       0.0789    0.0789    0.0000
  band No.  band energies     occupation 
      1      -6.1474      2.00000
      2       4.7853      2.00000
      3       5.0728      2.00000
      4       5.0728      2.00000
      5       7.7564      0.00000
      6       8.5006      0.00000
      7       8.5006      0.00000
      8       9.0102      0.00000

 k-point    45 :       0.1053    0.1053    0.0000
  band No.  band energies     occupation 
      1      -6.0655      2.00000
      2       4.3930      2.00000
      3       4.8511      2.00000
      4       4.8511      2.00000
      5       7.5968      0.00000
      6       8.8227      0.00000
      7       8.8227      0.00000
      8       9.3257      0.00000

 k-point    46 :       0.1316    0.1316    0.0000
  band No.  band energies     occupation 
      1      -5.9604      2.00000
      2       3.9690      2.00000
      3       4.6167      2.00000
      4       4.6167      2.00000
      5       7.4178      0.00000
      6       9.1854      0.00000
      7       9.1854      0.00000
      8       9.5609      0.00000

 k-point    47 :       0.1579    0.1579    0.0000
  band No.  band energies     occupation 
      1      -5.8323      2.00000
      2       3.5268      2.00000
      3       4.3811      2.00000
      4       4.3811      2.00000
      5       7.2303      0.00000
      6       9.5767      0.00000
      7       9.5767      0.00000
      8       9.6088      0.00000

 k-point    48 :       0.1842    0.1842    0.0000
  band No.  band energies     occupation 
      1      -5.6814      2.00000
      2       3.0744      2.00000
      3       4.1514      2.00000
      4       4.1514      2.00000
      5       7.0428      0.00000
      6       9.4375      0.00000
      7       9.9888      0.00000
      8       9.9888      0.00000

 k-point    49 :       0.2105    0.2105    0.0000
  band No.  band energies     occupation 
      1      -5.5080      2.00000
      2       2.6163      2.00000
      3       3.9323      2.00000
      4       3.9323      2.00000
      5       6.8620      0.00000
      6       9.1292      0.00000
      7      10.4169      0.00000
      8      10.4169      0.00000

 k-point    50 :       0.2368    0.2368    0.0000
  band No.  band energies     occupation 
      1      -5.3123      2.00000
      2       2.1553      2.00000
      3       3.7268      2.00000
      4       3.7268      2.00000
      5       6.6930      0.00000
      6       8.7671      0.00000
      7      10.8572      0.00000
      8      10.8572      0.00000

 k-point    51 :       0.2632    0.2632    0.0000
  band No.  band energies     occupation 
      1      -5.0947      2.00000
      2       1.6935      2.00000
      3       3.5371      2.00000
      4       3.5371      2.00000
      5       6.5397      0.00000
      6       8.3955      0.00000
      7      11.3075      0.00000
      8      11.3075      0.00000

 k-point    52 :       0.2895    0.2895    0.0000
  band No.  band energies     occupation 
      1      -4.8557      2.00000
      2       1.2325      2.00000
      3       3.3647      2.00000
      4       3.3647      2.00000
      5       6.4051      0.00000
      6       8.0359      0.00000
      7      11.7659      0.00000
      8      11.7660      0.00000

 k-point    53 :       0.3158    0.3158    0.0000
  band No.  band energies     occupation 
      1      -4.5957      2.00000
      2       0.7739      2.00000
      3       3.2107      2.00000
      4       3.2107      2.00000
      5       6.2919      0.00000
      6       7.6991      0.00000
      7      12.2314      0.00000
      8      12.2314      0.00000

 k-point    54 :       0.3421    0.3421    0.0000
  band No.  band energies     occupation 
      1      -4.3153      2.00000
      2       0.3191      2.00000
      3       3.0760      2.00000
      4       3.0760      2.00000
      5       6.2018      0.00000
      6       7.3909      0.00000
      7      12.7028      0.00000
      8      12.7028      0.00000

 k-point    55 :       0.3684    0.3684    0.0000
  band No.  band energies     occupation 
      1      -4.0151      2.00000
      2      -0.1304      2.00000
      3       2.9611      2.00000
      4       2.9611      2.00000
      5       6.1366      0.00000
      6       7.1142      0.00000
      7      13.1793      0.00000
      8      13.1793      0.00000

 k-point    56 :       0.3947    0.3947    0.0000
  band No.  band energies     occupation 
      1      -3.6959      2.00000
      2      -0.5731      2.00000
      3       2.8665      2.00000
      4       2.8665      2.00000
      5       6.0979      0.00001
      6       6.8705      0.00000
      7      13.6591      0.00000
      8      13.6595      0.00000

 k-point    57 :       0.4211    0.4211    0.0000
  band No.  band energies     occupation 
      1      -3.3584      2.00000
      2      -1.0075      2.00000
      3       2.7926      2.00000
      4       2.7926      2.00000
      5       6.0868      0.00001
      6       6.6605      0.00000
      7      14.1383      0.00000
      8      14.1383      0.00000

 k-point    58 :       0.4474    0.4474    0.0000
  band No.  band energies     occupation 
      1      -3.0035      2.00000
      2      -1.4321      2.00000
      3       2.7397      2.00000
      4       2.7397      2.00000
      5       6.1045      0.00000
      6       6.4842      0.00000
      7      14.6064      0.00000
      8      14.6065      0.00000

 k-point    59 :       0.4737    0.4737    0.0000
  band No.  band energies     occupation 
      1      -2.6323      2.00000
      2      -1.8453      2.00000
      3       2.7078      2.00000
      4       2.7078      2.00000
      5       6.1521      0.00000
      6       6.3411      0.00000
      7      15.0262      0.00000
      8      15.0263      0.00000

 k-point    60 :       0.5000    0.5000    0.0000
  band No.  band energies     occupation 
      1      -2.2458      2.00000
      2      -2.2458      2.00000
      3       2.6972      2.00000
      4       2.6972      2.00000
      5       6.2307      0.00000
      6       6.2307      0.00000
      7      15.2385      0.00000
      8      15.2387      0.00000

 k-point    61 :       0.5000    0.5000    0.0000
  band No.  band energies     occupation 
      1      -2.2458      2.00000
      2      -2.2458      2.00000
      3       2.6972      2.00000
      4       2.6972      2.00000
      5       6.2307      0.00000
      6       6.2307      0.00000
      7      15.2386      0.00000
      8      15.2401      0.00000

 k-point    62 :       0.5132    0.5000    0.0132
  band No.  band energies     occupation 
      1      -2.2449      2.00000
      2      -2.2449      2.00000
      3       2.6886      2.00000
      4       2.6886      2.00000
      5       6.2469      0.00000
      6       6.2469      0.00000
      7      15.2134      0.00000
      8      15.2143      0.00000

 k-point    63 :       0.5263    0.5000    0.0263
  band No.  band energies     occupation 
      1      -2.2421      2.00000
      2      -2.2421      2.00000
      3       2.6631      2.00000
      4       2.6631      2.00000
      5       6.2948      0.00000
      6       6.2948      0.00000
      7      15.1341      0.00000
      8      15.1347      0.00000

 k-point    64 :       0.5395    0.5000    0.0395
  band No.  band energies     occupation 
      1      -2.2376      2.00000
      2      -2.2376      2.00000
      3       2.6225      2.00000
      4       2.6225      2.00000
      5       6.3729      0.00000
      6       6.3729      0.00000
      7      14.9922      0.00000
      8      14.9958      0.00000

 k-point    65 :       0.5526    0.5000    0.0526
  band No.  band energies     occupation 
      1      -2.2314      2.00000
      2      -2.2314      2.00000
      3       2.5691      2.00000
      4       2.5691      2.00000
      5       6.4789      0.00000
      6       6.4789      0.00000
      7      14.7877      0.00000
      8      14.7881      0.00000

 k-point    66 :       0.5658    0.5000    0.0658
  band No.  band energies     occupation 
      1      -2.2237      2.00000
      2      -2.2237      2.00000
      3       2.5056      2.00000
      4       2.5056      2.00000
      5       6.6102      0.00000
      6       6.6102      0.00000
      7      14.5331      0.00000
      8      14.5332      0.00000

 k-point    67 :       0.5789    0.5000    0.0789
  band No.  band energies     occupation 
      1      -2.2146      2.00000
      2      -2.2146      2.00000
      3       2.4349      2.00000
      4       2.4349      2.00000
      5       6.7640      0.00000
      6       6.7640      0.00000
      7      14.2447      0.00000
      8      14.2447      0.00000

 k-point    68 :       0.5921    0.5000    0.0921
  band No.  band energies     occupation 
      1      -2.2043      2.00000
      2      -2.2043      2.00000
      3       2.3597      2.00000
      4       2.3597      2.00000
      5       6.9377      0.00000
      6       6.9377      0.00000
      7      13.9355      0.00000
      8      13.9355      0.00000

 k-point    69 :       0.6053    0.5000    0.1053
  band No.  band energies     occupation 
      1      -2.1932      2.00000
      2      -2.1932      2.00000
      3       2.2824      2.00000
      4       2.2824      2.00000
      5       7.1289      0.00000
      6       7.1289      0.00000
      7      13.6141      0.00000
      8      13.6141      0.00000

 k-point    70 :       0.6184    0.5000    0.1184
  band No.  band energies     occupation 
      1      -2.1814      2.00000
      2      -2.1814      2.00000
      3       2.2053      2.00000
      4       2.2053      2.00000
      5       7.3357      0.00000
      6       7.3357      0.00000
      7      13.2859      0.00000
      8      13.2860      0.00000

 k-point    71 :       0.6316    0.5000    0.1316
  band No.  band energies     occupation 
      1      -2.1692      2.00000
      2      -2.1692      2.00000
      3       2.1303      2.00000
      4       2.1303      2.00000
      5       7.5561      0.00000
      6       7.5561      0.00000
      7      12.9545      0.00000
      8      12.9545      0.00000

 k-point    72 :       0.6447    0.5000    0.1447
  band No.  band energies     occupation 
      1      -2.1571      2.00000
      2      -2.1571      2.00000
      3       2.0591      2.00000
      4       2.0591      2.00000
      5       7.7886      0.00000
      6       7.7886      0.00000
      7      12.6223      0.00000
      8      12.6223      0.00000

 k-point    73 :       0.6579    0.5000    0.1579
  band No.  band energies     occupation 
      1      -2.1453      2.00000
      2      -2.1453      2.00000
      3       1.9931      2.00000
      4       1.9931      2.00000
      5       8.0318      0.00000
      6       8.0318      0.00000
      7      12.2910      0.00000
      8      12.2910      0.00000

 k-point    74 :       0.6711    0.5000    0.1711
  band No.  band energies     occupation 
      1      -2.1342      2.00000
      2      -2.1342      2.00000
      3       1.9334      2.00000
      4       1.9334      2.00000
      5       8.2845      0.00000
      6       8.2845      0.00000
      7      11.9622      0.00000
      8      11.9622      0.00000

 k-point    75 :       0.6842    0.5000    0.1842
  band No.  band energies     occupation 
      1      -2.1240      2.00000
      2      -2.1240      2.00000
      3       1.8813      2.00000
      4       1.8813      2.00000
      5       8.5452      0.00000
      6       8.5452      0.00000
      7      11.6371      0.00000
      8      11.6371      0.00000

 k-point    76 :       0.6974    0.5000    0.1974
  band No.  band energies     occupation 
      1      -2.1152      2.00000
      2      -2.1152      2.00000
      3       1.8374      2.00000
      4       1.8374      2.00000
      5       8.8122      0.00000
      6       8.8122      0.00000
      7      11.3176      0.00000
      8      11.3176      0.00000

 k-point    77 :       0.7105    0.5000    0.2105
  band No.  band energies     occupation 
      1      -2.1081      2.00000
      2      -2.1081      2.00000
      3       1.8025      2.00000
      4       1.8025      2.00000
      5       9.0826      0.00000
      6       9.0826      0.00000
      7      11.0063      0.00000
      8      11.0063      0.00000

 k-point    78 :       0.7237    0.5000    0.2237
  band No.  band energies     occupation 
      1      -2.1028      2.00000
      2      -2.1028      2.00000
      3       1.7772      2.00000
      4       1.7772      2.00000
      5       9.3502      0.00000
      6       9.3502      0.00000
      7      10.7096      0.00000
      8      10.7096      0.00000

 k-point    79 :       0.7368    0.5000    0.2368
  band No.  band energies     occupation 
      1      -2.0995      2.00000
      2      -2.0995      2.00000
      3       1.7619      2.00000
      4       1.7619      2.00000
      5       9.5934      0.00000
      6       9.5934      0.00000
      7      10.4489      0.00000
      8      10.4489      0.00000

 k-point    80 :       0.7500    0.5000    0.2500
  band No.  band energies     occupation 
      1      -2.0984      2.00000
      2      -2.0984      2.00000
      3       1.7567      2.00000
      4       1.7567      2.00000
      5       9.7186      0.00000
      6       9.7186      0.00000
      7      10.3179      0.00000
      8      10.3179      0.00000

 k-point    81 :       0.7500    0.5000    0.2500
  band No.  band energies     occupation 
      1      -2.0984      2.00000
      2      -2.0984      2.00000
      3       1.7567      2.00000
      4       1.7567      2.00000
      5       9.7186      0.00000
      6       9.7186      0.00000
      7      10.3179      0.00000
      8      10.3179      0.00000

 k-point    82 :       0.7500    0.4934    0.2566
  band No.  band energies     occupation 
      1      -2.1558      2.00000
      2      -2.0419      2.00000
      3       1.7140      2.00000
      4       1.8045      2.00000
      5       9.6077      0.00000
      6       9.7503      0.00000
      7      10.3390      0.00000
      8      10.3820      0.00000

 k-point    83 :       0.7500    0.4868    0.2632
  band No.  band energies     occupation 
      1      -2.2102      2.00000
      2      -1.9903      2.00000
      3       1.6733      2.00000
      4       1.8605      2.00000
      5       9.4144      0.00000
      6       9.7610      0.00000
      7      10.4500      0.00000
      8      10.4716      0.00000

 k-point    84 :       0.7500    0.4803    0.2697
  band No.  band energies     occupation 
      1      -2.2615      2.00000
      2      -1.9435      2.00000
      3       1.6345      2.00000
      4       1.9242      2.00000
      5       9.1937      0.00000
      6       9.7573      0.00000
      7      10.5801      0.00000
      8      10.5962      0.00000

 k-point    85 :       0.7500    0.4737    0.2763
  band No.  band energies     occupation 
      1      -2.3097      2.00000
      2      -1.9015      2.00000
      3       1.5979      2.00000
      4       1.9953      2.00000
      5       8.9660      0.00000
      6       9.7448      0.00000
      7      10.7018      0.00000
      8      10.7575      0.00000

 k-point    86 :       0.7500    0.4671    0.2829
  band No.  band energies     occupation 
      1      -2.3549      2.00000
      2      -1.8640      2.00000
      3       1.5634      2.00000
      4       2.0731      2.00000
      5       8.7384      0.00000
      6       9.7275      0.00000
      7      10.8326      0.00000
      8      10.9273      0.00000

 k-point    87 :       0.7500    0.4605    0.2895
  band No.  band energies     occupation 
      1      -2.3970      2.00000
      2      -1.8309      2.00000
      3       1.5311      2.00000
      4       2.1568      2.00000
      5       8.5143      0.00000
      6       9.7079      0.00000
      7      10.9699      0.00000
      8      11.1027      0.00000

 k-point    88 :       0.7500    0.4539    0.2961
  band No.  band energies     occupation 
      1      -2.4360      2.00000
      2      -1.8019      2.00000
      3       1.5011      2.00000
      4       2.2456      2.00000
      5       8.2956      0.00000
      6       9.6874      0.00000
      7      11.1119      0.00000
      8      11.2822      0.00000

 k-point    89 :       0.7500    0.4474    0.3026
  band No.  band energies     occupation 
      1      -2.4719      2.00000
      2      -1.7767      2.00000
      3       1.4733      2.00000
      4       2.3383      2.00000
      5       8.0839      0.00000
      6       9.6671      0.00000
      7      11.2576      0.00000
      8      11.4652      0.00000

 k-point    90 :       0.7500    0.4408    0.3092
  band No.  band energies     occupation 
      1      -2.5047      2.00000
      2      -1.7550      2.00000
      3       1.4478      2.00000
      4       2.4338      2.00000
      5       7.8805      0.00000
      6       9.6474      0.00000
      7      11.4062      0.00000
      8      11.6511      0.00000

 k-point    91 :       0.7500    0.4342    0.3158
  band No.  band energies     occupation 
      1      -2.5344      2.00000
      2      -1.7364      2.00000
      3       1.4247      2.00000
      4       2.5305      2.00000
      5       7.6869      0.00000
      6       9.6290      0.00000
      7      11.5569      0.00000
      8      11.8395      0.00000

 k-point    92 :       0.7500    0.4276    0.3224
  band No.  band energies     occupation 
      1      -2.5610      2.00000
      2      -1.7207      2.00000
      3       1.4039      2.00000
      4       2.6267      2.00000
      5       7.5044      0.00000
      6       9.6120      0.00000
      7      11.7092      0.00000
      8      12.0300      0.00000

 k-point    93 :       0.7500    0.4211    0.3289
  band No.  band energies     occupation 
      1      -2.5844      2.00000
      2      -1.7076      2.00000
      3       1.3855      2.00000
      4       2.7206      2.00000
      5       7.3350      0.00000
      6       9.5966      0.00000
      7      11.8625      0.00000
      8      12.2222      0.00000

 k-point    94 :       0.7500    0.4145    0.3355
  band No.  band energies     occupation 
      1      -2.6048      2.00000
      2      -1.6968      2.00000
      3       1.3695      2.00000
      4       2.8100      2.00000
      5       7.1806      0.00000
      6       9.5831      0.00000
      7      12.0161      0.00000
      8      12.4156      0.00000

 k-point    95 :       0.7500    0.4079    0.3421
  band No.  band energies     occupation 
      1      -2.6220      2.00000
      2      -1.6881      2.00000
      3       1.3560      2.00000
      4       2.8924      2.00000
      5       7.0436      0.00000
      6       9.5715      0.00000
      7      12.1690      0.00000
      8      12.6095      0.00000

 k-point    96 :       0.7500    0.4013    0.3487
  band No.  band energies     occupation 
      1      -2.6361      2.00000
      2      -1.6812      2.00000
      3       1.3449      2.00000
      4       2.9652      2.00000
      5       6.9263      0.00000
      6       9.5619      0.00000
      7      12.3198      0.00000
      8      12.8028      0.00000

 k-point    97 :       0.7500    0.3947    0.3553
  band No.  band energies     occupation 
      1      -2.6471      2.00000
      2      -1.6761      2.00000
      3       1.3362      2.00000
      4       3.0257      2.00000
      5       6.8314      0.00000
      6       9.5544      0.00000
      7      12.4657      0.00000
      8      12.9935      0.00000

 k-point    98 :       0.7500    0.3882    0.3618
  band No.  band energies     occupation 
      1      -2.6549      2.00000
      2      -1.6725      2.00000
      3       1.3300      2.00000
      4       3.0711      2.00000
      5       6.7614      0.00000
      6       9.5490      0.00000
      7      12.6004      0.00000
      8      13.1760      0.00000

 k-point    99 :       0.7500    0.3816    0.3684
  band No.  band energies     occupation 
      1      -2.6596      2.00000
      2      -1.6704      2.00000
      3       1.3263      2.00000
      4       3.0994      2.00000
      5       6.7184      0.00000
      6       9.5458      0.00000
      7      12.7083      0.00000
      8      13.3305      0.00000

 k-point   100 :       0.7500    0.3750    0.3750
  band No.  band energies     occupation 
      1      -2.6612      2.00000
      2      -1.6697      2.00000
      3       1.3251      2.00000
      4       3.1090      2.00000
      5       6.7039      0.00000
      6       9.5447      0.00000
      7      12.7538      0.00000
      8      13.2887      0.00000


--------------------------------------------------------------------------------------------------------


 soft charge-density along one line, spin component           1
         0         1         2         3         4         5         6         7         8         9
 total charge-density along one line
 
 pseudopotential strength for first ion, spin component:           1
 18.456  25.750   0.000   0.000   0.000   0.000   0.000   0.000
 25.750  35.931   0.000   0.000   0.000   0.000   0.000   0.000
  0.000   0.000   4.183  -0.000  -0.000   7.794  -0.000  -0.000
  0.000   0.000  -0.000   4.183  -0.000  -0.000   7.794  -0.000
  0.000   0.000  -0.000  -0.000   4.183  -0.000  -0.000   7.794
  0.000   0.000   7.794  -0.000  -0.000  14.535  -0.000  -0.000
  0.000   0.000  -0.000   7.794  -0.000  -0.000  14.535  -0.000
  0.000   0.000  -0.000  -0.000   7.794  -0.000  -0.000  14.535
 total augmentation occupancy for first ion, spin component:           1
  2.000   0.000   0.000   0.000   0.000   0.000   0.000   0.000
  0.000   0.000   0.000   0.000   0.000   0.000   0.000   0.000
  0.000   0.000   0.667   0.000   0.000   0.000   0.000   0.000
  0.000   0.000   0.000   0.667   0.000   0.000   0.000   0.000
  0.000   0.000   0.000   0.000   0.667   0.000   0.000   0.000
  0.000   0.000   0.000   0.000   0.000   0.000   0.000   0.000
  0.000   0.000   0.000   0.000   0.000   0.000   0.000   0.000
  0.000   0.000   0.000   0.000   0.000   0.000   0.000   0.000


------------------------ aborting loop because EDIFF is reached ----------------------------------------


    CHARGE:  cpu time    0.1190: real time    0.0692
    FORLOC:  cpu time    0.0030: real time    0.0013
    FORNL :  cpu time    0.1320: real time    0.0805
    STRESS:  cpu time    0.6749: real time    0.5398
    FORCOR:  cpu time    0.0540: real time    0.0538
    FORHAR:  cpu time    0.0180: real time    0.0175
    OFIELD:  cpu time    0.0000: real time    0.0002

  FORCE on cell =-STRESS in cart. coord.  units (eV):
  Direction    XX          YY          ZZ          XY          YZ          ZX
  --------------------------------------------------------------------------------------
  Alpha Z     3.23733     3.23733     3.23733
  Ewald     -75.21821   -75.21821   -75.21821     0.00000     0.00000    -0.00000
  Hartree     5.30795     5.30795     5.30795     0.00000     0.00000     0.00000
  E(xc)     -25.15338   -25.15338   -25.15338     0.00000     0.00000     0.00000
  Local     -30.04344   -30.04344   -30.04344     0.00001     0.00001     0.00001
  n-local    76.56239    78.55401    74.07199    -1.05912    -1.35571    -0.81472
  augment   -11.37570   -11.37570   -11.37570    -0.00001    -0.00001    -0.00001
  Kinetic    58.74029    56.28626    55.67763    -1.46546    -2.04859    -1.31565
  Fock        0.00000     0.00000     0.00000     0.00000     0.00000     0.00000
  -------------------------------------------------------------------------------------
  Total       0.05207     0.05207     0.05207    -0.00000     0.00000    -0.00000
  in kB       2.00589     2.00589     2.00589    -0.00000     0.00000    -0.00000
  external pressure =        2.01 kB  Pullay stress =        0.00 kB


 VOLUME and BASIS-vectors are now :
 -----------------------------------------------------------------------------
  energy-cutoff  :      450.00
  volume of cell :       41.59
      direct lattice vectors                 reciprocal lattice vectors
     0.000000000  2.750000000  2.750000000    -0.181818182  0.181818182  0.181818182
     2.750000000  0.000000000  2.750000000     0.181818182 -0.181818182  0.181818182
     2.750000000  2.750000000  0.000000000     0.181818182  0.181818182 -0.181818182

  length of vectors
     3.889087297  3.889087297  3.889087297     0.314918329  0.314918329  0.314918329


 FORCES acting on ions
    electron-ion (+dipol)            ewald-force                    non-local-force                 convergence-correction
 -----------------------------------------------------------------------------------------------
   0.675E-08 0.675E-08 0.630E-08   -.246E-14 0.368E-15 0.368E-15   0.625E-16 0.555E-16 0.278E-16   0.491E-09 0.491E-09 0.491E-09
   -.675E-08 -.675E-08 -.630E-08   0.230E-14 -.104E-14 -.778E-15   -.451E-16 -.625E-16 -.243E-16   -.491E-09 -.491E-09 -.491E-09
 -----------------------------------------------------------------------------------------------
   0.917E-13 0.354E-13 -.103E-13   -.158E-15 -.674E-15 -.410E-15   0.173E-16 -.694E-17 0.347E-17   0.372E-13 0.563E-13 0.438E-13
 
 
 POSITION                                       TOTAL-FORCE (eV/Angst)
 -----------------------------------------------------------------------------------
      0.00000      0.00000      0.00000         0.000000     -0.000000      0.000000
      1.37500      1.37500      1.37500        -0.000000      0.000000     -0.000000
 -----------------------------------------------------------------------------------
    total drift:                                0.000000      0.000000      0.000000


--------------------------------------------------------------------------------------------------------



  FREE ENERGIE OF THE ION-ELECTRON SYSTEM (eV)
  ---------------------------------------------------
  free  energy   TOTEN  =       -10.20390181 eV

  energy  without entropy=      -10.20390166  energy(sigma->0) =      -10.20390173
 


--------------------------------------------------------------------------------------------------------


    POTLOK:  cpu time    0.0530: real time    0.0531


--------------------------------------------------------------------------------------------------------


 writing wavefunctions
     LOOP+:  cpu time   41.4067: real time   26.3276
    4ORBIT:  cpu time    0.0000: real time    0.0000

 total amount of memory used by VASP on root node    43739. kBytes
========================================================================

   base      :      30000. kBytes
   nonl-proj :       6020. kBytes
   fftplans  :       1619. kBytes
   grid      :       3048. kBytes
   one-center:          6. kBytes
   wavefun   :       3046. kBytes
 
  
  
 General timing and accounting informations for this job:
 ========================================================
  
                  Total CPU time used (sec):       42.761
                            User time (sec):       38.881
                          System time (sec):        3.880
                         Elapsed time (sec):       28.491
  
                   Maximum memory used (kb):       50192.
                   Average memory used (kb):           0.
  
                          Minor page faults:        20396
                          Major page faults:           10
                 Voluntary context switches:          773
