Fe FCC                                  
   4.00000000000000     
    -0.500000    0.500000    0.500000
     0.500000   -0.500000    0.500000
     0.500000    0.500000   -0.500000
   Fe
     1
Direct
  0.000000  0.000000  0.000000
 
   48   48   48
 0.27913925812E+03 0.27337784903E+03 0.25686995628E+03 0.23173374480E+03 0.20088811360E+03
 0.16740612915E+03 0.13400172366E+03 0.10278268719E+03 0.75246009040E+02 0.52377667425E+02
 0.34709901011E+02 0.22277351140E+02 0.14530821067E+02 0.10332039226E+02 0.81236459492E+01
 0.65271902006E+01 0.52978515974E+01 0.44001557139E+01 0.37625238776E+01 0.33125874631E+01
 0.29937078490E+01 0.27685654881E+01 0.26162472280E+01 0.25270786794E+01 0.24976021238E+01
 0.25270786794E+01 0.26162472280E+01 0.27685654881E+01 0.29937078490E+01 0.33125874631E+01
 0.37625238776E+01 0.44001557139E+01 0.52978515974E+01 0.65271902006E+01 0.81236459492E+01
 0.10332039226E+02 0.14530821067E+02 0.22277351140E+02 0.34709901011E+02 0.52377667425E+02
 0.75246009040E+02 0.10278268719E+03 0.13400172366E+03 0.16740612915E+03 0.20088811360E+03
 0.23173374480E+03 0.25686995628E+03 0.27337784903E+03 0.27337784903E+03 0.27146253941E+03
 0.25855738490E+03 0.23635655954E+03 0.20754382930E+03 0.17516269953E+03 0.14204588416E+03
 0.11047930738E+03 0.82128133039E+02 0.58117087683E+02 0.39111608997E+02 0.25306684594E+02
 0.16345357669E+02 0.11276424903E+02 0.86628128738E+01 0.69606065944E+01 0.56258966259E+01
 0.46370670185E+01 0.39297822063E+01 0.34300788555E+01 0.30760938191E+01 0.28249069404E+01
 0.26511491988E+01 0.25422834569E+01 0.24934028872E+01 0.25031708906E+01 0.25718100062E+01
 0.27015121439E+01 0.28991983549E+01 0.31810911877E+01 0.35779821428E+01 0.41392452738E+01
 0.49321509732E+01 0.60308193276E+01 0.74882575118E+01 0.93637472449E+01 0.12617576175E+02
 0.18846762268E+02 0.29351384683E+02 0.44888400137E+02 0.65621584471E+02 0.91190778617E+02
 0.12077908359E+03 0.15309009663E+03 0.18625259738E+03 0.21777551590E+03 0.24470360836E+03
 0.26404322776E+03 0.25686995628E+03 0.25855738490E+03 0.24953973521E+03 0.23102572388E+03
 0.20533691892E+03 0.17533901417E+03 0.14385491790E+03 0.11325934419E+03 0.85330084287E+02
 0.61289279399E+02 0.41892193655E+02 0.27448357280E+02 0.17760298526E+02 0.12064062953E+02
 0.90857135696E+01 0.72973401287E+01 0.58916690961E+01 0.48335428143E+01 0.40693590429E+01
 0.35271294025E+01 0.31423533044E+01 0.28680235742E+01 0.26750095613E+01 0.25480953384E+01
 0.24808834824E+01 0.24714009776E+01 0.25194595623E+01 0.26262652521E+01 0.27963425585E+01
 0.30414348510E+01 0.33855332000E+01 0.38695022285E+01 0.45526448742E+01 0.55066399904E+01
 0.67955752946E+01 0.84401835931E+01 0.10860301209E+02 0.15504248985E+02 0.23781376058E+02
 0.36648121164E+02 0.54491377601E+02 0.77157083645E+02 0.10402163759E+03 0.13400343129E+03
 0.16549247819E+03 0.19628380360E+03 0.22365724120E+03 0.24470360836E+03 0.23173374480E+03
 0.23635655954E+03 0.23102572388E+03 0.21647442638E+03 0.19459162951E+03 0.16794556554E+03
 0.13922142054E+03 0.11077732214E+03 0.84429948772E+02 0.61446599035E+02 0.42625575095E+02
 0.28342309536E+02 0.18516024410E+02 0.12550355794E+02 0.93522766663E+01 0.75101441669E+01
 0.60733745237E+01 0.49741006736E+01 0.41710887902E+01 0.35973735045E+01 0.31885892845E+01
 0.28955682683E+01 0.26865105681E+01 0.25439967814E+01 0.24602603897E+01 0.24327086845E+01
 0.24608526417E+01 0.25452301729E+01 0.26884899983E+01 0.28984734520E+01 0.31927152107E+01
 0.36032085449E+01 0.41794513066E+01 0.49863549646E+01 0.60917351961E+01 0.75380446030E+01
 0.93954237576E+01 0.12626125008E+02 0.18664722091E+02 0.28630055389E+02 0.43136248861E+02
 0.62261519036E+02 0.85598844689E+02 0.11228886424E+03 0.14098393531E+03 0.16978717122E+03
 0.19628380360E+03 0.21777551590E+03 0.20088811360E+03 0.20754382930E+03 0.20533691892E+03
 0.19459162951E+03 0.17675459108E+03 0.15402359180E+03 0.12884204008E+03 0.10344996232E+03
 0.79623396629E+02 0.58617623639E+02 0.41227508025E+02 0.27848179556E+02 0.18470257844E+02
 0.12632798321E+02 0.94198150694E+01 0.75823647604E+01 0.61554658339E+01 0.50466023964E+01
 0.42265172826E+01 0.36353524616E+01 0.32114473479E+01 0.29055659167E+01 0.26846015616E+01
 0.25296474035E+01 0.24318446156E+01 0.23880563862E+01 0.23975908776E+01 0.24606147217E+01
 0.25784826131E+01 0.27559482909E+01 0.30049246741E+01 0.33489857424E+01 0.38271633723E+01
 0.44946099578E+01 0.54161483749E+01 0.66476172839E+01 0.82030900993E+01 0.10396045077E+02
 0.14460644746E+02 0.21610826787E+02 0.32663730649E+02 0.47940644354E+02 0.67273299335E+02
 0.90035619471E+02 0.11513697144E+03 0.14098393531E+03 0.16549247819E+03 0.18625259738E+03
 0.16740612915E+03 0.17516269953E+03 0.17533901417E+03 0.16794556554E+03 0.15402359180E+03
 0.13537567687E+03 0.11413588285E+03 0.92344787292E+02 0.71666303408E+02 0.53290593533E+02
 0.37968660263E+02 0.26077080265E+02 0.17637361676E+02 0.12287546444E+02 0.92695894788E+01
 0.75101712750E+01 0.61311010042E+01 0.50442643137E+01 0.42302904619E+01 0.36373687847E+01
 0.32085938142E+01 0.28966538871E+01 0.26685976358E+01 0.25048978600E+01 0.23960009515E+01
 0.23383533450E+01 0.23311355586E+01 0.23743727107E+01 0.24686675266E+01 0.26165872950E+01
 0.28255679000E+01 0.31118462759E+01 0.35044072230E+01 0.40472576044E+01 0.47972742175E+01
 0.58135669423E+01 0.71345212702E+01 0.87748125803E+01 0.11354010698E+02 0.16063408900E+02
 0.23865728881E+02 0.35310207001E+02 0.50480214392E+02 0.68999235580E+02 0.90035619471E+02
 0.11228886424E+03 0.13400343129E+03 0.15309009663E+03 0.13400172366E+03 0.14204588416E+03
 0.14385491790E+03 0.13922142054E+03 0.12884204008E+03 0.11413588285E+03 0.96896375213E+02
 0.78910788307E+02 0.61676819945E+02 0.46278029970E+02 0.33392218165E+02 0.23351481447E+02
 0.16178227736E+02 0.11576405588E+02 0.89193205585E+01 0.73024859546E+01 0.60030622780E+01
 0.49667965031E+01 0.41811169675E+01 0.36021620706E+01 0.31791371564E+01 0.28683203887E+01
 0.26382985130E+01 0.24698322785E+01 0.23531384411E+01 0.22844097958E+01 0.22627476952E+01
 0.22881738678E+01 0.23609636207E+01 0.24823412847E+01 0.26565201131E+01 0.28938690549E+01
 0.32145635191E+01 0.36515629744E+01 0.42510926291E+01 0.50677968545E+01 0.61510314879E+01
 0.75204517833E+01 0.92444023505E+01 0.12115309465E+02 0.17151604232E+02 0.25081102650E+02
 0.36228966263E+02 0.50480214392E+02 0.67273299335E+02 0.85598844689E+02 0.10402163759E+03
 0.12077908359E+03 0.10278268719E+03 0.11047930738E+03 0.11325934419E+03 0.11077732214E+03
 0.10344996232E+03 0.92344787292E+02 0.78910788307E+02 0.64653953801E+02 0.50871490875E+02
 0.38513436659E+02 0.28167951968E+02 0.20110380927E+02 0.14347263227E+02 0.10623922143E+02
 0.84180595496E+01 0.69788188118E+01 0.57829794039E+01 0.48203936891E+01 0.40820511053E+01
 0.35312252116E+01 0.31238813565E+01 0.28210818373E+01 0.25941043466E+01 0.24248384804E+01
 0.23037445204E+01 0.22269398257E+01 0.21934704570E+01 0.22034003827E+01 0.22569440915E+01
 0.23546575526E+01 0.24987081139E+01 0.26951980251E+01 0.29572211187E+01 0.33078991076E+01
 0.37821974010E+01 0.44256992526E+01 0.52877306584E+01 0.64063069226E+01 0.77851393211E+01
 0.95609462556E+01 0.12536967418E+02 0.17536027561E+02 0.25081102650E+02 0.35310207001E+02
 0.47940644354E+02 0.62261519036E+02 0.77157083645E+02 0.91190778617E+02 0.75246009040E+02
 0.82128133039E+02 0.85330084287E+02 0.84429948772E+02 0.79623396629E+02 0.71666303408E+02
 0.61676819945E+02 0.50871490875E+02 0.40329712954E+02 0.30853970291E+02 0.22937152356E+02
 0.16796852276E+02 0.12419017871E+02 0.95760095060E+01 0.78273728576E+01 0.65657445871E+01
 0.54891558304E+01 0.46166113476E+01 0.39400165775E+01 0.34286591245E+01 0.30453246492E+01
 0.27565366077E+01 0.25370879199E+01 0.23706829072E+01 0.22484524991E+01 0.21666119601E+01
 0.21241579191E+01 0.21211682477E+01 0.21579057704E+01 0.22347052253E+01 0.23526428906E+01
 0.25150582262E+01 0.27298585144E+01 0.30121920662E+01 0.33867108679E+01 0.38882738386E+01
 0.45594056971E+01 0.54423852322E+01 0.65646045902E+01 0.79193240593E+01 0.96732751732E+01
 0.12536967418E+02 0.17151604232E+02 0.23865728881E+02 0.32663730649E+02 0.43136248861E+02
 0.54491377601E+02 0.65621584471E+02 0.52377667425E+02 0.58117087683E+02 0.61289279399E+02
 0.61446599035E+02 0.58617623639E+02 0.53290593533E+02 0.46278029970E+02 0.38513436659E+02
 0.30853970291E+02 0.23949638754E+02 0.18198852576E+02 0.13766723771E+02 0.10621615322E+02
 0.85569136724E+01 0.71975116661E+01 0.60929902521E+01 0.51436266322E+01 0.43704568283E+01
 0.37647015331E+01 0.33005901647E+01 0.29473814404E+01 0.26772574397E+01 0.24689840513E+01
 0.23085555223E+01 0.21881140479E+01 0.21041263726E+01 0.20555373324E+01 0.20423660678E+01
 0.20649087802E+01 0.21234983735E+01 0.22187753390E+01 0.23525476777E+01 0.25293220407E+01
 0.27583706803E+01 0.30558837618E+01 0.34464763995E+01 0.39630087669E+01 0.46432762984E+01
 0.55220537935E+01 0.66181456995E+01 0.79193240593E+01 0.95609462556E+01 0.12115309465E+02
 0.16063408900E+02 0.21610826787E+02 0.28630055389E+02 0.36648121164E+02 0.44888400137E+02
 0.34709901011E+02 0.39111608997E+02 0.41892193655E+02 0.42625575095E+02 0.41227508025E+02
 0.37968660263E+02 0.33392218165E+02 0.28167951968E+02 0.22937152356E+02 0.18198852576E+02
 0.14260268955E+02 0.11240397246E+02 0.90953353284E+01 0.76378849959E+01 0.65496946403E+01
 0.55899611085E+01 0.47691604340E+01 0.40981923074E+01 0.35671191278E+01 0.31542990357E+01
 0.28348868551E+01 0.25865315179E+01 0.23920785534E+01 0.22400548102E+01 0.21238432229E+01
 0.20402870351E+01 0.19882803369E+01 0.19676992038E+01 0.19787846789E+01 0.20219063097E+01
 0.20976217387E+01 0.22070699641E+01 0.23528281381E+01 0.25402858289E+01 0.27793629362E+01
 0.30861408439E+01 0.34837498464E+01 0.40016033167E+01 0.46718408802E+01 0.55220537935E+01
 0.65646045902E+01 0.77851393211E+01 0.92444023505E+01 0.11354010698E+02 0.14460644746E+02
 0.18664722091E+02 0.23781376058E+02 0.29351384683E+02 0.22277351140E+02 0.25306684594E+02
 0.27448357280E+02 0.28342309536E+02 0.27848179556E+02 0.26077080265E+02 0.23351481447E+02
 0.20110380927E+02 0.16796852276E+02 0.13766723771E+02 0.11240397246E+02 0.92952265979E+01
 0.78786048339E+01 0.68216968245E+01 0.59015995009E+01 0.50831406052E+01 0.43867574834E+01
 0.38153301854E+01 0.33581789571E+01 0.29972788080E+01 0.27130057361E+01 0.24880049851E+01
 0.23090112027E+01 0.21671016989E+01 0.20570077807E+01 0.19760404565E+01 0.19230583117E+01
 0.18977278629E+01 0.19001248746E+01 0.19305838564E+01 0.19896892448E+01 0.20783981378E+01
 0.21984004045E+01 0.23528529359E+01 0.25475183429E+01 0.27921312544E+01 0.31015939626E+01
 0.34964112275E+01 0.40016033167E+01 0.46432762984E+01 0.54423852322E+01 0.64063069226E+01
 0.75204517833E+01 0.87748125803E+01 0.10396045077E+02 0.12626125008E+02 0.15504248985E+02
 0.18846762268E+02 0.14530821067E+02 0.16345357669E+02 0.17760298526E+02 0.18516024410E+02
 0.18470257844E+02 0.17637361676E+02 0.16178227736E+02 0.14347263227E+02 0.12419017871E+02
 0.10621615322E+02 0.90953353284E+01 0.78786048339E+01 0.69107144599E+01 0.60576774125E+01
 0.52787534953E+01 0.45944004402E+01 0.40139157603E+01 0.35351419729E+01 0.31475462211E+01
 0.28364265231E+01 0.25866829163E+01 0.23853150892E+01 0.22225352890E+01 0.20917955869E+01
 0.19891625664E+01 0.19124673785E+01 0.18605680340E+01 0.18328948926E+01 0.18292697187E+01
 0.18498808775E+01 0.18952967390E+01 0.19664740811E+01 0.20648179856E+01 0.21924276845E+01
 0.23526643050E+01 0.25510624718E+01 0.27964070347E+01 0.31015939626E+01 0.34837498464E+01
 0.39630087669E+01 0.45594056971E+01 0.52877306584E+01 0.61510314879E+01 0.71345212702E+01
 0.82030900993E+01 0.93954237576E+01 0.10860301209E+02 0.12617576175E+02 0.10332039226E+02
 0.11276424903E+02 0.12064062953E+02 0.12550355794E+02 0.12632798321E+02 0.12287546444E+02
 0.11576405588E+02 0.10623922143E+02 0.95760095060E+01 0.85569136724E+01 0.76378849959E+01
 0.68216968245E+01 0.60576774125E+01 0.53443976691E+01 0.47013144927E+01 0.41400574179E+01
 0.36636917964E+01 0.32677990764E+01 0.29429295952E+01 0.26774960448E+01 0.24602376051E+01
 0.22817877293E+01 0.21352882262E+01 0.20162454218E+01 0.19219402824E+01 0.18507318344E+01
 0.18015283328E+01 0.17735475144E+01 0.17663188103E+01 0.17797893538E+01 0.18144060773E+01
 0.18711115572E+01 0.19512678935E+01 0.20566016122E+01 0.21893225472E+01 0.23525519954E+01
 0.25510624718E+01 0.27921312544E+01 0.30861408439E+01 0.34464763995E+01 0.38882738386E+01
 0.44256992526E+01 0.50677968545E+01 0.58135669423E+01 0.66476172839E+01 0.75380446030E+01
 0.84401835931E+01 0.93637472449E+01 0.81236459492E+01 0.86628128738E+01 0.90857135696E+01
 0.93522766663E+01 0.94198150694E+01 0.92695894788E+01 0.89193205585E+01 0.84180595496E+01
 0.78273728576E+01 0.71975116661E+01 0.65496946403E+01 0.59015995009E+01 0.52787534953E+01
 0.47013144927E+01 0.41829654927E+01 0.37305369461E+01 0.33444556090E+01 0.30201071307E+01
 0.27498059872E+01 0.25248448214E+01 0.23371446476E+01 0.21802466535E+01 0.20496186788E+01
 0.19424150883E+01 0.18569280284E+01 0.17920047760E+01 0.17466576179E+01 0.17199604401E+01
 0.17111747809E+01 0.17199625485E+01 0.17465499162E+01 0.17917650735E+01 0.18569357945E+01
 0.19436977018E+01 0.20538358138E+01 0.21893225472E+01 0.23526643050E+01 0.25475183429E+01
 0.27793629362E+01 0.30558837618E+01 0.33867108679E+01 0.37821974010E+01 0.42510926291E+01
 0.47972742175E+01 0.54161483749E+01 0.60917351961E+01 0.67955752946E+01 0.74882575118E+01
 0.65271902006E+01 0.69606065944E+01 0.72973401287E+01 0.75101441669E+01 0.75823647604E+01
 0.75101712750E+01 0.73024859546E+01 0.69788188118E+01 0.65657445871E+01 0.60929902521E+01
 0.55899611085E+01 0.50831406052E+01 0.45944004402E+01 0.41400574179E+01 0.37305369461E+01
 0.33706109012E+01 0.30602095552E+01 0.27957150659E+01 0.25715045914E+01 0.23814341742E+01
 0.22199887869E+01 0.20829398686E+01 0.19674907314E+01 0.18720122913E+01 0.17955583496E+01
 0.17373829785E+01 0.16966431204E+01 0.16723638358E+01 0.16636201673E+01 0.16698105023E+01
 0.16908886853E+01 0.17274637508E+01 0.17807312061E+01 0.18522567991E+01 0.19436977018E+01
 0.20566016122E+01 0.21924276845E+01 0.23528529359E+01 0.25402858289E+01 0.27583706803E+01
 0.30121920662E+01 0.33078991076E+01 0.36515629744E+01 0.40472576044E+01 0.44946099578E+01
 0.49863549646E+01 0.55066399904E+01 0.60308193276E+01 0.52978515974E+01 0.56258966259E+01
 0.58916690961E+01 0.60733745237E+01 0.61554658339E+01 0.61311010042E+01 0.60030622780E+01
 0.57829794039E+01 0.54891558304E+01 0.51436266322E+01 0.47691604340E+01 0.43867574834E+01
 0.40139157603E+01 0.36636917964E+01 0.33444556090E+01 0.30602095552E+01 0.28113403025E+01
 0.25956568341E+01 0.24095389802E+01 0.22490071102E+01 0.21105438926E+01 0.19915569085E+01
 0.18904577820E+01 0.18064298619E+01 0.17390328560E+01 0.16878199667E+01 0.16521093562E+01
 0.16309727487E+01 0.16234147880E+01 0.16286523064E+01 0.16463802488E+01 0.16769272929E+01
 0.17212453769E+01 0.17807312061E+01 0.18569357945E+01 0.19512678935E+01 0.20648179856E+01
 0.21984004045E+01 0.23528281381E+01 0.25293220407E+01 0.27298585144E+01 0.29572211187E+01
 0.32145635191E+01 0.35044072230E+01 0.38271633723E+01 0.41794513066E+01 0.45526448742E+01
 0.49321509732E+01 0.44001557139E+01 0.46370670185E+01 0.48335428143E+01 0.49741006736E+01
 0.50466023964E+01 0.50442643137E+01 0.49667965031E+01 0.48203936891E+01 0.46166113476E+01
 0.43704568283E+01 0.40981923074E+01 0.38153301854E+01 0.35351419729E+01 0.32677990764E+01
 0.30201071307E+01 0.27957150659E+01 0.25956568341E+01 0.24190865466E+01 0.22640773028E+01
 0.21283636892E+01 0.20099205674E+01 0.19072976643E+01 0.18196817842E+01 0.17467302913E+01
 0.16882825681E+01 0.16440789668E+01 0.16135909250E+01 0.15960107909E+01 0.15903925704E+01
 0.15958904402E+01 0.16120142248E+01 0.16388141434E+01 0.16769272929E+01 0.17274637508E+01
 0.17917650735E+01 0.18711115572E+01 0.19664740811E+01 0.20783981378E+01 0.22070699641E+01
 0.23525476777E+01 0.25150582262E+01 0.26951980251E+01 0.28938690549E+01 0.31118462759E+01
 0.33489857424E+01 0.36032085449E+01 0.38695022285E+01 0.41392452738E+01 0.37625238776E+01
 0.39297822063E+01 0.40693590429E+01 0.41710887902E+01 0.42265172826E+01 0.42302904619E+01
 0.41811169675E+01 0.40820511053E+01 0.39400165775E+01 0.37647015331E+01 0.35671191278E+01
 0.33581789571E+01 0.31475462211E+01 0.29429295952E+01 0.27498059872E+01 0.25715045914E+01
 0.24095389802E+01 0.22640773028E+01 0.21344570370E+01 0.20196674972E+01 0.19187349667E+01
 0.18309585920E+01 0.17559729302E+01 0.16936577635E+01 0.16439600428E+01 0.16067119130E+01
 0.15815143171E+01 0.15677221511E+01 0.15645340391E+01 0.15711636810E+01 0.15870461622E+01
 0.16120142248E+01 0.16463802488E+01 0.16908886853E+01 0.17465499162E+01 0.18144060773E+01
 0.18952967390E+01 0.19896892448E+01 0.20976217387E+01 0.22187753390E+01 0.23526428906E+01
 0.24987081139E+01 0.26565201131E+01 0.28255679000E+01 0.30049246741E+01 0.31927152107E+01
 0.33855332000E+01 0.35779821428E+01 0.33125874631E+01 0.34300788555E+01 0.35271294025E+01
 0.35973735045E+01 0.36353524616E+01 0.36373687847E+01 0.36021620706E+01 0.35312252116E+01
 0.34286591245E+01 0.33005901647E+01 0.31542990357E+01 0.29972788080E+01 0.28364265231E+01
 0.26774960448E+01 0.25248448214E+01 0.23814341742E+01 0.22490071102E+01 0.21283636892E+01
 0.20196674972E+01 0.19227343798E+01 0.18372680344E+01 0.17630164662E+01 0.16998356109E+01
 0.16476666580E+01 0.16064565241E+01 0.15760641866E+01 0.15561924033E+01 0.15463701302E+01
 0.15459955756E+01 0.15544359617E+01 0.15711636810E+01 0.15958904402E+01 0.16286523064E+01
 0.16698105023E+01 0.17199625485E+01 0.17797893538E+01 0.18498808775E+01 0.19305838564E+01
 0.20219063097E+01 0.21234983735E+01 0.22347052253E+01 0.23546575526E+01 0.24823412847E+01
 0.26165872950E+01 0.27559482909E+01 0.28984734520E+01 0.30414348510E+01 0.31810911877E+01
 0.29937078490E+01 0.30760938191E+01 0.31423533044E+01 0.31885892845E+01 0.32114473479E+01
 0.32085938142E+01 0.31791371564E+01 0.31238813565E+01 0.30453246492E+01 0.29473814404E+01
 0.28348868551E+01 0.27130057361E+01 0.25866829163E+01 0.24602376051E+01 0.23371446476E+01
 0.22199887869E+01 0.21105438926E+01 0.20099205674E+01 0.19187349667E+01 0.18372680344E+01
 0.17655987350E+01 0.17037034509E+01 0.16515180757E+01 0.16089633366E+01 0.15759394211E+01
 0.15523016525E+01 0.15378323730E+01 0.15322244795E+01 0.15350893556E+01 0.15459955756E+01
 0.15645340391E+01 0.15903925704E+01 0.16234147880E+01 0.16636201673E+01 0.17111747809E+01
 0.17663188103E+01 0.18292697187E+01 0.19001248746E+01 0.19787846789E+01 0.20649087802E+01
 0.21579057704E+01 0.22569440915E+01 0.23609636207E+01 0.24686675266E+01 0.25784826131E+01
 0.26884899983E+01 0.27963425585E+01 0.28991983549E+01 0.27685654881E+01 0.28249069404E+01
 0.28680235742E+01 0.28955682683E+01 0.29055659167E+01 0.28966538871E+01 0.28683203887E+01
 0.28210818373E+01 0.27565366077E+01 0.26772574397E+01 0.25865315179E+01 0.24880049851E+01
 0.23853150892E+01 0.22817877293E+01 0.21802466535E+01 0.20829398686E+01 0.19915569085E+01
 0.19072976643E+01 0.18309585920E+01 0.17630164662E+01 0.17037034509E+01 0.16530744809E+01
 0.16110684666E+01 0.15775614801E+01 0.15524065705E+01 0.15354545957E+01 0.15265550141E+01
 0.15255429885E+01 0.15322244795E+01 0.15463701302E+01 0.15677221511E+01 0.15960107909E+01
 0.16309727487E+01 0.16723638358E+01 0.17199604401E+01 0.17735475144E+01 0.18328948926E+01
 0.18977278629E+01 0.19676992038E+01 0.20423660678E+01 0.21211682477E+01 0.22034003827E+01
 0.22881738678E+01 0.23743727107E+01 0.24606147217E+01 0.25452301729E+01 0.26262652521E+01
 0.27015121439E+01 0.26162472280E+01 0.26511491988E+01 0.26750095613E+01 0.26865105681E+01
 0.26846015616E+01 0.26685976358E+01 0.26382985130E+01 0.25941043466E+01 0.25370879199E+01
 0.24689840513E+01 0.23920785534E+01 0.23090112027E+01 0.22225352890E+01 0.21352882262E+01
 0.20496186788E+01 0.19674907314E+01 0.18904577820E+01 0.18196817842E+01 0.17559729302E+01
 0.16998356109E+01 0.16515180757E+01 0.16110684666E+01 0.15783982659E+01 0.15533489196E+01
 0.15357521324E+01 0.15254722517E+01 0.15224225165E+01 0.15265550141E+01 0.15378323730E+01
 0.15561924033E+01 0.15815143171E+01 0.16135909250E+01 0.16521093562E+01 0.16966431204E+01
 0.17466576179E+01 0.18015283328E+01 0.18605680340E+01 0.19230583117E+01 0.19882803369E+01
 0.20555373324E+01 0.21241579191E+01 0.21934704570E+01 0.22627476952E+01 0.23311355586E+01
 0.23975908776E+01 0.24608526417E+01 0.25194595623E+01 0.25718100062E+01 0.25270786794E+01
 0.25422834569E+01 0.25480953384E+01 0.25439967814E+01 0.25296474035E+01 0.25048978600E+01
 0.24698322785E+01 0.24248384804E+01 0.23706829072E+01 0.23085555223E+01 0.22400548102E+01
 0.21671016989E+01 0.20917955869E+01 0.20162454218E+01 0.19424150883E+01 0.18720122913E+01
 0.18064298619E+01 0.17467302913E+01 0.16936577635E+01 0.16476666580E+01 0.16089633366E+01
 0.15775614801E+01 0.15533489196E+01 0.15361590325E+01 0.15258358281E+01 0.15222807834E+01
 0.15254722517E+01 0.15354545957E+01 0.15523016525E+01 0.15760641866E+01 0.16067119130E+01
 0.16440789668E+01 0.16878199667E+01 0.17373829785E+01 0.17920047760E+01 0.18507318344E+01
 0.19124673785E+01 0.19760404565E+01 0.20402870351E+01 0.21041263726E+01 0.21666119601E+01
 0.22269398257E+01 0.22844097958E+01 0.23383533450E+01 0.23880563862E+01 0.24327086845E+01
 0.24714009776E+01 0.25031708906E+01 0.24976021238E+01 0.24934028872E+01 0.24808834824E+01
 0.24602603897E+01 0.24318446156E+01 0.23960009515E+01 0.23531384411E+01 0.23037445204E+01
 0.22484524991E+01 0.21881140479E+01 0.21238432229E+01 0.20570077807E+01 0.19891625664E+01
 0.19219402824E+01 0.18569280284E+01 0.17955583496E+01 0.17390328560E+01 0.16882825681E+01
 0.16439600428E+01 0.16064565241E+01 0.15759394211E+01 0.15524065705E+01 0.15357521324E+01
 0.15258358281E+01 0.15225446603E+01 0.15258358281E+01 0.15357521324E+01 0.15524065705E+01
 0.15759394211E+01 0.16064565241E+01 0.16439600428E+01 0.16882825681E+01 0.17390328560E+01
 0.17955583496E+01 0.18569280284E+01 0.19219402824E+01 0.19891625664E+01 0.20570077807E+01
 0.21238432229E+01 0.21881140479E+01 0.22484524991E+01 0.23037445204E+01 0.23531384411E+01
 0.23960009515E+01 0.24318446156E+01 0.24602603897E+01 0.24808834824E+01 0.24934028872E+01
 0.25270786794E+01 0.25031708906E+01 0.24714009776E+01 0.24327086845E+01 0.23880563862E+01
 0.23383533450E+01 0.22844097958E+01 0.22269398257E+01 0.21666119601E+01 0.21041263726E+01
 0.20402870351E+01 0.19760404565E+01 0.19124673785E+01 0.18507318344E+01 0.17920047760E+01
 0.17373829785E+01 0.16878199667E+01 0.16440789668E+01 0.16067119130E+01 0.15760641866E+01
 0.15523016525E+01 0.15354545957E+01 0.15254722517E+01 0.15222807834E+01 0.15258358281E+01
 0.15361590325E+01 0.15533489196E+01 0.15775614801E+01 0.16089633366E+01 0.16476666580E+01
 0.16936577635E+01 0.17467302913E+01 0.18064298619E+01 0.18720122913E+01 0.19424150883E+01
 0.20162454218E+01 0.20917955869E+01 0.21671016989E+01 0.22400548102E+01 0.23085555223E+01
 0.23706829072E+01 0.24248384804E+01 0.24698322785E+01 0.25048978600E+01 0.25296474035E+01
 0.25439967814E+01 0.25480953384E+01 0.25422834569E+01 0.26162472280E+01 0.25718100062E+01
 0.25194595623E+01 0.24608526417E+01 0.23975908776E+01 0.23311355586E+01 0.22627476952E+01
 0.21934704570E+01 0.21241579191E+01 0.20555373324E+01 0.19882803369E+01 0.19230583117E+01
 0.18605680340E+01 0.18015283328E+01 0.17466576179E+01 0.16966431204E+01 0.16521093562E+01
 0.16135909250E+01 0.15815143171E+01 0.15561924033E+01 0.15378323730E+01 0.15265550141E+01
 0.15224225165E+01 0.15254722517E+01 0.15357521324E+01 0.15533489196E+01 0.15783982659E+01
 0.16110684666E+01 0.16515180757E+01 0.16998356109E+01 0.17559729302E+01 0.18196817842E+01
 0.18904577820E+01 0.19674907314E+01 0.20496186788E+01 0.21352882262E+01 0.22225352890E+01
 0.23090112027E+01 0.23920785534E+01 0.24689840513E+01 0.25370879199E+01 0.25941043466E+01
 0.26382985130E+01 0.26685976358E+01 0.26846015616E+01 0.26865105681E+01 0.26750095613E+01
 0.26511491988E+01 0.27685654881E+01 0.27015121439E+01 0.26262652521E+01 0.25452301729E+01
 0.24606147217E+01 0.23743727107E+01 0.22881738678E+01 0.22034003827E+01 0.21211682477E+01
 0.20423660678E+01 0.19676992038E+01 0.18977278629E+01 0.18328948926E+01 0.17735475144E+01
 0.17199604401E+01 0.16723638358E+01 0.16309727487E+01 0.15960107909E+01 0.15677221511E+01
 0.15463701302E+01 0.15322244795E+01 0.15255429885E+01 0.15265550141E+01 0.15354545957E+01
 0.15524065705E+01 0.15775614801E+01 0.16110684666E+01 0.16530744809E+01 0.17037034509E+01
 0.17630164662E+01 0.18309585920E+01 0.19072976643E+01 0.19915569085E+01 0.20829398686E+01
 0.21802466535E+01 0.22817877293E+01 0.23853150892E+01 0.24880049851E+01 0.25865315179E+01
 0.26772574397E+01 0.27565366077E+01 0.28210818373E+01 0.28683203887E+01 0.28966538871E+01
 0.29055659167E+01 0.28955682683E+01 0.28680235742E+01 0.28249069404E+01 0.29937078490E+01
 0.28991983549E+01 0.27963425585E+01 0.26884899983E+01 0.25784826131E+01 0.24686675266E+01
 0.23609636207E+01 0.22569440915E+01 0.21579057704E+01 0.20649087802E+01 0.19787846789E+01
 0.19001248746E+01 0.18292697187E+01 0.17663188103E+01 0.17111747809E+01 0.16636201673E+01
 0.16234147880E+01 0.15903925704E+01 0.15645340391E+01 0.15459955756E+01 0.15350893556E+01
 0.15322244795E+01 0.15378323730E+01 0.15523016525E+01 0.15759394211E+01 0.16089633366E+01
 0.16515180757E+01 0.17037034509E+01 0.17655987350E+01 0.18372680344E+01 0.19187349667E+01
 0.20099205674E+01 0.21105438926E+01 0.22199887869E+01 0.23371446476E+01 0.24602376051E+01
 0.25866829163E+01 0.27130057361E+01 0.28348868551E+01 0.29473814404E+01 0.30453246492E+01
 0.31238813565E+01 0.31791371564E+01 0.32085938142E+01 0.32114473479E+01 0.31885892845E+01
 0.31423533044E+01 0.30760938191E+01 0.33125874631E+01 0.31810911877E+01 0.30414348510E+01
 0.28984734520E+01 0.27559482909E+01 0.26165872950E+01 0.24823412847E+01 0.23546575526E+01
 0.22347052253E+01 0.21234983735E+01 0.20219063097E+01 0.19305838564E+01 0.18498808775E+01
 0.17797893538E+01 0.17199625485E+01 0.16698105023E+01 0.16286523064E+01 0.15958904402E+01
 0.15711636810E+01 0.15544359617E+01 0.15459955756E+01 0.15463701302E+01 0.15561924033E+01
 0.15760641866E+01 0.16064565241E+01 0.16476666580E+01 0.16998356109E+01 0.17630164662E+01
 0.18372680344E+01 0.19227343798E+01 0.20196674972E+01 0.21283636892E+01 0.22490071102E+01
 0.23814341742E+01 0.25248448214E+01 0.26774960448E+01 0.28364265231E+01 0.29972788080E+01
 0.31542990357E+01 0.33005901647E+01 0.34286591245E+01 0.35312252116E+01 0.36021620706E+01
 0.36373687847E+01 0.36353524616E+01 0.35973735045E+01 0.35271294025E+01 0.34300788555E+01
 0.37625238776E+01 0.35779821428E+01 0.33855332000E+01 0.31927152107E+01 0.30049246741E+01
 0.28255679000E+01 0.26565201131E+01 0.24987081139E+01 0.23526428906E+01 0.22187753390E+01
 0.20976217387E+01 0.19896892448E+01 0.18952967390E+01 0.18144060773E+01 0.17465499162E+01
 0.16908886853E+01 0.16463802488E+01 0.16120142248E+01 0.15870461622E+01 0.15711636810E+01
 0.15645340391E+01 0.15677221511E+01 0.15815143171E+01 0.16067119130E+01 0.16439600428E+01
 0.16936577635E+01 0.17559729302E+01 0.18309585920E+01 0.19187349667E+01 0.20196674972E+01
 0.21344570370E+01 0.22640773028E+01 0.24095389802E+01 0.25715045914E+01 0.27498059872E+01
 0.29429295952E+01 0.31475462211E+01 0.33581789571E+01 0.35671191278E+01 0.37647015331E+01
 0.39400165775E+01 0.40820511053E+01 0.41811169675E+01 0.42302904619E+01 0.42265172826E+01
 0.41710887902E+01 0.40693590429E+01 0.39297822063E+01 0.44001557139E+01 0.41392452738E+01
 0.38695022285E+01 0.36032085449E+01 0.33489857424E+01 0.31118462759E+01 0.28938690549E+01
 0.26951980251E+01 0.25150582262E+01 0.23525476777E+01 0.22070699641E+01 0.20783981378E+01
 0.19664740811E+01 0.18711115572E+01 0.17917650735E+01 0.17274637508E+01 0.16769272929E+01
 0.16388141434E+01 0.16120142248E+01 0.15958904402E+01 0.15903925704E+01 0.15960107909E+01
 0.16135909250E+01 0.16440789668E+01 0.16882825681E+01 0.17467302913E+01 0.18196817842E+01
 0.19072976643E+01 0.20099205674E+01 0.21283636892E+01 0.22640773028E+01 0.24190865466E+01
 0.25956568341E+01 0.27957150659E+01 0.30201071307E+01 0.32677990764E+01 0.35351419729E+01
 0.38153301854E+01 0.40981923074E+01 0.43704568283E+01 0.46166113476E+01 0.48203936891E+01
 0.49667965031E+01 0.50442643137E+01 0.50466023964E+01 0.49741006736E+01 0.48335428143E+01
 0.46370670185E+01 0.52978515974E+01 0.49321509732E+01 0.45526448742E+01 0.41794513066E+01
 0.38271633723E+01 0.35044072230E+01 0.32145635191E+01 0.29572211187E+01 0.27298585144E+01
 0.25293220407E+01 0.23528281381E+01 0.21984004045E+01 0.20648179856E+01 0.19512678935E+01
 0.18569357945E+01 0.17807312061E+01 0.17212453769E+01 0.16769272929E+01 0.16463802488E+01
 0.16286523064E+01 0.16234147880E+01 0.16309727487E+01 0.16521093562E+01 0.16878199667E+01
 0.17390328560E+01 0.18064298619E+01 0.18904577820E+01 0.19915569085E+01 0.21105438926E+01
 0.22490071102E+01 0.24095389802E+01 0.25956568341E+01 0.28113403025E+01 0.30602095552E+01
 0.33444556090E+01 0.36636917964E+01 0.40139157603E+01 0.43867574834E+01 0.47691604340E+01
 0.51436266322E+01 0.54891558304E+01 0.57829794039E+01 0.60030622780E+01 0.61311010042E+01
 0.61554658339E+01 0.60733745237E+01 0.58916690961E+01 0.56258966259E+01 0.65271902006E+01
 0.60308193276E+01 0.55066399904E+01 0.49863549646E+01 0.44946099578E+01 0.40472576044E+01
 0.36515629744E+01 0.33078991076E+01 0.30121920662E+01 0.27583706803E+01 0.25402858289E+01
 0.23528529359E+01 0.21924276845E+01 0.20566016122E+01 0.19436977018E+01 0.18522567991E+01
 0.17807312061E+01 0.17274637508E+01 0.16908886853E+01 0.16698105023E+01 0.16636201673E+01
 0.16723638358E+01 0.16966431204E+01 0.17373829785E+01 0.17955583496E+01 0.18720122913E+01
 0.19674907314E+01 0.20829398686E+01 0.22199887869E+01 0.23814341742E+01 0.25715045914E+01
 0.27957150659E+01 0.30602095552E+01 0.33706109012E+01 0.37305369461E+01 0.41400574179E+01
 0.45944004402E+01 0.50831406052E+01 0.55899611085E+01 0.60929902521E+01 0.65657445871E+01
 0.69788188118E+01 0.73024859546E+01 0.75101712750E+01 0.75823647604E+01 0.75101441669E+01