       N       E                     dE             d eps       ncg     rms          rms(c)
DAV:   1     0.203903694974E+02    0.20390E+02   -0.30825E+03  1288   0.528E+02
DAV:   2    -0.548252675398E+01   -0.25873E+02   -0.22136E+02  1292   0.961E+01
DAV:   3    -0.610104948249E+01   -0.61852E+00   -0.61296E+00  1496   0.191E+01
DAV:   4    -0.610460824483E+01   -0.35588E-02   -0.35646E-02  1376   0.141E+00
DAV:   5    -0.610465242379E+01   -0.44179E-04   -0.44226E-04  1476   0.162E-01    0.850E+00
DAV:   6    -0.626048343211E+01   -0.15583E+00   -0.18256E+01  1456   0.490E+01    0.151E+01
DAV:   7    -0.541695632163E+01    0.84353E+00   -0.47562E+00  1460   0.213E+01    0.332E+00
DAV:   8    -0.542209012862E+01   -0.51338E-02   -0.38769E-02  1516   0.158E+00    0.130E+00
DAV:   9    -0.542264467054E+01   -0.55454E-03   -0.17745E-02  1492   0.658E-01    0.348E-01
DAV:  10    -0.542415881657E+01   -0.15141E-02   -0.11707E-02  1684   0.520E-01    0.298E-01
DAV:  11    -0.542537752728E+01   -0.12187E-02   -0.72789E-03  1404   0.739E-01    0.177E-01
DAV:  12    -0.542601712077E+01   -0.63959E-03   -0.14312E-03  1376   0.300E-01    0.190E-01
DAV:  13    -0.542622082122E+01   -0.20370E-03   -0.25591E-03  1516   0.388E-01    0.591E-02
DAV:  14    -0.542612952510E+01    0.91296E-04   -0.11976E-04  1464   0.123E-01    0.391E-02
DAV:  15    -0.542622534731E+01   -0.95822E-04   -0.15702E-04  1448   0.959E-02    0.199E-02
DAV:  16    -0.542619879936E+01    0.26548E-04   -0.25667E-05  1396   0.427E-02    0.219E-03
DAV:  17    -0.542619624053E+01    0.25588E-05   -0.34298E-07   700   0.592E-03    0.725E-04
DAV:  18    -0.542619539866E+01    0.84187E-06   -0.43297E-08   652   0.165E-03
   1 F= -.54261954E+01 E0= -.54261954E+01  d E =0.000000E+00  mag=     3.2202
