PROCAR lm decomposed
# of k-points:   26         # of bands:  12         # of ions:   1

 k-point    1 :    0.06250000 0.06250000 0.06250000     weight = 0.01562500

band   1 # energy   -4.11041123 # occ.  1.00000000
 
ion      s     py     pz     px    dxy    dyz    dz2    dxz    dx2    tot
  1  0.293  0.004  0.004  0.004  0.002  0.002  0.000  0.002  0.000  0.311
 
band   2 # energy   -2.67246074 # occ.  1.00000000
 
ion      s     py     pz     px    dxy    dyz    dz2    dxz    dx2    tot
  1  0.000  0.000  0.000  0.000  0.048  0.342  0.016  0.369  0.154  0.929
 
band   3 # energy   -2.67246074 # occ.  1.00000000
 
ion      s     py     pz     px    dxy    dyz    dz2    dxz    dx2    tot
  1  0.000  0.000  0.000  0.000  0.458  0.164  0.154  0.137  0.016  0.929
 
band   4 # energy   -2.59001719 # occ.  1.00000000
 
ion      s     py     pz     px    dxy    dyz    dz2    dxz    dx2    tot
  1  0.000  0.000  0.000  0.000  0.026  0.039  0.179  0.104  0.603  0.951
 
band   5 # energy   -2.59001719 # occ.  1.00000000
 
ion      s     py     pz     px    dxy    dyz    dz2    dxz    dx2    tot
  1  0.000  0.000  0.000  0.000  0.087  0.074  0.603  0.008  0.179  0.951
 
band   6 # energy   -2.51599964 # occ.  1.00000000
 
ion      s     py     pz     px    dxy    dyz    dz2    dxz    dx2    tot
  1  0.002  0.000  0.000  0.000  0.311  0.311  0.000  0.311  0.000  0.936
 
band   7 # energy    9.89494712 # occ.  0.00000000
 
ion      s     py     pz     px    dxy    dyz    dz2    dxz    dx2    tot
  1  0.097  0.126  0.126  0.126  0.011  0.011  0.000  0.011  0.000  0.505
 
band   8 # energy   10.80485708 # occ.  0.00000000
 
ion      s     py     pz     px    dxy    dyz    dz2    dxz    dx2    tot
  1  0.000  0.085  0.031  0.180  0.006  0.035  0.003  0.017  0.014  0.370
 
band   9 # energy   10.80485708 # occ.  0.00000000
 
ion      s     py     pz     px    dxy    dyz    dz2    dxz    dx2    tot
  1  0.000  0.113  0.166  0.018  0.032  0.003  0.014  0.022  0.003  0.370
 
band  10 # energy   14.38213376 # occ.  0.00000000
 
ion      s     py     pz     px    dxy    dyz    dz2    dxz    dx2    tot
  1  0.000  0.074  0.026  0.154  0.005  0.028  0.005  0.014  0.030  0.336
 
band  11 # energy   14.38213376 # occ.  0.00000000
 
ion      s     py     pz     px    dxy    dyz    dz2    dxz    dx2    tot
  1  0.000  0.095  0.143  0.015  0.026  0.003  0.030  0.018  0.005  0.336
 
band  12 # energy   15.73085072 # occ.  0.00000000
 
ion      s     py     pz     px    dxy    dyz    dz2    dxz    dx2    tot
  1  0.000  0.000  0.000  0.000  0.000  0.000  0.000  0.000  0.000  0.000
 

 k-point    2 :    0.18750000 0.06250000 0.06250000     weight = 0.04687500

band   1 # energy   -3.34743639 # occ.  1.00000000
 
ion      s     py     pz     px    dxy    dyz    dz2    dxz    dx2    tot
  1  0.229  0.010  0.010  0.003  0.011  0.109  0.007  0.011  0.022  0.412
 
band   2 # energy   -2.73267805 # occ.  1.00000000
 
ion      s     py     pz     px    dxy    dyz    dz2    dxz    dx2    tot
  1  0.000  0.000  0.000  0.000  0.415  0.000  0.066  0.415  0.022  0.920
 
band   3 # energy   -2.69077156 # occ.  1.00000000
 
ion      s     py     pz     px    dxy    dyz    dz2    dxz    dx2    tot
  1  0.016  0.002  0.002  0.000  0.086  0.178  0.130  0.086  0.391  0.891
 
band   4 # energy   -2.57826096 # occ.  1.00000000
 
ion      s     py     pz     px    dxy    dyz    dz2    dxz    dx2    tot
  1  0.000  0.000  0.000  0.000  0.044  0.000  0.649  0.044  0.216  0.954
 
band   5 # energy   -2.55478414 # occ.  1.00000000
 
ion      s     py     pz     px    dxy    dyz    dz2    dxz    dx2    tot
  1  0.000  0.000  0.000  0.000  0.077  0.394  0.098  0.077  0.295  0.943
 
band   6 # energy   -2.25955402 # occ.  1.00013409
 
ion      s     py     pz     px    dxy    dyz    dz2    dxz    dx2    tot
  1  0.030  0.003  0.003  0.001  0.299  0.244  0.000  0.299  0.001  0.883
 
band   7 # energy    6.73985764 # occ.  0.00000000
 
ion      s     py     pz     px    dxy    dyz    dz2    dxz    dx2    tot
  1  0.125  0.116  0.116  0.002  0.000  0.043  0.002  0.000  0.005  0.409
 
band   8 # energy    8.82384979 # occ.  0.00000000
 
ion      s     py     pz     px    dxy    dyz    dz2    dxz    dx2    tot
  1  0.037  0.000  0.000  0.303  0.016  0.015  0.003  0.016  0.010  0.400
 
band   9 # energy    9.49900287 # occ.  0.00000000
 
ion      s     py     pz     px    dxy    dyz    dz2    dxz    dx2    tot
  1  0.000  0.122  0.122  0.000  0.033  0.000  0.008  0.033  0.003  0.322
 
band  10 # energy   14.10441110 # occ.  0.00000000
 
ion      s     py     pz     px    dxy    dyz    dz2    dxz    dx2    tot
  1  0.053  0.029  0.029  0.133  0.001  0.018  0.024  0.001  0.071  0.358
 
band  11 # energy   14.28995466 # occ.  0.00000000
 
ion      s     py     pz     px    dxy    dyz    dz2    dxz    dx2    tot
  1  0.000  0.072  0.072  0.000  0.086  0.000  0.000  0.086  0.000  0.318
 
band  12 # energy   15.92453655 # occ.  0.00000000
 
ion      s     py     pz     px    dxy    dyz    dz2    dxz    dx2    tot
  1  0.000  0.066  0.066  0.000  0.000  0.000  0.045  0.000  0.015  0.193
 

 k-point    3 :    0.31250000 0.06250000 0.06250000     weight = 0.04687500

band   1 # energy   -3.04754183 # occ.  1.00000000
 
ion      s     py     pz     px    dxy    dyz    dz2    dxz    dx2    tot
  1  0.046  0.001  0.001  0.001  0.000  0.427  0.080  0.000  0.241  0.799
 
band   2 # energy   -2.78390002 # occ.  1.00000000
 
ion      s     py     pz     px    dxy    dyz    dz2    dxz    dx2    tot
  1  0.000  0.000  0.000  0.000  0.444  0.000  0.017  0.444  0.006  0.911
 
band   3 # energy   -2.57391829 # occ.  1.00000000
 
ion      s     py     pz     px    dxy    dyz    dz2    dxz    dx2    tot
  1  0.000  0.000  0.000  0.000  0.011  0.000  0.700  0.011  0.233  0.956
 
band   4 # energy   -2.54326309 # occ.  1.00000000
 
ion      s     py     pz     px    dxy    dyz    dz2    dxz    dx2    tot
  1  0.010  0.000  0.000  0.000  0.001  0.319  0.151  0.001  0.453  0.935
 
band   5 # energy   -2.34112023 # occ.  1.00000000
 
ion      s     py     pz     px    dxy    dyz    dz2    dxz    dx2    tot
  1  0.011  0.003  0.003  0.000  0.436  0.021  0.000  0.436  0.000  0.910
 
band   6 # energy   -1.25599188 # occ.  1.06774244
 
ion      s     py     pz     px    dxy    dyz    dz2    dxz    dx2    tot
  1  0.179  0.030  0.030  0.002  0.043  0.147  0.003  0.043  0.010  0.487
 
band   7 # energy    3.52968275 # occ.  0.00000000
 
ion      s     py     pz     px    dxy    dyz    dz2    dxz    dx2    tot
  1  0.161  0.081  0.081  0.000  0.002  0.052  0.002  0.002  0.007  0.388
 
band   8 # energy    7.77362341 # occ.  0.00000000
 
ion      s     py     pz     px    dxy    dyz    dz2    dxz    dx2    tot
  1  0.053  0.001  0.001  0.313  0.005  0.014  0.003  0.005  0.009  0.403
 
band   9 # energy    8.65977567 # occ.  0.00000000
 
ion      s     py     pz     px    dxy    dyz    dz2    dxz    dx2    tot
  1  0.000  0.115  0.115  0.000  0.036  0.000  0.003  0.036  0.001  0.304
 
band  10 # energy   13.56947801 # occ.  0.00000000
 
ion      s     py     pz     px    dxy    dyz    dz2    dxz    dx2    tot
  1  0.102  0.007  0.007  0.109  0.001  0.026  0.029  0.001  0.086  0.369
 
band  11 # energy   13.65890823 # occ.  0.00000000
 
ion      s     py     pz     px    dxy    dyz    dz2    dxz    dx2    tot
  1  0.000  0.041  0.041  0.000  0.099  0.000  0.000  0.099  0.000  0.281
 
band  12 # energy   17.35224381 # occ.  0.00000000
 
ion      s     py     pz     px    dxy    dyz    dz2    dxz    dx2    tot
  1  0.000  0.106  0.106  0.000  0.002  0.000  0.050  0.002  0.017  0.282
 

 k-point    4 :    0.43750000 0.06250000 0.06250000     weight = 0.02343750

band   1 # energy   -3.06351473 # occ.  1.00000000
 
ion      s     py     pz     px    dxy    dyz    dz2    dxz    dx2    tot
  1  0.027  0.000  0.000  0.001  0.000  0.428  0.095  0.000  0.286  0.837
 
band   2 # energy   -2.80409394 # occ.  1.00000000
 
ion      s     py     pz     px    dxy    dyz    dz2    dxz    dx2    tot
  1  0.000  0.000  0.000  0.000  0.454  0.000  0.000  0.454  0.000  0.908
 
band   3 # energy   -2.57267970 # occ.  1.00000000
 
ion      s     py     pz     px    dxy    dyz    dz2    dxz    dx2    tot
  1  0.000  0.000  0.000  0.000  0.000  0.000  0.718  0.000  0.239  0.957
 
band   4 # energy   -2.51952466 # occ.  1.00000000
 
ion      s     py     pz     px    dxy    dyz    dz2    dxz    dx2    tot
  1  0.006  0.000  0.000  0.000  0.000  0.396  0.136  0.000  0.407  0.944
 
band   5 # energy   -2.23009416 # occ.  1.00000000
 
ion      s     py     pz     px    dxy    dyz    dz2    dxz    dx2    tot
  1  0.000  0.002  0.002  0.000  0.472  0.000  0.000  0.472  0.000  0.948
 
band   6 # energy    0.76314694 # occ.  0.15584901
 
ion      s     py     pz     px    dxy    dyz    dz2    dxz    dx2    tot
  1  0.000  0.109  0.109  0.000  0.014  0.000  0.000  0.014  0.000  0.246
 
band   7 # energy    0.87450166 # occ.  0.00000000
 
ion      s     py     pz     px    dxy    dyz    dz2    dxz    dx2    tot
  1  0.377  0.000  0.000  0.003  0.000  0.140  0.005  0.000  0.016  0.541
 
band   8 # energy    7.41230606 # occ.  0.00000000
 
ion      s     py     pz     px    dxy    dyz    dz2    dxz    dx2    tot
  1  0.057  0.000  0.000  0.317  0.000  0.014  0.003  0.000  0.009  0.399
 
band   9 # energy    8.37294449 # occ.  0.00000000
 
ion      s     py     pz     px    dxy    dyz    dz2    dxz    dx2    tot
  1  0.000  0.113  0.113  0.000  0.037  0.000  0.000  0.037  0.000  0.299
 
band  10 # energy   13.37696314 # occ.  0.00000000
 
ion      s     py     pz     px    dxy    dyz    dz2    dxz    dx2    tot
  1  0.119  0.000  0.000  0.103  0.000  0.031  0.030  0.000  0.091  0.374
 
band  11 # energy   13.42555410 # occ.  0.00000000
 
ion      s     py     pz     px    dxy    dyz    dz2    dxz    dx2    tot
  1  0.000  0.036  0.036  0.000  0.102  0.000  0.000  0.102  0.000  0.278
 
band  12 # energy   18.74506943 # occ.  0.00000000
 
ion      s     py     pz     px    dxy    dyz    dz2    dxz    dx2    tot
  1  0.000  0.157  0.157  0.000  0.003  0.000  0.000  0.003  0.000  0.321
 

 k-point    5 :   -0.06250000 0.06250000 0.06250000     weight = 0.01171875

band   1 # energy   -4.40533649 # occ.  1.00000000
 
ion      s     py     pz     px    dxy    dyz    dz2    dxz    dx2    tot
  1  0.302  0.000  0.000  0.004  0.000  0.000  0.000  0.000  0.000  0.306
 
band   2 # energy   -2.63233011 # occ.  1.00000000
 
ion      s     py     pz     px    dxy    dyz    dz2    dxz    dx2    tot
  1  0.000  0.000  0.000  0.000  0.466  0.000  0.000  0.466  0.000  0.931
 
band   3 # energy   -2.63232898 # occ.  1.00000000
 
ion      s     py     pz     px    dxy    dyz    dz2    dxz    dx2    tot
  1  0.000  0.000  0.000  0.000  0.466  0.000  0.000  0.466  0.000  0.931
 
band   4 # energy   -2.61926124 # occ.  1.00000000
 
ion      s     py     pz     px    dxy    dyz    dz2    dxz    dx2    tot
  1  0.000  0.000  0.000  0.000  0.000  0.933  0.000  0.000  0.000  0.933
 
band   5 # energy   -2.60908759 # occ.  1.00000000
 
ion      s     py     pz     px    dxy    dyz    dz2    dxz    dx2    tot
  1  0.000  0.000  0.000  0.000  0.000  0.000  0.713  0.000  0.238  0.951
 
band   6 # energy   -2.58246162 # occ.  1.00000000
 
ion      s     py     pz     px    dxy    dyz    dz2    dxz    dx2    tot
  1  0.000  0.000  0.000  0.000  0.000  0.000  0.238  0.000  0.715  0.954
 
band   7 # energy   11.84904442 # occ.  0.00000000
 
ion      s     py     pz     px    dxy    dyz    dz2    dxz    dx2    tot
  1  0.055  0.000  0.000  0.472  0.000  0.000  0.001  0.000  0.002  0.530
 
band   8 # energy   11.91667250 # occ.  0.00000000
 
ion      s     py     pz     px    dxy    dyz    dz2    dxz    dx2    tot
  1  0.000  0.233  0.233  0.000  0.025  0.000  0.000  0.025  0.000  0.516
 
band   9 # energy   11.91667823 # occ.  0.00000000
 
ion      s     py     pz     px    dxy    dyz    dz2    dxz    dx2    tot
  1  0.000  0.233  0.233  0.000  0.025  0.000  0.000  0.025  0.000  0.516
 
band  10 # energy   13.73913473 # occ.  0.00000000
 
ion      s     py     pz     px    dxy    dyz    dz2    dxz    dx2    tot
  1  0.000  0.000  0.000  0.000  0.000  0.000  0.070  0.000  0.023  0.094
 
band  11 # energy   14.80232344 # occ.  0.00000000
 
ion      s     py     pz     px    dxy    dyz    dz2    dxz    dx2    tot
  1  0.000  0.037  0.037  0.000  0.045  0.000  0.000  0.045  0.000  0.164
 
band  12 # energy   14.80232463 # occ.  0.00000000
 
ion      s     py     pz     px    dxy    dyz    dz2    dxz    dx2    tot
  1  0.000  0.037  0.037  0.000  0.045  0.000  0.000  0.045  0.000  0.164
 

 k-point    6 :    0.18750000 0.18750000 0.06250000     weight = 0.04687500

band   1 # energy   -2.89940950 # occ.  1.00000000
 
ion      s     py     pz     px    dxy    dyz    dz2    dxz    dx2    tot
  1  0.054  0.003  0.003  0.003  0.047  0.264  0.148  0.264  0.000  0.785
 
band   2 # energy   -2.79088088 # occ.  1.00000000
 
ion      s     py     pz     px    dxy    dyz    dz2    dxz    dx2    tot
  1  0.000  0.001  0.000  0.001  0.000  0.224  0.000  0.224  0.461  0.911
 
band   3 # energy   -2.64173868 # occ.  1.00000000
 
ion      s     py     pz     px    dxy    dyz    dz2    dxz    dx2    tot
  1  0.026  0.001  0.007  0.001  0.740  0.002  0.073  0.002  0.000  0.853
 
band   4 # energy   -2.54201159 # occ.  1.00000000
 
ion      s     py     pz     px    dxy    dyz    dz2    dxz    dx2    tot
  1  0.000  0.000  0.000  0.000  0.000  0.232  0.000  0.232  0.483  0.947
 
band   5 # energy   -2.53907461 # occ.  1.00000000
 
ion      s     py     pz     px    dxy    dyz    dz2    dxz    dx2    tot
  1  0.014  0.000  0.001  0.000  0.044  0.072  0.722  0.072  0.000  0.924
 
band   6 # energy   -1.45277294 # occ.  1.06259229
 
ion      s     py     pz     px    dxy    dyz    dz2    dxz    dx2    tot
  1  0.160  0.010  0.023  0.010  0.103  0.133  0.011  0.133  0.000  0.582
 
band   7 # energy    5.13627766 # occ.  0.00000000
 
ion      s     py     pz     px    dxy    dyz    dz2    dxz    dx2    tot
  1  0.213  0.041  0.118  0.041  0.005  0.007  0.000  0.007  0.000  0.432
 
band   8 # energy    6.11254398 # occ.  0.00000000
 
ion      s     py     pz     px    dxy    dyz    dz2    dxz    dx2    tot
  1  0.000  0.107  0.000  0.107  0.000  0.041  0.000  0.041  0.019  0.315
 
band   9 # energy    8.09886826 # occ.  0.00000000
 
ion      s     py     pz     px    dxy    dyz    dz2    dxz    dx2    tot
  1  0.015  0.086  0.073  0.086  0.047  0.011  0.006  0.011  0.000  0.336
 
band  10 # energy   15.29775464 # occ.  0.00000000
 
ion      s     py     pz     px    dxy    dyz    dz2    dxz    dx2    tot
  1  0.050  0.056  0.096  0.056  0.055  0.046  0.022  0.046  0.000  0.426
 
band  11 # energy   15.42522242 # occ.  0.00000000
 
ion      s     py     pz     px    dxy    dyz    dz2    dxz    dx2    tot
  1  0.000  0.067  0.000  0.067  0.000  0.002  0.000  0.002  0.127  0.265
 
band  12 # energy   17.22066228 # occ.  0.00000000
 
ion      s     py     pz     px    dxy    dyz    dz2    dxz    dx2    tot
  1  0.000  0.075  0.000  0.075  0.000  0.051  0.000  0.051  0.011  0.264
 

 k-point    7 :    0.31250000 0.18750000 0.06250000     weight = 0.09375000

band   1 # energy   -2.91347313 # occ.  1.00000000
 
ion      s     py     pz     px    dxy    dyz    dz2    dxz    dx2    tot
  1  0.016  0.000  0.000  0.003  0.040  0.463  0.100  0.031  0.211  0.864
 
band   2 # energy   -2.78949625 # occ.  1.00000000
 
ion      s     py     pz     px    dxy    dyz    dz2    dxz    dx2    tot
  1  0.000  0.001  0.000  0.000  0.299  0.004  0.000  0.435  0.165  0.905
 
band   3 # energy   -2.61221734 # occ.  1.00000000
 
ion      s     py     pz     px    dxy    dyz    dz2    dxz    dx2    tot
  1  0.001  0.001  0.002  0.000  0.124  0.000  0.628  0.001  0.182  0.938
 
band   4 # energy   -2.51362290 # occ.  1.00000000
 
ion      s     py     pz     px    dxy    dyz    dz2    dxz    dx2    tot
  1  0.003  0.000  0.000  0.001  0.010  0.381  0.135  0.047  0.368  0.945
 
band   5 # energy   -2.40147132 # occ.  1.00000000
 
ion      s     py     pz     px    dxy    dyz    dz2    dxz    dx2    tot
  1  0.004  0.003  0.004  0.000  0.430  0.002  0.084  0.377  0.015  0.919
 
band   6 # energy    0.23563212 # occ.  0.33286576
 
ion      s     py     pz     px    dxy    dyz    dz2    dxz    dx2    tot
  1  0.223  0.025  0.045  0.008  0.022  0.069  0.008  0.035  0.001  0.436
 
band   7 # energy    2.59544113 # occ.  0.00000000
 
ion      s     py     pz     px    dxy    dyz    dz2    dxz    dx2    tot
  1  0.174  0.081  0.065  0.001  0.016  0.033  0.000  0.007  0.006  0.383
 
band   8 # energy    5.08952106 # occ.  0.00000000
 
ion      s     py     pz     px    dxy    dyz    dz2    dxz    dx2    tot
  1  0.063  0.029  0.024  0.162  0.008  0.022  0.001  0.027  0.011  0.348
 
band   9 # energy    7.50263460 # occ.  0.00000000
 
ion      s     py     pz     px    dxy    dyz    dz2    dxz    dx2    tot
  1  0.019  0.085  0.076  0.079  0.037  0.011  0.001  0.024  0.000  0.333
 
band  10 # energy   14.96998672 # occ.  0.00000000
 
ion      s     py     pz     px    dxy    dyz    dz2    dxz    dx2    tot
  1  0.045  0.007  0.022  0.093  0.035  0.013  0.016  0.043  0.055  0.330
 
band  11 # energy   16.78389363 # occ.  0.00000000
 
ion      s     py     pz     px    dxy    dyz    dz2    dxz    dx2    tot
  1  0.000  0.142  0.045  0.025  0.059  0.003  0.000  0.040  0.091  0.405
 
band  12 # energy   17.50265020 # occ.  0.00000000
 
ion      s     py     pz     px    dxy    dyz    dz2    dxz    dx2    tot
  1  0.044  0.010  0.000  0.058  0.008  0.048  0.040  0.015  0.001  0.224
 

 k-point    8 :   -0.18750000 0.18750000 0.06250000     weight = 0.04687500

band   1 # energy   -3.82872265 # occ.  1.00000000
 
ion      s     py     pz     px    dxy    dyz    dz2    dxz    dx2    tot
  1  0.280  0.003  0.000  0.014  0.014  0.000  0.006  0.000  0.005  0.323
 
band   2 # energy   -2.67988122 # occ.  1.00000000
 
ion      s     py     pz     px    dxy    dyz    dz2    dxz    dx2    tot
  1  0.002  0.000  0.000  0.000  0.186  0.000  0.601  0.000  0.141  0.931
 
band   3 # energy   -2.67258465 # occ.  1.00000000
 
ion      s     py     pz     px    dxy    dyz    dz2    dxz    dx2    tot
  1  0.000  0.000  0.000  0.000  0.000  0.374  0.000  0.551  0.000  0.926
 
band   4 # energy   -2.57754745 # occ.  1.00000000
 
ion      s     py     pz     px    dxy    dyz    dz2    dxz    dx2    tot
  1  0.003  0.001  0.000  0.001  0.704  0.000  0.109  0.000  0.112  0.930
 
band   5 # energy   -2.56416167 # occ.  1.00000000
 
ion      s     py     pz     px    dxy    dyz    dz2    dxz    dx2    tot
  1  0.003  0.000  0.000  0.000  0.023  0.000  0.230  0.000  0.695  0.951
 
band   6 # energy   -2.50010541 # occ.  1.00000000
 
ion      s     py     pz     px    dxy    dyz    dz2    dxz    dx2    tot
  1  0.000  0.000  0.001  0.000  0.000  0.562  0.000  0.379  0.000  0.941
 
band   7 # energy    8.51443939 # occ.  0.00000000
 
ion      s     py     pz     px    dxy    dyz    dz2    dxz    dx2    tot
  1  0.086  0.147  0.000  0.125  0.050  0.000  0.008  0.000  0.000  0.415
 
band   8 # energy   10.31254693 # occ.  0.00000000
 
ion      s     py     pz     px    dxy    dyz    dz2    dxz    dx2    tot
  1  0.000  0.000  0.393  0.000  0.000  0.001  0.000  0.063  0.000  0.458
 
band   9 # energy   11.00750468 # occ.  0.00000000
 
ion      s     py     pz     px    dxy    dyz    dz2    dxz    dx2    tot
  1  0.036  0.127  0.000  0.207  0.009  0.000  0.012  0.000  0.010  0.399
 
band  10 # energy   13.01266376 # occ.  0.00000000
 
ion      s     py     pz     px    dxy    dyz    dz2    dxz    dx2    tot
  1  0.010  0.158  0.000  0.009  0.000  0.000  0.088  0.000  0.009  0.273
 
band  11 # energy   13.77667946 # occ.  0.00000000
 
ion      s     py     pz     px    dxy    dyz    dz2    dxz    dx2    tot
  1  0.000  0.000  0.055  0.000  0.000  0.121  0.000  0.077  0.000  0.253
 
band  12 # energy   14.54099048 # occ.  0.00000000
 
ion      s     py     pz     px    dxy    dyz    dz2    dxz    dx2    tot
  1  0.062  0.008  0.000  0.022  0.075  0.000  0.001  0.000  0.032  0.200
 

 k-point    9 :    0.31250000 0.31250000 0.06250000     weight = 0.01562500

band   1 # energy   -2.84361883 # occ.  1.00000000
 
ion      s     py     pz     px    dxy    dyz    dz2    dxz    dx2    tot
  1  0.009  0.000  0.000  0.000  0.292  0.292  0.000  0.292  0.000  0.886
 
band   2 # energy   -2.72083567 # occ.  1.00000000
 
ion      s     py     pz     px    dxy    dyz    dz2    dxz    dx2    tot
  1  0.000  0.001  0.003  0.001  0.176  0.044  0.642  0.044  0.000  0.912
 
band   3 # energy   -2.72083465 # occ.  1.00000000
 
ion      s     py     pz     px    dxy    dyz    dz2    dxz    dx2    tot
  1  0.000  0.003  0.000  0.003  0.000  0.132  0.000  0.132  0.642  0.912
 
band   4 # energy   -2.45985321 # occ.  1.00000000
 
ion      s     py     pz     px    dxy    dyz    dz2    dxz    dx2    tot
  1  0.000  0.002  0.000  0.002  0.000  0.316  0.000  0.316  0.303  0.939
 
band   5 # energy   -2.45985050 # occ.  1.00000000
 
ion      s     py     pz     px    dxy    dyz    dz2    dxz    dx2    tot
  1  0.000  0.001  0.002  0.001  0.422  0.105  0.303  0.105  0.000  0.939
 
band   6 # energy    1.73794443 # occ. -0.04366429
 
ion      s     py     pz     px    dxy    dyz    dz2    dxz    dx2    tot
  1  0.481  0.000  0.000  0.000  0.016  0.016  0.000  0.016  0.000  0.531
 
band   7 # energy    2.67036715 # occ.  0.00000000
 
ion      s     py     pz     px    dxy    dyz    dz2    dxz    dx2    tot
  1  0.000  0.035  0.140  0.035  0.055  0.014  0.013  0.014  0.000  0.306
 
band   8 # energy    2.67037194 # occ.  0.00000000
 
ion      s     py     pz     px    dxy    dyz    dz2    dxz    dx2    tot
  1  0.000  0.105  0.000  0.105  0.000  0.041  0.000  0.041  0.013  0.306
 
band   9 # energy    7.20541897 # occ.  0.00000000
 
ion      s     py     pz     px    dxy    dyz    dz2    dxz    dx2    tot
  1  0.026  0.080  0.080  0.080  0.025  0.025  0.000  0.025  0.000  0.338
 
band  10 # energy   16.73561428 # occ.  0.00000000
 
ion      s     py     pz     px    dxy    dyz    dz2    dxz    dx2    tot
  1  0.077  0.090  0.090  0.090  0.062  0.062  0.000  0.062  0.000  0.532
 
band  11 # energy   16.92000872 # occ.  0.00000000
 
ion      s     py     pz     px    dxy    dyz    dz2    dxz    dx2    tot
  1  0.000  0.012  0.049  0.012  0.003  0.001  0.130  0.001  0.000  0.207
 
band  12 # energy   16.92001278 # occ.  0.00000000
 
ion      s     py     pz     px    dxy    dyz    dz2    dxz    dx2    tot
  1  0.000  0.036  0.000  0.036  0.000  0.002  0.000  0.002  0.130  0.207
 

 k-point   10 :   -0.31250000 0.31250000 0.06250000     weight = 0.04687500

band   1 # energy   -3.14292467 # occ.  1.00000000
 
ion      s     py     pz     px    dxy    dyz    dz2    dxz    dx2    tot
  1  0.112  0.002  0.000  0.009  0.303  0.000  0.213  0.000  0.016  0.655
 
band   2 # energy   -2.73550116 # occ.  1.00000000
 
ion      s     py     pz     px    dxy    dyz    dz2    dxz    dx2    tot
  1  0.000  0.000  0.000  0.000  0.000  0.422  0.000  0.496  0.000  0.918
 
band   3 # energy   -2.65901240 # occ.  1.00000000
 
ion      s     py     pz     px    dxy    dyz    dz2    dxz    dx2    tot
  1  0.012  0.001  0.000  0.002  0.006  0.000  0.321  0.000  0.572  0.914
 
band   4 # energy   -2.54206377 # occ.  1.00000000
 
ion      s     py     pz     px    dxy    dyz    dz2    dxz    dx2    tot
  1  0.004  0.000  0.000  0.000  0.272  0.000  0.378  0.000  0.293  0.947
 
band   5 # energy   -2.31418584 # occ.  1.00000000
 
ion      s     py     pz     px    dxy    dyz    dz2    dxz    dx2    tot
  1  0.000  0.000  0.001  0.000  0.000  0.518  0.000  0.437  0.000  0.956
 
band   6 # energy   -2.12060013 # occ.  1.00985104
 
ion      s     py     pz     px    dxy    dyz    dz2    dxz    dx2    tot
  1  0.134  0.013  0.000  0.023  0.338  0.000  0.026  0.000  0.074  0.609
 
band   7 # energy    5.04065508 # occ.  0.00000000
 
ion      s     py     pz     px    dxy    dyz    dz2    dxz    dx2    tot
  1  0.133  0.110  0.000  0.083  0.052  0.000  0.009  0.000  0.001  0.388
 
band   8 # energy    8.97803955 # occ.  0.00000000
 
ion      s     py     pz     px    dxy    dyz    dz2    dxz    dx2    tot
  1  0.000  0.000  0.386  0.000  0.000  0.000  0.000  0.042  0.000  0.429
 
band   9 # energy    9.98412510 # occ.  0.00000000
 
ion      s     py     pz     px    dxy    dyz    dz2    dxz    dx2    tot
  1  0.040  0.106  0.000  0.160  0.004  0.000  0.021  0.000  0.006  0.336
 
band  10 # energy   12.75430657 # occ.  0.00000000
 
ion      s     py     pz     px    dxy    dyz    dz2    dxz    dx2    tot
  1  0.078  0.124  0.000  0.009  0.016  0.000  0.104  0.000  0.000  0.331
 
band  11 # energy   12.84084430 # occ.  0.00000000
 
ion      s     py     pz     px    dxy    dyz    dz2    dxz    dx2    tot
  1  0.000  0.000  0.040  0.000  0.000  0.138  0.000  0.099  0.000  0.277
 
band  12 # energy   15.08317468 # occ.  0.00000000
 
ion      s     py     pz     px    dxy    dyz    dz2    dxz    dx2    tot
  1  0.060  0.040  0.000  0.029  0.063  0.000  0.004  0.000  0.051  0.246
 

 k-point   11 :   -0.18750000 0.31250000 0.06250000     weight = 0.04687500

band   1 # energy   -3.17097332 # occ.  1.00000000
 
ion      s     py     pz     px    dxy    dyz    dz2    dxz    dx2    tot
  1  0.176  0.002  0.002  0.019  0.076  0.000  0.040  0.076  0.120  0.511
 
band   2 # energy   -2.77188204 # occ.  1.00000000
 
ion      s     py     pz     px    dxy    dyz    dz2    dxz    dx2    tot
  1  0.000  0.000  0.000  0.000  0.095  0.000  0.550  0.095  0.183  0.924
 
band   3 # energy   -2.64207363 # occ.  1.00000000
 
ion      s     py     pz     px    dxy    dyz    dz2    dxz    dx2    tot
  1  0.005  0.000  0.000  0.002  0.162  0.488  0.023  0.162  0.070  0.913
 
band   4 # energy   -2.56135235 # occ.  1.00000000
 
ion      s     py     pz     px    dxy    dyz    dz2    dxz    dx2    tot
  1  0.000  0.001  0.001  0.000  0.367  0.000  0.152  0.367  0.051  0.937
 
band   5 # energy   -2.48205425 # occ.  1.00000000
 
ion      s     py     pz     px    dxy    dyz    dz2    dxz    dx2    tot
  1  0.023  0.000  0.000  0.002  0.035  0.236  0.145  0.035  0.435  0.911
 
band   6 # energy   -2.21426670 # occ.  1.00182497
 
ion      s     py     pz     px    dxy    dyz    dz2    dxz    dx2    tot
  1  0.066  0.002  0.002  0.010  0.193  0.217  0.031  0.193  0.092  0.805
 
band   7 # energy    6.72639397 # occ.  0.00000000
 
ion      s     py     pz     px    dxy    dyz    dz2    dxz    dx2    tot
  1  0.158  0.057  0.057  0.126  0.017  0.001  0.000  0.017  0.000  0.432
 
band   8 # energy    7.48990692 # occ.  0.00000000
 
ion      s     py     pz     px    dxy    dyz    dz2    dxz    dx2    tot
  1  0.000  0.119  0.119  0.000  0.034  0.000  0.020  0.034  0.007  0.333
 
band   9 # energy   10.56538073 # occ.  0.00000000
 
ion      s     py     pz     px    dxy    dyz    dz2    dxz    dx2    tot
  1  0.013  0.144  0.144  0.130  0.002  0.009  0.000  0.002  0.000  0.444
 
band  10 # energy   12.46083746 # occ.  0.00000000
 
ion      s     py     pz     px    dxy    dyz    dz2    dxz    dx2    tot
  1  0.000  0.047  0.047  0.000  0.006  0.000  0.089  0.006  0.030  0.223
 
band  11 # energy   13.31435666 # occ.  0.00000000
 
ion      s     py     pz     px    dxy    dyz    dz2    dxz    dx2    tot
  1  0.083  0.001  0.001  0.016  0.051  0.077  0.005  0.051  0.014  0.298
 
band  12 # energy   16.24064502 # occ.  0.00000000
 
ion      s     py     pz     px    dxy    dyz    dz2    dxz    dx2    tot
  1  0.000  0.085  0.085  0.000  0.047  0.000  0.004  0.047  0.001  0.268
 

 k-point   12 :   -0.43750000 0.43750000 0.06250000     weight = 0.04687500

band   1 # energy   -3.09270146 # occ.  1.00000000
 
ion      s     py     pz     px    dxy    dyz    dz2    dxz    dx2    tot
  1  0.032  0.000  0.000  0.001  0.382  0.000  0.410  0.000  0.001  0.826
 
band   2 # energy   -2.77972147 # occ.  1.00000000
 
ion      s     py     pz     px    dxy    dyz    dz2    dxz    dx2    tot
  1  0.000  0.000  0.000  0.000  0.000  0.445  0.000  0.467  0.000  0.913
 
band   3 # energy   -2.61290977 # occ.  1.00000000
 
ion      s     py     pz     px    dxy    dyz    dz2    dxz    dx2    tot
  1  0.001  0.001  0.000  0.001  0.011  0.000  0.030  0.000  0.903  0.945
 
band   4 # energy   -2.52627936 # occ.  1.00000000
 
ion      s     py     pz     px    dxy    dyz    dz2    dxz    dx2    tot
  1  0.007  0.000  0.000  0.000  0.416  0.000  0.476  0.000  0.042  0.942
 
band   5 # energy   -2.17309180 # occ.  1.00000000
 
ion      s     py     pz     px    dxy    dyz    dz2    dxz    dx2    tot
  1  0.000  0.000  0.000  0.000  0.000  0.496  0.000  0.471  0.000  0.967
 
band   6 # energy   -0.41511904 # occ.  0.92055312
 
ion      s     py     pz     px    dxy    dyz    dz2    dxz    dx2    tot
  1  0.182  0.038  0.000  0.059  0.092  0.000  0.015  0.000  0.009  0.394
 
band   7 # energy    2.03406584 # occ.  0.00000000
 
ion      s     py     pz     px    dxy    dyz    dz2    dxz    dx2    tot
  1  0.184  0.078  0.000  0.052  0.065  0.000  0.012  0.000  0.002  0.394
 
band   8 # energy    8.24256849 # occ.  0.00000000
 
ion      s     py     pz     px    dxy    dyz    dz2    dxz    dx2    tot
  1  0.000  0.000  0.389  0.000  0.000  0.003  0.000  0.018  0.000  0.410
 
band   9 # energy    9.42133380 # occ.  0.00000000
 
ion      s     py     pz     px    dxy    dyz    dz2    dxz    dx2    tot
  1  0.040  0.115  0.000  0.132  0.003  0.000  0.023  0.000  0.001  0.314
 
band  10 # energy   12.37675919 # occ.  0.00000000
 
ion      s     py     pz     px    dxy    dyz    dz2    dxz    dx2    tot
  1  0.000  0.000  0.034  0.000  0.000  0.134  0.000  0.120  0.000  0.288
 
band  11 # energy   12.49842482 # occ.  0.00000000
 
ion      s     py     pz     px    dxy    dyz    dz2    dxz    dx2    tot