Fe FCC                                  
           1
    -2.000000    2.000000    2.000000
     2.000000   -2.000000    2.000000
     2.000000    2.000000   -2.000000
   Fe
   1
Direct configuration=     1
   0.00000000  0.00000000  0.00000000
