Fe BCC                                  
   2.87500000000000     
    -0.500000    0.500000    0.500000
     0.500000   -0.500000    0.500000
     0.500000    0.500000   -0.500000
   Fe
     1
Direct
  0.000000  0.000000  0.000000
 
   32   32   32
  100.82      98.415      91.557      81.238      68.802      55.626      42.894      31.488      21.987      14.701    
  9.6727      6.6666      5.1795      4.5280      4.1227      3.8758      3.7938      3.8758      4.1227      4.5280    
  5.1795      6.6666      9.6727      14.701      21.987      31.488      42.894      55.626      68.802      81.238    
  91.557      98.415      98.415      97.619      92.266      83.147      71.496      58.686      45.960      34.286    
  24.329      16.481      10.866      7.3406      5.4846      4.6655      4.2162      3.9195      3.7849      3.8118    
  4.0007      4.3501      4.8680      5.9546      8.3062      12.496      18.856      27.439      38.029      50.147    
  63.026      75.598      86.553      94.532      91.557      92.266      88.574      81.037      70.711      58.879    
  46.778      35.418      25.523      17.544      11.674      7.8463      5.7283      4.7579      4.2710      3.9375    
  3.7581      3.7330      3.8614      4.1452      4.5763      5.3159      6.9856      10.205      15.392      22.706    
  32.033      43.005      54.982      67.038      77.994      86.553      81.238      83.147      81.037      75.233    
  66.574      56.189      45.239      34.723      25.385      17.713      11.944      8.0755      5.8523      4.7926    
  4.2801      3.9250      3.7128      3.6436      3.7152      3.9304      4.2896      4.8079      5.8792      8.1272    
  12.042      17.882      25.649      35.087      45.688      56.678      67.038      75.598      68.802      71.496    
  70.711      66.574      59.702      51.032      41.597      32.329      23.957      16.969      11.629      7.9758    
  5.8191      4.7562      4.2407      3.8798      3.6486      3.5469      3.5703      3.7206      4.0033      4.4152    
  5.0657      6.4722      9.1623      13.485      19.555      27.238      36.156      45.688      54.982      63.026    
  55.626      58.686      58.879      56.189      51.032      44.145      36.398      28.621      21.484      15.455    
  10.795      7.5654      5.6265      4.6463      4.1548      3.8025      3.5664      3.4451      3.4321      3.5269    
  3.7363      4.0669      4.5176      5.3163      6.9668      9.8805      14.276      20.143      27.238      35.087    
  43.005      50.147      42.894      45.960      46.778      45.239      41.597      36.398      30.344      24.133    
  18.354      13.428      9.5960      6.9255      5.3091      4.4752      4.0292      3.6971      3.4686      3.3403    
  3.3038      3.3558      3.5017      3.7523      4.1133      4.5985      5.5007      7.2474      10.137      14.276    
  19.555      25.649      32.033      38.029      31.488      34.286      35.418      34.723      32.329      28.621    
  24.133      19.428      14.996      11.195      8.2346      6.1735      4.9253      4.2661      3.8738      3.5708    
  3.3594      3.2347      3.1868      3.2097      3.3061      3.4866      3.7637      4.1404      4.6450      5.5686    
  7.2474      9.8805      13.485      17.882      22.706      27.439      21.987      24.329      25.523      25.385    
  23.957      21.484      18.354      14.996      11.797      9.0440      6.9067      5.4296      4.5373      4.0431    
  3.7007      3.4324      3.2447      3.1314      3.0817      3.0879      3.1498      3.2754      3.4780      3.7691    
  4.1492      4.6450      5.5007      6.9668      9.1623      12.042      15.392      18.856      14.701      16.481    
  17.544      17.713      16.969      15.455      13.428      11.195      9.0440      7.1916      5.7636      4.7865    
  4.1908      3.8196      3.5224      3.2920      3.1314      3.0339      2.9890      2.9883      3.0291      3.1162    
  3.2605      3.4751      3.7691      4.1404      4.5985      5.3163      6.4722      8.1272      10.205      12.496    
  9.6727      10.866      11.674      11.944      11.629      10.795      9.5960      8.2346      6.9067      5.7636    
  4.8887      4.2900      3.9007      3.6008      3.3502      3.1584      3.0259      2.9461      2.9096      2.9083    
  2.9384      3.0016      3.1053      3.2605      3.4780      3.7637      4.1133      4.5176      5.0657      5.8792    
  6.9856      8.3062      6.6666      7.3406      7.8463      8.0755      7.9758      7.5654      6.9255      6.1735    
  5.4296      4.7865      4.2900      3.9305      3.6459      3.3971      3.1932      3.0391      2.9336      2.8711    
  2.8442      2.8459      2.8721      2.9227      3.0016      3.1162      3.2754      3.4866      3.7523      4.0669    
  4.4152      4.8079      5.3159      5.9546      5.1795      5.4846      5.7283      5.8523      5.8191      5.6265    
  5.3091      4.9253      4.5373      4.1908      3.9007      3.6459      3.4151      3.2170      3.0576      2.9386    
  2.8580      2.8116      2.7939      2.8001      2.8265      2.8721      2.9384      3.0291      3.1498      3.3061    
  3.5017      3.7363      4.0033      4.2896      4.5763      4.8680      4.5280      4.6655      4.7579      4.7926    
  4.7562      4.6463      4.4752      4.2661      4.0431      3.8196      3.6008      3.3971      3.2170      3.0661    
  2.9468      2.8589      2.8005      2.7685      2.7596      2.7709      2.8001      2.8459      2.9083      2.9883    
  3.0879      3.2097      3.3558      3.5269      3.7206      3.9304      4.1452      4.3501      4.1227      4.2162    
  4.2710      4.2801      4.2407      4.1548      4.0292      3.8738      3.7007      3.5224      3.3502      3.1932    
  3.0576      2.9468      2.8612      2.7999      2.7608      2.7421      2.7420      2.7596      2.7939      2.8442    
  2.9096      2.9890      3.0817      3.1868      3.3038      3.4321      3.5703      3.7152      3.8614      4.0007    
  3.8758      3.9195      3.9375      3.9250      3.8798      3.8025      3.6971      3.5708      3.4324      3.2920    
  3.1584      3.0391      2.9386      2.8589      2.7999      2.7601      2.7378      2.7319      2.7421      2.7685    
  2.8116      2.8711      2.9461      3.0339      3.1314      3.2347      3.3403      3.4451      3.5469      3.6436    
  3.7330      3.8118      3.7938      3.7849      3.7581      3.7128      3.6486      3.5664      3.4686      3.3594    
  3.2447      3.1314      3.0259      2.9336      2.8580      2.8005      2.7608      2.7378      2.7303      2.7378    
  2.7608      2.8005      2.8580      2.9336      3.0259      3.1314      3.2447      3.3594      3.4686      3.5664    
  3.6486      3.7128      3.7581      3.7849      3.8758      3.8118      3.7330      3.6436      3.5469      3.4451    
  3.3403      3.2347      3.1314      3.0339      2.9461      2.8711      2.8116      2.7685      2.7421      2.7319    
  2.7378      2.7601      2.7999      2.8589      2.9386      3.0391      3.1584      3.2920      3.4324      3.5708    
  3.6971      3.8025      3.8798      3.9250      3.9375      3.9195      4.1227      4.0007      3.8614      3.7152    
  3.5703      3.4321      3.3038      3.1868      3.0817      2.9890      2.9096      2.8442      2.7939      2.7596    
  2.7420      2.7421      2.7608      2.7999      2.8612      2.9468      3.0576      3.1932      3.3502      3.5224    
  3.7007      3.8738      4.0292      4.1548      4.2407      4.2801      4.2710      4.2162      4.5280      4.3501    
  4.1452      3.9304      3.7206      3.5269      3.3558      3.2097      3.0879      2.9883      2.9083      2.8459    
  2.8001      2.7709      2.7596      2.7685      2.8005      2.8589      2.9468      3.0661      3.2170      3.3971    
  3.6008      3.8196      4.0431      4.2661      4.4752      4.6463      4.7562      4.7926      4.7579      4.6655    
  5.1795      4.8680      4.5763      4.2896      4.0033      3.7363      3.5017      3.3061      3.1498      3.0291    
  2.9384      2.8721      2.8265      2.8001      2.7939      2.8116      2.8580      2.9386      3.0576      3.2170    
  3.4151      3.6459      3.9007      4.1908      4.5373      4.9253      5.3091      5.6265      5.8191      5.8523    
  5.7283      5.4846      6.6666      5.9546      5.3159      4.8079      4.4152      4.0669      3.7523      3.4866    
  3.2754      3.1162      3.0016      2.9227      2.8721      2.8459      2.8442      2.8711      2.9336      3.0391    
  3.1932      3.3971      3.6459      3.9305      4.2900      4.7865      5.4296      6.1735      6.9255      7.5654    
  7.9758      8.0755      7.8463      7.3406      9.6727      8.3062      6.9856      5.8792      5.0657      4.5176    
  4.1133      3.7637      3.4780      3.2605      3.1053      3.0016      2.9384      2.9083      2.9096      2.9461    
  3.0259      3.1584      3.3502      3.6008      3.9007      4.2900      4.8887      5.7636      6.9067      8.2346    
  9.5960      10.795      11.629      11.944      11.674      10.866      14.701      12.496      10.205      8.1272    
  6.4722      5.3163      4.5985      4.1404      3.7691      3.4751      3.2605      3.1162      3.0291      2.9883    
  2.9890      3.0339      3.1314      3.2920      3.5224      3.8196      4.1908      4.7865      5.7636      7.1916    
  9.0440      11.195      13.428      15.455      16.969      17.713      17.544      16.481      21.987      18.856    
  15.392      12.042      9.1623      6.9668      5.5007      4.6450      4.1492      3.7691      3.4780      3.2754    
  3.1498      3.0879      3.0817      3.1314      3.2447      3.4324      3.7007      4.0431      4.5373      5.4296    
  6.9067      9.0440      11.797      14.996      18.354      21.484      23.957      25.385      25.523      24.329    
  31.488      27.439      22.706      17.882      13.485      9.8805      7.2474      5.5686      4.6450      4.1404    
  3.7637      3.4866      3.3061      3.2097      3.1868      3.2347      3.3594      3.5708      3.8738      4.2661    
  4.9253      6.1735      8.2346      11.195      14.996      19.428      24.133      28.621      32.329      34.723    
  35.418      34.286      42.894      38.029      32.033      25.649      19.555      14.276      10.137      7.2474    
  5.5007      4.5985      4.1133      3.7523      3.5017      3.3558      3.3038      3.3403      3.4686      3.6971    
  4.0292      4.4752      5.3091      6.9255      9.5960      13.428      18.354      24.133      30.344      36.398    
  41.597      45.239      46.778      45.960      55.626      50.147      43.005      35.087      27.238      20.143    
  14.276      9.8805      6.9668      5.3163      4.5176      4.0669      3.7363      3.5269      3.4321      3.4451    
  3.5664      3.8025      4.1548      4.6463      5.6265      7.5654      10.795      15.455      21.484      28.621    
  36.398      44.145      51.032      56.189      58.879      58.686      68.802      63.026      54.982      45.688    
  36.156      27.238      19.555      13.485      9.1623      6.4722      5.0657      4.4152      4.0033      3.7206    
  3.5703      3.5469      3.6486      3.8798      4.2407      4.7562      5.8191      7.9758      11.629      16.969    
  23.957      32.329      41.597      51.032      59.702      66.574      70.711      71.496      81.238      75.598    
  67.038      56.678      45.688      35.087      25.649      17.882      12.042      8.1272      5.8792      4.8079    
  4.2896      3.9304      3.7152      3.6436      3.7128      3.9250      4.2801      4.7926      5.8523      8.0755    
  11.944      17.713      25.385      34.723      45.239      56.189      66.574      75.233      81.037      83.147    
  91.557      86.553      77.994      67.038      54.982      43.005      32.033      22.706      15.392      10.205    
  6.9856      5.3159      4.5763      4.1452      3.8614      3.7330      3.7581      3.9375      4.2710      4.7579    
  5.7283      7.8463      11.674      17.544      25.523      35.418      46.778      58.879      70.711      81.037    
  88.574      92.266      98.415      94.532      86.553      75.598      63.026      50.147      38.029      27.439    
  18.856      12.496      8.3062      5.9546      4.8680      4.3501      4.0007      3.8118      3.7849      3.9195    
  4.2162      4.6655      5.4846      7.3406      10.866      16.481      24.329      34.286      45.960      58.686    
  71.496      83.147      92.266      97.619      98.415      97.619      92.266      83.147      71.496      58.686    
  45.960      34.286      24.329      16.481      10.866      7.3406      5.4846      4.6655      4.2162      3.9195    
  3.7849      3.8118      4.0007      4.3501      4.8680      5.9546      8.3062      12.496      18.856      27.439    
  38.029      50.147      63.026      75.598      86.553      94.532      97.619      98.415      94.532      86.553    
  75.598      63.026      50.147      38.029      27.439      18.856      12.496      8.3062      5.9546      4.8680    
  4.3501      4.0007      3.8118      3.7849      3.9195      4.2162      4.6655      5.4846      7.3406      10.866    
  16.481      24.329      34.286      45.960      58.686      71.496      83.147      92.266      92.266      94.532    
  92.266      85.812      76.101      64.398      52.005      40.042      29.350      20.480      13.720      9.0990    
  6.3716      5.0408      4.4434      4.0546      3.8193      3.7413      3.8193      4.0546      4.4434      5.0408    
  6.3716      9.0990      13.720      20.480      29.350      40.042      52.005      64.398      76.101      85.812    
  83.147      86.553      85.812      81.037      72.934      62.601      51.262      40.029      29.772      21.090    
  14.323      9.5644      6.6465      5.1541      4.4862      4.0741      3.8043      3.6830      3.7078      3.8793    
  4.1996      4.6632      5.5362      7.4518      10.964      16.412      23.874      33.171      43.869      55.270    
  66.406      76.101      71.496      75.598      76.101      72.934      66.574      57.917      48.047      38.007    
  28.652      20.594      14.201      9.6079      6.7125      5.1765      4.4744      4.0545      3.7648      3.6116    
  3.5912      3.7028      3.9509      4.3347      4.9013      6.1108      8.5392      12.604      18.491      26.137    
  35.229      45.209      55.270      64.398      58.686      63.026      64.398      62.601      57.917      51.032    
  42.852      34.306      26.189      19.091      13.383      9.2212      6.5476      5.0925      4.4075      3.9950    
  3.7000      3.5282      3.4742      3.5347      3.7142      4.0193      4.4458      5.1531      6.6544      9.4161    
  13.720      19.620      26.930      35.229      43.869      52.005      45.960      50.147      52.005      51.262    
  48.047      42.852      36.398      29.470      22.772      16.840      12.024      8.4817      6.1822      4.9102    
  4.2904      3.8986      3.6118      3.4343      3.3593      3.3810      3.5016      3.7304      4.0739      4.5355    
  5.3704      7.0425      9.9036      14.115      19.620      26.137      33.171      40.042      34.286      38.029    
  40.042      40.029      38.007      34.306      29.470      24.133      18.884      14.189      10.355      7.5273    
  5.6870      4.6596      4.1338      3.7724      3.5043      3.3326      3.2487      3.2445      3.3195      3.4820    
  3.7439      4.1100      4.5987      5.4968      7.1830      9.9036      13.720      18.491      23.874      29.350    
  24.329      27.439      29.350      29.772      28.652      26.189      22.772      18.884      14.996      11.491    
  8.6249      6.5164      5.1501      4.3808      3.9511      3.6259      3.3843      3.2268      3.1438      3.1257    
  3.1692      3.2800      3.4701      3.7519      4.1274      4.6219      5.4968      7.0425      9.4161      12.604    
  16.412      20.480      16.481      18.856      20.480      21.090      20.594      19.091      16.840      14.189    
  11.491      9.0440      7.0463      5.5885      4.6506      4.1085      3.7549      3.4700      3.2596      3.1218    
  3.0467      3.0241      3.0488      3.1234      3.2574      3.4642      3.7544      4.1274      4.5987      5.3704    
  6.6544      8.5392      10.964      13.720      10.866      12.496      13.720      14.323      14.201      13.383    
  12.024      10.355      8.6249      7.0463      5.7636      4.8362      4.2372      3.8580      3.5579      3.3157    
  3.1384      3.0226      2.9593      2.9387      2.9545      3.0067      3.1015      3.2500      3.4642      3.7519    
  4.1100      4.5355      5.1531      6.1108      7.4518      9.0990      7.3406      8.3062      9.0990      9.5644    
  9.6079      9.2212      8.4817      7.5273      6.5164      5.5885      4.8362      4.2900      3.9152      3.6224    
  3.3714      3.1722      3.0277      2.9343      2.8841      2.8687      2.8822      2.9226      2.9932      3.1015    
  3.2574      3.4701      3.7439      4.0739      4.4458      4.9013      5.5362      6.3716      5.4846      5.9546    
  6.3716      6.6465      6.7125      6.5476      6.1822      5.6870      5.1501      4.6506      4.2372      3.9152    
  3.6459      3.4058      3.2041      3.0462      2.9328      2.8604      2.8229      2.8141      2.8289      2.8648    
  2.9226      3.0067      3.1234      3.2800      3.4820      3.7304      4.0193      4.3347      4.6632      5.0408    
  4.6655      4.8680      5.0408      5.1541      5.1765      5.0925      4.9102      4.6596      4.3808      4.1085    
  3.8580      3.6224      3.4058      3.2170      3.0616      2.9417      2.8565      2.8031      2.7774      2.7752    
  2.7931      2.8289      2.8822      2.9545      3.0488      3.1692      3.3195      3.5016      3.7142      3.9509    
  4.1996      4.4434      4.2162      4.3501      4.4434      4.4862      4.4744      4.4075      4.2904      4.1338    
  3.9511      3.7549      3.5579      3.3714      3.2041      3.0616      2.9468      2.8598      2.7993      2.7628    
  2.7480      2.7527      2.7752      2.8141      2.8687      2.9387      3.0241      3.1257      3.2445      3.3810    
  3.5347      3.7028      3.8793      4.0546      3.9195      4.0007      4.0546      4.0741      4.0545      3.9950    
  3.8986      3.7724      3.6259      3.4700      3.3157      3.1722      3.0462      2.9417      2.8598      2.7999    
  2.7602      2.7390      2.7352      2.7480      2.7774      2.8229      2.8841      2.9593      3.0467      3.1438    
  3.2487      3.3593      3.4742      3.5912      3.7078      3.8193      3.7849      3.8118      3.8193      3.8043    
  3.7648      3.7000      3.6118      3.5043      3.3843      3.2596      3.1384      3.0277      2.9328      2.8565    
  2.7993      2.7602      2.7378      2.7309      2.7390      2.7628      2.8031      2.8604      2.9343      3.0226    
  3.1218      3.2268      3.3326      3.4343      3.5282      3.6116      3.6830      3.7413      3.8118      3.7849    
  3.7413      3.6830      3.6116      3.5282      3.4343      3.3326      3.2268      3.1218      3.0226      2.9343    
  2.8604      2.8031      2.7628      2.7390      2.7309      2.7378      2.7602      2.7993      2.8565      2.9328    
  3.0277      3.1384      3.2596      3.3843      3.5043      3.6118      3.7000      3.7648      3.8043      3.8193    
  4.0007      3.9195      3.8193      3.7078      3.5912      3.4742      3.3593      3.2487      3.1438      3.0467    
  2.9593      2.8841      2.8229      2.7774      2.7480      2.7352      2.7390      2.7602      2.7999      2.8598    
  2.9417      3.0462      3.1722      3.3157      3.4700      3.6259      3.7724      3.8986      3.9950      4.0545    
  4.0741      4.0546      4.3501      4.2162      4.0546      3.8793      3.7028      3.5347      3.3810      3.2445    
  3.1257      3.0241      2.9387      2.8687      2.8141      2.7752      2.7527      2.7480      2.7628      2.7993    
  2.8598      2.9468      3.0616      3.2041      3.3714      3.5579      3.7549      3.9511      4.1338      4.2904    
  4.4075      4.4744      4.4862      4.4434      4.8680      4.6655      4.4434      4.1996      3.9509      3.7142    
  3.5016      3.3195      3.1692      3.0488      2.9545      2.8822      2.8289      2.7931      2.7752      2.7774    
  2.8031      2.8565      2.9417      3.0616      3.2170      3.4058      3.6224      3.8580      4.1085      4.3808    
  4.6596      4.9102      5.0925      5.1765      5.1541      5.0408      5.9546      5.4846      5.0408      4.6632    
  4.3347      4.0193      3.7304      3.4820      3.2800      3.1234      3.0067      2.9226      2.8648      2.8289    
  2.8141      2.8229      2.8604      2.9328      3.0462      3.2041      3.4058      3.6459      3.9152      4.2372    
  4.6506      5.1501      5.6870      6.1822      6.5476      6.7125      6.6465      6.3716      8.3062      7.3406    
  6.3716      5.5362      4.9013      4.4458      4.0739      3.7439      3.4701      3.2574      3.1015      2.9932    
  2.9226      2.8822      2.8687      2.8841      2.9343      3.0277      3.1722      3.3714      3.6224      3.9152    
  4.2900      4.8362      5.5885      6.5164      7.5273      8.4817      9.2212      9.6079      9.5644      9.0990    
  12.496      10.866      9.0990      7.4518      6.1108      5.1531      4.5355      4.1100      3.7519      3.4642    
  3.2500      3.1015      3.0067      2.9545      2.9387      2.9593      3.0226      3.1384      3.3157      3.5579    
  3.8580      4.2372      4.8362      5.7636      7.0463      8.6249      10.355      12.024      13.383      14.201    
  14.323      13.720      18.856      16.481      13.720      10.964      8.5392      6.6544      5.3704      4.5987    
  4.1274      3.7544      3.4642      3.2574      3.1234      3.0488      3.0241      3.0467      3.1218      3.2596    
  3.4700      3.7549      4.1085      4.6506      5.5885      7.0463      9.0440      11.491      14.189      16.840    
  19.091      20.594      21.090      20.480      27.439      24.329      20.480      16.412      12.604      9.4161    
  7.0425      5.4968      4.6219      4.1274      3.7519      3.4701      3.2800      3.1692      3.1257      3.1438    
  3.2268      3.3843      3.6259      3.9511      4.3808      5.1501      6.5164      8.6249      11.491      14.996    
  18.884      22.772      26.189      28.652      29.772      29.350      38.029      34.286      29.350      23.874    
  18.491      13.720      9.9036      7.1830      5.4968      4.5987      4.1100      3.7439      3.4820      3.3195    
  3.2445      3.2487      3.3326      3.5043      3.7724      4.1338      4.6596      5.6870      7.5273      10.355    
  14.189      18.884      24.133      29.470      34.306      38.007      40.029      40.042      50.147      45.960    
  40.042      33.171      26.137      19.620      14.115      9.9036      7.0425      5.3704      4.5355      4.0739    
  3.7304      3.5016      3.3810      3.3593      3.4343      3.6118      3.8986      4.2904      4.9102      6.1822    
  8.4817      12.024      16.840      22.772      29.470      36.398      42.852      48.047      51.262      52.005    
  63.026      58.686      52.005      43.869      35.229      26.930      19.620      13.720      9.4161      6.6544    
  5.1531      4.4458      4.0193      3.7142      3.5347      3.4742      3.5282      3.7000      3.9950      4.4075    
  5.0925      6.5476      9.2212      13.383      19.091      26.189      34.306      42.852      51.032      57.917    
  62.601      64.398      75.598      71.496      64.398      55.270      45.209      35.229      26.137      18.491    
  12.604      8.5392      6.1108      4.9013      4.3347      3.9509      3.7028      3.5912      3.6116      3.7648    
  4.0545      4.4744      5.1765      6.7125      9.6079      14.201      20.594      28.652      38.007      48.047    
  57.917      66.574      72.934      76.101      86.553      83.147      76.101      66.406      55.270      43.869    
  33.171      23.874      16.412      10.964      7.4518      5.5362      4.6632      4.1996      3.8793      3.7078    
  3.6830      3.8043      4.0741      4.4862      5.1541      6.6465      9.5644      14.323      21.090      29.772    
  40.029      51.262      62.601      72.934      81.037      85.812      94.532      92.266      85.812      76.101    
  64.398      52.005      40.042      29.350      20.480      13.720      9.0990      6.3716      5.0408      4.4434    
  4.0546      3.8193      3.7413      3.8193      4.0546      4.4434      5.0408      6.3716      9.0990      13.720    
  20.480      29.350      40.042      52.005      64.398      76.101      85.812      92.266      91.557      92.266    
  88.574      81.037      70.711      58.879      46.778      35.418      25.523      17.544      11.674      7.8463    
  5.7283      4.7579      4.2710      3.9375      3.7581      3.7330      3.8614      4.1452      4.5763      5.3159    
  6.9856      10.205      15.392      22.706      32.033      43.005      54.982      67.038      77.994      86.553    
  92.266      94.532      92.266      85.812      76.101      64.398      52.005      40.042      29.350      20.480    
  13.720      9.0990      6.3716      5.0408      4.4434      4.0546      3.8193      3.7413      3.8193      4.0546    
  4.4434      5.0408      6.3716      9.0990      13.720      20.480      29.350      40.042      52.005      64.398    
  76.101      85.812      88.574      92.266      91.557      86.553      77.994      67.038      54.982      43.005    
  32.033      22.706      15.392      10.205      6.9856      5.3159      4.5763      4.1452      3.8614      3.7330    
  3.7581      3.9375      4.2710      4.7579      5.7283      7.8463      11.674      17.544      25.523      35.418    
  46.778      58.879      70.711      81.037      81.037      85.812      86.553      83.147      76.101      66.406    
  55.270      43.869      33.171      23.874      16.412      10.964      7.4518      5.5362      4.6632      4.1996    
  3.8793      3.7078      3.6830      3.8043      4.0741      4.4862      5.1541      6.6465      9.5644      14.323    
  21.090      29.772      40.029      51.262      62.601      72.934      70.711      76.101      77.994      76.101    
  70.711      62.601      52.834      42.512      32.594      23.802      16.606      11.234      7.6696      5.6498    
  4.6953      4.2107      3.8685      3.6650      3.5981      3.6650      3.8685      4.2107      4.6953      5.6498    
  7.6696      11.234      16.606      23.802      32.594      42.512      52.834      62.601      58.879      64.398    
  67.038      66.406      62.601      56.189      48.047      39.156      30.410      22.515      15.949      10.964    
  7.5880      5.6219      4.6621      4.1755      3.8266      3.6044      3.5063      3.5271      3.6684      3.9364    
  4.3296      4.9203      6.1738      8.6013      12.549      18.140      25.266      33.581      42.512      51.262    
  46.778      52.005      54.982      55.270      52.834      48.047      41.597      34.306      26.969      20.237    
  14.566      10.210      7.2210      5.4497      4.5615      4.0958      3.7542      3.5266      3.4095      3.3957    
  3.4840      3.6815      3.9956      4.4227      5.1377      6.6128      9.2495      13.270      18.680      25.266    
  32.594      40.029      35.418      40.042      43.005      43.869      42.512      39.156      34.306      28.621    
  22.772      17.326      12.695      9.1138      6.6415      5.1636      4.4045      3.9776      3.6548      3.4338    
  3.3099      3.2736      3.3213      3.4581      3.6951      4.0387      4.4930      5.2980      6.8625      9.4812    
  13.270      18.140      23.802      29.772      25.523      29.350      32.033      33.171      32.594      30.410    
  26.969      22.772      18.354      14.189      10.624      7.8622      5.9572      4.8160      4.2111      3.8304    
  3.5351      3.3302      3.2094      3.1621      3.1822      3.2721      3.4421      3.7045      4.0638      4.5327    
  5.3570      6.8625      9.2495      12.549      16.606      21.090      17.544      20.480      22.706      23.874    
  23.802      22.515      20.237      17.326      14.189      11.195      8.6249      6.6396      5.2790      4.4627    
  4.0017      3.6656      3.4037      3.2212      3.1110      3.0620      3.0663      3.1235      3.2414      3.4327    
  3.7090      4.0719      4.5327      5.2980      6.6128      8.6013      11.234      14.323      11.674      13.720    
  15.392      16.412      16.606      15.949      14.566      12.695      10.624      8.6249      6.9067      5.5885    
  4.6922      4.1442      3.7870      3.4951      3.2699      3.1134      3.0182      2.9737      2.9714      3.0089    
  3.0904      3.2264      3.4295      3.7090      4.0638      4.4930      5.1377      6.1738      7.6696      9.5644    
  7.8463      9.0990      10.205      10.964      11.234      10.964      10.210      9.1138      7.8622      6.6396    
  5.5885      4.7865      4.2372      3.8706      3.5757      3.3300      3.1425      3.0130      2.9345      2.8980    
  2.8954      2.9228      2.9819      3.0796      3.2264      3.4327      3.7045      4.0387      4.4227      4.9203    
  5.6498      6.6465      5.7283      6.3716      6.9856      7.4518      7.6696      7.5880      7.2210      6.6415    
  5.9572      5.2790      4.6922      4.2372      3.9007      3.6224      3.3785      3.1791      3.0285      2.9251    