Fe BCC                                  
   2.87500000000000     
    -0.500000    0.500000    0.500000
     0.500000   -0.500000    0.500000
     0.500000    0.500000   -0.500000
   Fe
     1
Direct
  0.000000  0.000000  0.000000
 
   32   32   32
 0.10082273928E+03 0.98414685033E+02 0.91556523563E+02 0.81238312643E+02 0.68801815624E+02
 0.55626484309E+02 0.42894441054E+02 0.31487517877E+02 0.21986539597E+02 0.14700506662E+02
 0.96726636628E+01 0.66665973006E+01 0.51795420174E+01 0.45280022183E+01 0.41226978156E+01
 0.38758124118E+01 0.37937576195E+01 0.38758124118E+01 0.41226978156E+01 0.45280022183E+01
 0.51795420174E+01 0.66665973006E+01 0.96726636628E+01 0.14700506662E+02 0.21986539597E+02
 0.31487517877E+02 0.42894441054E+02 0.55626484309E+02 0.68801815624E+02 0.81238312643E+02
 0.91556523563E+02 0.98414685033E+02 0.98414685033E+02 0.97618786967E+02 0.92265900577E+02
 0.83146545613E+02 0.71496067830E+02 0.58686319680E+02 0.45959942115E+02 0.34285517856E+02
 0.24329330447E+02 0.16480531409E+02 0.10866194508E+02 0.73405658967E+01 0.54845605529E+01
 0.46655179437E+01 0.42161808846E+01 0.39195346613E+01 0.37849201064E+01 0.38118377948E+01
 0.40007218681E+01 0.43501088032E+01 0.48679882853E+01 0.59545790035E+01 0.83062407017E+01
 0.12496474092E+02 0.18856330929E+02 0.27438867022E+02 0.38028839817E+02 0.50146808033E+02
 0.63026226795E+02 0.75598108378E+02 0.86553359481E+02 0.94531845664E+02 0.91556523563E+02
 0.92265900577E+02 0.88574420794E+02 0.81036992812E+02 0.70710858521E+02 0.58879389270E+02
 0.46778335526E+02 0.35418084066E+02 0.25523215586E+02 0.17543716454E+02 0.11673579690E+02
 0.78462735897E+01 0.57282722814E+01 0.47579308710E+01 0.42710458345E+01 0.39374501457E+01
 0.37581317856E+01 0.37329753645E+01 0.38614476237E+01 0.41452459599E+01 0.45762744315E+01
 0.53158583100E+01 0.69856023726E+01 0.10204518086E+02 0.15392343254E+02 0.22705631234E+02
 0.32033052901E+02 0.43004744510E+02 0.54981717723E+02 0.67038185359E+02 0.77993835404E+02
 0.86553359481E+02 0.81238312643E+02 0.83146545613E+02 0.81036992812E+02 0.75232992654E+02
 0.66573819405E+02 0.56188870945E+02 0.45239150982E+02 0.34722730189E+02 0.25385494930E+02
 0.17712571542E+02 0.11943938912E+02 0.80755311564E+01 0.58523238459E+01 0.47925566481E+01
 0.42801466576E+01 0.39249879766E+01 0.37128016535E+01 0.36436047648E+01 0.37152457124E+01
 0.39303991959E+01 0.42896013613E+01 0.48079114836E+01 0.58792235108E+01 0.81272298117E+01
 0.12041827564E+02 0.17882367009E+02 0.25648973612E+02 0.35087086201E+02 0.45687848291E+02
 0.56678242307E+02 0.67038185359E+02 0.75598108378E+02 0.68801815624E+02 0.71496067830E+02
 0.70710858521E+02 0.66573819405E+02 0.59701751290E+02 0.51031944803E+02 0.41596583356E+02
 0.32329293551E+02 0.23956565927E+02 0.16969041206E+02 0.11629252585E+02 0.79758313893E+01
 0.58190507011E+01 0.47561676079E+01 0.42407044433E+01 0.38797655946E+01 0.36486397501E+01
 0.35468973843E+01 0.35703112132E+01 0.37205747062E+01 0.40033481954E+01 0.44151608944E+01
 0.50656726747E+01 0.64721809324E+01 0.91622557242E+01 0.13485275685E+02 0.19555006070E+02
 0.27237905323E+02 0.36156130534E+02 0.45687848291E+02 0.54981717723E+02 0.63026226795E+02
 0.55626484309E+02 0.58686319680E+02 0.58879389270E+02 0.56188870945E+02 0.51031944803E+02
 0.44144608375E+02 0.36398050992E+02 0.28621116088E+02 0.21484235703E+02 0.15454731468E+02
 0.10794677854E+02 0.75654425043E+01 0.56264821806E+01 0.46462526220E+01 0.41548354114E+01
 0.38024633905E+01 0.35664135561E+01 0.34451292939E+01 0.34321454403E+01 0.35268733176E+01
 0.37362555524E+01 0.40669485246E+01 0.45175821386E+01 0.53162775072E+01 0.69668423843E+01
 0.98805173794E+01 0.14275839117E+02 0.20142987644E+02 0.27237905323E+02 0.35087086201E+02
 0.43004744510E+02 0.50146808033E+02 0.42894441054E+02 0.45959942115E+02 0.46778335526E+02
 0.45239150982E+02 0.41596583356E+02 0.36398050992E+02 0.30343529724E+02 0.24133154548E+02
 0.18354435628E+02 0.13427967724E+02 0.95960474855E+01 0.69254775050E+01 0.53091109851E+01
 0.44751768459E+01 0.40291757080E+01 0.36971179310E+01 0.34685525740E+01 0.33402980189E+01
 0.33038312208E+01 0.33557884315E+01 0.35016884086E+01 0.37523444005E+01 0.41133421957E+01
 0.45985488927E+01 0.55006845741E+01 0.72473790003E+01 0.10136926410E+02 0.14275839117E+02
 0.19555006070E+02 0.25648973612E+02 0.32033052901E+02 0.38028839817E+02 0.31487517877E+02
 0.34285517856E+02 0.35418084066E+02 0.34722730189E+02 0.32329293551E+02 0.28621116088E+02
 0.24133154548E+02 0.19428448100E+02 0.14996412704E+02 0.11195466848E+02 0.82346375069E+01
 0.61735018556E+01 0.49253127299E+01 0.42661277122E+01 0.38738012926E+01 0.35707534063E+01
 0.33593619543E+01 0.32347297008E+01 0.31867994182E+01 0.32096638407E+01 0.33060752514E+01
 0.34866437981E+01 0.37636798404E+01 0.41404107913E+01 0.46450447458E+01 0.55685660078E+01
 0.72473790003E+01 0.98805173794E+01 0.13485275685E+02 0.17882367009E+02 0.22705631234E+02
 0.27438867022E+02 0.21986539597E+02 0.24329330447E+02 0.25523215586E+02 0.25385494930E+02
 0.23956565927E+02 0.21484235703E+02 0.18354435628E+02 0.14996412704E+02 0.11796686935E+02
 0.90439971957E+01 0.69067183892E+01 0.54296263575E+01 0.45372666446E+01 0.40431460799E+01
 0.37007494907E+01 0.34324356296E+01 0.32447332373E+01 0.31314134974E+01 0.30816967460E+01
 0.30878846637E+01 0.31497841863E+01 0.32754360680E+01 0.34780358714E+01 0.37691232270E+01
 0.41491589638E+01 0.46450447458E+01 0.55006845741E+01 0.69668423843E+01 0.91622557242E+01
 0.12041827564E+02 0.15392343254E+02 0.18856330929E+02 0.14700506662E+02 0.16480531409E+02
 0.17543716454E+02 0.17712571542E+02 0.16969041206E+02 0.15454731468E+02 0.13427967724E+02
 0.11195466848E+02 0.90439971957E+01 0.71915850402E+01 0.57635680139E+01 0.47865352923E+01
 0.41908175309E+01 0.38195836851E+01 0.35224371074E+01 0.32919558370E+01 0.31313963568E+01
 0.30339380437E+01 0.29890472625E+01 0.29882731150E+01 0.30290772248E+01 0.31162173020E+01
 0.32605418179E+01 0.34751365122E+01 0.37691232270E+01 0.41404107913E+01 0.45985488927E+01
 0.53162775072E+01 0.64721809324E+01 0.81272298117E+01 0.10204518086E+02 0.12496474092E+02
 0.96726636628E+01 0.10866194508E+02 0.11673579690E+02 0.11943938912E+02 0.11629252585E+02
 0.10794677854E+02 0.95960474855E+01 0.82346375069E+01 0.69067183892E+01 0.57635680139E+01
 0.48887281876E+01 0.42900351171E+01 0.39006666197E+01 0.36008297775E+01 0.33502082319E+01
 0.31584251189E+01 0.30259007843E+01 0.29460692965E+01 0.29095715331E+01 0.29082957976E+01
 0.29383563527E+01 0.30015850413E+01 0.31053388069E+01 0.32605418179E+01 0.34780358714E+01
 0.37636798404E+01 0.41133421957E+01 0.45175821386E+01 0.50656726747E+01 0.58792235108E+01
 0.69856023726E+01 0.83062407017E+01 0.66665973006E+01 0.73405658967E+01 0.78462735897E+01
 0.80755311564E+01 0.79758313893E+01 0.75654425043E+01 0.69254775050E+01 0.61735018556E+01
 0.54296263575E+01 0.47865352923E+01 0.42900351171E+01 0.39305223953E+01 0.36459178006E+01
 0.33971417203E+01 0.31931938955E+01 0.30390827978E+01 0.29336092134E+01 0.28711480293E+01
 0.28441975418E+01 0.28459124804E+01 0.28721434909E+01 0.29226938947E+01 0.30015850413E+01
 0.31162173020E+01 0.32754360680E+01 0.34866437981E+01 0.37523444005E+01 0.40669485246E+01
 0.44151608944E+01 0.48079114836E+01 0.53158583100E+01 0.59545790035E+01 0.51795420174E+01
 0.54845605529E+01 0.57282722814E+01 0.58523238459E+01 0.58190507011E+01 0.56264821806E+01
 0.53091109851E+01 0.49253127299E+01 0.45372666446E+01 0.41908175309E+01 0.39006666197E+01
 0.36459178006E+01 0.34150836981E+01 0.32170437564E+01 0.30576334827E+01 0.29385823084E+01
 0.28580007361E+01 0.28115566904E+01 0.27939071825E+01 0.28000642939E+01 0.28265373272E+01
 0.28721434909E+01 0.29383563527E+01 0.30290772248E+01 0.31497841863E+01 0.33060752514E+01
 0.35016884086E+01 0.37362555524E+01 0.40033481954E+01 0.42896013613E+01 0.45762744315E+01
 0.48679882853E+01 0.45280022183E+01 0.46655179437E+01 0.47579308710E+01 0.47925566481E+01
 0.47561676079E+01 0.46462526220E+01 0.44751768459E+01 0.42661277122E+01 0.40431460799E+01
 0.38195836851E+01 0.36008297775E+01 0.33971417203E+01 0.32170437564E+01 0.30660835230E+01
 0.29467554206E+01 0.28589043376E+01 0.28004926443E+01 0.27684803334E+01 0.27595903909E+01
 0.27708676738E+01 0.28000642939E+01 0.28459124804E+01 0.29082957976E+01 0.29882731150E+01
 0.30878846637E+01 0.32096638407E+01 0.33557884315E+01 0.35268733176E+01 0.37205747062E+01
 0.39303991959E+01 0.41452459599E+01 0.43501088032E+01 0.41226978156E+01 0.42161808846E+01
 0.42710458345E+01 0.42801466576E+01 0.42407044433E+01 0.41548354114E+01 0.40291757080E+01
 0.38738012926E+01 0.37007494907E+01 0.35224371074E+01 0.33502082319E+01 0.31931938955E+01
 0.30576334827E+01 0.29467554206E+01 0.28612065180E+01 0.27998726307E+01 0.27608190641E+01
 0.27420679417E+01 0.27420327681E+01 0.27595903909E+01 0.27939071825E+01 0.28441975418E+01
 0.29095715331E+01 0.29890472625E+01 0.30816967460E+01 0.31867994182E+01 0.33038312208E+01
 0.34321454403E+01 0.35703112132E+01 0.37152457124E+01 0.38614476237E+01 0.40007218681E+01
 0.38758124118E+01 0.39195346613E+01 0.39374501457E+01 0.39249879766E+01 0.38797655946E+01
 0.38024633905E+01 0.36971179310E+01 0.35707534063E+01 0.34324356296E+01 0.32919558370E+01
 0.31584251189E+01 0.30390827978E+01 0.29385823084E+01 0.28589043376E+01 0.27998726307E+01
 0.27600668015E+01 0.27378129313E+01 0.27319357265E+01 0.27420679417E+01 0.27684803334E+01
 0.28115566904E+01 0.28711480293E+01 0.29460692965E+01 0.30339380437E+01 0.31314134974E+01
 0.32347297008E+01 0.33402980189E+01 0.34451292939E+01 0.35468973843E+01 0.36436047648E+01
 0.37329753645E+01 0.38118377948E+01 0.37937576195E+01 0.37849201064E+01 0.37581317856E+01
 0.37128016535E+01 0.36486397501E+01 0.35664135561E+01 0.34685525740E+01 0.33593619543E+01
 0.32447332373E+01 0.31313963568E+01 0.30259007843E+01 0.29336092134E+01 0.28580007361E+01
 0.28004926443E+01 0.27608190641E+01 0.27378129313E+01 0.27303033495E+01 0.27378129313E+01
 0.27608190641E+01 0.28004926443E+01 0.28580007361E+01 0.29336092134E+01 0.30259007843E+01
 0.31313963568E+01 0.32447332373E+01 0.33593619543E+01 0.34685525740E+01 0.35664135561E+01
 0.36486397501E+01 0.37128016535E+01 0.37581317856E+01 0.37849201064E+01 0.38758124118E+01
 0.38118377948E+01 0.37329753645E+01 0.36436047648E+01 0.35468973843E+01 0.34451292939E+01
 0.33402980189E+01 0.32347297008E+01 0.31314134974E+01 0.30339380437E+01 0.29460692965E+01
 0.28711480293E+01 0.28115566904E+01 0.27684803334E+01 0.27420679417E+01 0.27319357265E+01
 0.27378129313E+01 0.27600668015E+01 0.27998726307E+01 0.28589043376E+01 0.29385823084E+01
 0.30390827978E+01 0.31584251189E+01 0.32919558370E+01 0.34324356296E+01 0.35707534063E+01
 0.36971179310E+01 0.38024633905E+01 0.38797655946E+01 0.39249879766E+01 0.39374501457E+01
 0.39195346613E+01 0.41226978156E+01 0.40007218681E+01 0.38614476237E+01 0.37152457124E+01
 0.35703112132E+01 0.34321454403E+01 0.33038312208E+01 0.31867994182E+01 0.30816967460E+01
 0.29890472625E+01 0.29095715331E+01 0.28441975418E+01 0.27939071825E+01 0.27595903909E+01
 0.27420327681E+01 0.27420679417E+01 0.27608190641E+01 0.27998726307E+01 0.28612065180E+01
 0.29467554206E+01 0.30576334827E+01 0.31931938955E+01 0.33502082319E+01 0.35224371074E+01
 0.37007494907E+01 0.38738012926E+01 0.40291757080E+01 0.41548354114E+01 0.42407044433E+01
 0.42801466576E+01 0.42710458345E+01 0.42161808846E+01 0.45280022183E+01 0.43501088032E+01
 0.41452459599E+01 0.39303991959E+01 0.37205747062E+01 0.35268733176E+01 0.33557884315E+01
 0.32096638407E+01 0.30878846637E+01 0.29882731150E+01 0.29082957976E+01 0.28459124804E+01
 0.28000642939E+01 0.27708676738E+01 0.27595903909E+01 0.27684803334E+01 0.28004926443E+01
 0.28589043376E+01 0.29467554206E+01 0.30660835230E+01 0.32170437564E+01 0.33971417203E+01
 0.36008297775E+01 0.38195836851E+01 0.40431460799E+01 0.42661277122E+01 0.44751768459E+01
 0.46462526220E+01 0.47561676079E+01 0.47925566481E+01 0.47579308710E+01 0.46655179437E+01
 0.51795420174E+01 0.48679882853E+01 0.45762744315E+01 0.42896013613E+01 0.40033481954E+01
 0.37362555524E+01 0.35016884086E+01 0.33060752514E+01 0.31497841863E+01 0.30290772248E+01
 0.29383563527E+01 0.28721434909E+01 0.28265373272E+01 0.28000642939E+01 0.27939071825E+01
 0.28115566904E+01 0.28580007361E+01 0.29385823084E+01 0.30576334827E+01 0.32170437564E+01
 0.34150836981E+01 0.36459178006E+01 0.39006666197E+01 0.41908175309E+01 0.45372666446E+01
 0.49253127299E+01 0.53091109851E+01 0.56264821806E+01 0.58190507011E+01 0.58523238459E+01
 0.57282722814E+01 0.54845605529E+01 0.66665973006E+01 0.59545790035E+01 0.53158583100E+01
 0.48079114836E+01 0.44151608944E+01 0.40669485246E+01 0.37523444005E+01 0.34866437981E+01
 0.32754360680E+01 0.31162173020E+01 0.30015850413E+01 0.29226938947E+01 0.28721434909E+01
 0.28459124804E+01 0.28441975418E+01 0.28711480293E+01 0.29336092134E+01 0.30390827978E+01
 0.31931938955E+01 0.33971417203E+01 0.36459178006E+01 0.39305223953E+01 0.42900351171E+01
 0.47865352923E+01 0.54296263575E+01 0.61735018556E+01 0.69254775050E+01 0.75654425043E+01
 0.79758313893E+01 0.80755311564E+01 0.78462735897E+01 0.73405658967E+01 0.96726636628E+01
 0.83062407017E+01 0.69856023726E+01 0.58792235108E+01 0.50656726747E+01 0.45175821386E+01
 0.41133421957E+01 0.37636798404E+01 0.34780358714E+01 0.32605418179E+01 0.31053388069E+01
 0.30015850413E+01 0.29383563527E+01 0.29082957976E+01 0.29095715331E+01 0.29460692965E+01
 0.30259007843E+01 0.31584251189E+01 0.33502082319E+01 0.36008297775E+01 0.39006666197E+01
 0.42900351171E+01 0.48887281876E+01 0.57635680139E+01 0.69067183892E+01 0.82346375069E+01
 0.95960474855E+01 0.10794677854E+02 0.11629252585E+02 0.11943938912E+02 0.11673579690E+02
 0.10866194508E+02 0.14700506662E+02 0.12496474092E+02 0.10204518086E+02 0.81272298117E+01
 0.64721809324E+01 0.53162775072E+01 0.45985488927E+01 0.41404107913E+01 0.37691232270E+01
 0.34751365122E+01 0.32605418179E+01 0.31162173020E+01 0.30290772248E+01 0.29882731150E+01
 0.29890472625E+01 0.30339380437E+01 0.31313963568E+01 0.32919558370E+01 0.35224371074E+01
 0.38195836851E+01 0.41908175309E+01 0.47865352923E+01 0.57635680139E+01 0.71915850402E+01
 0.90439971957E+01 0.11195466848E+02 0.13427967724E+02 0.15454731468E+02 0.16969041206E+02
 0.17712571542E+02 0.17543716454E+02 0.16480531409E+02 0.21986539597E+02 0.18856330929E+02
 0.15392343254E+02 0.12041827564E+02 0.91622557242E+01 0.69668423843E+01 0.55006845741E+01
 0.46450447458E+01 0.41491589638E+01 0.37691232270E+01 0.34780358714E+01 0.32754360680E+01
 0.31497841863E+01 0.30878846637E+01 0.30816967460E+01 0.31314134974E+01 0.32447332373E+01
 0.34324356296E+01 0.37007494907E+01 0.40431460799E+01 0.45372666446E+01 0.54296263575E+01
 0.69067183892E+01 0.90439971957E+01 0.11796686935E+02 0.14996412704E+02 0.18354435628E+02
 0.21484235703E+02 0.23956565927E+02 0.25385494930E+02 0.25523215586E+02 0.24329330447E+02
 0.31487517877E+02 0.27438867022E+02 0.22705631234E+02 0.17882367009E+02 0.13485275685E+02
 0.98805173794E+01 0.72473790003E+01 0.55685660078E+01 0.46450447458E+01 0.41404107913E+01
 0.37636798404E+01 0.34866437981E+01 0.33060752514E+01 0.32096638407E+01 0.31867994182E+01
 0.32347297008E+01 0.33593619543E+01 0.35707534063E+01 0.38738012926E+01 0.42661277122E+01
 0.49253127299E+01 0.61735018556E+01 0.82346375069E+01 0.11195466848E+02 0.14996412704E+02
 0.19428448100E+02 0.24133154548E+02 0.28621116088E+02 0.32329293551E+02 0.34722730189E+02
 0.35418084066E+02 0.34285517856E+02 0.42894441054E+02 0.38028839817E+02 0.32033052901E+02
 0.25648973612E+02 0.19555006070E+02 0.14275839117E+02 0.10136926410E+02 0.72473790003E+01
 0.55006845741E+01 0.45985488927E+01 0.41133421957E+01 0.37523444005E+01 0.35016884086E+01
 0.33557884315E+01 0.33038312208E+01 0.33402980189E+01 0.34685525740E+01 0.36971179310E+01
 0.40291757080E+01 0.44751768459E+01 0.53091109851E+01 0.69254775050E+01 0.95960474855E+01
 0.13427967724E+02 0.18354435628E+02 0.24133154548E+02 0.30343529724E+02 0.36398050992E+02
 0.41596583356E+02 0.45239150982E+02 0.46778335526E+02 0.45959942115E+02 0.55626484309E+02
 0.50146808033E+02 0.43004744510E+02 0.35087086201E+02 0.27237905323E+02 0.20142987644E+02
 0.14275839117E+02 0.98805173794E+01 0.69668423843E+01 0.53162775072E+01 0.45175821386E+01
 0.40669485246E+01 0.37362555524E+01 0.35268733176E+01 0.34321454403E+01 0.34451292939E+01
 0.35664135561E+01 0.38024633905E+01 0.41548354114E+01 0.46462526220E+01 0.56264821806E+01
 0.75654425043E+01 0.10794677854E+02 0.15454731468E+02 0.21484235703E+02 0.28621116088E+02
 0.36398050992E+02 0.44144608375E+02 0.51031944803E+02 0.56188870945E+02 0.58879389270E+02
 0.58686319680E+02 0.68801815624E+02 0.63026226795E+02 0.54981717723E+02 0.45687848291E+02
 0.36156130534E+02 0.27237905323E+02 0.19555006070E+02 0.13485275685E+02 0.91622557242E+01
 0.64721809324E+01 0.50656726747E+01 0.44151608944E+01 0.40033481954E+01 0.37205747062E+01
 0.35703112132E+01 0.35468973843E+01 0.36486397501E+01 0.38797655946E+01 0.42407044433E+01
 0.47561676079E+01 0.58190507011E+01 0.79758313893E+01 0.11629252585E+02 0.16969041206E+02
 0.23956565927E+02 0.32329293551E+02 0.41596583356E+02 0.51031944803E+02 0.59701751290E+02
 0.66573819405E+02 0.70710858521E+02 0.71496067830E+02 0.81238312643E+02 0.75598108378E+02
 0.67038185359E+02 0.56678242307E+02 0.45687848291E+02 0.35087086201E+02 0.25648973612E+02
 0.17882367009E+02 0.12041827564E+02 0.81272298117E+01 0.58792235108E+01 0.48079114836E+01
 0.42896013613E+01 0.39303991959E+01 0.37152457124E+01 0.36436047648E+01 0.37128016535E+01
 0.39249879766E+01 0.42801466576E+01 0.47925566481E+01 0.58523238459E+01 0.80755311564E+01
 0.11943938912E+02 0.17712571542E+02 0.25385494930E+02 0.34722730189E+02 0.45239150982E+02
 0.56188870945E+02 0.66573819405E+02 0.75232992654E+02 0.81036992812E+02 0.83146545613E+02
 0.91556523563E+02 0.86553359481E+02 0.77993835404E+02 0.67038185359E+02 0.54981717723E+02
 0.43004744510E+02 0.32033052901E+02 0.22705631234E+02 0.15392343254E+02 0.10204518086E+02
 0.69856023726E+01 0.53158583100E+01 0.45762744315E+01 0.41452459599E+01 0.38614476237E+01
 0.37329753645E+01 0.37581317856E+01 0.39374501457E+01 0.42710458345E+01 0.47579308710E+01
 0.57282722814E+01 0.78462735897E+01 0.11673579690E+02 0.17543716454E+02 0.25523215586E+02
 0.35418084066E+02 0.46778335526E+02 0.58879389270E+02 0.70710858521E+02 0.81036992812E+02
 0.88574420794E+02 0.92265900577E+02 0.98414685033E+02 0.94531845664E+02 0.86553359481E+02
 0.75598108378E+02 0.63026226795E+02 0.50146808033E+02 0.38028839817E+02 0.27438867022E+02
 0.18856330929E+02 0.12496474092E+02 0.83062407017E+01 0.59545790035E+01 0.48679882853E+01
 0.43501088032E+01 0.40007218681E+01 0.38118377948E+01 0.37849201064E+01 0.39195346613E+01
 0.42161808846E+01 0.46655179437E+01 0.54845605529E+01 0.73405658967E+01 0.10866194508E+02
 0.16480531409E+02 0.24329330447E+02 0.34285517856E+02 0.45959942115E+02 0.58686319680E+02
 0.71496067830E+02 0.83146545613E+02 0.92265900577E+02 0.97618786967E+02 0.98414685033E+02
 0.97618786967E+02 0.92265900577E+02 0.83146545613E+02 0.71496067830E+02 0.58686319680E+02
 0.45959942115E+02 0.34285517856E+02 0.24329330447E+02 0.16480531409E+02 0.10866194508E+02
 0.73405658967E+01 0.54845605529E+01 0.46655179437E+01 0.42161808846E+01 0.39195346613E+01
 0.37849201064E+01 0.38118377948E+01 0.40007218681E+01 0.43501088032E+01 0.48679882853E+01
 0.59545790035E+01 0.83062407017E+01 0.12496474092E+02 0.18856330929E+02 0.27438867022E+02
 0.38028839817E+02 0.50146808033E+02 0.63026226795E+02 0.75598108378E+02 0.86553359481E+02
 0.94531845664E+02 0.97618786967E+02 0.98414684989E+02 0.94531845579E+02 0.86553359358E+02
 0.75598108219E+02 0.63026226608E+02 0.50146807825E+02 0.38028839601E+02 0.27438866813E+02
 0.18856330742E+02 0.12496473940E+02 0.83062405907E+01 0.59545789342E+01 0.48679882513E+01
 0.43501087937E+01 0.40007218709E+01 0.38118377999E+01 0.37849201095E+01 0.39195346649E+01
 0.42161808973E+01 0.46655179779E+01 0.54845606209E+01 0.73405660070E+01 0.10866194662E+02
 0.16480531601E+02 0.24329330663E+02 0.34285518078E+02 0.45959942325E+02 0.58686319862E+02
 0.71496067972E+02 0.83146545708E+02 0.92265900624E+02 0.92265900577E+02 0.94531845579E+02
 0.92265900509E+02 0.85812023990E+02 0.76101348967E+02 0.64397846572E+02 0.52004531130E+02
 0.40042223312E+02 0.29350023885E+02 0.20480072852E+02 0.13720481154E+02 0.90989584910E+01
 0.63715800191E+01 0.50408031881E+01 0.44433914239E+01 0.40546237323E+01 0.38192829697E+01
 0.37412907283E+01 0.38192829663E+01 0.40546237371E+01 0.44433914565E+01 0.50408032699E+01
 0.63715801670E+01 0.90989587119E+01 0.13720481442E+02 0.20480073188E+02 0.29350024244E+02
 0.40042223665E+02 0.52004531450E+02 0.64397846841E+02 0.76101349172E+02 0.85812024127E+02
 0.83146545613E+02 0.86553359358E+02 0.85812023990E+02 0.81036992751E+02 0.72933566294E+02
 0.62600963935E+02 0.51261909253E+02 0.40028525703E+02 0.29771666326E+02 0.21089732469E+02
 0.14323448724E+02 0.95643613230E+01 0.66465309301E+01 0.51540620367E+01 0.44862446589E+01
 0.40740776787E+01 0.38043345808E+01 0.36830479663E+01 0.37077509043E+01 0.38793360694E+01
 0.41995981997E+01 0.46632187690E+01 0.55362168486E+01 0.74518286663E+01 0.10964187821E+02
 0.16411933173E+02 0.23873867215E+02 0.33170557843E+02 0.43869051818E+02 0.55270331143E+02
 0.66405948612E+02 0.76101349120E+02 0.71496067830E+02 0.75598108219E+02 0.76101348967E+02
 0.72933566294E+02 0.66573819383E+02 0.57917496860E+02 0.48047352957E+02 0.38007062772E+02
 0.28652036170E+02 0.20593682970E+02 0.14200663606E+02 0.96078829647E+01 0.67124636374E+01
 0.51765323723E+01 0.44744047572E+01 0.40544934564E+01 0.37647686773E+01 0.36116188002E+01
 0.35912319696E+01 0.37028463394E+01 0.39509079628E+01 0.43346933050E+01 0.49012921038E+01
 0.61108215265E+01 0.85391964316E+01 0.12604120972E+02 0.18491445049E+02 0.26136678831E+02
 0.35228903499E+02 0.45209236787E+02 0.55270331089E+02 0.64397846736E+02 0.58686319680E+02
 0.63026226608E+02 0.64397846572E+02 0.62600963935E+02 0.57917496860E+02 0.51031944841E+02
 0.42851902244E+02 0.34305543543E+02 0.26188675556E+02 0.19091098118E+02 0.13383092130E+02
 0.92211664966E+01 0.65476370535E+01 0.50924690726E+01 0.44075364059E+01 0.39949540158E+01
 0.36999930979E+01 0.35281875755E+01 0.34741536335E+01 0.35347246172E+01 0.37142381404E+01
 0.40193191368E+01 0.44457535855E+01 0.51531242365E+01 0.66543665824E+01 0.94161258851E+01
 0.13720443369E+02 0.19619937192E+02 0.26929508040E+02 0.35228903452E+02 0.43869051717E+02
 0.52004531300E+02 0.45959942115E+02 0.50146807825E+02 0.52004531130E+02 0.51261909253E+02
 0.48047352957E+02 0.42851902244E+02 0.36398051090E+02 0.29470404592E+02 0.22771727759E+02
 0.16840392016E+02 0.12024369156E+02 0.84817075854E+01 0.61821859638E+01 0.49101670144E+01
 0.42903602904E+01 0.38986212348E+01 0.36117500711E+01 0.34343403531E+01 0.33593460970E+01
 0.33809918184E+01 0.35016260839E+01 0.37304014320E+01 0.40739092954E+01 0.45355036262E+01
 0.53703903765E+01 0.70424648478E+01 0.99035783794E+01 0.14115285673E+02 0.19619937161E+02
 0.26136678752E+02 0.33170557709E+02 0.40042223483E+02 0.34285517856E+02 0.38028839601E+02
 0.40042223312E+02 0.40028525703E+02 0.38007062772E+02 0.34305543543E+02 0.29470404592E+02
 0.24133154678E+02 0.18883994454E+02 0.14188918962E+02 0.10355409340E+02 0.75273070719E+01
 0.56869521071E+01 0.46595623897E+01 0.41338320081E+01 0.37723826143E+01 0.35043499569E+01
 0.33326339047E+01 0.32486964065E+01 0.32444685502E+01 0.33194851409E+01 0.34819946225E+01
 0.37438864495E+01 0.41099631654E+01 0.45986882420E+01 0.54967747539E+01 0.71829613126E+01
 0.99035783670E+01 0.13720443325E+02 0.18491444957E+02 0.23873867068E+02 0.29350024048E+02
 0.24329330447E+02 0.27438866813E+02 0.29350023885E+02 0.29771666326E+02 0.28652036170E+02
 0.26188675556E+02 0.22771727759E+02 0.18883994454E+02 0.14996412825E+02 0.11491423247E+02
 0.86249236654E+01 0.65163661838E+01 0.51500837959E+01 0.43807602356E+01 0.39511428538E+01
 0.36258631924E+01 0.33843364494E+01 0.32268430105E+01 0.31438461395E+01 0.31257094116E+01
 0.31692426899E+01 0.32800010284E+01 0.34701473577E+01 0.37518856057E+01 0.41273677187E+01
 0.46218598775E+01 0.54967747565E+01 0.70424648384E+01 0.94161258451E+01 0.12604120885E+02
 0.16411933031E+02 0.20480072998E+02 0.16480531409E+02 0.18856330742E+02 0.20480072852E+02
 0.21089732469E+02 0.20593682970E+02 0.19091098118E+02 0.16840392016E+02 0.14188918962E+02
 0.11491423247E+02 0.90439972728E+01 0.70463381734E+01 0.55885131380E+01 0.46506312041E+01
 0.41085089679E+01 0.37549140265E+01 0.34700371993E+01 0.32596373784E+01 0.31217665242E+01
 0.30466547086E+01 0.30240813168E+01 0.30488435512E+01 0.31233902642E+01 0.32574039054E+01
 0.34642429038E+01 0.37544243621E+01 0.41273677277E+01 0.45986882542E+01 0.53703903783E+01
 0.66543665562E+01 0.85391963618E+01 0.10964187701E+02 0.13720481276E+02 0.10866194508E+02
 0.12496473940E+02 0.13720481154E+02 0.14323448724E+02 0.14200663606E+02 0.13383092130E+02
 0.12024369156E+02 0.10355409340E+02 0.86249236654E+01 0.70463381734E+01 0.57635680361E+01
 0.48361847991E+01 0.42371816918E+01 0.38579677089E+01 0.35579348677E+01 0.33157142212E+01
 0.31383908534E+01 0.30226313376E+01 0.29593014179E+01 0.29386501548E+01 0.29544944440E+01
 0.30066678144E+01 0.31014637439E+01 0.32499616482E+01 0.34642429109E+01 0.37518856218E+01
 0.41099631855E+01 0.45355036387E+01 0.51531242262E+01 0.61108214794E+01 0.74518285755E+01
 0.90989585813E+01 0.73405658967E+01 0.83062405907E+01 0.90989584910E+01 0.95643613230E+01
 0.96078829647E+01 0.92211664966E+01 0.84817075854E+01 0.75273070719E+01 0.65163661838E+01
 0.55885131380E+01 0.48361847991E+01 0.42900350971E+01 0.39151989095E+01 0.36223843813E+01
 0.33714123994E+01 0.31721741882E+01 0.30277293348E+01 0.29342771157E+01 0.28840654723E+01
 0.28687322249E+01 0.28821987447E+01 0.29226313941E+01 0.29931976454E+01 0.31014637448E+01
 0.32574039127E+01 0.34701473733E+01 0.37438864700E+01 0.40739093119E+01 0.44457535860E+01
 0.49012920771E+01 0.55362167886E+01 0.63715800761E+01 0.54845605529E+01 0.59545789342E+01
 0.63715800191E+01 0.66465309301E+01 0.67124636374E+01 0.65476370535E+01 0.61821859638E+01
 0.56869521071E+01 0.51500837959E+01 0.46506312041E+01 0.42371816918E+01 0.39151989095E+01
 0.36459177633E+01 0.34058395153E+01 0.32040536590E+01 0.30461975981E+01 0.29328303339E+01
 0.28603918836E+01 0.28229491385E+01 0.28141340227E+01 0.28288832413E+01 0.28647541236E+01
 0.29226313897E+01 0.30066678099E+01 0.31233902643E+01 0.32800010353E+01 0.34819946347E+01
 0.37304014437E+01 0.40193191398E+01 0.43346932914E+01 0.46632187343E+01 0.50408032149E+01
 0.46655179437E+01 0.48679882513E+01 0.50408031881E+01 0.51540620367E+01 0.51765323723E+01
 0.50924690726E+01 0.49101670144E+01 0.46595623897E+01 0.43807602356E+01 0.41085089679E+01
 0.38579677089E+01 0.36223843813E+01 0.34058395153E+01 0.32170437231E+01 0.30615859452E+01
 0.29416684625E+01 0.28564807537E+01 0.28030638600E+01 0.27773592261E+01 0.27751909313E+01
 0.27930810602E+01 0.28288832351E+01 0.28821987335E+01 0.29544944311E+01 0.30488435404E+01
 0.31692426836E+01 0.33194851392E+01 0.35016260842E+01 0.37142381382E+01 0.39509079536E+01
 0.41995981808E+01 0.44433914280E+01 0.42161808846E+01 0.43501087937E+01 0.44433914239E+01
 0.44862446589E+01 0.44744047572E+01 0.44075364059E+01 0.42903602904E+01 0.41338320081E+01
 0.39511428538E+01 0.37549140265E+01 0.35579348677E+01 0.33714123994E+01 0.32040536590E+01
 0.30615859452E+01 0.29467554003E+01 0.28598008659E+01 0.27992535893E+01 0.27628078620E+01
 0.27480212033E+01 0.27527268393E+01 0.27751909268E+01 0.28141340123E+01 0.28687322092E+01
 0.29386501360E+01 0.30240812975E+01 0.31257093941E+01 0.32444685355E+01 0.33809918060E+01
 0.35347246059E+01 0.37028463277E+01 0.38793360564E+01 0.40546237234E+01 0.39195346613E+01
 0.40007218709E+01 0.40546237323E+01 0.40740776787E+01 0.40544934564E+01 0.39949540158E+01
 0.38986212348E+01 0.37723826143E+01 0.36258631924E+01 0.34700371993E+01 0.33157142212E+01
 0.31721741882E+01 0.30461975981E+01 0.29416684625E+01 0.28598008659E+01 0.27998726211E+01
 0.27602023056E+01 0.27390499895E+01 0.27351859498E+01 0.27480212023E+01 0.27773592217E+01
 0.28229491296E+01 0.28840654588E+01 0.29593014006E+01 0.30466546888E+01 0.31438461184E+01
 0.32486963852E+01 0.33593460763E+01 0.34741536141E+01 0.35912319525E+01 0.37077508904E+01
 0.38192829569E+01 0.37849201064E+01 0.38118377999E+01 0.38192829697E+01 0.38043345808E+01
 0.37647686773E+01 0.36999930979E+01 0.36117500711E+01 0.35043499569E+01 0.33843364494E+01
 0.32596373784E+01 0.31383908534E+01 0.30277293348E+01 0.29328303339E+01 0.28564807537E+01
 0.27992535893E+01 0.27602023056E+01 0.27378129270E+01 0.27308837344E+01 0.27390499914E+01
 0.27628078646E+01 0.28030638620E+01 0.28603918837E+01 0.29342771130E+01 0.30226313313E+01
 0.31217665137E+01 0.32268429957E+01 0.33326338861E+01 0.34343403317E+01 0.35281875531E+01
 0.36116187791E+01 0.36830479491E+01 0.37412907173E+01 0.38118377948E+01 0.37849201095E+01
 0.37412907283E+01 0.36830479663E+01 0.36116188002E+01 0.35281875755E+01 0.34343403531E+01
 0.33326339047E+01 0.32268430105E+01 0.31217665242E+01 0.30226313376E+01 0.29342771157E+01
 0.28603918836E+01 0.28030638600E+01 0.27628078620E+01 0.27390499895E+01 0.27308837344E+01
 0.27378129302E+01 0.27602023126E+01 0.27992536002E+01 0.28564807677E+01 0.29328303494E+01
 0.30277293495E+01 0.31383908648E+01 0.32596373842E+01 0.33843364480E+01 0.35043499480E+01
 0.36117500556E+01 0.36999930783E+01 0.37647686567E+01 0.38043345626E+01 0.38192829569E+01
 0.40007218681E+01 0.39195346649E+01 0.38192829663E+01 0.37077509043E+01 0.35912319696E+01
 0.34741536335E+01 0.33593460970E+01 0.32486964065E+01 0.31438461395E+01 0.30466547086E+01
 0.29593014179E+01 0.28840654723E+01 0.28229491385E+01 0.27773592261E+01 0.27480212033E+01
 0.27351859498E+01 0.27390499914E+01 0.27602023126E+01 0.27998726354E+01 0.28598008881E+01
 0.29416684918E+01 0.30461976316E+01 0.31721742219E+01 0.33157142508E+01 0.34700372210E+01
 0.36258632040E+01 0.37723826154E+01 0.38986212272E+01 0.39949540025E+01 0.40544934412E+01