   1   1   1   0
  0.1188184E+02  0.2489823E-09  0.2489823E-09  0.2489823E-09  0.5000000E-15
  1.000000000000000E-004
  CAR 
 Fe BCC                                  
     45.59974643     -4.74688124  301      5.28068386      1.00000000
     -4.747  0.0000E+00  0.0000E+00  0.0000E+00  0.0000E+00
     -4.579  0.0000E+00  0.0000E+00  0.0000E+00  0.0000E+00
     -4.411  0.0000E+00  0.0000E+00  0.0000E+00  0.0000E+00
     -4.243  0.0000E+00  0.0000E+00  0.0000E+00  0.0000E+00
     -4.076  0.0000E+00  0.0000E+00  0.0000E+00  0.0000E+00
     -3.908  0.0000E+00  0.0000E+00  0.0000E+00  0.0000E+00
     -3.740  0.0000E+00  0.0000E+00  0.0000E+00  0.0000E+00
     -3.572  0.0000E+00  0.0000E+00  0.0000E+00  0.0000E+00
     -3.404  0.0000E+00  0.0000E+00  0.0000E+00  0.0000E+00
     -3.236  0.0000E+00  0.0000E+00  0.0000E+00  0.0000E+00
     -3.069  0.0000E+00  0.0000E+00  0.0000E+00  0.0000E+00
     -2.901  0.0000E+00  0.0000E+00  0.0000E+00  0.0000E+00
     -2.733  0.0000E+00  0.0000E+00  0.0000E+00  0.0000E+00
     -2.565  0.0000E+00  0.0000E+00  0.0000E+00  0.0000E+00
     -2.397  0.1256E-01  0.0000E+00  0.1337E-02  0.0000E+00
     -2.230  0.1914E-01  0.1481E-01  0.4012E-02  0.2178E-02
     -2.062  0.2465E-01  0.2075E-01  0.7702E-02  0.5177E-02
     -1.894  0.2910E-01  0.2560E-01  0.1223E-01  0.9081E-02
     -1.726  0.3660E-01  0.3003E-01  0.1769E-01  0.1372E-01
     -1.558  0.4345E-01  0.3742E-01  0.2443E-01  0.1940E-01
     -1.390  0.4853E-01  0.4302E-01  0.3217E-01  0.2618E-01
     -1.223  0.4978E-01  0.4684E-01  0.4041E-01  0.3374E-01
     -1.055  0.5545E-01  0.4685E-01  0.4924E-01  0.4147E-01
     -0.887  0.6165E-01  0.5111E-01  0.5905E-01  0.4969E-01
     -0.719  0.6837E-01  0.5564E-01  0.6996E-01  0.5864E-01
     -0.551  0.7562E-01  0.6044E-01  0.8203E-01  0.6838E-01
     -0.384  0.8340E-01  0.6552E-01  0.9537E-01  0.7894E-01
     -0.216  0.9446E-01  0.7087E-01  0.1101E+00  0.9038E-01
     -0.048  0.1115E+00  0.7558E-01  0.1274E+00  0.1027E+00
      0.120  0.1299E+00  0.8285E-01  0.1476E+00  0.1160E+00
      0.288  0.1518E+00  0.8988E-01  0.1711E+00  0.1305E+00
      0.456  0.1890E+00  0.9610E-01  0.1995E+00  0.1461E+00
      0.623  0.2384E+00  0.1026E+00  0.2352E+00  0.1628E+00
      0.791  0.4528E+00  0.1110E+00  0.2822E+00  0.1806E+00
      0.959  0.5691E+00  0.1218E+00  0.3675E+00  0.2002E+00
      1.127  0.7932E+00  0.1339E+00  0.4803E+00  0.2216E+00
      1.295  0.1087E+01  0.1473E+00  0.6386E+00  0.2452E+00
      1.463  0.9812E+00  0.1622E+00  0.8249E+00  0.2711E+00
      1.630  0.6111E+00  0.1807E+00  0.9609E+00  0.2997E+00
      1.798  0.4615E+00  0.2303E+00  0.1050E+01  0.3335E+00
      1.966  0.4082E+00  0.3072E+00  0.1114E+01  0.3783E+00
      2.134  0.2420E+01  0.3873E+00  0.1241E+01  0.4408E+00
      2.302  0.1732E+01  0.3882E+00  0.1548E+01  0.5051E+00
      2.469  0.9218E+00  0.3935E+00  0.1780E+01  0.5709E+00
      2.637  0.8230E+00  0.3955E+00  0.1917E+01  0.6365E+00
      2.805  0.1130E+01  0.6073E+00  0.2075E+01  0.7167E+00
      2.973  0.1992E+01  0.7823E+00  0.2323E+01  0.8346E+00
      3.141  0.1088E+01  0.5414E+00  0.2640E+01  0.9448E+00
      3.309  0.5180E+00  0.2904E+00  0.2759E+01  0.1025E+01
      3.476  0.4403E+00  0.1516E+00  0.2838E+01  0.1063E+01
      3.644  0.4392E+00  0.2139E+00  0.2911E+01  0.1092E+01
      3.812  0.7256E+00  0.1269E+01  0.3004E+01  0.1193E+01
      3.980  0.1059E+01  0.1358E+01  0.3138E+01  0.1408E+01
      4.148  0.1991E+01  0.1602E+01  0.3386E+01  0.1673E+01
      4.316  0.2369E+01  0.1188E+01  0.3770E+01  0.1876E+01
      4.483  0.2432E+01  0.1105E+01  0.4177E+01  0.2066E+01
      4.651  0.1353E+01  0.1422E+01  0.4498E+01  0.2267E+01
      4.819  0.9643E+00  0.1330E+01  0.4693E+01  0.2504E+01
      4.987  0.8591E+00  0.1073E+01  0.4843E+01  0.2711E+01
      5.155  0.9554E+00  0.3572E+00  0.4988E+01  0.2845E+01
      5.322  0.6142E+00  0.2261E+00  0.5168E+01  0.2890E+01
      5.490  0.1890E+00  0.1504E+00  0.5228E+01  0.2918E+01
      5.658  0.1512E+00  0.1574E+00  0.5254E+01  0.2944E+01
      5.826  0.1560E+00  0.2662E+00  0.5280E+01  0.2977E+01
      5.994  0.2382E+00  0.3603E+00  0.5308E+01  0.3030E+01
      6.162  0.1743E+00  0.5074E+00  0.5338E+01  0.3102E+01
      6.329  0.1647E+00  0.7802E+00  0.5366E+01  0.3208E+01
      6.497  0.1543E+00  0.1033E+01  0.5393E+01  0.3362E+01
      6.665  0.1543E+00  0.1492E+01  0.5419E+01  0.3572E+01
      6.833  0.1542E+00  0.1782E+01  0.5445E+01  0.3850E+01
      7.001  0.1541E+00  0.1224E+01  0.5471E+01  0.4101E+01
      7.168  0.1540E+00  0.1406E+01  0.5497E+01  0.4317E+01
      7.336  0.1539E+00  0.1813E+01  0.5523E+01  0.4726E+01
      7.504  0.1536E+00  0.1385E+01  0.5548E+01  0.4978E+01
      7.672  0.1524E+00  0.6918E+00  0.5574E+01  0.5186E+01
      7.840  0.1499E+00  0.2786E+00  0.5600E+01  0.5248E+01
      8.008  0.1489E+00  0.2881E+00  0.5624E+01  0.5298E+01
      8.175  0.1492E+00  0.2611E+00  0.5650E+01  0.5345E+01
      8.343  0.1430E+00  0.2282E+00  0.5674E+01  0.5386E+01
      8.511  0.1382E+00  0.2144E+00  0.5698E+01  0.5423E+01
      8.679  0.1327E+00  0.2103E+00  0.5723E+01  0.5458E+01
      8.847  0.1275E+00  0.2076E+00  0.5745E+01  0.5493E+01
      9.015  0.1224E+00  0.2055E+00  0.5766E+01  0.5528E+01
      9.182  0.1173E+00  0.2005E+00  0.5786E+01  0.5562E+01
      9.350  0.1124E+00  0.1925E+00  0.5805E+01  0.5595E+01
      9.518  0.1075E+00  0.1904E+00  0.5824E+01  0.5627E+01
      9.686  0.1018E+00  0.1739E+00  0.5841E+01  0.5658E+01
      9.854  0.9523E-01  0.1674E+00  0.5858E+01  0.5686E+01
     10.021  0.8879E-01  0.1694E+00  0.5873E+01  0.5714E+01
     10.189  0.8244E-01  0.1513E+00  0.5888E+01  0.5742E+01
     10.357  0.7617E-01  0.1439E+00  0.5901E+01  0.5767E+01
     10.525  0.7924E-01  0.1368E+00  0.5915E+01  0.5791E+01
     10.693  0.7125E-01  0.1299E+00  0.5927E+01  0.5813E+01
     10.861  0.6082E-01  0.1233E+00  0.5938E+01  0.5834E+01
     11.028  0.4529E-01  0.1159E+00  0.5947E+01  0.5854E+01
     11.196  0.4168E-01  0.1070E+00  0.5954E+01  0.5873E+01
     11.364  0.3828E-01  0.1063E+00  0.5961E+01  0.5891E+01
     11.532  0.3131E-01  0.9689E-01  0.5968E+01  0.5908E+01
     11.700  0.2451E-01  0.8531E-01  0.5972E+01  0.5923E+01
     11.868  0.1979E-01  0.7152E-01  0.5976E+01  0.5936E+01
     12.035  0.1716E-01  0.5397E-01  0.5979E+01  0.5946E+01
     12.203  0.1750E-01  0.4915E-01  0.5982E+01  0.5954E+01
     12.371  0.2259E-01  0.4463E-01  0.5985E+01  0.5962E+01
     12.539  0.4930E-01  0.3632E-01  0.5991E+01  0.5971E+01
     12.707  0.7966E-01  0.2780E-01  0.6002E+01  0.5976E+01
     12.874  0.1157E+00  0.2177E-01  0.6018E+01  0.5980E+01
     13.042  0.1657E+00  0.1822E-01  0.6041E+01  0.5983E+01
     13.210  0.2262E+00  0.1738E-01  0.6076E+01  0.5986E+01
     13.378  0.2437E+00  0.1990E-01  0.6116E+01  0.5989E+01
     13.546  0.2570E+00  0.2583E-01  0.6158E+01  0.5993E+01
     13.714  0.2635E+00  0.3802E-01  0.6202E+01  0.5999E+01
     13.881  0.2444E+00  0.7962E-01  0.6246E+01  0.6009E+01
     14.049  0.1859E+00  0.1394E+00  0.6282E+01  0.6027E+01
     14.217  0.1820E+00  0.2105E+00  0.6312E+01  0.6057E+01
     14.385  0.1777E+00  0.2626E+00  0.6343E+01  0.6097E+01
     14.553  0.1733E+00  0.2931E+00  0.6372E+01  0.6145E+01
     14.720  0.1698E+00  0.3070E+00  0.6401E+01  0.6195E+01
     14.888  0.1704E+00  0.2926E+00  0.6429E+01  0.6247E+01
     15.056  0.1821E+00  0.2140E+00  0.6459E+01  0.6286E+01
     15.224  0.1769E+00  0.2075E+00  0.6489E+01  0.6322E+01
     15.392  0.1796E+00  0.2028E+00  0.6519E+01  0.6356E+01
     15.560  0.1795E+00  0.2045E+00  0.6549E+01  0.6390E+01
     15.727  0.1712E+00  0.2059E+00  0.6579E+01  0.6425E+01
     15.895  0.1760E+00  0.2051E+00  0.6608E+01  0.6462E+01
     16.063  0.1825E+00  0.1808E+00  0.6638E+01  0.6493E+01
     16.231  0.1896E+00  0.1834E+00  0.6670E+01  0.6523E+01
     16.399  0.2029E+00  0.1868E+00  0.6705E+01  0.6554E+01
     16.567  0.2050E+00  0.1908E+00  0.6739E+01  0.6586E+01
     16.734  0.2074E+00  0.1953E+00  0.6773E+01  0.6618E+01
     16.902  0.2105E+00  0.2025E+00  0.6808E+01  0.6652E+01
     17.070  0.2124E+00  0.2178E+00  0.6844E+01  0.6688E+01
     17.238  0.2205E+00  0.2199E+00  0.6882E+01  0.6725E+01
     17.406  0.2311E+00  0.2221E+00  0.6920E+01  0.6762E+01
     17.573  0.2072E+00  0.2244E+00  0.6958E+01  0.6800E+01
     17.741  0.1941E+00  0.2262E+00  0.6991E+01  0.6838E+01
     17.909  0.1915E+00  0.2337E+00  0.7024E+01  0.6878E+01
     18.077  0.1890E+00  0.2197E+00  0.7056E+01  0.6919E+01
     18.245  0.1867E+00  0.2177E+00  0.7087E+01  0.6956E+01
     18.413  0.1847E+00  0.2035E+00  0.7118E+01  0.6990E+01
     18.580  0.1839E+00  0.2008E+00  0.7149E+01  0.7024E+01
     18.748  0.1823E+00  0.1982E+00  0.7180E+01  0.7058E+01
     18.916  0.1859E+00  0.1958E+00  0.7211E+01  0.7091E+01
     19.084  0.1798E+00  0.1937E+00  0.7242E+01  0.7123E+01
     19.252  0.1757E+00  0.1930E+00  0.7271E+01  0.7156E+01
     19.420  0.1747E+00  0.1915E+00  0.7301E+01  0.7188E+01
     19.587  0.1729E+00  0.2000E+00  0.7330E+01  0.7221E+01
     19.755  0.1706E+00  0.1896E+00  0.7359E+01  0.7253E+01
     19.923  0.1691E+00  0.1854E+00  0.7387E+01  0.7284E+01
     20.091  0.1677E+00  0.1841E+00  0.7416E+01  0.7315E+01
     20.259  0.1662E+00  0.1817E+00  0.7444E+01  0.7346E+01
     20.426  0.1647E+00  0.1801E+00  0.7471E+01  0.7376E+01
     20.594  0.1633E+00  0.1788E+00  0.7499E+01  0.7407E+01
     20.762  0.1682E+00  0.1775E+00  0.7527E+01  0.7436E+01
     20.930  0.1689E+00  0.1762E+00  0.7555E+01  0.7466E+01
     21.098  0.1714E+00  0.1749E+00  0.7584E+01  0.7496E+01
     21.266  0.1748E+00  0.1737E+00  0.7613E+01  0.7525E+01
     21.433  0.1797E+00  0.1725E+00  0.7643E+01  0.7554E+01
     21.601  0.1871E+00  0.1711E+00  0.7673E+01  0.7583E+01
     21.769  0.1997E+00  0.1799E+00  0.7707E+01  0.7613E+01
     21.937  0.2169E+00  0.1845E+00  0.7743E+01  0.7644E+01
     22.105  0.2318E+00  0.1938E+00  0.7780E+01  0.7675E+01
     22.272  0.2261E+00  0.2051E+00  0.7819E+01  0.7709E+01
     22.440  0.2331E+00  0.2190E+00  0.7857E+01  0.7746E+01
     22.608  0.2399E+00  0.2401E+00  0.7897E+01  0.7785E+01
     22.776  0.2464E+00  0.2385E+00  0.7938E+01  0.7826E+01
     22.944  0.2534E+00  0.2471E+00  0.7980E+01  0.7867E+01
     23.112  0.2600E+00  0.2546E+00  0.8023E+01  0.7909E+01
     23.279  0.2695E+00  0.2612E+00  0.8067E+01  0.7952E+01
     23.447  0.2755E+00  0.2674E+00  0.8113E+01  0.7997E+01
     23.615  0.2857E+00  0.2615E+00  0.8160E+01  0.8040E+01
     23.783  0.3065E+00  0.2690E+00  0.8210E+01  0.8085E+01
     23.951  0.3110E+00  0.2826E+00  0.8261E+01  0.8131E+01
     24.119  0.3108E+00  0.3343E+00  0.8314E+01  0.8180E+01
     24.286  0.3088E+00  0.3004E+00  0.8366E+01  0.8230E+01
     24.454  0.3063E+00  0.3135E+00  0.8418E+01  0.8282E+01
     24.622  0.2966E+00  0.3370E+00  0.8469E+01  0.8336E+01
     24.790  0.2911E+00  0.3189E+00  0.8518E+01  0.8391E+01
     24.958  0.2880E+00  0.3155E+00  0.8567E+01  0.8444E+01
     25.125  0.2806E+00  0.3053E+00  0.8615E+01  0.8496E+01
     25.293  0.2720E+00  0.3017E+00  0.8661E+01  0.8547E+01
     25.461  0.2621E+00  0.2915E+00  0.8706E+01  0.8597E+01
     25.629  0.2496E+00  0.2811E+00  0.8749E+01  0.8645E+01
     25.797  0.2386E+00  0.2703E+00  0.8790E+01  0.8691E+01
     25.965  0.2193E+00  0.2572E+00  0.8828E+01  0.8736E+01
     26.132  0.1902E+00  0.2417E+00  0.8863E+01  0.8778E+01
     26.300  0.1675E+00  0.2246E+00  0.8893E+01  0.8817E+01
     26.468  0.1599E+00  0.2048E+00  0.8921E+01  0.8853E+01
     26.636  0.1547E+00  0.1833E+00  0.8947E+01  0.8886E+01
     26.804  0.1555E+00  0.1711E+00  0.8973E+01  0.8915E+01
     26.971  0.1574E+00  0.1588E+00  0.8999E+01  0.8943E+01
     27.139  0.1554E+00  0.1569E+00  0.9026E+01  0.8969E+01
     27.307  0.1516E+00  0.1511E+00  0.9052E+01  0.8995E+01
     27.475  0.1512E+00  0.1580E+00  0.9077E+01  0.9022E+01
     27.643  0.1507E+00  0.1548E+00  0.9103E+01  0.9049E+01
     27.811  0.1501E+00  0.1542E+00  0.9128E+01  0.9075E+01
     27.978  0.1603E+00  0.1533E+00  0.9154E+01  0.9100E+01
     28.146  0.1567E+00  0.1490E+00  0.9181E+01  0.9127E+01
     28.314  0.1489E+00  0.1618E+00  0.9207E+01  0.9153E+01
     28.482  0.1493E+00  0.1508E+00  0.9232E+01  0.9179E+01
     28.650  0.1548E+00  0.1460E+00  0.9258E+01  0.9204E+01
     28.818  0.1611E+00  0.1496E+00  0.9284E+01  0.9229E+01
     28.985  0.1679E+00  0.1541E+00  0.9312E+01  0.9254E+01
     29.153  0.1754E+00  0.1607E+00  0.9340E+01  0.9280E+01
     29.321  0.1894E+00  0.1684E+00  0.9371E+01  0.9308E+01
     29.489  0.3301E+00  0.1735E+00  0.9411E+01  0.9338E+01
     29.657  0.3736E+00  0.1844E+00  0.9474E+01  0.9368E+01
     29.824  0.2445E+00  0.2575E+00  0.9528E+01  0.9405E+01
     29.992  0.2275E+00  0.4787E+00  0.9567E+01  0.9462E+01
     30.160  0.2123E+00  0.2888E+00  0.9604E+01  0.9520E+01
     30.328  0.1911E+00  0.2654E+00  0.9638E+01  0.9567E+01
     30.496  0.1756E+00  0.2391E+00  0.9669E+01  0.9609E+01
     30.664  0.1718E+00  0.2014E+00  0.9698E+01  0.9647E+01
     30.831  0.1694E+00  0.1948E+00  0.9727E+01  0.9680E+01
     30.999  0.1805E+00  0.1955E+00  0.9756E+01  0.9712E+01
     31.167  0.1965E+00  0.1871E+00  0.9788E+01  0.9744E+01
     31.335  0.1935E+00  0.1840E+00  0.9821E+01  0.9776E+01
     31.503  0.1885E+00  0.1770E+00  0.9853E+01  0.9806E+01
     31.671  0.1820E+00  0.1701E+00  0.9884E+01  0.9835E+01
     31.838  0.1749E+00  0.1635E+00  0.9914E+01  0.9863E+01
     32.006  0.2256E+00  0.1888E+00  0.9945E+01  0.9893E+01
     32.174  0.2373E+00  0.1618E+00  0.9983E+01  0.9922E+01
     32.342  0.2617E+00  0.1578E+00  0.1003E+02  0.9949E+01
     32.510  0.2745E+00  0.2589E+00  0.1007E+02  0.9980E+01
     32.677  0.2971E+00  0.2387E+00  0.1012E+02  0.1002E+02
     32.845  0.3179E+00  0.2716E+00  0.1017E+02  0.1006E+02
     33.013  0.3400E+00  0.3048E+00  0.1023E+02  0.1011E+02
     33.181  0.3433E+00  0.3267E+00  0.1028E+02  0.1017E+02
     33.349  0.3293E+00  0.3285E+00  0.1034E+02  0.1022E+02
     33.517  0.3403E+00  0.3359E+00  0.1039E+02  0.1028E+02
     33.684  0.3386E+00  0.3366E+00  0.1045E+02  0.1033E+02
     33.852  0.3295E+00  0.3306E+00  0.1051E+02  0.1039E+02
     34.020  0.3033E+00  0.3365E+00  0.1056E+02  0.1045E+02
     34.188  0.2608E+00  0.3229E+00  0.1061E+02  0.1050E+02
     34.356  0.2524E+00  0.3016E+00  0.1065E+02  0.1055E+02
     34.523  0.2431E+00  0.2742E+00  0.1069E+02  0.1060E+02
     34.691  0.2299E+00  0.2589E+00  0.1073E+02  0.1065E+02
     34.859  0.2227E+00  0.2494E+00  0.1077E+02  0.1069E+02
     35.027  0.2126E+00  0.2423E+00  0.1081E+02  0.1073E+02
     35.195  0.2107E+00  0.2428E+00  0.1085E+02  0.1077E+02
     35.363  0.2116E+00  0.2366E+00  0.1088E+02  0.1081E+02
     35.530  0.2163E+00  0.2320E+00  0.1092E+02  0.1085E+02
     35.698  0.2323E+00  0.2145E+00  0.1095E+02  0.1089E+02
     35.866  0.2469E+00  0.2108E+00  0.1099E+02  0.1093E+02
     36.034  0.2619E+00  0.2202E+00  0.1104E+02  0.1096E+02
     36.202  0.2762E+00  0.2371E+00  0.1108E+02  0.1100E+02
     36.370  0.2885E+00  0.2557E+00  0.1113E+02  0.1104E+02
     36.537  0.3071E+00  0.2708E+00  0.1118E+02  0.1109E+02
     36.705  0.3957E+00  0.2999E+00  0.1124E+02  0.1113E+02
     36.873  0.3354E+00  0.3118E+00  0.1130E+02  0.1118E+02
     37.041  0.2987E+00  0.3249E+00  0.1136E+02  0.1124E+02
     37.209  0.2582E+00  0.3436E+00  0.1140E+02  0.1130E+02
     37.376  0.2384E+00  0.3123E+00  0.1144E+02  0.1136E+02
     37.544  0.2253E+00  0.2735E+00  0.1148E+02  0.1141E+02
     37.712  0.2175E+00  0.2338E+00  0.1152E+02  0.1145E+02
     37.880  0.2097E+00  0.2260E+00  0.1156E+02  0.1149E+02
     38.048  0.2019E+00  0.2182E+00  0.1159E+02  0.1152E+02
     38.216  0.1941E+00  0.2104E+00  0.1162E+02  0.1156E+02
     38.383  0.1863E+00  0.2026E+00  0.1166E+02  0.1159E+02
     38.551  0.1785E+00  0.1890E+00  0.1169E+02  0.1163E+02
     38.719  0.1686E+00  0.1824E+00  0.1172E+02  0.1166E+02
     38.887  0.1749E+00  0.1758E+00  0.1175E+02  0.1169E+02
     39.055  0.1776E+00  0.1694E+00  0.1178E+02  0.1172E+02
     39.223  0.1762E+00  0.1774E+00  0.1181E+02  0.1175E+02
     39.390  0.2559E+00  0.1816E+00  0.1184E+02  0.1178E+02
     39.558  0.1118E+00  0.1986E+00  0.1186E+02  0.1181E+02
     39.726  0.8989E-01  0.2035E+00  0.1188E+02  0.1184E+02
     39.894  0.7260E-01  0.1112E+00  0.1189E+02  0.1186E+02
     40.062  0.6457E-01  0.8552E-01  0.1190E+02  0.1188E+02
     40.229  0.5995E-01  0.6844E-01  0.1191E+02  0.1189E+02
     40.397  0.5600E-01  0.6394E-01  0.1192E+02  0.1190E+02
     40.565  0.5221E-01  0.5984E-01  0.1193E+02  0.1191E+02
     40.733  0.4857E-01  0.5589E-01  0.1194E+02  0.1192E+02
     40.901  0.4510E-01  0.5209E-01  0.1195E+02  0.1193E+02
     41.069  0.4178E-01  0.4844E-01  0.1196E+02  0.1194E+02
     41.236  0.3862E-01  0.4494E-01  0.1196E+02  0.1195E+02
     41.404  0.3561E-01  0.4160E-01  0.1197E+02  0.1196E+02
     41.572  0.3277E-01  0.3840E-01  0.1197E+02  0.1196E+02
     41.740  0.3008E-01  0.3536E-01  0.1198E+02  0.1197E+02
     41.908  0.2755E-01  0.2766E-01  0.1198E+02  0.1198E+02
     42.075  0.2108E-01  0.2548E-01  0.1199E+02  0.1198E+02
     42.243  0.2582E-01  0.2343E-01  0.1199E+02  0.1199E+02
     42.411  0.6966E-02  0.2151E-01  0.1200E+02  0.1199E+02
     42.579  0.3553E-02  0.1853E-01  0.1200E+02  0.1199E+02
     42.747  0.3112E-02  0.1147E-01  0.1200E+02  0.1200E+02
     42.915  0.2692E-02  0.6457E-02  0.1200E+02  0.1200E+02
     43.082  0.2291E-02  0.3493E-02  0.1200E+02  0.1200E+02
     43.250  0.0000E+00  0.2504E-02  0.1200E+02  0.1200E+02
     43.418  0.0000E+00  0.0000E+00  0.1200E+02  0.1200E+02
     43.586  0.0000E+00  0.0000E+00  0.1200E+02  0.1200E+02
     43.754  0.0000E+00  0.0000E+00  0.1200E+02  0.1200E+02
     43.922  0.0000E+00  0.0000E+00  0.1200E+02  0.1200E+02
     44.089  0.0000E+00  0.0000E+00  0.1200E+02  0.1200E+02
     44.257  0.0000E+00  0.0000E+00  0.1200E+02  0.1200E+02
     44.425  0.0000E+00  0.0000E+00  0.1200E+02  0.1200E+02
     44.593  0.0000E+00  0.0000E+00  0.1200E+02  0.1200E+02
     44.761  0.0000E+00  0.0000E+00  0.1200E+02  0.1200E+02
     44.928  0.0000E+00  0.0000E+00  0.1200E+02  0.1200E+02
     45.096  0.0000E+00  0.0000E+00  0.1200E+02  0.1200E+02
     45.264  0.0000E+00  0.0000E+00  0.1200E+02  0.1200E+02
     45.432  0.0000E+00  0.0000E+00  0.1200E+02  0.1200E+02
     45.600  0.0000E+00  0.0000E+00  0.1200E+02  0.1200E+02
     45.59974643     -4.74688124  301      5.28068386      1.00000000
     -4.747  0.0000E+00  0.0000E+00  0.0000E+00  0.0000E+00  0.0000E+00  0.0000E+00  0.0000E+00  0.0000E+00  0.0000E+00  0.0000E+00  0.0000E+00  0.0000E+00  0.0000E+00  0.0000E+00  0.0000E+00  0.0000E+00  0.0000E+00  0.0000E+00
     -4.579  0.0000E+00  0.0000E+00  0.0000E+00  0.0000E+00  0.0000E+00  0.0000E+00  0.0000E+00  0.0000E+00  0.0000E+00  0.0000E+00  0.0000E+00  0.0000E+00  0.0000E+00  0.0000E+00  0.0000E+00  0.0000E+00  0.0000E+00  0.0000E+00
     -4.411  0.0000E+00  0.0000E+00  0.0000E+00  0.0000E+00  0.0000E+00  0.0000E+00  0.0000E+00  0.0000E+00  0.0000E+00  0.0000E+00  0.0000E+00  0.0000E+00  0.0000E+00  0.0000E+00  0.0000E+00  0.0000E+00  0.0000E+00  0.0000E+00
     -4.243  0.0000E+00  0.0000E+00  0.0000E+00  0.0000E+00  0.0000E+00  0.0000E+00  0.0000E+00  0.0000E+00  0.0000E+00  0.0000E+00  0.0000E+00  0.0000E+00  0.0000E+00  0.0000E+00  0.0000E+00  0.0000E+00  0.0000E+00  0.0000E+00
     -4.076  0.0000E+00  0.0000E+00  0.0000E+00  0.0000E+00  0.0000E+00  0.0000E+00  0.0000E+00  0.0000E+00  0.0000E+00  0.0000E+00  0.0000E+00  0.0000E+00  0.0000E+00  0.0000E+00  0.0000E+00  0.0000E+00  0.0000E+00  0.0000E+00
     -3.908  0.0000E+00  0.0000E+00  0.0000E+00  0.0000E+00  0.0000E+00  0.0000E+00  0.0000E+00  0.0000E+00  0.0000E+00  0.0000E+00  0.0000E+00  0.0000E+00  0.0000E+00  0.0000E+00  0.0000E+00  0.0000E+00  0.0000E+00  0.0000E+00
     -3.740  0.0000E+00  0.0000E+00  0.0000E+00  0.0000E+00  0.0000E+00  0.0000E+00  0.0000E+00  0.0000E+00  0.0000E+00  0.0000E+00  0.0000E+00  0.0000E+00  0.0000E+00  0.0000E+00  0.0000E+00  0.0000E+00  0.0000E+00  0.0000E+00
     -3.572  0.0000E+00  0.0000E+00  0.0000E+00  0.0000E+00  0.0000E+00  0.0000E+00  0.0000E+00  0.0000E+00  0.0000E+00  0.0000E+00  0.0000E+00  0.0000E+00  0.0000E+00  0.0000E+00  0.0000E+00  0.0000E+00  0.0000E+00  0.0000E+00
     -3.404  0.0000E+00  0.0000E+00  0.0000E+00  0.0000E+00  0.0000E+00  0.0000E+00  0.0000E+00  0.0000E+00  0.0000E+00  0.0000E+00  0.0000E+00  0.0000E+00  0.0000E+00  0.0000E+00  0.0000E+00  0.0000E+00  0.0000E+00  0.0000E+00
     -3.236  0.0000E+00  0.0000E+00  0.0000E+00  0.0000E+00  0.0000E+00  0.0000E+00  0.0000E+00  0.0000E+00  0.0000E+00  0.0000E+00  0.0000E+00  0.0000E+00  0.0000E+00  0.0000E+00  0.0000E+00  0.0000E+00  0.0000E+00  0.0000E+00
     -3.069  0.0000E+00  0.0000E+00  0.0000E+00  0.0000E+00  0.0000E+00  0.0000E+00  0.0000E+00  0.0000E+00  0.0000E+00  0.0000E+00  0.0000E+00  0.0000E+00  0.0000E+00  0.0000E+00  0.0000E+00  0.0000E+00  0.0000E+00  0.0000E+00
     -2.901  0.0000E+00  0.0000E+00  0.0000E+00  0.0000E+00  0.0000E+00  0.0000E+00  0.0000E+00  0.0000E+00  0.0000E+00  0.0000E+00  0.0000E+00  0.0000E+00  0.0000E+00  0.0000E+00  0.0000E+00  0.0000E+00  0.0000E+00  0.0000E+00
     -2.733  0.0000E+00  0.0000E+00  0.0000E+00  0.0000E+00  0.0000E+00  0.0000E+00  0.0000E+00  0.0000E+00  0.0000E+00  0.0000E+00  0.0000E+00  0.0000E+00  0.0000E+00  0.0000E+00  0.0000E+00  0.0000E+00  0.0000E+00  0.0000E+00
     -2.565  0.0000E+00  0.0000E+00  0.0000E+00  0.0000E+00  0.0000E+00  0.0000E+00  0.0000E+00  0.0000E+00  0.0000E+00  0.0000E+00  0.0000E+00  0.0000E+00  0.0000E+00  0.0000E+00  0.0000E+00  0.0000E+00  0.0000E+00  0.0000E+00
     -2.397  0.8208E-02  0.0000E+00  0.8099E-04  0.0000E+00  0.5482E-04  0.0000E+00  0.3433E-03  0.0000E+00  0.2591E-04  0.0000E+00  0.6854E-05  0.0000E+00  0.9604E-05  0.0000E+00  0.6534E-05  0.0000E+00  0.1107E-04  0.0000E+00
     -2.230  0.1230E-01  0.9589E-02  0.1763E-03  0.1162E-03  0.1102E-03  0.7612E-04  0.6139E-03  0.4349E-03  0.6321E-04  0.2288E-04  0.1878E-04  0.6657E-05  0.2431E-04  0.8126E-05  0.1427E-04  0.6030E-05  0.2810E-04  0.9845E-05
     -2.062  0.1560E-01  0.1323E-01  0.2741E-03  0.2118E-03  0.1555E-03  0.1272E-03  0.9147E-03  0.7093E-03  0.1101E-03  0.4634E-04  0.3580E-04  0.1426E-04  0.4498E-04  0.1729E-04  0.2226E-04  0.1078E-04  0.5452E-04  0.2120E-04
     -1.894  0.1811E-01  0.1609E-01  0.3744E-03  0.3098E-03  0.1908E-03  0.1685E-03  0.1246E-02  0.1012E-02  0.1664E-03  0.7485E-04  0.5791E-04  0.2409E-04  0.7161E-04  0.2953E-04  0.3050E-04  0.1546E-04  0.9034E-04  0.3738E-04
     -1.726  0.2234E-01  0.1858E-01  0.5609E-03  0.4232E-03  0.2869E-03  0.2098E-03  0.1735E-02  0.1365E-02  0.2612E-03  0.1106E-03  0.1220E-03  0.3831E-04  0.1150E-03  0.4552E-04  0.5121E-04  0.2086E-04  0.1477E-03  0.5916E-04
     -1.558  0.2595E-01  0.2274E-01  0.7745E-03  0.6281E-03  0.4195E-03  0.3248E-03  0.2213E-02  0.1855E-02  0.3889E-03  0.1690E-03  0.2365E-03  0.7970E-04  0.1750E-03  0.7002E-04  0.8966E-04  0.3585E-04  0.2261E-03  0.9265E-04
     -1.390  0.2828E-01  0.2566E-01  0.9944E-03  0.8391E-03  0.5739E-03  0.4610E-03  0.2637E-02  0.2291E-02  0.5438E-03  0.2378E-03  0.3961E-03  0.1414E-03  0.2497E-03  0.9914E-04  0.1444E-03  0.5839E-04  0.3232E-03  0.1336E-03
     -1.223  0.2757E-01  0.2733E-01  0.1196E-02  0.1056E-02  0.7688E-03  0.6182E-03  0.3076E-02  0.2674E-02  0.7860E-03  0.3167E-03  0.6339E-03  0.2235E-03  0.4005E-03  0.1329E-03  0.2481E-03  0.8846E-04  0.5503E-03  0.1821E-03
     -1.055  0.2977E-01  0.2620E-01  0.1396E-02  0.1240E-02  0.9255E-03  0.8059E-03  0.3613E-02  0.3065E-02  0.1164E-02  0.4346E-03  0.8193E-03  0.3329E-03  0.6232E-03  0.1995E-03  0.3482E-03  0.1415E-03  0.7560E-03  0.2957E-03
     -0.887  0.3211E-01  0.2794E-01  0.1603E-02  0.1433E-02  0.1089E-02  0.9532E-03  0.4210E-02  0.3549E-02  0.1617E-02  0.5982E-03  0.1037E-02  0.4156E-03  0.8959E-03  0.2816E-03  0.4710E-03  0.1884E-03  0.9965E-03  0.3897E-03
     -0.719  0.3457E-01  0.2975E-01  0.1817E-02  0.1631E-02  0.1258E-02  0.1105E-02  0.4867E-02  0.4082E-02  0.2143E-02  0.7880E-03  0.1287E-02  0.5094E-03  0.1219E-02  0.3782E-03  0.6163E-03  0.2437E-03  0.1272E-02  0.4969E-03
     -0.551  0.3716E-01  0.3164E-01  0.2038E-02  0.1835E-02  0.1434E-02  0.1263E-02  0.5586E-02  0.4662E-02  0.2744E-02  0.1004E-02  0.1569E-02  0.6143E-03  0.1591E-02  0.4895E-03  0.7843E-03  0.3072E-03  0.1582E-02  0.6171E-03
     -0.384  0.3987E-01  0.3360E-01  0.2267E-02  0.2046E-02  0.1616E-02  0.1425E-02  0.6365E-02  0.5290E-02  0.3419E-02  0.1246E-02  0.1884E-02  0.7304E-03  0.2014E-02  0.6153E-03  0.9749E-03  0.3791E-03  0.1927E-02  0.7504E-03
     -0.216  0.4279E-01  0.3563E-01  0.2615E-02  0.2262E-02  0.1973E-02  0.1592E-02  0.7330E-02  0.5966E-02  0.4586E-02  0.1514E-02  0.2867E-02  0.8577E-03  0.2836E-02  0.7558E-03  0.1493E-02  0.4592E-03  0.2476E-02  0.8967E-03
     -0.048  0.4699E-01  0.3686E-01  0.3090E-02  0.2472E-02  0.2477E-02  0.1809E-02  0.8701E-02  0.6662E-02  0.6558E-02  0.1870E-02  0.4585E-02  0.1102E-02  0.4343E-02  0.9587E-03  0.2194E-02  0.6208E-03  0.3511E-02  0.1070E-02
      0.120  0.5057E-01  0.3879E-01  0.3483E-02  0.2815E-02  0.2949E-02  0.2162E-02  0.1027E-01  0.7540E-02  0.9019E-02  0.2446E-02  0.6642E-02  0.1597E-02  0.6382E-02  0.1303E-02  0.3017E-02  0.8296E-03  0.4943E-02  0.1363E-02
      0.288  0.5356E-01  0.4029E-01  0.3713E-02  0.3117E-02  0.3266E-02  0.2509E-02  0.1209E-01  0.8459E-02  0.1306E-01  0.3099E-02  0.9159E-02  0.2166E-02  0.9717E-02  0.1728E-02  0.3935E-02  0.1057E-02  0.6920E-02  0.1751E-02
      0.456  0.5995E-01  0.4107E-01  0.4113E-02  0.3336E-02  0.3639E-02  0.2812E-02  0.1445E-01  0.9371E-02  0.2079E-01  0.3848E-02  0.1316E-01  0.2790E-02  0.1565E-01  0.2246E-02  0.4949E-02  0.1299E-02  0.9528E-02  0.2230E-02
      0.623  0.6764E-01  0.4179E-01  0.4530E-02  0.3508E-02  0.4055E-02  0.3069E-02  0.1714E-01  0.1028E-01  0.3208E-01  0.4813E-02  0.1873E-01  0.3465E-02  0.2440E-01  0.2897E-02  0.6129E-02  0.1550E-02  0.1281E-01  0.2765E-02
      0.791  0.9760E-01  0.4322E-01  0.5505E-02  0.3726E-02  0.5136E-02  0.3338E-02  0.2239E-01  0.1129E-01  0.9255E-01  0.6061E-02  0.4719E-01  0.4232E-02  0.6796E-01  0.3699E-02  0.7636E-02  0.1811E-02  0.2430E-01  0.3351E-02
      0.959  0.9529E-01  0.4531E-01  0.5569E-02  0.3981E-02  0.6235E-02  0.3607E-02  0.2614E-01  0.1243E-01  0.9622E-01  0.7794E-02  0.6557E-01  0.5156E-02  0.1080E+00  0.4770E-02  0.1181E-01  0.2084E-02  0.5836E-01  0.4002E-02
      1.127  0.1011E+00  0.4759E-01  0.6073E-02  0.4241E-02  0.7484E-02  0.3887E-02  0.3844E-01  0.1366E-01  0.1184E+00  0.9889E-02  0.8185E-01  0.6229E-02  0.1855E+00  0.6065E-02  0.2003E-01  0.2382E-02  0.1087E+00  0.4723E-02
      1.295  0.9220E-01  0.5007E-01  0.7182E-02  0.4507E-02  0.8420E-02  0.4177E-02  0.4894E-01  0.1499E-01  0.1393E+00  0.1235E-01  0.9295E-01  0.7450E-02  0.3449E+00  0.7581E-02  0.3573E-01  0.2707E-02  0.1593E+00  0.5515E-02
      1.463  0.6653E-01  0.5274E-01  0.7625E-02  0.4778E-02  0.7154E-02  0.4478E-02  0.4302E-01  0.1641E-01  0.1188E+00  0.1517E-01  0.9360E-01  0.8821E-02  0.2917E+00  0.9321E-02  0.4894E-01  0.3058E-02  0.1684E+00  0.6377E-02
      1.630  0.3377E-01  0.5563E-01  0.6250E-02  0.5055E-02  0.4275E-02  0.4783E-02  0.2064E-01  0.1842E-01  0.7401E-01  0.1849E-01  0.1084E+00  0.1034E-01  0.1053E+00  0.1164E-01  0.5707E-01  0.3466E-02  0.1261E+00  0.8086E-02
      1.798  0.1725E-01  0.6220E-01  0.5926E-02  0.5836E-02  0.2536E-02  0.6052E-02  0.1445E-01  0.2169E-01  0.4297E-01  0.2659E-01  0.9007E-01  0.1963E-01  0.6354E-01  0.1753E-01  0.4729E-01  0.4989E-02  0.1239E+00  0.1194E-01
      1.966  0.4817E-02  0.7279E-01  0.8603E-02  0.6666E-02  0.2846E-02  0.7349E-02  0.1201E-01  0.2556E-01  0.1819E-01  0.4165E-01  0.6448E-01  0.3392E-01  0.7423E-01  0.2792E-01  0.3635E-01  0.6572E-02  0.1406E+00  0.1757E-01
      2.134  0.1224E-02  0.7917E-01  0.4547E-01  0.6251E-02  0.3602E-01  0.7445E-02  0.2482E-01  0.2957E-01  0.6526E+00  0.6290E-01  0.1860E+00  0.4747E-01  0.1892E+00  0.4364E-01  0.8373E+00  0.8311E-02  0.2502E+00  0.2347E-01
      2.302  0.3008E-02  0.7278E-01  0.2524E-01  0.5837E-02  0.1626E-01  0.7361E-02  0.1531E-01  0.3051E-01  0.2357E+00  0.6305E-01  0.2961E+00  0.4827E-01  0.1807E+00  0.4734E-01  0.6021E+00  0.1031E-01  0.2239E+00  0.2522E-01
      2.469  0.5211E-02  0.6785E-01  0.1364E-01  0.5514E-02  0.8948E-02  0.7199E-02  0.7088E-02  0.3140E-01  0.1412E+00  0.6319E-01  0.1373E+00  0.5054E-01  0.1241E+00  0.5080E-01  0.3027E+00  0.1261E-01  0.1114E+00  0.2758E-01
      2.637  0.9402E-02  0.6098E-01  0.1882E-01  0.5113E-02  0.2023E-01  0.6868E-02  0.1103E-01  0.3241E-01  0.1832E+00  0.6161E-01  0.1380E+00  0.5038E-01  0.7662E-01  0.5557E-01  0.2238E+00  0.1517E-01  0.7440E-01  0.3195E-01
      2.805  0.1547E-01  0.5972E-01  0.3013E-01  0.5992E-02  0.3080E-01  0.7666E-02  0.2077E-01  0.4647E-01  0.2500E+00  0.6715E-01  0.2510E+00  0.6414E-01  0.7853E-01  0.1186E+00  0.2370E+00  0.2348E-01  0.1207E+00  0.1045E+00
      2.973  0.2818E-01  0.5261E-01  0.5081E-01  0.7904E-02  0.3878E-01  0.8038E-02  0.4690E-01  0.5308E-01  0.4571E+00  0.7074E-01  0.4732E+00  0.7004E-01  0.1109E+00  0.1822E+00  0.3880E+00  0.2886E-01  0.2374E+00  0.1730E+00
      3.141  0.1835E-01  0.3414E-01  0.3191E-01  0.7714E-02  0.2355E-01  0.7241E-02  0.2423E-01  0.2993E-01  0.2028E+00  0.5822E-01  0.2287E+00  0.6625E-01  0.5463E-01  0.1399E+00  0.2602E+00  0.2904E-01  0.1541E+00  0.8002E-01
      3.309  0.9695E-02  0.1334E-01  0.1802E-01  0.5871E-02  0.1333E-01  0.3605E-02  0.1174E-01  0.1349E-01  0.7060E-01  0.2468E-01  0.1163E+00  0.5600E-01  0.2671E-01  0.5943E-01  0.1106E+00  0.2209E-01  0.9699E-01  0.4798E-01
      3.476  0.6495E-02  0.3940E-04  0.1286E-01  0.5618E-02  0.9158E-02  0.9181E-03  0.8393E-02  0.4021E-02  0.5951E-01  0.3325E-02  0.1072E+00  0.9662E-03  0.2511E-01  0.5303E-01  0.9855E-01  0.2819E-02  0.8034E-01  0.5612E-01
      3.644  0.4677E-02  0.8994E-04  0.9984E-02  0.9607E-02  0.7188E-02  0.1926E-02  0.6067E-02  0.6824E-02  0.7234E-01  0.7680E-02  0.1084E+00  0.2417E-02  0.3231E-01  0.6080E-01  0.1022E+00  0.8234E-02  0.6861E-01  0.8166E-01