    1    1    1    2
  0.1188184E+02  0.2489823E-09  0.2489823E-09  0.2489823E-09  0.5000000E-15
  1.000000000000000E-004
  CAR 
 Fe BCC                                  
      8     26     12
 
  0.6250000E-01  0.6250000E-01  0.6250000E-01  0.1562500E-01
    1       -1.860013     -1.747516   1.000000   1.000000
    2        2.936694      4.912410   1.000000   1.000000
    3        2.936694      4.912410   1.000000   1.000000
    4        3.689038      5.764857   1.000000  -0.023945
    5        4.240710      6.965735   1.000000   0.000000
    6        4.240710      6.965735   1.003378   0.000000
    7       26.284866     26.433418   0.000000   0.000000
    8       26.284866     26.433418   0.000000   0.000000
    9       29.826005     30.498864   0.000000   0.000000
   10       30.842226     30.663757   0.000000   0.000000
   11       35.505206     35.804835   0.000000   0.000000
   12       35.505206     35.804835   0.000000   0.000000
 
  0.1875000E+00  0.6250000E-01  0.6250000E-01  0.4687500E-01
    1       -0.305661     -0.102550   1.000000   1.000000
    2        2.554205      4.440789   1.000000   1.000000
    3        2.754033      4.596999   1.000000   1.000000
    4        4.182695      6.770692   1.000000  -0.000063
    5        4.354521      6.825082   1.000787   0.000000
    6        4.651318      7.114942   0.887311   0.000000
    7       20.871838     21.439175   0.000000   0.000000
    8       23.960102     24.232853   0.000000   0.000000
    9       26.071151     26.785856   0.000000   0.000000
   10       31.095683     30.991702   0.000000   0.000000
   11       34.895238     35.440981   0.000000   0.000000
   12       36.170488     36.385740   0.000000   0.000000
 
  0.3125000E+00  0.6250000E-01  0.6250000E-01  0.4687500E-01
    1        0.831382      1.706163   1.000000   1.000000
    2        2.225776      4.034328   1.000000   1.000000
    3        3.497043      4.681167   1.000000   1.015888
    4        4.315117      6.913943   1.000000   0.000000
    5        4.444208      7.247553   1.031995   0.000000
    6        6.015929      8.005204   0.014341   0.000000
    7       15.464249     16.403438   0.000000   0.000000
    8       22.295057     22.556625   0.000000   0.000000
    9       23.807986     24.430480   0.000000   0.000000
   10       30.517446     30.667260   0.000000   0.000000
   11       34.209282     34.740923   0.000000   0.000000
   12       39.425649     39.614025   0.000000   0.000000
 
  0.4375000E+00  0.6250000E-01  0.6250000E-01  0.2343750E-01
    1        0.896200      2.215552   1.000000   1.000000
    2        2.099483      3.878626   1.000000   1.000000
    3        4.373620      5.405615   1.000000   0.741054
    4        4.450116      6.982193   1.000000   0.000000
    5        4.480652      7.304743   1.078880   0.000000
    6        7.400511      8.833653  -0.004923   0.000000
    7       12.387194     13.742546   0.000000   0.000000
    8       21.688022     21.928377   0.000000   0.000000
    9       22.964864     23.538388   0.000000   0.000000
   10       30.272707     30.498383   0.000000   0.000000
   11       34.094945     34.650726   0.000000   0.000000
   12       39.451198     39.413092   0.000000   0.000000
 
 -0.6250000E-01  0.6250000E-01  0.6250000E-01  0.1171875E-01
    1       -2.458398     -2.353414   1.000000   1.000000
    2        3.126292      5.140583   1.000000   1.000000
    3        3.126293      5.140584   1.000000   1.000000
    4        3.208603      5.245211   1.000000   0.166754
    5        4.170947      6.884798   1.000000   0.000000
    6        4.355533      7.125355   1.000000   0.000000
    7       28.258690     28.101222   0.000000   0.000000
    8       29.551368     29.400140   0.000000   0.000000
    9       29.551371     29.400141   0.000000   0.000000
   10       32.432644     32.788116   0.000000   0.000000
   11       34.425387     35.168733   0.000000   0.000000
   12       34.425387     35.168737   0.000000   0.000000
 
  0.1875000E+00  0.1875000E+00  0.6250000E-01  0.4687500E-01
    1        1.141733      1.663915   1.000000   1.000000
    2        2.292717      4.054624   1.000000   1.000000
    3        2.479670      4.157280   1.000000   1.000252
    4        4.258102      6.899055   1.000000   0.000000
    5        4.475265      7.241362   1.000656   0.000000
    6        6.208741      8.188333  -0.004716   0.000000
    7       18.417890     19.087700   0.000000   0.000000
    8       19.159846     19.782909   0.000000   0.000000
    9       22.973475     23.529812   0.000000   0.000000
   10       32.981392     32.871298   0.000000   0.000000
   11       36.448368     36.725380   0.000000   0.000000
   12       38.798559     39.060748   0.000000   0.000000
 
  0.3125000E+00  0.1875000E+00  0.6250000E-01  0.9375000E-01
    1        1.490760      2.804417   1.000000   1.000000
    2        2.135408      3.826953   1.000000   1.000000
    3        3.089145      4.364336   1.000000   1.008756
    4        4.389136      7.033017   1.000000   0.000000
    5        4.565970      7.309049   1.009342   0.000000
    6        8.614784     10.051944  -0.003714   0.000000
    7       13.817305     14.839053   0.000000   0.000000
    8       17.631239     18.268530   0.000000   0.000000
    9       21.735919     22.252507   0.000000   0.000000
   10       33.294821     33.325845   0.000000   0.000000
   11       37.527405     37.598452   0.000000   0.000000
   12       39.365255     39.742402   0.000000   0.000000
 
 -0.1875000E+00  0.1875000E+00  0.6250000E-01  0.4687500E-01
    1       -1.300042     -1.168853   1.000000   1.000000
    2        2.877295      4.833188   1.000000   1.000000
    3        3.061149      5.020216   1.000000   1.000000
    4        3.788563      5.886622   1.000000  -0.008265
    5        3.947059      6.545818   1.000000   0.000000
    6        4.447978      7.227233   1.010889   0.000000
    7       23.732215     24.116176   0.000000   0.000000
    8       27.110795     27.188318   0.000000   0.000000
    9       27.876030     28.221985   0.000000   0.000000
   10       31.822855     32.208260   0.000000   0.000000
   11       31.950714     32.465645   0.000000   0.000000
   12       33.510887     33.861197   0.000000   0.000000
 
  0.3125000E+00  0.3125000E+00  0.6250000E-01  0.1562500E-01
    1        1.796049      3.370203   1.000000   1.000000
    2        2.477524      3.934317   1.000000   1.000000
    3        2.477526      3.934317   1.000000   1.000303
    4        4.518444      7.201466   1.000000   0.000000
    5        4.518444      7.201467   1.000000   0.000000
    6       12.067996     13.096316   0.000000   0.000000
    7       12.067998     13.096316   0.000000   0.000000
    8       14.422486     15.323220   0.000000   0.000000
    9       21.275668     21.813269   0.000000   0.000000
   10       35.700119     35.684185   0.000000   0.000000
   11       35.700121     35.684188   0.000000   0.000000
   12       42.510584     43.205682   0.000000   0.000000
 
 -0.3125000E+00  0.3125000E+00  0.6250000E-01  0.4687500E-01
    1        0.310548      0.753836   1.000000   1.000000
    2        2.506040      4.382325   1.000000   1.000000
    3        3.123319      4.747419   1.000000   1.006116
    4        4.139101      6.605854   1.000000   0.000000
    5        4.622381      6.959402   1.016774   0.000000
    6        4.739484      7.339429   0.716095   0.000000
    7       17.991001     18.764484   0.000000   0.000000
    8       24.755823     24.838214   0.000000   0.000000
    9       25.701535     26.287762   0.000000   0.000000
   10       30.165793     30.593506   0.000000   0.000000
   11       31.978588     32.457718   0.000000   0.000000
   12       34.886947     35.123711   0.000000   0.000000
 
 -0.1875000E+00  0.3125000E+00  0.6250000E-01  0.4687500E-01
    1        0.117640      0.387237   1.000000   1.000000
    2        2.680140      4.621185   1.000000   1.000000
    3        2.869032      4.725754   1.000000   1.001631
    4        3.830605      6.279704   1.000000  -0.000035
    5        4.478331      6.705998   1.001495   0.000000
    6        4.812983      7.444942   0.768430   0.000000
    7       20.968008     21.535898   0.000000   0.000000
    8       21.868158     22.419966   0.000000   0.000000
    9       28.376370     28.559242   0.000000   0.000000
   10       28.499673     28.964067   0.000000   0.000000
   11       32.216660     32.580351   0.000000   0.000000
   12       36.778771     37.063356   0.000000   0.000000
 
 -0.4375000E+00  0.4375000E+00  0.6250000E-01  0.4687500E-01
    1        0.777766      1.995835   1.000000   1.000000
    2        2.253380      4.078905   1.000000   1.000000
    3        3.856177      5.279365   1.000000   0.898597
    4        4.293633      6.808099   1.000000   0.000000
    5        5.503098      7.691676   0.524618   0.000000
    6        5.980254      7.842936   0.000224   0.000000
    7       13.288439     14.503755   0.000000   0.000000
    8       23.418590     23.470022   0.000000   0.000000
    9       24.107287     24.663482   0.000000   0.000000
   10       29.466742     29.935058   0.000000   0.000000
   11       32.202684     32.757260   0.000000   0.000000
   12       36.618149     36.687740   0.000000   0.000000
 
 -0.3125000E+00  0.4375000E+00  0.6250000E-01  0.9375000E-01
    1        1.162205      2.107399   1.000000   1.000000
    2        2.392028      4.189355   1.000000   1.000000
    3        2.936077      4.565014   1.000000   1.011585
    4        4.112350      6.521212   1.000000   0.000000
    5        4.845735      7.342506   1.024522   0.000000
    6        6.490844      8.394382  -0.035434   0.000000
    7       15.841334     16.734568   0.000000   0.000000
    8       19.698677     20.280253   0.000000   0.000000
    9       26.176205     26.488819   0.000000   0.000000
   10       29.307072     29.646769   0.000000   0.000000
   11       32.866827     33.151510   0.000000   0.000000
   12       37.266864     37.654928   0.000000   0.000000
 
 -0.4375000E+00 -0.4375000E+00  0.6250000E-01  0.4687500E-01
    1        1.205702      2.622295   1.000000   1.000000
    2        2.381888      4.187172   1.000000   1.000000
    3        3.102940      4.632517   1.000000   1.018132
    4        4.209142      6.670292   1.000000   0.000000
    5        5.179836      7.562432   0.913325   0.000000
    6        8.480679      9.737001  -0.001868   0.000000
    7       12.496846     13.780896   0.000000   0.000000
    8       19.019372     19.588236   0.000000   0.000000
    9       25.362186     25.640479   0.000000   0.000000
   10       29.616155     30.044259   0.000000   0.000000
   11       33.897590     33.950804   0.000000   0.000000
   12       36.569211     37.058442   0.000000   0.000000
 
 -0.3125000E+00 -0.4375000E+00  0.6250000E-01  0.4687500E-01
    1        1.859973      3.300033   1.000000   1.000000
    2        2.108929      3.804573   1.000000   1.000000
    3        2.618057      4.283499   1.000000   1.006471
    4        4.394210      6.800844   1.000000   0.000000
    5        4.821969      7.262659   1.033466   0.000000
    6        9.657275     10.966777  -0.000627   0.000000
    7       13.975119     14.939444   0.000000   0.000000
    8       15.232105     16.045122   0.000000   0.000000
    9       26.525762     26.971272   0.000000   0.000000
   10       29.763840     29.914939   0.000000   0.000000
   11       31.898254     32.066640   0.000000   0.000000
   12       38.654744     39.484180   0.000000   0.000000
 
  0.1875000E+00  0.1875000E+00  0.1875000E+00  0.1562500E-01
    1        2.120251      3.165991   1.000000   1.000000
    2        2.120251      3.751762   1.000000   1.000000
    3        2.274784      3.751762   1.000000   1.000352
    4        4.458713      7.238580   1.000000   0.000000
    5        4.458713      7.238580   1.000000   0.000000
    6        8.583357     10.130717  -0.004696   0.000000
    7       16.800495     17.509494   0.000000   0.000000
    8       16.800495     17.509494   0.000000   0.000000
    9       17.976131     18.643619   0.000000   0.000000
   10       37.630648     37.299137   0.000000   0.000000
   11       40.150273     40.268052   0.000000   0.000000
   12       40.150273     40.268052   0.000000   0.000000
 
  0.3125000E+00  0.1875000E+00  0.1875000E+00  0.2343750E-01
    1        2.009865      3.441768   1.000000   1.000000
    2        2.084001      3.665990   1.000000   1.000000
    3        2.708519      4.038309   1.000000   1.000538
    4        4.490393      7.270220   1.000000   0.000000
    5        4.503938      7.336103   1.000000   0.000000
    6       11.376547     12.414723   0.000000   0.000000
    7       13.129864     14.158294   0.000000   0.000000
    8       16.245734     16.963535   0.000000   0.000000
    9       17.092361     17.750153   0.000000   0.000000
   10       38.608964     38.453303   0.000000   0.000000
   11       41.912766     41.900021   0.000000   0.000000
   12       42.226214     42.520180   0.000000   0.000000
 
 -0.1875000E+00  0.1875000E+00  0.1875000E+00  0.1171875E-01
    1       -0.281946     -0.084074   1.000000   1.000000
    2        3.217793      5.232912   1.000000   1.000000
    3        3.273012      5.232913   1.000000   0.965751
    4        3.273013      5.641240   1.000000   0.000025
    5        3.802373      5.912981   1.000000   0.000000
    6        4.788710      7.521104   0.913773   0.000000
    7       23.932776     24.205229   0.000000   0.000000
    8       24.744191     25.304358   0.000000   0.000000
    9       24.744195     25.304361   0.000000   0.000000
   10       26.659244     27.029129   0.000000   0.000000
   11       35.964942     36.207600   0.000000   0.000000
   12       35.964944     36.207602   0.000000   0.000000
 
 -0.3125000E+00  0.3125000E+00  0.1875000E+00  0.4687500E-01
    1        1.003932      1.607821   1.000000   1.000000
    2        2.499810      4.540664   1.000000   1.000000
    3        3.143602      5.072073   1.000000   0.931932
    4        3.766033      5.896805   1.000000   0.000000
    5        4.630775      6.834314   1.029350   0.000000
    6        5.618005      7.916659   0.120230   0.000000
    7       18.834242     19.555084   0.000000   0.000000
    8       22.174644     22.774546   0.000000   0.000000
    9       23.430934     23.809458   0.000000   0.000000
   10       27.263632     27.641571   0.000000   0.000000
   11       35.021102     35.425742   0.000000   0.000000
   12       36.710431     37.054276   0.000000   0.000000
 
 -0.4375000E+00  0.4375000E+00  0.1875000E+00  0.4687500E-01
    1        1.300524      2.717252   1.000000   1.000000
    2        2.435578      4.129528   1.000000   1.000000
    3        2.957747      4.850819   1.000000   0.957411
    4        3.967529      6.222640   1.000000   0.000000
    5        5.426977      7.754964   0.410658   0.000000
    6        8.058180      9.419398  -0.011608   0.000000
    7       13.813738     14.869768   0.000000   0.000000
    8       20.596362     21.145298   0.000000   0.000000
    9       22.602019     23.005895   0.000000   0.000000
   10       29.787595     30.027623   0.000000   0.000000
   11       34.106959     34.534860   0.000000   0.000000
   12       34.704238     35.264370   0.000000   0.000000
 
 -0.3125000E+00  0.4375000E+00  0.1875000E+00  0.4687500E-01
    1        1.599905      2.829534   1.000000   1.000000
    2        1.909836      3.847468   1.000000   1.000000
    3        3.219988      5.138982   1.000000   0.782446
    4        4.138984      6.276507   1.000000   0.000000
    5        5.028678      7.322336   1.062365   0.000000
    6        7.923764      9.438321  -0.015550   0.000000
    7       16.740955     17.550619   0.000000   0.000000
    8       17.310643     17.979913   0.000000   0.000000
    9       24.836559     25.231207   0.000000   0.000000
   10       26.267764     26.658739   0.000000   0.000000
   11       33.741599     34.201093   0.000000   0.000000
   12       36.524197     37.184006   0.000000   0.000000
 
 -0.4375000E+00 -0.4375000E+00  0.1875000E+00  0.4687500E-01
    1        1.563305      3.287227   1.000000   1.000000
    2        1.918183      3.630904   1.000000   1.000000
    3        3.036607      4.882683   1.000000   0.848978
    4        4.430473      6.624898   1.000000   0.000000
    5        5.246753      7.550108   0.858598   0.000000
    6       10.880448     11.888539   0.000000   0.000000
    7       12.986032     14.029239   0.000000   0.000000
    8       16.356404     17.045244   0.000000   0.000000
    9       24.833665     25.224960   0.000000   0.000000
   10       27.970634     28.206425   0.000000   0.000000
   11       31.188935     31.872535   0.000000   0.000000
   12       35.554945     36.177439   0.000000   0.000000
 
 -0.3125000E+00  0.3125000E+00  0.3125000E+00  0.1171875E-01
    1        1.395135      2.566273   1.000000   1.000000
    2        1.868289      3.933654   1.000000   1.000000
    3        4.002481      6.002247   1.000000  -0.135482
    4        4.002482      6.002248   1.000000   0.000000
    5        4.664089      6.889342   1.153299   0.000000
    6        7.306738      8.899320  -0.022623   0.000000
    7       19.304712     19.871561   0.000000   0.000000
    8       19.304716     19.871565   0.000000   0.000000
    9       21.603117     22.277294   0.000000   0.000000
   10       23.538064     24.049971   0.000000   0.000000
   11       34.985861     35.673627   0.000000   0.000000
   12       39.855806     40.247971   0.000000   0.000000
 
 -0.4375000E+00  0.4375000E+00  0.3125000E+00  0.4687500E-01
    1        1.311516      3.001241   1.000000   1.000000
    2        1.436986      3.296042   1.000000   1.000000
    3        4.132463      6.175510   1.000000  -0.075048
    4        4.397945      6.464579   1.000000   0.000000
    5        5.321512      7.633779   0.415159   0.000000
    6       10.365353     11.328020   0.000000   0.000000
    7       15.008484     15.731091   0.000000   0.000000
    8       17.540870     18.012032   0.000000   0.000000
    9       21.742623     22.432032   0.000000   0.000000
   10       24.572472     25.044856   0.000000   0.000000
   11       30.355406     31.196359   0.000000   0.000000
   12       39.348106     39.704524   0.000000   0.000000
 
 -0.4375000E+00 -0.4375000E+00  0.3125000E+00  0.1562500E-01
    1        1.180887      2.999018   1.000000   1.000000
    2        1.180888      2.999018   1.000000   1.000000
    3        4.233091      6.253526   1.000000  -0.052212
    4        5.176409      7.435235   1.000000   0.000000
    5        5.176410      7.435238   1.171813   0.000000
    6       13.703644     14.367920   0.000000   0.000000
    7       13.703648     14.367925   0.000000   0.000000
    8       14.775179     15.350593   0.000000   0.000000
    9       23.211096     23.761746   0.000000   0.000000
   10       23.211098     23.761748   0.000000   0.000000
   11       27.802001     28.794692   0.000000   0.000000
   12       39.876531     40.225924   0.000000   0.000000
 
 -0.4375000E+00  0.4375000E+00  0.4375000E+00  0.1171875E-01
    1        0.933901      2.728526   1.000000   1.000000
    2        0.934205      2.790017   1.000000   1.000000
    3        5.138224      7.380504   1.000000  -0.006418
    4        5.138224      7.380506   1.000000   0.000000
    5        5.288319      7.602002   0.419357   0.000000
    6       13.112913     13.622226   0.000000   0.000000
    7       15.590359     15.896316   0.000000   0.000000
    8       15.590363     15.896321   0.000000   0.000000
    9       20.709751     21.611141   0.000000   0.000000
   10       21.849830     22.585075   0.000000   0.000000
   11       26.309122     27.327802   0.000000   0.000000
   12       43.098411     43.311263   0.000000   0.000000
