       N       E                     dE             d eps       ncg     rms          rms(c)
DAV:   1     0.196176899609E+02    0.19618E+02   -0.35925E+03  1356   0.729E+02
DAV:   2    -0.802143148862E+01   -0.27639E+02   -0.25069E+02  1292   0.121E+02
DAV:   3    -0.871403904500E+01   -0.69261E+00   -0.68951E+00  1504   0.223E+01
DAV:   4    -0.871701507467E+01   -0.29760E-02   -0.29597E-02  1372   0.123E+00
DAV:   5    -0.871703293776E+01   -0.17863E-04   -0.17760E-04  1456   0.989E-02    0.118E+01
DAV:   6    -0.829853567958E+01    0.41850E+00   -0.10128E+01  1408   0.404E+01    0.543E+00
DAV:   7    -0.823811796347E+01    0.60418E-01   -0.57079E-01  1460   0.933E+00    0.333E+00
DAV:   8    -0.823056494639E+01    0.75530E-02   -0.78152E-03  1552   0.674E-01    0.122E+00
DAV:   9    -0.822543830638E+01    0.51266E-02   -0.97575E-03  1736   0.717E-01    0.247E-01
DAV:  10    -0.822549564918E+01   -0.57343E-04   -0.11783E-03  1392   0.455E-01    0.470E-02
DAV:  11    -0.822549549320E+01    0.15597E-06   -0.53988E-05  1392   0.683E-02    0.403E-02
DAV:  12    -0.822550061187E+01   -0.51187E-05   -0.39708E-06  1372   0.239E-02    0.145E-02
DAV:  13    -0.822550751913E+01   -0.69073E-05   -0.33620E-07   716   0.688E-03    0.942E-03
DAV:  14    -0.822551185234E+01   -0.43332E-05   -0.15685E-07   644   0.529E-03    0.142E-03
DAV:  15    -0.822551021499E+01    0.16373E-05   -0.19934E-08   648   0.171E-03    0.788E-04
DAV:  16    -0.822551021593E+01   -0.94042E-09   -0.10800E-08   640   0.108E-03
   1 F= -.82255102E+01 E0= -.82255102E+01  d E =0.000000E+00  mag=     2.2405
