 vasp.5.4.1 24Jun15 (build Jul 19 2016 16:50:41) complex                        
  
 executed on           IFC91_ompi date 2019.10.17  12:02:41
 running on    4 total cores
 distrk:  each k-point on    4 cores,    1 groups
 distr:  one band on NCORES_PER_BAND=   1 cores,    4 groups


--------------------------------------------------------------------------------------------------------


 INCAR:
 POTCAR:    PAW_PBE Fe 06Sep2000                  
 POTCAR:    PAW_PBE Fe 06Sep2000                  
   VRHFIN =Fe:  d7 s1                                                           
   LEXCH  = PE                                                                  
   EATOM  =   594.3153 eV,   43.6809 Ry                                         
                                                                                
   TITEL  = PAW_PBE Fe 06Sep2000                                                
   LULTRA =        F    use ultrasoft PP ?                                      
   IUNSCR =        1    unscreen: 0-lin 1-nonlin 2-no                           
   RPACOR =    2.000    partial core radius                                     
   POMASS =   55.847; ZVAL   =    8.000    mass and valenz                      
   RCORE  =    2.300    outmost cutoff radius                                   
   RWIGS  =    2.460; RWIGS  =    1.302    wigner-seitz radius (au A)           
   ENMAX  =  267.882; ENMIN  =  200.911 eV                                      
   RCLOC  =    1.701    cutoff for local pot                                    
   LCOR   =        T    correct aug charges                                     
   LPAW   =        T    paw PP                                                  
   EAUG   =  511.368                                                            
   DEXC   =    0.000                                                            
   RMAX   =    2.356    core radius for proj-oper                               
   RAUG   =    1.300    factor for augmentation sphere                          
   RDEP   =    2.442    radius for radial grids                                 
   RDEPT  =    1.890    core radius for aug-charge                              
                                                                                
   Atomic configuration                                                         
    9 entries                                                                   
     n  l   j            E        occ.                                          
     1  0  0.50     -6993.8440   2.0000                                         
     2  0  0.50      -814.6047   2.0000                                         
     2  1  1.50      -693.3689   6.0000                                         
     3  0  0.50       -89.4732   2.0000                                         
     3  1  1.50       -55.6373   6.0000                                         
     3  2  2.50        -3.8151   7.0000                                         
     4  0  0.50        -4.2551   1.0000                                         
     4  1  1.50        -3.4015   0.0000                                         
     4  3  2.50        -1.3606   0.0000                                         
   Description                                                                  
     l       E           TYP  RCUT    TYP  RCUT                                 
     2     -3.8151135     23  2.300                                             
     2     -5.1756961     23  2.300                                             
     0     -4.2550963     23  2.300                                             
     0      7.2035603     23  2.300                                             
     1     -2.7211652     23  2.300                                             
     1     18.4316424     23  2.300                                             
  local pseudopotential read in
  partial core-charges read in
  partial kinetic energy density read in
  atomic valenz-charges read in
  non local Contribution for L=           2  read in
    real space projection operators read in
  non local Contribution for L=           2  read in
    real space projection operators read in
  non local Contribution for L=           0  read in
    real space projection operators read in
  non local Contribution for L=           0  read in
    real space projection operators read in
  non local Contribution for L=           1  read in
    real space projection operators read in
  non local Contribution for L=           1  read in
    real space projection operators read in
    PAW grid and wavefunctions read in
 
   number of l-projection  operators is LMAX  =           6
   number of lm-projection operators is LMMAX =          18
 
  PAW_PBE Fe 06Sep2000                  :
 energy of atom  1       EATOM= -594.3153
 kinetic energy error for atom=    0.0088 (will be added to EATOM!!)
 
 
 POSCAR: Fe BCC                                  
  positions in direct lattice
  velocities in cartesian coordinates
  No initial velocities read in
 exchange correlation table for  LEXCH =        8
   RHO(1)=    0.500       N(1)  =     2000
   RHO(2)=  100.500       N(2)  =     4000
 


--------------------------------------------------------------------------------------------------------


 ion  position               nearest neighbor table
   1  0.000  0.000  0.000-
 
  LATTYP: Found a body centered cubic cell.
 ALAT       =     2.8750000000
  
  Lattice vectors:
  
 A1 = (  -1.4375000000,   1.4375000000,   1.4375000000)
 A2 = (   1.4375000000,  -1.4375000000,   1.4375000000)
 A3 = (   1.4375000000,   1.4375000000,  -1.4375000000)


Analysis of symmetry for initial positions (statically):
=====================================================================
 Subroutine PRICEL returns:
 Original cell was already a primitive cell.
 

 Routine SETGRP: Setting up the symmetry group for a 
 body centered cubic supercell.


 Subroutine GETGRP returns: Found 48 space group operations
 (whereof 48 operations were pure point group operations)
 out of a pool of 48 trial point group operations.


The static configuration has the point symmetry O_h .


Analysis of symmetry for dynamics (positions and initial velocities):
=====================================================================
 Subroutine PRICEL returns:
 Original cell was already a primitive cell.
 

 Routine SETGRP: Setting up the symmetry group for a 
 body centered cubic supercell.


 Subroutine GETGRP returns: Found 48 space group operations
 (whereof 48 operations were pure point group operations)
 out of a pool of 48 trial point group operations.


The dynamic configuration has the point symmetry O_h .


Analysis of structural, dynamic, and magnetic symmetry:
=====================================================================
 Subroutine PRICEL returns:
 Original cell was already a primitive cell.
 

 Routine SETGRP: Setting up the symmetry group for a 
 body centered cubic supercell.


 Subroutine GETGRP returns: Found 48 space group operations
 (whereof 48 operations were pure point group operations)
 out of a pool of 48 trial point group operations.


The magnetic configuration has the point symmetry O_h .


 Subroutine INISYM returns: Found 48 space group operations
 (whereof 48 operations are pure point group operations),
 and found     1 'primitive' translations

 
 
 KPOINTS: K-Points                                

Automatic generation of k-mesh.
Space group operators:
 irot       det(A)        alpha          n_x          n_y          n_z        tau_x        tau_y        tau_z
    1     1.000000     0.000000     1.000000     0.000000     0.000000     0.000000     0.000000     0.000000
    2    -1.000000     0.000000     1.000000     0.000000     0.000000     0.000000     0.000000     0.000000
    3     1.000000   120.000000    -0.577350    -0.577350    -0.577350     0.000000     0.000000     0.000000
    4    -1.000000   120.000000    -0.577350    -0.577350    -0.577350     0.000000     0.000000     0.000000
    5     1.000000   120.000000     0.577350     0.577350     0.577350     0.000000     0.000000     0.000000
    6    -1.000000   120.000000     0.577350     0.577350     0.577350     0.000000     0.000000     0.000000
    7     1.000000    90.000000     0.000000     0.000000    -1.000000     0.000000     0.000000     0.000000
    8    -1.000000    90.000000     0.000000     0.000000    -1.000000     0.000000     0.000000     0.000000
    9     1.000000   180.000000     0.000000     0.707107     0.707107     0.000000     0.000000     0.000000
   10    -1.000000   180.000000     0.000000     0.707107     0.707107     0.000000     0.000000     0.000000
   11     1.000000    90.000000     0.000000     1.000000     0.000000     0.000000     0.000000     0.000000
   12    -1.000000    90.000000     0.000000     1.000000     0.000000     0.000000     0.000000     0.000000
   13     1.000000   180.000000     0.000000     0.000000     1.000000     0.000000     0.000000     0.000000
   14    -1.000000   180.000000     0.000000     0.000000     1.000000     0.000000     0.000000     0.000000
   15     1.000000   120.000000    -0.577350     0.577350     0.577350     0.000000     0.000000     0.000000
   16    -1.000000   120.000000    -0.577350     0.577350     0.577350     0.000000     0.000000     0.000000
   17     1.000000   120.000000    -0.577350     0.577350    -0.577350     0.000000     0.000000     0.000000
   18    -1.000000   120.000000    -0.577350     0.577350    -0.577350     0.000000     0.000000     0.000000
   19     1.000000    90.000000     0.000000     0.000000     1.000000     0.000000     0.000000     0.000000
   20    -1.000000    90.000000     0.000000     0.000000     1.000000     0.000000     0.000000     0.000000
   21     1.000000    90.000000    -1.000000     0.000000     0.000000     0.000000     0.000000     0.000000
   22    -1.000000    90.000000    -1.000000     0.000000     0.000000     0.000000     0.000000     0.000000
   23     1.000000   180.000000     0.707107     0.000000     0.707107     0.000000     0.000000     0.000000
   24    -1.000000   180.000000     0.707107     0.000000     0.707107     0.000000     0.000000     0.000000
   25     1.000000   120.000000     0.577350    -0.577350     0.577350     0.000000     0.000000     0.000000
   26    -1.000000   120.000000     0.577350    -0.577350     0.577350     0.000000     0.000000     0.000000
   27     1.000000   120.000000    -0.577350    -0.577350     0.577350     0.000000     0.000000     0.000000
   28    -1.000000   120.000000    -0.577350    -0.577350     0.577350     0.000000     0.000000     0.000000
   29     1.000000   180.000000     1.000000     0.000000     0.000000     0.000000     0.000000     0.000000
   30    -1.000000   180.000000     1.000000     0.000000     0.000000     0.000000     0.000000     0.000000
   31     1.000000    90.000000     0.000000    -1.000000     0.000000     0.000000     0.000000     0.000000
   32    -1.000000    90.000000     0.000000    -1.000000     0.000000     0.000000     0.000000     0.000000
   33     1.000000   180.000000     0.707107     0.707107     0.000000     0.000000     0.000000     0.000000
   34    -1.000000   180.000000     0.707107     0.707107     0.000000     0.000000     0.000000     0.000000
   35     1.000000    90.000000     1.000000     0.000000     0.000000     0.000000     0.000000     0.000000
   36    -1.000000    90.000000     1.000000     0.000000     0.000000     0.000000     0.000000     0.000000
   37     1.000000   120.000000     0.577350    -0.577350    -0.577350     0.000000     0.000000     0.000000
   38    -1.000000   120.000000     0.577350    -0.577350    -0.577350     0.000000     0.000000     0.000000
   39     1.000000   180.000000     0.000000     1.000000     0.000000     0.000000     0.000000     0.000000
   40    -1.000000   180.000000     0.000000     1.000000     0.000000     0.000000     0.000000     0.000000
   41     1.000000   120.000000     0.577350     0.577350    -0.577350     0.000000     0.000000     0.000000
   42    -1.000000   120.000000     0.577350     0.577350    -0.577350     0.000000     0.000000     0.000000
   43     1.000000   180.000000     0.000000    -0.707107     0.707107     0.000000     0.000000     0.000000
   44    -1.000000   180.000000     0.000000    -0.707107     0.707107     0.000000     0.000000     0.000000
   45     1.000000   180.000000     0.707107    -0.707107     0.000000     0.000000     0.000000     0.000000
   46    -1.000000   180.000000     0.707107    -0.707107     0.000000     0.000000     0.000000     0.000000
   47     1.000000   180.000000     0.707107     0.000000    -0.707107     0.000000     0.000000     0.000000
   48    -1.000000   180.000000     0.707107     0.000000    -0.707107     0.000000     0.000000     0.000000
 
 Subroutine IBZKPT returns following result:
 ===========================================
 
 Found     26 irreducible k-points:
 
 Following reciprocal coordinates:
            Coordinates               Weight
  0.062500  0.062500  0.062500      8.000000
  0.187500  0.062500  0.062500     24.000000
  0.312500  0.062500  0.062500     24.000000
  0.437500  0.062500  0.062500     12.000000
 -0.062500  0.062500  0.062500      6.000000
  0.187500  0.187500  0.062500     24.000000
  0.312500  0.187500  0.062500     48.000000
 -0.187500  0.187500  0.062500     24.000000
  0.312500  0.312500  0.062500      8.000000
 -0.312500  0.312500  0.062500     24.000000
 -0.187500  0.312500  0.062500     24.000000
 -0.437500  0.437500  0.062500     24.000000
 -0.312500  0.437500  0.062500     48.000000
 -0.437500 -0.437500  0.062500     24.000000
 -0.312500 -0.437500  0.062500     24.000000
  0.187500  0.187500  0.187500      8.000000
  0.312500  0.187500  0.187500     12.000000
 -0.187500  0.187500  0.187500      6.000000
 -0.312500  0.312500  0.187500     24.000000
 -0.437500  0.437500  0.187500     24.000000
 -0.312500  0.437500  0.187500     24.000000
 -0.437500 -0.437500  0.187500     24.000000
 -0.312500  0.312500  0.312500      6.000000
 -0.437500  0.437500  0.312500     24.000000
 -0.437500 -0.437500  0.312500      8.000000
 -0.437500  0.437500  0.437500      6.000000
 
 Following cartesian coordinates:
            Coordinates               Weight
  0.125000  0.125000  0.125000      8.000000
  0.125000  0.250000  0.250000     24.000000
  0.125000  0.375000  0.375000     24.000000
  0.125000  0.500000  0.500000     12.000000
  0.125000  0.000000  0.000000      6.000000
  0.250000  0.250000  0.375000     24.000000
  0.250000  0.375000  0.500000     48.000000
  0.250000 -0.125000  0.000000     24.000000
  0.375000  0.375000  0.625000      8.000000
  0.375000 -0.250000  0.000000     24.000000
  0.375000 -0.125000  0.125000     24.000000
  0.500000 -0.375000  0.000000     24.000000
  0.500000 -0.250000  0.125000     48.000000
 -0.375000 -0.375000 -0.875000     24.000000
 -0.375000 -0.250000 -0.750000     24.000000
  0.375000  0.375000  0.375000      8.000000
  0.375000  0.500000  0.500000     12.000000
  0.375000  0.000000  0.000000      6.000000
  0.500000 -0.125000  0.000000     24.000000
  0.625000 -0.250000  0.000000     24.000000
  0.625000 -0.125000  0.125000     24.000000
 -0.250000 -0.250000 -0.875000     24.000000
  0.625000  0.000000  0.000000      6.000000
  0.750000 -0.125000  0.000000     24.000000
 -0.125000 -0.125000 -0.875000      8.000000
  0.875000  0.000000  0.000000      6.000000
 
 TETIRR: Found    534 inequivalent tetrahedra from     3072


--------------------------------------------------------------------------------------------------------




 Dimension of arrays:
   k-points           NKPTS =     26   k-points in BZ     NKDIM =     26   number of bands    NBANDS=     12
   number of dos      NEDOS =    301   number of ions     NIONS =      1
   non local maximal  LDIM  =      6   non local SUM 2l+1 LMDIM =     18
   total plane-waves  NPLWV =   4096
   max r-space proj   IRMAX =      1   max aug-charges    IRDMAX=  12478
   dimension x,y,z NGX =    16 NGY =   16 NGZ =   16
   dimension x,y,z NGXF=    32 NGYF=   32 NGZF=   32
   support grid    NGXF=    32 NGYF=   32 NGZF=   32
   ions per type =               1
 NGX,Y,Z   is equivalent  to a cutoff of  10.68, 10.68, 10.68 a.u.
 NGXF,Y,Z  is equivalent  to a cutoff of  21.37, 21.37, 21.37 a.u.


 I would recommend the setting:
   dimension x,y,z NGX =    16 NGY =   16 NGZ =   16
 SYSTEM =  Fe BCC                                  
 POSCAR =  Fe BCC                                  

 Startparameter for this run:
   NWRITE =      2    write-flag & timer
   PREC   = accura    normal or accurate (medium, high low for compatibility)
   ISTART =      0    job   : 0-new  1-cont  2-samecut
   ICHARG =      2    charge: 1-file 2-atom 10-const
   ISPIN  =      2    spin polarized calculation?
   LNONCOLLINEAR =      F non collinear calculations
   LSORBIT =      F    spin-orbit coupling
   INIWAV =      1    electr: 0-lowe 1-rand  2-diag
   LASPH  =      F    aspherical Exc in radial PAW
   METAGGA=      F    non-selfconsistent MetaGGA calc.

 Electronic Relaxation 1
   ENCUT  =  400.0 eV  29.40 Ry    5.42 a.u.   4.06  4.06  4.06*2*pi/ulx,y,z
   ENINI  =  400.0     initial cutoff
   ENAUG  =  511.4 eV  augmentation charge cutoff
   NELM   =     60;   NELMIN=  2; NELMDL= -5     # of ELM steps 
   EDIFF  = 0.1E-05   stopping-criterion for ELM
   LREAL  =      F    real-space projection
   NLSPLINE    = F    spline interpolate recip. space projectors
   LCOMPAT=      F    compatible to vasp.4.4
   GGA_COMPAT  = T    GGA compatible to vasp.4.4-vasp.4.6
   LMAXPAW     = -100 max onsite density
   LMAXMIX     =    2 max onsite mixed and CHGCAR
   VOSKOWN=      0    Vosko Wilk Nusair interpolation
   ROPT   =    0.00000
 Ionic relaxation
   EDIFFG = 0.1E-04   stopping-criterion for IOM
   NSW    =      0    number of steps for IOM
   NBLOCK =      1;   KBLOCK =      1    inner block; outer block 
   IBRION =     -1    ionic relax: 0-MD 1-quasi-New 2-CG
   NFREE  =      0    steps in history (QN), initial steepest desc. (CG)
   ISIF   =      2    stress and relaxation
   IWAVPR =     10    prediction:  0-non 1-charg 2-wave 3-comb
   ISYM   =      2    0-nonsym 1-usesym 2-fastsym
   LCORR  =      T    Harris-Foulkes like correction to forces

   POTIM  = 0.5000    time-step for ionic-motion
   TEIN   =    0.0    initial temperature
   TEBEG  =    0.0;   TEEND  =   0.0 temperature during run
   SMASS  =  -3.00    Nose mass-parameter (am)
   estimated Nose-frequenzy (Omega)   =  0.10E-29 period in steps =****** mass=  -0.142E-27a.u.
   SCALEE = 1.0000    scale energy and forces
   NPACO  =    256;   APACO  = 16.0  distance and # of slots for P.C.
   PSTRESS=    0.0 pullay stress

  Mass of Ions in am
   POMASS =  55.85
  Ionic Valenz
   ZVAL   =   8.00
  Atomic Wigner-Seitz radii
   RWIGS  =  -1.00
  virtual crystal weights 
   VCA    =   1.00
   NELECT =       8.0000    total number of electrons
   NUPDOWN=      -1.0000    fix difference up-down

 DOS related values:
   EMIN   =  10.00;   EMAX   =-10.00  energy-range for DOS
   EFERMI =   0.00
   ISMEAR =    -5;   SIGMA  =   0.20  broadening in eV -4-tet -1-fermi 0-gaus

 Electronic relaxation 2 (details)
   IALGO  =     38    algorithm
   LDIAG  =      T    sub-space diagonalisation (order eigenvalues)
   LSUBROT=      F    optimize rotation matrix (better conditioning)
   TURBO    =      0    0=normal 1=particle mesh
   IRESTART =      0    0=no restart 2=restart with 2 vectors
   NREBOOT  =      0    no. of reboots
   NMIN     =      0    reboot dimension
   EREF     =   0.00    reference energy to select bands
   IMIX   =      4    mixing-type and parameters
     AMIX     =   0.40;   BMIX     =  1.00
     AMIX_MAG =   1.60;   BMIX_MAG =  1.00
     AMIN     =   0.10
     WC   =   100.;   INIMIX=   1;  MIXPRE=   1;  MAXMIX= -45

 Intra band minimization:
   WEIMIN = 0.0000     energy-eigenvalue tresh-hold
   EBREAK =  0.21E-07  absolut break condition
   DEPER  =   0.30     relativ break condition  

   TIME   =   0.40     timestep for ELM

  volume/ion in A,a.u.               =      11.88        80.18
  Fermi-wavevector in a.u.,A,eV,Ry     =   1.434863  2.711497 28.012091  2.058831
  Thomas-Fermi vector in A             =   2.554224
 
 Write flags
   LWAVE  =      T    write WAVECAR
   LCHARG =      T    write CHGCAR
   LVTOT  =      F    write LOCPOT, total local potential
   LVHAR  =      F    write LOCPOT, Hartree potential only
   LELF   =      F    write electronic localiz. function (ELF)
   LORBIT =     11    0 simple, 1 ext, 2 COOP (PROOUT)


 Dipole corrections
   LMONO  =      F    monopole corrections only (constant potential shift)
   LDIPOL =      F    correct potential (dipole corrections)
   IDIPOL =      0    1-x, 2-y, 3-z, 4-all directions 
   EPSILON=  1.0000000 bulk dielectric constant

 Exchange correlation treatment:
   GGA     =    --    GGA type
   LEXCH   =     8    internal setting for exchange type
   VOSKOWN=      0    Vosko Wilk Nusair interpolation
   LHFCALC =     F    Hartree Fock is set to
   LHFONE  =     F    Hartree Fock one center treatment
   AEXX    =    0.0000 exact exchange contribution

 Linear response parameters
   LEPSILON=     F    determine dielectric tensor
   LRPA    =     F    only Hartree local field effects (RPA)
   LNABLA  =     F    use nabla operator in PAW spheres
   LVEL    =     F    velocity operator in full k-point grid
   LINTERFAST=   F  fast interpolation
   KINTER  =     0    interpolate to denser k-point grid
   CSHIFT  =0.1000    complex shift for real part using Kramers Kronig
   OMEGAMAX=  -1.0    maximum frequency
   DEG_THRESHOLD= 0.2000000E-02 threshold for treating states as degnerate
   RTIME   =    0.100 relaxation time in fs

 Orbital magnetization related:
   ORBITALMAG=     F  switch on orbital magnetization
   LCHIMAG   =     F  perturbation theory with respect to B field
   DQ        =  0.001000  dq finite difference perturbation B field



--------------------------------------------------------------------------------------------------------


 Static calculation
 charge density and potential will be updated during run
 spin polarized calculation
 Variant of blocked Davidson
 Davidson routine will perform the subspace rotation
 perform sub-space diagonalisation
    after iterative eigenvector-optimisation
 modified Broyden-mixing scheme, WC =      100.0
 initial mixing is a Kerker type mixing with AMIX =  0.4000 and BMIX =      1.0000
 Hartree-type preconditioning will be used
 using additional bands            8
 reciprocal scheme for non local part
 use partial core corrections
 calculate Harris-corrections to forces 
   (improved forces if not selfconsistent)
 use gradient corrections 
 use of overlap-Matrix (Vanderbilt PP)
 Fermi weights with tetrahedron method with Bloechl corrections


--------------------------------------------------------------------------------------------------------


  energy-cutoff  :      400.00
  volume of cell :       11.88
      direct lattice vectors                 reciprocal lattice vectors
    -1.437500000  1.437500000  1.437500000     0.000000000  0.347826087  0.347826087
     1.437500000 -1.437500000  1.437500000     0.347826087  0.000000000  0.347826087
     1.437500000  1.437500000 -1.437500000     0.347826087  0.347826087  0.000000000

  length of vectors
     2.489823036  2.489823036  2.489823036     0.491900370  0.491900370  0.491900370


 
 k-points in units of 2pi/SCALE and weight: K-Points                                
   0.12500000  0.12500000  0.12500000       0.016
   0.12500000  0.25000000  0.25000000       0.047
   0.12500000  0.37500000  0.37500000       0.047
   0.12500000  0.50000000  0.50000000       0.023
   0.12500000  0.00000000  0.00000000       0.012
   0.25000000  0.25000000  0.37500000       0.047
   0.25000000  0.37500000  0.50000000       0.094
   0.25000000 -0.12500000  0.00000000       0.047
   0.37500000  0.37500000  0.62500000       0.016
   0.37500000 -0.25000000  0.00000000       0.047
   0.37500000 -0.12500000  0.12500000       0.047
   0.50000000 -0.37500000  0.00000000       0.047
   0.50000000 -0.25000000  0.12500000       0.094
  -0.37500000 -0.37500000 -0.87500000       0.047
  -0.37500000 -0.25000000 -0.75000000       0.047
   0.37500000  0.37500000  0.37500000       0.016
   0.37500000  0.50000000  0.50000000       0.023
   0.37500000  0.00000000  0.00000000       0.012
   0.50000000 -0.12500000  0.00000000       0.047
   0.62500000 -0.25000000  0.00000000       0.047
   0.62500000 -0.12500000  0.12500000       0.047
  -0.25000000 -0.25000000 -0.87500000       0.047
   0.62500000  0.00000000  0.00000000       0.012
   0.75000000 -0.12500000  0.00000000       0.047
  -0.12500000 -0.12500000 -0.87500000       0.016
   0.87500000  0.00000000  0.00000000       0.012
 
 k-points in reciprocal lattice and weights: K-Points                                
   0.06250000  0.06250000  0.06250000       0.016
   0.18750000  0.06250000  0.06250000       0.047
   0.31250000  0.06250000  0.06250000       0.047
   0.43750000  0.06250000  0.06250000       0.023
  -0.06250000  0.06250000  0.06250000       0.012
   0.18750000  0.18750000  0.06250000       0.047
   0.31250000  0.18750000  0.06250000       0.094
  -0.18750000  0.18750000  0.06250000       0.047
   0.31250000  0.31250000  0.06250000       0.016
  -0.31250000  0.31250000  0.06250000       0.047
  -0.18750000  0.31250000  0.06250000       0.047
  -0.43750000  0.43750000  0.06250000       0.047
  -0.31250000  0.43750000  0.06250000       0.094
  -0.43750000 -0.43750000  0.06250000       0.047
  -0.31250000 -0.43750000  0.06250000       0.047
   0.18750000  0.18750000  0.18750000       0.016
   0.31250000  0.18750000  0.18750000       0.023
  -0.18750000  0.18750000  0.18750000       0.012
  -0.31250000  0.31250000  0.18750000       0.047
  -0.43750000  0.43750000  0.18750000       0.047
  -0.31250000  0.43750000  0.18750000       0.047
  -0.43750000 -0.43750000  0.18750000       0.047
  -0.31250000  0.31250000  0.31250000       0.012
  -0.43750000  0.43750000  0.31250000       0.047
  -0.43750000 -0.43750000  0.31250000       0.016
  -0.43750000  0.43750000  0.43750000       0.012
 
 position of ions in fractional coordinates (direct lattice) 
   0.00000000  0.00000000  0.00000000
 
 position of ions in cartesian coordinates  (Angst):
   0.00000000  0.00000000  0.00000000
 


--------------------------------------------------------------------------------------------------------


 k-point  1 :   0.0625 0.0625 0.0625  plane waves:     213
 k-point  2 :   0.1875 0.0625 0.0625  plane waves:     212
 k-point  3 :   0.3125 0.0625 0.0625  plane waves:     213
 k-point  4 :   0.4375 0.0625 0.0625  plane waves:     212
 k-point  5 :  -0.0625 0.0625 0.0625  plane waves:     213
 k-point  6 :   0.1875 0.1875 0.0625  plane waves:     211
 k-point  7 :   0.3125 0.1875 0.0625  plane waves:     214
 k-point  8 :  -0.1875 0.1875 0.0625  plane waves:     211
 k-point  9 :   0.3125 0.3125 0.0625  plane waves:     213
 k-point 10 :  -0.3125 0.3125 0.0625  plane waves:     215
 k-point 11 :  -0.1875 0.3125 0.0625  plane waves:     211
 k-point 12 :  -0.4375 0.4375 0.0625  plane waves:     215
 k-point 13 :  -0.3125 0.4375 0.0625  plane waves:     216
 k-point 14 :  -0.4375-0.4375 0.0625  plane waves:     216
 k-point 15 :  -0.3125-0.4375 0.0625  plane waves:     218
 k-point 16 :   0.1875 0.1875 0.1875  plane waves:     228
 k-point 17 :   0.3125 0.1875 0.1875  plane waves:     220
 k-point 18 :  -0.1875 0.1875 0.1875  plane waves:     213
 k-point 19 :  -0.3125 0.3125 0.1875  plane waves:     215
 k-point 20 :  -0.4375 0.4375 0.1875  plane waves:     217
 k-point 21 :  -0.3125 0.4375 0.1875  plane waves:     223
 k-point 22 :  -0.4375-0.4375 0.1875  plane waves:     219
 k-point 23 :  -0.3125 0.3125 0.3125  plane waves:     221
 k-point 24 :  -0.4375 0.4375 0.3125  plane waves:     220
 k-point 25 :  -0.4375-0.4375 0.3125  plane waves:     224
 k-point 26 :  -0.4375 0.4375 0.4375  plane waves:     228

 maximum and minimum number of plane-waves per node :       228      211

 maximum number of plane-waves:       228
 maximum index in each direction: 
   IXMAX=    4   IYMAX=    4   IZMAX=    3
   IXMIN=   -4   IYMIN=   -4   IZMIN=   -4

 WARNING: aliasing errors must be expected set NGX to  18 to avoid them
 WARNING: aliasing errors must be expected set NGY to  18 to avoid them
 NGZ is ok and might be reduce to  16
 aliasing errors are usually negligible using standard VASP settings
 and one can safely disregard these warnings

 serial   3D FFT for wavefunctions
 parallel 3D FFT for charge:
    minimum data exchange during FFTs selected (reduces bandwidth)


 total amount of memory used by VASP on root node    32763. kBytes
========================================================================

   base      :      30000. kBytes
   nonl-proj :        857. kBytes
   fftplans  :        302. kBytes
   grid      :        954. kBytes
   one-center:         31. kBytes
   wavefun   :        619. kBytes
 
     INWAV:  cpu time    0.0010: real time    0.0000
 Broyden mixing: mesh for mixing (old mesh)
   NGX =  7   NGY =  7   NGZ =  7
  (NGX  = 32   NGY  = 32   NGZ  = 32)
  gives a total of    343 points

 initial charge density was supplied:
 charge density of overlapping atoms calculated
 number of electron       8.0000000 magnetization       4.0000000
 keeping initial charge density in first step


--------------------------------------------------------------------------------------------------------


 Maximum index for augmentation-charges         2923 (set IRDMAX)


--------------------------------------------------------------------------------------------------------


 First call to EWALD:  gamma=   0.777
 Maximum number of real-space cells 3x 3x 3
 Maximum number of reciprocal cells 3x 3x 3

 FEWALD executed in parallel
    FEWALD:  cpu time    0.0030: real time    0.0012


----------------------------------------- Iteration    1(   1)  ---------------------------------------


    POTLOK:  cpu time    0.0320: real time    0.0141
    SETDIJ:  cpu time    0.0270: real time    0.0142
     EDDAV:  cpu time    0.7179: real time    0.4122
 BZINTS: Fermi energy: 13.567889;  8.000000 electrons
         Band energy:  67.294579;  BLOECHL correction: -0.370629
       DOS:  cpu time    0.0930: real time    0.0467
    --------------------------------------------
      LOOP:  cpu time    0.8799: real time    0.4930

 eigenvalue-minimisations  :  1356
 total energy-change (2. order) : 0.1961769E+02  (-0.3592524E+03)
 number of electron       8.0000000 magnetization       4.0000000
 augmentation part        8.0000000 magnetization       4.0000000

 Free energy of the ion-electron system (eV)
  ---------------------------------------------------
  alpha Z        PSCENC =        58.16758989
  Ewald energy   TEWEN  =      -583.28138704
  -Hartree energ DENC   =      -114.98496009
  -exchange      EXHF   =         0.00000000
  -V(xc)+E(xc)   XCENC  =         5.87134414
  PAW double counting   =       552.89180568     -560.64780826
  entropy T*S    EENTRO =         0.00000000
  eigenvalues    EBANDS =        67.29457949
  atomic energy  EATOM  =       594.30652615
  Solvation  Ediel_sol  =         0.00000000
  ---------------------------------------------------
  free energy    TOTEN  =        19.61768996 eV

  energy without entropy =       19.61768996  energy(sigma->0) =       19.61768996


--------------------------------------------------------------------------------------------------------




----------------------------------------- Iteration    1(   2)  ---------------------------------------


     EDDAV:  cpu time    0.6369: real time    0.3184
 BZINTS: Fermi energy:  7.683908;  8.000000 electrons
         Band energy:  39.655458;  BLOECHL correction: -0.061752
       DOS:  cpu time    0.0940: real time    0.0475
    --------------------------------------------
      LOOP:  cpu time    0.7439: real time    0.3725

 eigenvalue-minimisations  :  1292
 total energy-change (2. order) :-0.2763912E+02  (-0.2506856E+02)
 number of electron       8.0000000 magnetization       4.0000000
 augmentation part        8.0000000 magnetization       4.0000000

 Free energy of the ion-electron system (eV)
  ---------------------------------------------------
  alpha Z        PSCENC =        58.16758989
  Ewald energy   TEWEN  =      -583.28138704
  -Hartree energ DENC   =      -114.98496009
  -exchange      EXHF   =         0.00000000
  -V(xc)+E(xc)   XCENC  =         5.87134414
  PAW double counting   =       552.89180568     -560.64780826
  entropy T*S    EENTRO =         0.00000000
  eigenvalues    EBANDS =        39.65545805
  atomic energy  EATOM  =       594.30652615
  Solvation  Ediel_sol  =         0.00000000
  ---------------------------------------------------
  free energy    TOTEN  =        -8.02143149 eV

  energy without entropy =       -8.02143149  energy(sigma->0) =       -8.02143149


--------------------------------------------------------------------------------------------------------




----------------------------------------- Iteration    1(   3)  ---------------------------------------


     EDDAV:  cpu time    0.7349: real time    0.3679
 BZINTS: Fermi energy:  7.565941;  8.000000 electrons
         Band energy:  38.962850;  BLOECHL correction: -0.062188
       DOS:  cpu time    0.0940: real time    0.0473
    --------------------------------------------
      LOOP:  cpu time    0.8429: real time    0.4219

 eigenvalue-minimisations  :  1504
 total energy-change (2. order) :-0.6926076E+00  (-0.6895077E+00)
 number of electron       8.0000000 magnetization       4.0000000
 augmentation part        8.0000000 magnetization       4.0000000

 Free energy of the ion-electron system (eV)
  ---------------------------------------------------
  alpha Z        PSCENC =        58.16758989
  Ewald energy   TEWEN  =      -583.28138704
  -Hartree energ DENC   =      -114.98496009
  -exchange      EXHF   =         0.00000000
  -V(xc)+E(xc)   XCENC  =         5.87134414
  PAW double counting   =       552.89180568     -560.64780826
  entropy T*S    EENTRO =         0.00000000
  eigenvalues    EBANDS =        38.96285049
  atomic energy  EATOM  =       594.30652615
  Solvation  Ediel_sol  =         0.00000000
  ---------------------------------------------------
  free energy    TOTEN  =        -8.71403905 eV

  energy without entropy =       -8.71403905  energy(sigma->0) =       -8.71403905


--------------------------------------------------------------------------------------------------------




----------------------------------------- Iteration    1(   4)  ---------------------------------------


     EDDAV:  cpu time    0.6719: real time    0.3361
 BZINTS: Fermi energy:  7.565595;  8.000000 electrons
         Band energy:  38.959874;  BLOECHL correction: -0.062211
       DOS:  cpu time    0.0930: real time    0.0469
    --------------------------------------------
      LOOP:  cpu time    0.7809: real time    0.3910

 eigenvalue-minimisations  :  1372
 total energy-change (2. order) :-0.2976030E-02  (-0.2959695E-02)
 number of electron       8.0000000 magnetization       4.0000000
 augmentation part        8.0000000 magnetization       4.0000000

 Free energy of the ion-electron system (eV)
  ---------------------------------------------------
  alpha Z        PSCENC =        58.16758989
  Ewald energy   TEWEN  =      -583.28138704
  -Hartree energ DENC   =      -114.98496009
  -exchange      EXHF   =         0.00000000
  -V(xc)+E(xc)   XCENC  =         5.87134414
  PAW double counting   =       552.89180568     -560.64780826
  entropy T*S    EENTRO =         0.00000000
  eigenvalues    EBANDS =        38.95987446
  atomic energy  EATOM  =       594.30652615
  Solvation  Ediel_sol  =         0.00000000
  ---------------------------------------------------
  free energy    TOTEN  =        -8.71701507 eV

  energy without entropy =       -8.71701507  energy(sigma->0) =       -8.71701507


--------------------------------------------------------------------------------------------------------




----------------------------------------- Iteration    1(   5)  ---------------------------------------


     EDDAV:  cpu time    1.1088: real time    0.5553
 BZINTS: Fermi energy:  7.565593;  8.000000 electrons
         Band energy:  38.959857;  BLOECHL correction: -0.062211
       DOS:  cpu time    0.0920: real time    0.0462
    CHARGE:  cpu time    0.0410: real time    0.0205
    MIXING:  cpu time    0.0020: real time    0.0007
    --------------------------------------------
      LOOP:  cpu time    1.2618: real time    0.6315

 eigenvalue-minimisations  :  1456
 total energy-change (2. order) :-0.1786309E-04  (-0.1776006E-04)
 number of electron       7.9999989 magnetization       1.9055634
 augmentation part        3.6522067 magnetization       1.1768609

 Broyden mixing:
  rms(total) = 0.11832E+01    rms(broyden)= 0.11829E+01
  rms(prec ) = 0.32987E+01
  weight for this iteration     100.00

 Free energy of the ion-electron system (eV)
  ---------------------------------------------------
  alpha Z        PSCENC =        58.16758989
  Ewald energy   TEWEN  =      -583.28138704
  -Hartree energ DENC   =      -114.98496009
  -exchange      EXHF   =         0.00000000
  -V(xc)+E(xc)   XCENC  =         5.87134414
  PAW double counting   =       552.89180568     -560.64780826
  entropy T*S    EENTRO =         0.00000000
  eigenvalues    EBANDS =        38.95985660
  atomic energy  EATOM  =       594.30652615
  Solvation  Ediel_sol  =         0.00000000
  ---------------------------------------------------
  free energy    TOTEN  =        -8.71703294 eV

  energy without entropy =       -8.71703294  energy(sigma->0) =       -8.71703294


--------------------------------------------------------------------------------------------------------




----------------------------------------- Iteration    1(   6)  ---------------------------------------


    POTLOK:  cpu time    0.0290: real time    0.0142
    SETDIJ:  cpu time    0.0270: real time    0.0135
     EDDAV:  cpu time    0.6849: real time    0.3430
 BZINTS: Fermi energy:  4.835002;  8.000000 electrons
         Band energy:  22.993666;  BLOECHL correction: -0.064420
       DOS:  cpu time    0.0970: real time    0.0487
    CHARGE:  cpu time    0.0360: real time    0.0179
    MIXING:  cpu time    0.0020: real time    0.0008
    --------------------------------------------
      LOOP:  cpu time    0.8889: real time    0.4448

 eigenvalue-minimisations  :  1408
 total energy-change (2. order) : 0.4184973E+00  (-0.1012819E+01)
 number of electron       7.9999987 magnetization       2.2948311
 augmentation part        4.2867871 magnetization       1.9361574

 Broyden mixing:
  rms(total) = 0.54315E+00    rms(broyden)= 0.54289E+00
  rms(prec ) = 0.75078E+00
  weight for this iteration     100.00

 eigenvalues of (default mixing * dielectric matrix)
  average eigenvalue GAMMA=   0.7166
  0.7166

 Free energy of the ion-electron system (eV)
  ---------------------------------------------------
  alpha Z        PSCENC =        58.16758989
  Ewald energy   TEWEN  =      -583.28138704
  -Hartree energ DENC   =       -98.62749017
  -exchange      EXHF   =         0.00000000
  -V(xc)+E(xc)   XCENC  =         3.93871008
  PAW double counting   =       601.56563599     -607.36178658
  entropy T*S    EENTRO =         0.00000000
  eigenvalues    EBANDS =        22.99366599
  atomic energy  EATOM  =       594.30652615
  Solvation  Ediel_sol  =         0.00000000
  ---------------------------------------------------
  free energy    TOTEN  =        -8.29853568 eV

  energy without entropy =       -8.29853568  energy(sigma->0) =       -8.29853568


--------------------------------------------------------------------------------------------------------




----------------------------------------- Iteration    1(   7)  ---------------------------------------


    POTLOK:  cpu time    0.0280: real time    0.0142
    SETDIJ:  cpu time    0.0260: real time    0.0131
     EDDAV:  cpu time    0.7089: real time    0.3546
 BZINTS: Fermi energy:  5.389225;  8.000000 electrons
         Band energy:  26.481414;  BLOECHL correction: -0.061830
       DOS:  cpu time    0.0890: real time    0.0453
    CHARGE:  cpu time    0.0430: real time    0.0208
    MIXING:  cpu time    0.0020: real time    0.0008
    --------------------------------------------
      LOOP:  cpu time    0.9099: real time    0.4555

 eigenvalue-minimisations  :  1460
 total energy-change (2. order) : 0.6041772E-01  (-0.5707912E-01)
 number of electron       7.9999988 magnetization       2.2517781
 augmentation part        4.1293294 magnetization       1.8824659

 Broyden mixing:
  rms(total) = 0.33303E+00    rms(broyden)= 0.33302E+00
  rms(prec ) = 0.44011E+00
  weight for this iteration     100.00

 eigenvalues of (default mixing * dielectric matrix)
  average eigenvalue GAMMA=   0.7542
  0.9704  0.5380

 Free energy of the ion-electron system (eV)
  ---------------------------------------------------
  alpha Z        PSCENC =        58.16758989
  Ewald energy   TEWEN  =      -583.28138704
  -Hartree energ DENC   =      -100.81361062
  -exchange      EXHF   =         0.00000000
  -V(xc)+E(xc)   XCENC  =         4.38166569
  PAW double counting   =       637.09964031     -644.57995678
  entropy T*S    EENTRO =         0.00000000
  eigenvalues    EBANDS =        26.48141444
  atomic energy  EATOM  =       594.30652615
  Solvation  Ediel_sol  =         0.00000000
  ---------------------------------------------------
  free energy    TOTEN  =        -8.23811796 eV

  energy without entropy =       -8.23811796  energy(sigma->0) =       -8.23811796


--------------------------------------------------------------------------------------------------------




----------------------------------------- Iteration    1(   8)  ---------------------------------------


    POTLOK:  cpu time    0.0270: real time    0.0131
    SETDIJ:  cpu time    0.0280: real time    0.0141
     EDDAV:  cpu time    0.8529: real time    0.4330
 BZINTS: Fermi energy:  5.335957;  8.000000 electrons
         Band energy:  26.172450;  BLOECHL correction: -0.062298
       DOS:  cpu time    0.0690: real time    0.0380
    CHARGE:  cpu time    0.0800: real time    0.0429
    MIXING:  cpu time    0.0020: real time    0.0007
    --------------------------------------------
      LOOP:  cpu time    1.0728: real time    0.5495

 eigenvalue-minimisations  :  1552
 total energy-change (2. order) : 0.7553017E-02  (-0.7815244E-03)
 number of electron       7.9999988 magnetization       2.2261713
 augmentation part        4.1420699 magnetization       1.8592740

 Broyden mixing:
  rms(total) = 0.12179E+00    rms(broyden)= 0.12178E+00
  rms(prec ) = 0.21218E+00
  weight for this iteration     100.00

 eigenvalues of (default mixing * dielectric matrix)
  average eigenvalue GAMMA=   1.1102
  1.9496  0.7760  0.6051

 Free energy of the ion-electron system (eV)
  ---------------------------------------------------
  alpha Z        PSCENC =        58.16758989
  Ewald energy   TEWEN  =      -583.28138704
  -Hartree energ DENC   =       -99.94790226
  -exchange      EXHF   =         0.00000000
  -V(xc)+E(xc)   XCENC  =         4.30807763
  PAW double counting   =       657.44141359     -665.39733308
  entropy T*S    EENTRO =         0.00000000
  eigenvalues    EBANDS =        26.17245017
  atomic energy  EATOM  =       594.30652615
  Solvation  Ediel_sol  =         0.00000000
  ---------------------------------------------------
  free energy    TOTEN  =        -8.23056495 eV

  energy without entropy =       -8.23056495  energy(sigma->0) =       -8.23056495


--------------------------------------------------------------------------------------------------------




----------------------------------------- Iteration    1(   9)  ---------------------------------------


    POTLOK:  cpu time    0.0250: real time    0.0143
    SETDIJ:  cpu time    0.0300: real time    0.0146
     EDDAV:  cpu time    1.2288: real time    0.6133
 BZINTS: Fermi energy:  5.262904;  8.000000 electrons
         Band energy:  25.722520;  BLOECHL correction: -0.063822
       DOS:  cpu time    0.0730: real time    0.0396
    CHARGE:  cpu time    0.0460: real time    0.0209
    MIXING:  cpu time    0.0020: real time    0.0007
    --------------------------------------------
      LOOP:  cpu time    1.4228: real time    0.7111

 eigenvalue-minimisations  :  1736
 total energy-change (2. order) : 0.5126640E-02  (-0.9757480E-03)
 number of electron       7.9999987 magnetization       2.2419585
 augmentation part        4.1627248 magnetization       1.8743738

 Broyden mixing:
  rms(total) = 0.24667E-01    rms(broyden)= 0.24657E-01
  rms(prec ) = 0.33645E-01
  weight for this iteration     100.00

 eigenvalues of (default mixing * dielectric matrix)
  average eigenvalue GAMMA=   1.1893
  2.3910  1.0125  0.6980  0.6558

 Free energy of the ion-electron system (eV)
  ---------------------------------------------------
  alpha Z        PSCENC =        58.16758989
  Ewald energy   TEWEN  =      -583.28138704
  -Hartree energ DENC   =       -98.64427146
  -exchange      EXHF   =         0.00000000
  -V(xc)+E(xc)   XCENC  =         4.25845112
  PAW double counting   =       691.72561560     -700.48048296
  entropy T*S    EENTRO =         0.00000000
  eigenvalues    EBANDS =        25.72252040
  atomic energy  EATOM  =       594.30652615
  Solvation  Ediel_sol  =         0.00000000
  ---------------------------------------------------
  free energy    TOTEN  =        -8.22543831 eV

  energy without entropy =       -8.22543831  energy(sigma->0) =       -8.22543831


--------------------------------------------------------------------------------------------------------




----------------------------------------- Iteration    1(  10)  ---------------------------------------


    POTLOK:  cpu time    0.0250: real time    0.0142
    SETDIJ:  cpu time    0.0260: real time    0.0135
     EDDAV:  cpu time    0.6869: real time    0.3418
 BZINTS: Fermi energy:  5.284007;  8.000000 electrons
         Band energy:  25.857303;  BLOECHL correction: -0.063994
       DOS:  cpu time    0.0770: real time    0.0418
    CHARGE:  cpu time    0.0450: real time    0.0194
    MIXING:  cpu time    0.0020: real time    0.0009
    --------------------------------------------
      LOOP:  cpu time    0.8759: real time    0.4380

 eigenvalue-minimisations  :  1392
 total energy-change (2. order) :-0.5734280E-04  (-0.1178284E-03)
 number of electron       7.9999987 magnetization       2.2428491
 augmentation part        4.1568032 magnetization       1.8724859

 Broyden mixing:
  rms(total) = 0.47027E-02    rms(broyden)= 0.46993E-02
  rms(prec ) = 0.64485E-02
  weight for this iteration     100.00

 eigenvalues of (default mixing * dielectric matrix)
  average eigenvalue GAMMA=   1.1412
  2.4437  1.0953  0.6634  0.6634  0.8402

 Free energy of the ion-electron system (eV)
  ---------------------------------------------------
  alpha Z        PSCENC =        58.16758989
  Ewald energy   TEWEN  =      -583.28138704
  -Hartree energ DENC   =       -98.57521108
  -exchange      EXHF   =         0.00000000
  -V(xc)+E(xc)   XCENC  =         4.26844364
  PAW double counting   =       700.42777529     -709.39653567
  entropy T*S    EENTRO =         0.00000000
  eigenvalues    EBANDS =        25.85730317
  atomic energy  EATOM  =       594.30652615
  Solvation  Ediel_sol  =         0.00000000
  ---------------------------------------------------
  free energy    TOTEN  =        -8.22549565 eV

  energy without entropy =       -8.22549565  energy(sigma->0) =       -8.22549565


--------------------------------------------------------------------------------------------------------




----------------------------------------- Iteration    1(  11)  ---------------------------------------


    POTLOK:  cpu time    0.0250: real time    0.0141
    SETDIJ:  cpu time    0.0260: real time    0.0134
     EDDAV:  cpu time    0.6859: real time    0.3410
 BZINTS: Fermi energy:  5.281770;  8.000000 electrons
         Band energy:  25.839604;  BLOECHL correction: -0.063991
       DOS:  cpu time    0.0830: real time    0.0454
    CHARGE:  cpu time    0.0490: real time    0.0212
    MIXING:  cpu time    0.0020: real time    0.0009
    --------------------------------------------
      LOOP:  cpu time    0.8839: real time    0.4427

 eigenvalue-minimisations  :  1392
 total energy-change (2. order) : 0.1559739E-06  (-0.5398791E-05)
 number of electron       7.9999987 magnetization       2.2388230
 augmentation part        4.1574923 magnetization       1.8684965

 Broyden mixing:
  rms(total) = 0.40324E-02    rms(broyden)= 0.40316E-02
  rms(prec ) = 0.43335E-02
  weight for this iteration     100.00

 eigenvalues of (default mixing * dielectric matrix)
  average eigenvalue GAMMA=   1.2925
  2.3299  2.3299  1.0206  0.6547  0.7099  0.7099

 Free energy of the ion-electron system (eV)
  ---------------------------------------------------
  alpha Z        PSCENC =        58.16758989
  Ewald energy   TEWEN  =      -583.28138704
  -Hartree energ DENC   =       -98.56705819
  -exchange      EXHF   =         0.00000000
  -V(xc)+E(xc)   XCENC  =         4.26896143
  PAW double counting   =       701.15326655     -710.11299878
  entropy T*S    EENTRO =         0.00000000
  eigenvalues    EBANDS =        25.83960449
  atomic energy  EATOM  =       594.30652615
  Solvation  Ediel_sol  =         0.00000000
  ---------------------------------------------------
  free energy    TOTEN  =        -8.22549549 eV

  energy without entropy =       -8.22549549  energy(sigma->0) =       -8.22549549


--------------------------------------------------------------------------------------------------------




----------------------------------------- Iteration    1(  12)  ---------------------------------------


    POTLOK:  cpu time    0.0240: real time    0.0142
    SETDIJ:  cpu time    0.0270: real time    0.0135
     EDDAV:  cpu time    0.6779: real time    0.3377
 BZINTS: Fermi energy:  5.280980;  8.000000 electrons
         Band energy:  25.833788;  BLOECHL correction: -0.064008
       DOS:  cpu time    0.0850: real time    0.0454
    CHARGE:  cpu time    0.0470: real time    0.0210
    MIXING:  cpu time    0.0020: real time    0.0009
    --------------------------------------------
      LOOP:  cpu time    0.8769: real time    0.4393

 eigenvalue-minimisations  :  1372
 total energy-change (2. order) :-0.5118668E-05  (-0.3970787E-06)
 number of electron       7.9999987 magnetization       2.2393414
 augmentation part        4.1576591 magnetization       1.8692144

 Broyden mixing:
  rms(total) = 0.14466E-02    rms(broyden)= 0.14462E-02
  rms(prec ) = 0.15041E-02
  weight for this iteration     100.00

 eigenvalues of (default mixing * dielectric matrix)
  average eigenvalue GAMMA=   1.2600
  2.5822  2.5822  1.0582  0.7990  0.6589  0.6589  0.4804

 Free energy of the ion-electron system (eV)
  ---------------------------------------------------
  alpha Z        PSCENC =        58.16758989
  Ewald energy   TEWEN  =      -583.28138704
  -Hartree energ DENC   =       -98.58622589
  -exchange      EXHF   =         0.00000000
  -V(xc)+E(xc)   XCENC  =         4.26643908
  PAW double counting   =       701.17820207     -710.11043303
  entropy T*S    EENTRO =         0.00000000
  eigenvalues    EBANDS =        25.83378817
  atomic energy  EATOM  =       594.30652615
  Solvation  Ediel_sol  =         0.00000000
  ---------------------------------------------------
  free energy    TOTEN  =        -8.22550061 eV

  energy without entropy =       -8.22550061  energy(sigma->0) =       -8.22550061


--------------------------------------------------------------------------------------------------------




----------------------------------------- Iteration    1(  13)  ---------------------------------------


    POTLOK:  cpu time    0.0250: real time    0.0140
    SETDIJ:  cpu time    0.0260: real time    0.0135
     EDDAV:  cpu time    0.4249: real time    0.2108
 BZINTS: Fermi energy:  5.280532;  8.000000 electrons
         Band energy:  25.831067;  BLOECHL correction: -0.064017
       DOS:  cpu time    0.0920: real time    0.0483
    CHARGE:  cpu time    0.0380: real time    0.0167
    MIXING:  cpu time    0.0020: real time    0.0009
    --------------------------------------------
      LOOP:  cpu time    0.6219: real time    0.3110

 eigenvalue-minimisations  :   716
 total energy-change (2. order) :-0.6907265E-05  (-0.3361978E-07)
 number of electron       7.9999987 magnetization       2.2403671
 augmentation part        4.1577868 magnetization       1.8702330

 Broyden mixing:
  rms(total) = 0.94158E-03    rms(broyden)= 0.94155E-03
  rms(prec ) = 0.94803E-03
  weight for this iteration     100.00

 eigenvalues of (default mixing * dielectric matrix)
  average eigenvalue GAMMA=   1.2443
  2.6895  2.4509  1.0686  1.0686  0.7081  0.7081  0.6304  0.6304

 Free energy of the ion-electron system (eV)
  ---------------------------------------------------
  alpha Z        PSCENC =        58.16758989
  Ewald energy   TEWEN  =      -583.28138704
  -Hartree energ DENC   =       -98.58643692
  -exchange      EXHF   =         0.00000000
  -V(xc)+E(xc)   XCENC  =         4.26726046
  PAW double counting   =       701.16383649     -710.09396383
  entropy T*S    EENTRO =         0.00000000
  eigenvalues    EBANDS =        25.83106729
  atomic energy  EATOM  =       594.30652615
  Solvation  Ediel_sol  =         0.00000000
  ---------------------------------------------------
  free energy    TOTEN  =        -8.22550752 eV

  energy without entropy =       -8.22550752  energy(sigma->0) =       -8.22550752


--------------------------------------------------------------------------------------------------------




----------------------------------------- Iteration    1(  14)  ---------------------------------------


    POTLOK:  cpu time    0.0250: real time    0.0141
    SETDIJ:  cpu time    0.0270: real time    0.0135
     EDDAV:  cpu time    0.3949: real time    0.1961
 BZINTS: Fermi energy:  5.280669;  8.000000 electrons
         Band energy:  25.832395;  BLOECHL correction: -0.064020
       DOS:  cpu time    0.0860: real time    0.0463
    CHARGE:  cpu time    0.0770: real time    0.0344
    MIXING:  cpu time    0.0000: real time    0.0005
    --------------------------------------------
      LOOP:  cpu time    0.6229: real time    0.3116

 eigenvalue-minimisations  :   644
 total energy-change (2. order) :-0.4333207E-05  (-0.1568504E-07)
 number of electron       7.9999987 magnetization       2.2404622
 augmentation part        4.1577405 magnetization       1.8702798

 Broyden mixing:
  rms(total) = 0.14193E-03    rms(broyden)= 0.14185E-03
  rms(prec ) = 0.15235E-03
  weight for this iteration     100.00

 eigenvalues of (default mixing * dielectric matrix)
  average eigenvalue GAMMA=   1.2042
  2.7032  2.4447  1.1791  1.0171  0.8467  0.7012  0.7012  0.6223  0.6221

 Free energy of the ion-electron system (eV)
  ---------------------------------------------------
  alpha Z        PSCENC =        58.16758989
  Ewald energy   TEWEN  =      -583.28138704
  -Hartree energ DENC   =       -98.58494633
  -exchange      EXHF   =         0.00000000
  -V(xc)+E(xc)   XCENC  =         4.26818622
  PAW double counting   =       701.21706897     -710.15094439
  entropy T*S    EENTRO =         0.00000000
  eigenvalues    EBANDS =        25.83239468
  atomic energy  EATOM  =       594.30652615
  Solvation  Ediel_sol  =         0.00000000
  ---------------------------------------------------
  free energy    TOTEN  =        -8.22551185 eV

  energy without entropy =       -8.22551185  energy(sigma->0) =       -8.22551185


--------------------------------------------------------------------------------------------------------




----------------------------------------- Iteration    1(  15)  ---------------------------------------


    POTLOK:  cpu time    0.0650: real time    0.0303
    SETDIJ:  cpu time    0.0390: real time    0.0183
     EDDAV:  cpu time    0.6229: real time    0.3146
 BZINTS: Fermi energy:  5.280634;  8.000000 electrons
         Band energy:  25.832220;  BLOECHL correction: -0.064019
       DOS:  cpu time    0.0830: real time    0.0448
    CHARGE:  cpu time    0.0470: real time    0.0205
    MIXING:  cpu time    0.0020: real time    0.0010
    --------------------------------------------
      LOOP:  cpu time    0.8719: real time    0.4371

 eigenvalue-minimisations  :   648
 total energy-change (2. order) : 0.1637349E-05  (-0.1993395E-08)
 number of electron       7.9999987 magnetization       2.2404690
 augmentation part        4.1577521 magnetization       1.8703002

 Broyden mixing:
  rms(total) = 0.78805E-04    rms(broyden)= 0.78800E-04
  rms(prec ) = 0.10959E-03
  weight for this iteration     100.00

 eigenvalues of (default mixing * dielectric matrix)
  average eigenvalue GAMMA=   1.2328
  2.6981  2.4373  1.6021  1.0818  1.0818  0.7951  0.7017  0.7017  0.6360  0.5924

 Free energy of the ion-electron system (eV)
  ---------------------------------------------------
  alpha Z        PSCENC =        58.16758989
  Ewald energy   TEWEN  =      -583.28138704
  -Hartree energ DENC   =       -98.58478242
  -exchange      EXHF   =         0.00000000
  -V(xc)+E(xc)   XCENC  =         4.26834726
  PAW double counting   =       701.21108794     -710.14511245
  entropy T*S    EENTRO =         0.00000000
  eigenvalues    EBANDS =        25.83222045
  atomic energy  EATOM  =       594.30652615
  Solvation  Ediel_sol  =         0.00000000
  ---------------------------------------------------
  free energy    TOTEN  =        -8.22551021 eV

  energy without entropy =       -8.22551021  energy(sigma->0) =       -8.22551021


--------------------------------------------------------------------------------------------------------




----------------------------------------- Iteration    1(  16)  ---------------------------------------


    POTLOK:  cpu time    0.0240: real time    0.0136
    SETDIJ:  cpu time    0.0270: real time    0.0138
     EDDAV:  cpu time    0.3939: real time    0.1951
 BZINTS: Fermi energy:  5.280684;  8.000000 electrons
         Band energy:  25.832559;  BLOECHL correction: -0.064018
       DOS:  cpu time    0.0930: real time    0.0481
    --------------------------------------------
      LOOP:  cpu time    0.5529: real time    0.2777

 eigenvalue-minimisations  :   640
 total energy-change (2. order) :-0.9404175E-09  (-0.1079951E-08)
 number of electron       7.9999987 magnetization       2.2404690
 augmentation part        4.1577521 magnetization       1.8703002

 Free energy of the ion-electron system (eV)
  ---------------------------------------------------
  alpha Z        PSCENC =        58.16758989
  Ewald energy   TEWEN  =      -583.28138704
  -Hartree energ DENC   =       -98.58492096
  -exchange      EXHF   =         0.00000000
  -V(xc)+E(xc)   XCENC  =         4.26832750
  PAW double counting   =       701.20647772     -710.14068244
  entropy T*S    EENTRO =         0.00000000
  eigenvalues    EBANDS =        25.83255897
  atomic energy  EATOM  =       594.30652615
  Solvation  Ediel_sol  =         0.00000000
  ---------------------------------------------------
  free energy    TOTEN  =        -8.22551022 eV

  energy without entropy =       -8.22551022  energy(sigma->0) =       -8.22551022


--------------------------------------------------------------------------------------------------------




 average (electrostatic) potential at core
  the test charge radii are     1.0103
  (the norm of the test charge is              1.0000)
       1 -43.7118
 
 
 
 E-fermi :   5.2807     XC(G=0): -12.8630     alpha+bet :-13.0455


 spin component 1

 k-point     1 :       0.0625    0.0625    0.0625
  band No.  band energies     occupation 
      1      -1.8600      1.00000
      2       2.9367      1.00000
      3       2.9367      1.00000
      4       3.6890      1.00000
      5       4.2407      1.00000
      6       4.2407      1.00338
      7      26.2849      0.00000
      8      26.2849      0.00000
      9      29.8260      0.00000
     10      30.8422      0.00000
     11      35.5052      0.00000
     12      35.5052      0.00000

 k-point     2 :       0.1875    0.0625    0.0625
  band No.  band energies     occupation 
      1      -0.3057      1.00000
      2       2.5542      1.00000
      3       2.7540      1.00000
      4       4.1827      1.00000
      5       4.3545      1.00079
      6       4.6513      0.88731
      7      20.8718      0.00000
      8      23.9601      0.00000
      9      26.0712      0.00000
     10      31.0957      0.00000
     11      34.8952      0.00000
     12      36.1705      0.00000

 k-point     3 :       0.3125    0.0625    0.0625
  band No.  band energies     occupation 
      1       0.8314      1.00000
      2       2.2258      1.00000
      3       3.4970      1.00000
      4       4.3151      1.00000
      5       4.4442      1.03199
      6       6.0159      0.01434
      7      15.4642      0.00000
      8      22.2951      0.00000
      9      23.8080      0.00000
     10      30.5174      0.00000
     11      34.2093      0.00000
     12      39.4256      0.00000

 k-point     4 :       0.4375    0.0625    0.0625
  band No.  band energies     occupation 
      1       0.8962      1.00000
      2       2.0995      1.00000
      3       4.3736      1.00000
      4       4.4501      1.00000
      5       4.4807      1.07888
      6       7.4005     -0.00492
      7      12.3872      0.00000
      8      21.6880      0.00000
      9      22.9649      0.00000
     10      30.2727      0.00000
     11      34.0949      0.00000
     12      39.4512      0.00000

 k-point     5 :      -0.0625    0.0625    0.0625
  band No.  band energies     occupation 
      1      -2.4584      1.00000
      2       3.1263      1.00000
      3       3.1263      1.00000
      4       3.2086      1.00000
      5       4.1709      1.00000
      6       4.3555      1.00000
      7      28.2587      0.00000
      8      29.5514      0.00000
      9      29.5514      0.00000
     10      32.4326      0.00000
     11      34.4254      0.00000
     12      34.4254      0.00000

 k-point     6 :       0.1875    0.1875    0.0625
  band No.  band energies     occupation 
      1       1.1417      1.00000
      2       2.2927      1.00000
      3       2.4797      1.00000
      4       4.2581      1.00000
      5       4.4753      1.00066
      6       6.2087     -0.00472
      7      18.4179      0.00000
      8      19.1598      0.00000
      9      22.9735      0.00000
     10      32.9814      0.00000
     11      36.4484      0.00000
     12      38.7986      0.00000

 k-point     7 :       0.3125    0.1875    0.0625
  band No.  band energies     occupation 
      1       1.4908      1.00000
      2       2.1354      1.00000
      3       3.0891      1.00000
      4       4.3891      1.00000
      5       4.5660      1.00934
      6       8.6148     -0.00371
      7      13.8173      0.00000
      8      17.6312      0.00000
      9      21.7359      0.00000
     10      33.2948      0.00000
     11      37.5274      0.00000
     12      39.3653      0.00000

 k-point     8 :      -0.1875    0.1875    0.0625
  band No.  band energies     occupation 
      1      -1.3000      1.00000
      2       2.8773      1.00000
      3       3.0611      1.00000
      4       3.7886      1.00000
      5       3.9471      1.00000
      6       4.4480      1.01089
      7      23.7322      0.00000
      8      27.1108      0.00000
      9      27.8760      0.00000
     10      31.8229      0.00000
     11      31.9507      0.00000
     12      33.5109      0.00000

 k-point     9 :       0.3125    0.3125    0.0625
  band No.  band energies     occupation 
      1       1.7960      1.00000
      2       2.4775      1.00000
      3       2.4775      1.00000
      4       4.5184      1.00000
      5       4.5184      1.00000
      6      12.0680      0.00000
      7      12.0680      0.00000
      8      14.4225      0.00000
      9      21.2757      0.00000
     10      35.7001      0.00000
     11      35.7001      0.00000
     12      42.5106      0.00000

 k-point    10 :      -0.3125    0.3125    0.0625
  band No.  band energies     occupation 
      1       0.3105      1.00000
      2       2.5060      1.00000
      3       3.1233      1.00000
      4       4.1391      1.00000
      5       4.6224      1.01677
      6       4.7395      0.71609
      7      17.9910      0.00000
      8      24.7558      0.00000
      9      25.7015      0.00000
     10      30.1658      0.00000
     11      31.9786      0.00000
     12      34.8869      0.00000

 k-point    11 :      -0.1875    0.3125    0.0625
  band No.  band energies     occupation 
      1       0.1176      1.00000
      2       2.6801      1.00000
      3       2.8690      1.00000
      4       3.8306      1.00000
      5       4.4783      1.00149
      6       4.8130      0.76843
      7      20.9680      0.00000
      8      21.8682      0.00000
      9      28.3764      0.00000
     10      28.4997      0.00000
     11      32.2167      0.00000
     12      36.7788      0.00000

 k-point    12 :      -0.4375    0.4375    0.0625
  band No.  band energies     occupation 
      1       0.7778      1.00000
      2       2.2534      1.00000
      3       3.8562      1.00000
      4       4.2936      1.00000
      5       5.5031      0.52462
      6       5.9803      0.00022
      7      13.2884      0.00000
      8      23.4186      0.00000
      9      24.1073      0.00000
     10      29.4667      0.00000
     11      32.2027      0.00000
     12      36.6181      0.00000

 k-point    13 :      -0.3125    0.4375    0.0625
  band No.  band energies     occupation 
      1       1.1622      1.00000
      2       2.3920      1.00000
      3       2.9361      1.00000
      4       4.1124      1.00000
      5       4.8457      1.02452
      6       6.4908     -0.03543
      7      15.8413      0.00000
      8      19.6987      0.00000
      9      26.1762      0.00000
     10      29.3071      0.00000
     11      32.8668      0.00000
     12      37.2669      0.00000

 k-point    14 :      -0.4375   -0.4375    0.0625
  band No.  band energies     occupation 
      1       1.2057      1.00000
      2       2.3819      1.00000
      3       3.1029      1.00000
      4       4.2091      1.00000
      5       5.1798      0.91332
      6       8.4807     -0.00187
      7      12.4968      0.00000
      8      19.0194      0.00000
      9      25.3622      0.00000
     10      29.6162      0.00000
     11      33.8976      0.00000
     12      36.5692      0.00000

 k-point    15 :      -0.3125   -0.4375    0.0625
  band No.  band energies     occupation 
      1       1.8600      1.00000
      2       2.1089      1.00000
      3       2.6181      1.00000
      4       4.3942      1.00000
      5       4.8220      1.03347
      6       9.6573     -0.00063
      7      13.9751      0.00000
      8      15.2321      0.00000
      9      26.5258      0.00000
     10      29.7638      0.00000
     11      31.8983      0.00000
     12      38.6547      0.00000

 k-point    16 :       0.1875    0.1875    0.1875
  band No.  band energies     occupation 
      1       2.1203      1.00000
      2       2.1203      1.00000
      3       2.2748      1.00000
      4       4.4587      1.00000
      5       4.4587      1.00000
      6       8.5834     -0.00470
      7      16.8005      0.00000
      8      16.8005      0.00000
      9      17.9761      0.00000
     10      37.6306      0.00000
     11      40.1503      0.00000
     12      40.1503      0.00000

 k-point    17 :       0.3125    0.1875    0.1875
  band No.  band energies     occupation 
      1       2.0099      1.00000
      2       2.0840      1.00000
      3       2.7085      1.00000
      4       4.4904      1.00000
      5       4.5039      1.00000
      6      11.3765      0.00000
      7      13.1299      0.00000
      8      16.2457      0.00000
      9      17.0924      0.00000
     10      38.6090      0.00000
     11      41.9128      0.00000
     12      42.2262      0.00000

 k-point    18 :      -0.1875    0.1875    0.1875
  band No.  band energies     occupation 
      1      -0.2819      1.00000
      2       3.2178      1.00000
      3       3.2730      1.00000
      4       3.2730      1.00000
      5       3.8024      1.00000
      6       4.7887      0.91377
      7      23.9328      0.00000
      8      24.7442      0.00000
      9      24.7442      0.00000
     10      26.6592      0.00000
     11      35.9649      0.00000
     12      35.9649      0.00000

 k-point    19 :      -0.3125    0.3125    0.1875
  band No.  band energies     occupation 
      1       1.0039      1.00000
      2       2.4998      1.00000
      3       3.1436      1.00000
      4       3.7660      1.00000
      5       4.6308      1.02935
      6       5.6180      0.12023
      7      18.8342      0.00000
      8      22.1746      0.00000
      9      23.4309      0.00000
     10      27.2636      0.00000
     11      35.0211      0.00000
     12      36.7104      0.00000

 k-point    20 :      -0.4375    0.4375    0.1875
  band No.  band energies     occupation 
      1       1.3005      1.00000
      2       2.4356      1.00000
      3       2.9577      1.00000
      4       3.9675      1.00000
      5       5.4270      0.41066
      6       8.0582     -0.01161
      7      13.8137      0.00000
      8      20.5964      0.00000
      9      22.6020      0.00000
     10      29.7876      0.00000
     11      34.1070      0.00000
     12      34.7042      0.00000

 k-point    21 :      -0.3125    0.4375    0.1875
  band No.  band energies     occupation 
      1       1.5999      1.00000
      2       1.9098      1.00000
      3       3.2200      1.00000
      4       4.1390      1.00000
      5       5.0287      1.06236
      6       7.9238     -0.01555
      7      16.7410      0.00000
      8      17.3106      0.00000
      9      24.8366      0.00000
     10      26.2678      0.00000
     11      33.7416      0.00000
     12      36.5242      0.00000

 k-point    22 :      -0.4375   -0.4375    0.1875
  band No.  band energies     occupation 
      1       1.5633      1.00000
      2       1.9182      1.00000
      3       3.0366      1.00000
      4       4.4305      1.00000
      5       5.2468      0.85860
      6      10.8804      0.00000
      7      12.9860      0.00000
      8      16.3564      0.00000
      9      24.8337      0.00000
     10      27.9706      0.00000
     11      31.1889      0.00000
     12      35.5549      0.00000

 k-point    23 :      -0.3125    0.3125    0.3125
  band No.  band energies     occupation 
      1       1.3951      1.00000
      2       1.8683      1.00000
      3       4.0025      1.00000
      4       4.0025      1.00000
      5       4.6641      1.15330
      6       7.3067     -0.02262
      7      19.3047      0.00000
      8      19.3047      0.00000
      9      21.6031      0.00000
     10      23.5381      0.00000
     11      34.9859      0.00000
     12      39.8558      0.00000

 k-point    24 :      -0.4375    0.4375    0.3125
  band No.  band energies     occupation 
      1       1.3115      1.00000
      2       1.4370      1.00000
      3       4.1325      1.00000
      4       4.3979      1.00000
      5       5.3215      0.41516
      6      10.3654      0.00000
      7      15.0085      0.00000
      8      17.5409      0.00000
      9      21.7426      0.00000
     10      24.5725      0.00000
     11      30.3554      0.00000
     12      39.3481      0.00000

 k-point    25 :      -0.4375   -0.4375    0.3125
  band No.  band energies     occupation 
      1       1.1809      1.00000
      2       1.1809      1.00000
      3       4.2331      1.00000
      4       5.1764      1.00000
      5       5.1764      1.17181
      6      13.7036      0.00000
      7      13.7036      0.00000
      8      14.7752      0.00000
      9      23.2111      0.00000
     10      23.2111      0.00000
     11      27.8020      0.00000
     12      39.8765      0.00000

 k-point    26 :      -0.4375    0.4375    0.4375
  band No.  band energies     occupation 
      1       0.9339      1.00000
      2       0.9342      1.00000
      3       5.1382      1.00000
      4       5.1382      1.00000
      5       5.2883      0.41936
      6      13.1129      0.00000
      7      15.5904      0.00000
      8      15.5904      0.00000
      9      20.7098      0.00000
     10      21.8498      0.00000
     11      26.3091      0.00000
     12      43.0984      0.00000

 spin component 2

 k-point     1 :       0.0625    0.0625    0.0625
  band No.  band energies     occupation 
      1      -1.7475      1.00000
      2       4.9124      1.00000
      3       4.9124      1.00000
      4       5.7649     -0.02394
      5       6.9657      0.00000
      6       6.9657      0.00000
      7      26.4334      0.00000
      8      26.4334      0.00000
      9      30.4989      0.00000
     10      30.6638      0.00000
     11      35.8048      0.00000
     12      35.8048      0.00000

 k-point     2 :       0.1875    0.0625    0.0625
  band No.  band energies     occupation 
      1      -0.1026      1.00000
      2       4.4408      1.00000
      3       4.5970      1.00000
      4       6.7707     -0.00006
      5       6.8251      0.00000
      6       7.1149      0.00000
      7      21.4392      0.00000
      8      24.2329      0.00000
      9      26.7859      0.00000
     10      30.9917      0.00000
     11      35.4410      0.00000
     12      36.3857      0.00000

 k-point     3 :       0.3125    0.0625    0.0625
  band No.  band energies     occupation 
      1       1.7062      1.00000
      2       4.0343      1.00000
      3       4.6812      1.01589
      4       6.9139      0.00000
      5       7.2476      0.00000
      6       8.0052      0.00000
      7      16.4034      0.00000
      8      22.5566      0.00000
      9      24.4305      0.00000
     10      30.6673      0.00000
     11      34.7409      0.00000
     12      39.6140      0.00000

 k-point     4 :       0.4375    0.0625    0.0625
  band No.  band energies     occupation 
      1       2.2156      1.00000
      2       3.8786      1.00000
      3       5.4056      0.74105
      4       6.9822      0.00000
      5       7.3047      0.00000
      6       8.8337      0.00000
      7      13.7425      0.00000
      8      21.9284      0.00000
      9      23.5384      0.00000
     10      30.4984      0.00000
     11      34.6507      0.00000
     12      39.4131      0.00000

 k-point     5 :      -0.0625    0.0625    0.0625
  band No.  band energies     occupation 
      1      -2.3534      1.00000
      2       5.1406      1.00000
      3       5.1406      1.00000
      4       5.2452      0.16675
      5       6.8848      0.00000
      6       7.1254      0.00000
      7      28.1012      0.00000
      8      29.4001      0.00000
      9      29.4001      0.00000
     10      32.7881      0.00000
     11      35.1687      0.00000
     12      35.1687      0.00000

 k-point     6 :       0.1875    0.1875    0.0625
  band No.  band energies     occupation 
      1       1.6639      1.00000
      2       4.0546      1.00000
      3       4.1573      1.00025
      4       6.8991      0.00000
      5       7.2414      0.00000
      6       8.1883      0.00000
      7      19.0877      0.00000
      8      19.7829      0.00000
      9      23.5298      0.00000
     10      32.8713      0.00000
     11      36.7254      0.00000
     12      39.0607      0.00000

 k-point     7 :       0.3125    0.1875    0.0625
  band No.  band energies     occupation 
      1       2.8044      1.00000
      2       3.8270      1.00000
      3       4.3643      1.00876
      4       7.0330      0.00000
      5       7.3090      0.00000
      6      10.0519      0.00000
      7      14.8391      0.00000
      8      18.2685      0.00000
      9      22.2525      0.00000
     10      33.3258      0.00000
     11      37.5985      0.00000
     12      39.7424      0.00000

 k-point     8 :      -0.1875    0.1875    0.0625
  band No.  band energies     occupation 
      1      -1.1689      1.00000
      2       4.8332      1.00000
      3       5.0202      1.00000
      4       5.8866     -0.00827
      5       6.5458      0.00000
      6       7.2272      0.00000
      7      24.1162      0.00000
      8      27.1883      0.00000
      9      28.2220      0.00000
     10      32.2083      0.00000
     11      32.4656      0.00000
     12      33.8612      0.00000

 k-point     9 :       0.3125    0.3125    0.0625
  band No.  band energies     occupation 
      1       3.3702      1.00000
      2       3.9343      1.00000
      3       3.9343      1.00030
      4       7.2015      0.00000
      5       7.2015      0.00000
      6      13.0963      0.00000
      7      13.0963      0.00000
      8      15.3232      0.00000
      9      21.8133      0.00000
     10      35.6842      0.00000
     11      35.6842      0.00000
     12      43.2057      0.00000

 k-point    10 :      -0.3125    0.3125    0.0625
  band No.  band energies     occupation 
      1       0.7538      1.00000
      2       4.3823      1.00000
      3       4.7474      1.00612
      4       6.6059      0.00000
      5       6.9594      0.00000
      6       7.3394      0.00000
      7      18.7645      0.00000
      8      24.8382      0.00000
      9      26.2878      0.00000
     10      30.5935      0.00000
     11      32.4577      0.00000
     12      35.1237      0.00000

 k-point    11 :      -0.1875    0.3125    0.0625
  band No.  band energies     occupation 
      1       0.3872      1.00000
      2       4.6212      1.00000
      3       4.7258      1.00163
      4       6.2797     -0.00004
      5       6.7060      0.00000
      6       7.4449      0.00000
      7      21.5359      0.00000
      8      22.4200      0.00000
      9      28.5592      0.00000
     10      28.9641      0.00000
     11      32.5804      0.00000
     12      37.0634      0.00000

 k-point    12 :      -0.4375    0.4375    0.0625
  band No.  band energies     occupation 
      1       1.9958      1.00000
      2       4.0789      1.00000
      3       5.2794      0.89860
      4       6.8081      0.00000
      5       7.6917      0.00000
      6       7.8429      0.00000
      7      14.5038      0.00000
      8      23.4700      0.00000
      9      24.6635      0.00000
     10      29.9351      0.00000
     11      32.7573      0.00000
     12      36.6877      0.00000

 k-point    13 :      -0.3125    0.4375    0.0625
  band No.  band energies     occupation 
      1       2.1074      1.00000
      2       4.1894      1.00000
      3       4.5650      1.01159
      4       6.5212      0.00000
      5       7.3425      0.00000
      6       8.3944      0.00000
      7      16.7346      0.00000
      8      20.2803      0.00000
      9      26.4888      0.00000
     10      29.6468      0.00000
     11      33.1515      0.00000
     12      37.6549      0.00000

 k-point    14 :      -0.4375   -0.4375    0.0625
  band No.  band energies     occupation 
      1       2.6223      1.00000
      2       4.1872      1.00000
      3       4.6325      1.01813
      4       6.6703      0.00000
      5       7.5624      0.00000
      6       9.7370      0.00000
      7      13.7809      0.00000
      8      19.5882      0.00000
      9      25.6405      0.00000
     10      30.0443      0.00000
     11      33.9508      0.00000
     12      37.0584      0.00000

 k-point    15 :      -0.3125   -0.4375    0.0625
  band No.  band energies     occupation 
      1       3.3000      1.00000
      2       3.8046      1.00000
      3       4.2835      1.00647
      4       6.8008      0.00000
      5       7.2627      0.00000
      6      10.9668      0.00000
      7      14.9394      0.00000
      8      16.0451      0.00000
      9      26.9713      0.00000
     10      29.9149      0.00000
     11      32.0666      0.00000
     12      39.4842      0.00000

 k-point    16 :       0.1875    0.1875    0.1875
  band No.  band energies     occupation 
      1       3.1660      1.00000
      2       3.7518      1.00000
      3       3.7518      1.00035
      4       7.2386      0.00000
      5       7.2386      0.00000
      6      10.1307      0.00000
      7      17.5095      0.00000
      8      17.5095      0.00000
      9      18.6436      0.00000
     10      37.2991      0.00000
     11      40.2681      0.00000
     12      40.2681      0.00000

 k-point    17 :       0.3125    0.1875    0.1875
  band No.  band energies     occupation 
      1       3.4418      1.00000
      2       3.6660      1.00000
      3       4.0383      1.00054
      4       7.2702      0.00000
      5       7.3361      0.00000
      6      12.4147      0.00000
      7      14.1583      0.00000
      8      16.9635      0.00000
      9      17.7502      0.00000
     10      38.4533      0.00000
     11      41.9000      0.00000
     12      42.5202      0.00000

 k-point    18 :      -0.1875    0.1875    0.1875
  band No.  band energies     occupation 
      1      -0.0841      1.00000
      2       5.2329      1.00000
      3       5.2329      0.96575
      4       5.6412      0.00003
      5       5.9130      0.00000
      6       7.5211      0.00000
      7      24.2052      0.00000
      8      25.3044      0.00000
      9      25.3044      0.00000
     10      27.0291      0.00000
     11      36.2076      0.00000
     12      36.2076      0.00000

 k-point    19 :      -0.3125    0.3125    0.1875
  band No.  band energies     occupation 
      1       1.6078      1.00000
      2       4.5407      1.00000
      3       5.0721      0.93193
      4       5.8968      0.00000
      5       6.8343      0.00000
      6       7.9167      0.00000
      7      19.5551      0.00000
      8      22.7745      0.00000
      9      23.8095      0.00000
     10      27.6416      0.00000
     11      35.4257      0.00000
     12      37.0543      0.00000

 k-point    20 :      -0.4375    0.4375    0.1875
  band No.  band energies     occupation 
      1       2.7173      1.00000
      2       4.1295      1.00000
      3       4.8508      0.95741
      4       6.2226      0.00000
      5       7.7550      0.00000
      6       9.4194      0.00000
      7      14.8698      0.00000
      8      21.1453      0.00000
      9      23.0059      0.00000
     10      30.0276      0.00000
     11      34.5349      0.00000
     12      35.2644      0.00000

 k-point    21 :      -0.3125    0.4375    0.1875
  band No.  band energies     occupation 
      1       2.8295      1.00000
      2       3.8475      1.00000
      3       5.1390      0.78245
      4       6.2765      0.00000
      5       7.3223      0.00000
      6       9.4383      0.00000
      7      17.5506      0.00000
      8      17.9799      0.00000
      9      25.2312      0.00000
     10      26.6587      0.00000
     11      34.2011      0.00000
     12      37.1840      0.00000

 k-point    22 :      -0.4375   -0.4375    0.1875
  band No.  band energies     occupation 
      1       3.2872      1.00000
      2       3.6309      1.00000
      3       4.8827      0.84898
      4       6.6249      0.00000
      5       7.5501      0.00000
      6      11.8885      0.00000
      7      14.0292      0.00000
      8      17.0452      0.00000
      9      25.2250      0.00000
     10      28.2064      0.00000
     11      31.8725      0.00000
     12      36.1774      0.00000

 k-point    23 :      -0.3125    0.3125    0.3125
  band No.  band energies     occupation 
      1       2.5663      1.00000
      2       3.9337      1.00000
      3       6.0022     -0.13548
      4       6.0022      0.00000
      5       6.8893      0.00000
      6       8.8993      0.00000
      7      19.8716      0.00000
      8      19.8716      0.00000
      9      22.2773      0.00000
     10      24.0500      0.00000
     11      35.6736      0.00000
     12      40.2480      0.00000

 k-point    24 :      -0.4375    0.4375    0.3125
  band No.  band energies     occupation 
      1       3.0012      1.00000
      2       3.2960      1.00000
      3       6.1755     -0.07505
      4       6.4646      0.00000
      5       7.6338      0.00000
      6      11.3280      0.00000
      7      15.7311      0.00000
      8      18.0120      0.00000
      9      22.4320      0.00000
     10      25.0449      0.00000
     11      31.1964      0.00000
     12      39.7045      0.00000

 k-point    25 :      -0.4375   -0.4375    0.3125
  band No.  band energies     occupation 
      1       2.9990      1.00000
      2       2.9990      1.00000
      3       6.2535     -0.05221
      4       7.4352      0.00000
      5       7.4352      0.00000
      6      14.3679      0.00000
      7      14.3679      0.00000
      8      15.3506      0.00000
      9      23.7617      0.00000
     10      23.7617      0.00000
     11      28.7947      0.00000
     12      40.2259      0.00000

 k-point    26 :      -0.4375    0.4375    0.4375
  band No.  band energies     occupation 
      1       2.7285      1.00000
      2       2.7900      1.00000
      3       7.3805     -0.00642
      4       7.3805      0.00000
      5       7.6020      0.00000
      6      13.6222      0.00000
      7      15.8963      0.00000
      8      15.8963      0.00000
      9      21.6111      0.00000
     10      22.5851      0.00000
     11      27.3278      0.00000
     12      43.3113      0.00000


--------------------------------------------------------------------------------------------------------


 soft charge-density along one line, spin component           1
         0         1         2         3         4         5         6         7         8         9
 total charge-density along one line
 
 soft charge-density along one line, spin component           2
         0         1         2         3         4         5         6         7         8         9
 total charge-density along one line
 
 pseudopotential strength for first ion, spin component:           1
 -5.893  -0.000  -0.000  -0.000  -0.000  -6.415  -0.000  -0.000
 -0.000  -5.893   0.000  -0.000  -0.000  -0.000  -6.415   0.000
 -0.000   0.000  -6.052   0.000  -0.000  -0.000   0.000  -6.570
 -0.000  -0.000   0.000  -5.893   0.000  -0.000  -0.000   0.000
 -0.000  -0.000  -0.000   0.000  -6.052  -0.000  -0.000  -0.000
 -6.415  -0.000  -0.000  -0.000  -0.000  -6.896  -0.000  -0.000
 -0.000  -6.415   0.000  -0.000  -0.000  -0.000  -6.896   0.000
 -0.000   0.000  -6.570   0.000  -0.000  -0.000   0.000  -7.046
 -0.000  -0.000   0.000  -6.415   0.000  -0.000  -0.000   0.000
 -0.000  -0.000  -0.000   0.000  -6.570  -0.000  -0.000  -0.000
  0.000   0.000  -0.000   0.000  -0.000   0.000   0.000  -0.000
  0.000   0.000  -0.000   0.000  -0.000   0.000   0.000  -0.000
 -0.000  -0.000   0.000   0.000   0.000  -0.000  -0.000   0.000
  0.000  -0.000  -0.000  -0.000   0.000   0.000  -0.000  -0.000
 -0.000   0.000   0.000  -0.000  -0.000  -0.000   0.000   0.000
 -0.000  -0.000   0.000   0.000   0.000  -0.000  -0.000   0.000
  0.000  -0.000  -0.000  -0.000   0.000   0.000  -0.000  -0.000
 -0.000   0.000   0.000  -0.000  -0.000  -0.000   0.000   0.000
 pseudopotential strength for first ion, spin component:           2
 -4.352  -0.000   0.000  -0.000  -0.000  -4.923  -0.000   0.000
 -0.000  -4.352  -0.000  -0.000   0.000  -0.000  -4.923  -0.000
  0.000  -0.000  -4.149  -0.000   0.000   0.000  -0.000  -4.724
 -0.000  -0.000  -0.000  -4.352  -0.000  -0.000  -0.000  -0.000
 -0.000   0.000   0.000  -0.000  -4.149  -0.000   0.000   0.000
 -4.923  -0.000   0.000  -0.000  -0.000  -5.451  -0.000   0.000
 -0.000  -4.923  -0.000  -0.000   0.000  -0.000  -5.451  -0.000
  0.000  -0.000  -4.724  -0.000   0.000   0.000  -0.000  -5.256
 -0.000  -0.000  -0.000  -4.923  -0.000  -0.000  -0.000  -0.000
 -0.000   0.000   0.000  -0.000  -4.724  -0.000   0.000   0.000
  0.000   0.000  -0.000   0.000   0.000   0.000   0.000  -0.000
  0.000   0.000  -0.000   0.000   0.000   0.000   0.000  -0.000
 -0.000  -0.000   0.000   0.000   0.000  -0.000  -0.000   0.000
  0.000  -0.000  -0.000  -0.000  -0.000   0.000  -0.000  -0.000
 -0.000   0.000   0.000  -0.000  -0.000  -0.000   0.000   0.000
 -0.000  -0.000   0.000   0.000   0.000  -0.000  -0.000   0.000
  0.000  -0.000  -0.000  -0.000  -0.000   0.000  -0.000  -0.000
 -0.000   0.000   0.000  -0.000  -0.000  -0.000   0.000   0.000
 total augmentation occupancy for first ion, spin component:           1
  2.363   0.000   0.000   0.000  -0.000  -1.262   0.000   0.000  -0.000   0.000  -0.000   0.000   0.000   0.000   0.000   0.000
  0.000   2.363  -0.000   0.000  -0.000   0.000  -1.262   0.000  -0.000  -0.000  -0.000   0.000   0.000   0.000   0.000   0.000
  0.000  -0.000   3.429  -0.000   0.000   0.000   0.000  -2.130   0.000   0.000  -0.000   0.000   0.000   0.000   0.000   0.000
  0.000   0.000  -0.000   2.363   0.000   0.000  -0.000   0.000  -1.262   0.000  -0.000  -0.000   0.000   0.000   0.000   0.000
 -0.000   0.000   0.000   0.000   3.429   0.000   0.000   0.000   0.000  -2.130   0.000   0.000   0.000   0.000   0.000   0.000
 -1.262   0.000   0.000  -0.000  -0.000   1.558   0.000   0.000  -0.000   0.000   0.000   0.000   0.000   0.000   0.000   0.000
  0.000  -1.262   0.000  -0.000   0.000   0.000   1.558   0.000  -0.000   0.000   0.000   0.000   0.000   0.000   0.000   0.000
  0.000  -0.000  -2.130  -0.000   0.000   0.000  -0.000   2.084   0.000   0.000   0.000  -0.000   0.000   0.000   0.000   0.000
 -0.000   0.000   0.000  -1.262  -0.000   0.000   0.000   0.000   1.558   0.000   0.000   0.000   0.000   0.000   0.000   0.000
 -0.000  -0.000   0.000   0.000  -2.130   0.000   0.000   0.000  -0.000   2.084   0.000   0.000   0.000   0.000   0.000   0.000
 -0.000   0.000  -0.000   0.000   0.000   0.000   0.000  -0.000   0.000   0.000   2.303  -0.265   0.000   0.000   0.000   0.000
  0.000  -0.000   0.000  -0.000   0.000   0.000   0.000  -0.000   0.000   0.000  -0.265   0.036   0.000   0.000   0.000   0.000
  0.000   0.000   0.000   0.000   0.000   0.000   0.000   0.000   0.000   0.000   0.000   0.000   0.273   0.000  -0.000  -0.024
  0.000   0.000   0.000   0.000   0.000   0.000   0.000   0.000   0.000   0.000   0.000   0.000   0.000   0.273   0.000   0.000
  0.000   0.000   0.000   0.000   0.000   0.000   0.000   0.000   0.000   0.000   0.000   0.000  -0.000   0.000   0.273  -0.000
  0.000   0.000   0.000   0.000   0.000   0.000   0.000   0.000   0.000   0.000   0.000   0.000  -0.024   0.000  -0.000   0.002
  0.000   0.000   0.000   0.000   0.000   0.000   0.000   0.000   0.000   0.000   0.000   0.000   0.000  -0.024   0.000   0.000
  0.000   0.000   0.000   0.000   0.000   0.000   0.000   0.000   0.000   0.000   0.000   0.000  -0.000   0.000  -0.024  -0.000
 total augmentation occupancy for first ion, spin component:           2
  2.035   0.000   0.000   0.000  -0.000  -0.857  -0.000  -0.000   0.000  -0.000  -0.000   0.000   0.000   0.000   0.000   0.000
  0.000   2.035   0.000   0.000   0.000   0.000  -0.857  -0.000   0.000  -0.000   0.000   0.000   0.000   0.000   0.000   0.000
  0.000   0.000   2.964  -0.000   0.000   0.000   0.000  -1.284   0.000   0.000  -0.000   0.000   0.000   0.000   0.000   0.000
  0.000   0.000  -0.000   2.035  -0.000   0.000   0.000   0.000  -0.857   0.000   0.000   0.000   0.000   0.000   0.000   0.000
  0.000   0.000   0.000  -0.000   2.964   0.000  -0.000   0.000  -0.000  -1.284  -0.000   0.000   0.000   0.000   0.000   0.000
 -0.857   0.000   0.000   0.000   0.000   0.112   0.000   0.000  -0.000   0.000  -0.000   0.000   0.000   0.000   0.000   0.000
 -0.000  -0.857  -0.000   0.000  -0.000  -0.000   0.112  -0.000  -0.000   0.000  -0.000   0.000   0.000   0.000   0.000   0.000
  0.000  -0.000  -1.284   0.000   0.000   0.000   0.000   0.319   0.000  -0.000  -0.000   0.000   0.000   0.000   0.000   0.000
  0.000   0.000   0.000  -0.857   0.000   0.000   0.000   0.000   0.112  -0.000   0.000   0.000   0.000   0.000   0.000   0.000
 -0.000   0.000   0.000   0.000  -1.284  -0.000   0.000  -0.000  -0.000   0.319  -0.000   0.000   0.000   0.000   0.000   0.000
  0.000   0.000   0.000   0.000   0.000   0.000  -0.000   0.000   0.000   0.000  -0.345   0.100   0.000   0.000   0.000   0.000
  0.000  -0.000  -0.000  -0.000  -0.000   0.000   0.000   0.000   0.000  -0.000   0.100  -0.018   0.000   0.000   0.000   0.000
  0.000   0.000   0.000   0.000   0.000   0.000   0.000   0.000   0.000   0.000   0.000   0.000  -0.044   0.000   0.000   0.006
  0.000   0.000   0.000   0.000   0.000   0.000   0.000   0.000   0.000   0.000   0.000   0.000   0.000  -0.044   0.000   0.000
  0.000   0.000   0.000   0.000   0.000   0.000   0.000   0.000   0.000   0.000   0.000   0.000   0.000   0.000  -0.044  -0.000
  0.000   0.000   0.000   0.000   0.000   0.000   0.000   0.000   0.000   0.000   0.000   0.000   0.006   0.000  -0.000  -0.001
  0.000   0.000   0.000   0.000   0.000   0.000   0.000   0.000   0.000   0.000   0.000   0.000   0.000   0.006  -0.000  -0.000
  0.000   0.000   0.000   0.000   0.000   0.000   0.000   0.000   0.000   0.000   0.000   0.000   0.000   0.000   0.006   0.000


------------------------ aborting loop because EDIFF is reached ----------------------------------------


 


 total charge     
 
# of ion     s       p       d       tot
----------------------------------------
  1        0.466   0.502   6.210   7.178
 


 magnetization (x)
 
# of ion     s       p       d       tot
----------------------------------------
  1       -0.018  -0.071   2.345   2.256
 
    CHARGE:  cpu time    0.0200: real time    0.0112
    FORLOC:  cpu time    0.0000: real time    0.0002
    FORNL :  cpu time    0.0550: real time    0.0279
    STRESS:  cpu time    0.2070: real time    0.1037
    FORCOR:  cpu time    0.0400: real time    0.0201
    FORHAR:  cpu time    0.0050: real time    0.0022
    MIXING:  cpu time    0.0020: real time    0.0012
    OFIELD:  cpu time    0.0000: real time    0.0000

  FORCE on cell =-STRESS in cart. coord.  units (eV):
  Direction    XX          YY          ZZ          XY          YZ          ZX
  --------------------------------------------------------------------------------------
  Alpha Z    58.16759    58.16759    58.16759
  Ewald    -194.42712  -194.42712  -194.42712    -0.00000     0.00000     0.00000
  Hartree    32.86166    32.86166    32.86166    -0.00000    -0.00000    -0.00000
  E(xc)     -39.60936   -39.60936   -39.60936    -0.00000    -0.00000    -0.00000
  Local      57.71924    57.71924    57.71924    -0.00002    -0.00002    -0.00002
  n-local   -27.49757   -26.29803   -25.48073     1.07933    -0.68182    -1.32366
  augment    38.80815    38.80815    38.80815     0.00002     0.00002     0.00002
  Kinetic    72.85801    72.13168    71.85904    -2.35181     1.83943     1.17484
  Fock        0.00000     0.00000     0.00000     0.00000     0.00000     0.00000
  -------------------------------------------------------------------------------------
  Total      -0.62237    -0.62237    -0.62237     0.00000    -0.00000     0.00000
  in kB     -83.92211   -83.92211   -83.92211     0.00000    -0.00000     0.00000
  external pressure =      -83.92 kB  Pullay stress =        0.00 kB


 VOLUME and BASIS-vectors are now :
 -----------------------------------------------------------------------------
  energy-cutoff  :      400.00
  volume of cell :       11.88
      direct lattice vectors                 reciprocal lattice vectors
    -1.437500000  1.437500000  1.437500000     0.000000000  0.347826087  0.347826087
     1.437500000 -1.437500000  1.437500000     0.347826087  0.000000000  0.347826087
     1.437500000  1.437500000 -1.437500000     0.347826087  0.347826087  0.000000000

  length of vectors
     2.489823036  2.489823036  2.489823036     0.491900370  0.491900370  0.491900370


 FORCES acting on ions
    electron-ion (+dipol)            ewald-force                    non-local-force                 convergence-correction
 -----------------------------------------------------------------------------------------------
   -.133E-14 0.429E-14 0.101E-14   -.962E-16 -.126E-14 -.139E-14   -.517E-25 -.672E-24 0.569E-24   0.147E-13 0.192E-14 0.720E-15
 -----------------------------------------------------------------------------------------------
   -.133E-14 0.429E-14 0.101E-14   -.962E-16 -.126E-14 -.139E-14   -.517E-25 -.672E-24 0.569E-24   0.147E-13 0.192E-14 0.720E-15
 
 
 POSITION                                       TOTAL-FORCE (eV/Angst)
 -----------------------------------------------------------------------------------
      0.00000      0.00000      0.00000        -0.000000      0.000000     -0.000000
 -----------------------------------------------------------------------------------
    total drift:                                0.000000      0.000000      0.000000


--------------------------------------------------------------------------------------------------------



  FREE ENERGIE OF THE ION-ELECTRON SYSTEM (eV)
  ---------------------------------------------------
  free  energy   TOTEN  =        -8.22551022 eV

  energy  without entropy=       -8.22551022  energy(sigma->0) =       -8.22551022
 


--------------------------------------------------------------------------------------------------------


    POTLOK:  cpu time    0.0700: real time    0.0351


--------------------------------------------------------------------------------------------------------


 writing wavefunctions
     LOOP+:  cpu time   14.6698: real time    7.4547
    4ORBIT:  cpu time    0.0000: real time    0.0000
 


 total charge     
 
# of ion     s       p       d       tot
----------------------------------------
  1        0.466   0.502   6.210   7.178
 


 magnetization (x)
 
# of ion     s       p       d       tot
----------------------------------------
  1       -0.018  -0.071   2.345   2.256
 
 BZINTS: Fermi energy:  5.280684;  8.000000 electrons
         Band energy:  25.832559;  BLOECHL correction: -0.064018

 total amount of memory used by VASP on root node    32763. kBytes
========================================================================

   base      :      30000. kBytes
   nonl-proj :        857. kBytes
   fftplans  :        302. kBytes
   grid      :        954. kBytes
   one-center:         31. kBytes
   wavefun   :        619. kBytes
 
  
  
 General timing and accounting informations for this job:
 ========================================================
  
                  Total CPU time used (sec):       15.335
                            User time (sec):       14.458
                          System time (sec):        0.877
                         Elapsed time (sec):        9.054
  
                   Maximum memory used (kb):       35452.
                   Average memory used (kb):           0.
  
                          Minor page faults:        20687
                          Major page faults:            6
                 Voluntary context switches:          449
