PROCAR lm decomposed
# of k-points:   26         # of bands:  12         # of ions:   1

 k-point    1 :    0.06250000 0.06250000 0.06250000     weight = 0.01562500

band   1 # energy   -1.86001309 # occ.  1.00000000
 
ion      s     py     pz     px    dxy    dyz    dz2    dxz    dx2    tot
  1  0.631  0.020  0.020  0.020  0.002  0.002  0.000  0.002  0.000  0.697
 
band   2 # energy    2.93669388 # occ.  1.00000000
 
ion      s     py     pz     px    dxy    dyz    dz2    dxz    dx2    tot
  1  0.000  0.002  0.001  0.000  0.224  0.101  0.009  0.612  0.015  0.964
 
band   3 # energy    2.93669388 # occ.  1.00000000
 
ion      s     py     pz     px    dxy    dyz    dz2    dxz    dx2    tot
  1  0.000  0.000  0.001  0.002  0.400  0.524  0.015  0.013  0.009  0.964
 
band   4 # energy    3.68903769 # occ.  1.00000000
 
ion      s     py     pz     px    dxy    dyz    dz2    dxz    dx2    tot
  1  0.002  0.003  0.003  0.003  0.320  0.320  0.000  0.320  0.000  0.972
 
band   5 # energy    4.24070962 # occ.  1.00000000
 
ion      s     py     pz     px    dxy    dyz    dz2    dxz    dx2    tot
  1  0.000  0.000  0.000  0.000  0.018  0.004  0.937  0.005  0.004  0.968
 
band   6 # energy    4.24070962 # occ.  1.00337782
 
ion      s     py     pz     px    dxy    dyz    dz2    dxz    dx2    tot
  1  0.000  0.000  0.000  0.000  0.000  0.013  0.004  0.013  0.937  0.968
 
band   7 # energy   26.28486593 # occ.  0.00000000
 
ion      s     py     pz     px    dxy    dyz    dz2    dxz    dx2    tot
  1  0.000  0.068  0.033  0.013  0.075  0.030  0.075  0.155  0.098  0.546
 
band   8 # energy   26.28486593 # occ.  0.00000000
 
ion      s     py     pz     px    dxy    dyz    dz2    dxz    dx2    tot
  1  0.000  0.008  0.043  0.063  0.098  0.143  0.098  0.018  0.075  0.546
 
band   9 # energy   29.82600465 # occ.  0.00000000
 
ion      s     py     pz     px    dxy    dyz    dz2    dxz    dx2    tot
  1  0.079  0.170  0.170  0.170  0.134  0.134  0.000  0.134  0.000  0.992
 
band  10 # energy   30.84222611 # occ.  0.00000000
 
ion      s     py     pz     px    dxy    dyz    dz2    dxz    dx2    tot
  1  0.000  0.000  0.000  0.000  0.000  0.000  0.000  0.000  0.000  0.000
 
band  11 # energy   35.50520556 # occ.  0.00000000
 
ion      s     py     pz     px    dxy    dyz    dz2    dxz    dx2    tot
  1  0.000  0.216  0.017  0.113  0.003  0.022  0.002  0.042  0.023  0.439
 
band  12 # energy   35.50520556 # occ.  0.00000000
 
ion      s     py     pz     px    dxy    dyz    dz2    dxz    dx2    tot
  1  0.000  0.015  0.214  0.118  0.041  0.023  0.023  0.003  0.002  0.439
 

 k-point    2 :    0.18750000 0.06250000 0.06250000     weight = 0.04687500

band   1 # energy   -0.30566104 # occ.  1.00000000
 
ion      s     py     pz     px    dxy    dyz    dz2    dxz    dx2    tot
  1  0.490  0.060  0.060  0.017  0.007  0.064  0.003  0.007  0.010  0.717
 
band   2 # energy    2.55420466 # occ.  1.00000000
 
ion      s     py     pz     px    dxy    dyz    dz2    dxz    dx2    tot
  1  0.000  0.002  0.002  0.000  0.462  0.000  0.018  0.462  0.006  0.954
 
band   3 # energy    2.75403344 # occ.  1.00000000
 
ion      s     py     pz     px    dxy    dyz    dz2    dxz    dx2    tot
  1  0.012  0.017  0.017  0.002  0.091  0.546  0.038  0.091  0.115  0.930
 
band   4 # energy    4.18269457 # occ.  1.00000000
 
ion      s     py     pz     px    dxy    dyz    dz2    dxz    dx2    tot
  1  0.001  0.000  0.000  0.000  0.016  0.151  0.197  0.016  0.591  0.971
 
band   5 # energy    4.35452122 # occ.  1.00078716
 
ion      s     py     pz     px    dxy    dyz    dz2    dxz    dx2    tot
  1  0.000  0.000  0.000  0.000  0.014  0.000  0.710  0.014  0.237  0.975
 
band   6 # energy    4.65131789 # occ.  0.88731142
 
ion      s     py     pz     px    dxy    dyz    dz2    dxz    dx2    tot
  1  0.014  0.011  0.011  0.010  0.369  0.181  0.000  0.369  0.000  0.965
 
band   7 # energy   20.87183780 # occ.  0.00000000
 
ion      s     py     pz     px    dxy    dyz    dz2    dxz    dx2    tot
  1  0.063  0.118  0.118  0.022  0.008  0.287  0.032  0.008  0.096  0.751
 
band   8 # energy   23.96010158 # occ.  0.00000000
 
ion      s     py     pz     px    dxy    dyz    dz2    dxz    dx2    tot
  1  0.000  0.104  0.104  0.000  0.148  0.000  0.072  0.148  0.024  0.599
 
band   9 # energy   26.07115083 # occ.  0.00000000
 
ion      s     py     pz     px    dxy    dyz    dz2    dxz    dx2    tot
  1  0.125  0.054  0.054  0.388  0.099  0.001  0.009  0.099  0.028  0.858
 
band  10 # energy   31.09568255 # occ.  0.00000000
 
ion      s     py     pz     px    dxy    dyz    dz2    dxz    dx2    tot
  1  0.000  0.003  0.003  0.000  0.173  0.000  0.018  0.173  0.006  0.377
 
band  11 # energy   34.89523833 # occ.  0.00000000
 
ion      s     py     pz     px    dxy    dyz    dz2    dxz    dx2    tot
  1  0.036  0.053  0.053  0.155  0.057  0.065  0.104  0.057  0.312  0.892
 
band  12 # energy   36.17048791 # occ.  0.00000000
 
ion      s     py     pz     px    dxy    dyz    dz2    dxz    dx2    tot
  1  0.000  0.108  0.108  0.000  0.132  0.000  0.005  0.132  0.002  0.487
 

 k-point    3 :    0.31250000 0.06250000 0.06250000     weight = 0.04687500

band   1 # energy    0.83138200 # occ.  1.00000000
 
ion      s     py     pz     px    dxy    dyz    dz2    dxz    dx2    tot
  1  0.202  0.023  0.023  0.015  0.001  0.396  0.042  0.001  0.125  0.828
 
band   2 # energy    2.22577562 # occ.  1.00000000
 
ion      s     py     pz     px    dxy    dyz    dz2    dxz    dx2    tot
  1  0.000  0.003  0.003  0.000  0.467  0.000  0.006  0.467  0.002  0.947
 
band   3 # energy    3.49704252 # occ.  1.00000000
 
ion      s     py     pz     px    dxy    dyz    dz2    dxz    dx2    tot
  1  0.078  0.111  0.111  0.000  0.163  0.086  0.032  0.163  0.095  0.837
 
band   4 # energy    4.31511703 # occ.  1.00000000
 
ion      s     py     pz     px    dxy    dyz    dz2    dxz    dx2    tot
  1  0.002  0.002  0.002  0.001  0.017  0.291  0.161  0.017  0.484  0.978
 
band   5 # energy    4.44420778 # occ.  1.03199500
 
ion      s     py     pz     px    dxy    dyz    dz2    dxz    dx2    tot
  1  0.000  0.000  0.000  0.000  0.005  0.000  0.729  0.005  0.243  0.980
 
band   6 # energy    6.01592926 # occ.  0.01434126
 
ion      s     py     pz     px    dxy    dyz    dz2    dxz    dx2    tot
  1  0.050  0.059  0.059  0.009  0.311  0.116  0.001  0.311  0.003  0.919
 
band   7 # energy   15.46424864 # occ.  0.00000000
 
ion      s     py     pz     px    dxy    dyz    dz2    dxz    dx2    tot
  1  0.222  0.105  0.105  0.012  0.004  0.284  0.021  0.004  0.063  0.821
 
band   8 # energy   22.29505690 # occ.  0.00000000
 
ion      s     py     pz     px    dxy    dyz    dz2    dxz    dx2    tot
  1  0.000  0.130  0.130  0.000  0.137  0.000  0.020  0.137  0.007  0.562
 
band   9 # energy   23.80798575 # occ.  0.00000000
 
ion      s     py     pz     px    dxy    dyz    dz2    dxz    dx2    tot
  1  0.123  0.009  0.009  0.524  0.033  0.013  0.012  0.033  0.035  0.792
 
band  10 # energy   30.51744639 # occ.  0.00000000
 
ion      s     py     pz     px    dxy    dyz    dz2    dxz    dx2    tot
  1  0.000  0.007  0.007  0.000  0.352  0.000  0.006  0.352  0.002  0.726
 
band  11 # energy   34.20928206 # occ.  0.00000000
 
ion      s     py     pz     px    dxy    dyz    dz2    dxz    dx2    tot
  1  0.103  0.021  0.021  0.128  0.015  0.000  0.149  0.015  0.447  0.898
 
band  12 # energy   39.42564947 # occ.  0.00000000
 
ion      s     py     pz     px    dxy    dyz    dz2    dxz    dx2    tot
  1  0.000  0.093  0.098  0.000  0.057  0.000  0.140  0.059  0.047  0.494
 

 k-point    4 :    0.43750000 0.06250000 0.06250000     weight = 0.02343750

band   1 # energy    0.89620043 # occ.  1.00000000
 
ion      s     py     pz     px    dxy    dyz    dz2    dxz    dx2    tot
  1  0.113  0.000  0.000  0.014  0.000  0.492  0.063  0.000  0.188  0.868
 
band   2 # energy    2.09948286 # occ.  1.00000000
 
ion      s     py     pz     px    dxy    dyz    dz2    dxz    dx2    tot
  1  0.000  0.003  0.003  0.000  0.469  0.000  0.000  0.469  0.000  0.945
 
band   3 # energy    4.37362043 # occ.  1.00000000
 
ion      s     py     pz     px    dxy    dyz    dz2    dxz    dx2    tot
  1  0.010  0.000  0.000  0.000  0.000  0.291  0.169  0.000  0.508  0.979
 
band   4 # energy    4.45011636 # occ.  1.00000000
 
ion      s     py     pz     px    dxy    dyz    dz2    dxz    dx2    tot
  1  0.000  0.124  0.124  0.000  0.308  0.000  0.000  0.308  0.000  0.864
 
band   5 # energy    4.48065243 # occ.  1.07887967
 
ion      s     py     pz     px    dxy    dyz    dz2    dxz    dx2    tot
  1  0.000  0.000  0.000  0.000  0.000  0.000  0.738  0.000  0.246  0.983
 
band   6 # energy    7.40051149 # occ. -0.00492338
 
ion      s     py     pz     px    dxy    dyz    dz2    dxz    dx2    tot
  1  0.000  0.205  0.205  0.000  0.196  0.000  0.000  0.196  0.000  0.801
 
band   7 # energy   12.38719362 # occ.  0.00000000
 
ion      s     py     pz     px    dxy    dyz    dz2    dxz    dx2    tot
  1  0.420  0.000  0.000  0.016  0.000  0.364  0.021  0.000  0.062  0.884
 
band   8 # energy   21.68802174 # occ.  0.00000000
 
ion      s     py     pz     px    dxy    dyz    dz2    dxz    dx2    tot
  1  0.000  0.138  0.138  0.000  0.132  0.000  0.000  0.132  0.000  0.540
 
band   9 # energy   22.96486415 # occ.  0.00000000
 
ion      s     py     pz     px    dxy    dyz    dz2    dxz    dx2    tot
  1  0.121  0.000  0.000  0.574  0.000  0.022  0.011  0.000  0.033  0.762
 
band  10 # energy   30.27270724 # occ.  0.00000000
 
ion      s     py     pz     px    dxy    dyz    dz2    dxz    dx2    tot
  1  0.000  0.007  0.007  0.000  0.405  0.000  0.000  0.405  0.000  0.824
 
band  11 # energy   34.09494488 # occ.  0.00000000
 
ion      s     py     pz     px    dxy    dyz    dz2    dxz    dx2    tot
  1  0.140  0.000  0.000  0.119  0.000  0.011  0.168  0.000  0.503  0.942
 
band  12 # energy   39.45119836 # occ.  0.00000000
 
ion      s     py     pz     px    dxy    dyz    dz2    dxz    dx2    tot
  1  0.000  0.034  0.034  0.000  0.006  0.000  0.000  0.006  0.000  0.080
 

 k-point    5 :   -0.06250000 0.06250000 0.06250000     weight = 0.01171875

band   1 # energy   -2.45839816 # occ.  1.00000000
 
ion      s     py     pz     px    dxy    dyz    dz2    dxz    dx2    tot
  1  0.674  0.000  0.000  0.021  0.000  0.000  0.000  0.000  0.000  0.695
 
band   2 # energy    3.12629222 # occ.  1.00000000
 
ion      s     py     pz     px    dxy    dyz    dz2    dxz    dx2    tot
  1  0.000  0.001  0.001  0.000  0.484  0.000  0.000  0.484  0.000  0.971
 
band   3 # energy    3.12629328 # occ.  1.00000000
 
ion      s     py     pz     px    dxy    dyz    dz2    dxz    dx2    tot
  1  0.000  0.001  0.001  0.000  0.484  0.000  0.000  0.484  0.000  0.971
 
band   4 # energy    3.20860328 # occ.  1.00000000
 
ion      s     py     pz     px    dxy    dyz    dz2    dxz    dx2    tot
  1  0.000  0.000  0.000  0.000  0.000  0.973  0.000  0.000  0.000  0.973
 
band   5 # energy    4.17094729 # occ.  1.00000000
 
ion      s     py     pz     px    dxy    dyz    dz2    dxz    dx2    tot
  1  0.000  0.000  0.000  0.000  0.000  0.000  0.723  0.000  0.241  0.964
 
band   6 # energy    4.35553287 # occ.  1.00000000
 
ion      s     py     pz     px    dxy    dyz    dz2    dxz    dx2    tot
  1  0.000  0.000  0.000  0.000  0.000  0.000  0.243  0.000  0.729  0.972
 
band   7 # energy   28.25869027 # occ.  0.00000000
 
ion      s     py     pz     px    dxy    dyz    dz2    dxz    dx2    tot
  1  0.000  0.000  0.000  0.000  0.000  0.000  0.188  0.000  0.063  0.251
 
band   8 # energy   29.55136776 # occ.  0.00000000
 
ion      s     py     pz     px    dxy    dyz    dz2    dxz    dx2    tot
  1  0.000  0.015  0.015  0.000  0.130  0.000  0.000  0.130  0.000  0.290
 
band   9 # energy   29.55137063 # occ.  0.00000000
 
ion      s     py     pz     px    dxy    dyz    dz2    dxz    dx2    tot
  1  0.000  0.015  0.015  0.000  0.130  0.000  0.000  0.130  0.000  0.290
 
band  10 # energy   32.43264364 # occ.  0.00000000
 
ion      s     py     pz     px    dxy    dyz    dz2    dxz    dx2    tot
  1  0.020  0.000  0.000  0.317  0.000  0.000  0.068  0.000  0.203  0.607
 
band  11 # energy   34.42538709 # occ.  0.00000000
 
ion      s     py     pz     px    dxy    dyz    dz2    dxz    dx2    tot
  1  0.000  0.230  0.229  0.000  0.219  0.000  0.000  0.219  0.000  0.897
 
band  12 # energy   34.42538716 # occ.  0.00000000
 
ion      s     py     pz     px    dxy    dyz    dz2    dxz    dx2    tot
  1  0.000  0.229  0.230  0.000  0.219  0.000  0.000  0.219  0.000  0.897
 

 k-point    6 :    0.18750000 0.18750000 0.06250000     weight = 0.04687500

band   1 # energy    1.14173294 # occ.  1.00000000
 
ion      s     py     pz     px    dxy    dyz    dz2    dxz    dx2    tot
  1  0.277  0.042  0.067  0.042  0.000  0.156  0.044  0.156  0.000  0.783
 
band   2 # energy    2.29271725 # occ.  1.00000000
 
ion      s     py     pz     px    dxy    dyz    dz2    dxz    dx2    tot
  1  0.000  0.018  0.000  0.018  0.000  0.345  0.000  0.345  0.196  0.922
 
band   3 # energy    2.47966951 # occ.  1.00000000
 
ion      s     py     pz     px    dxy    dyz    dz2    dxz    dx2    tot
  1  0.028  0.003  0.058  0.003  0.662  0.077  0.007  0.077  0.000  0.916
 
band   4 # energy    4.25810246 # occ.  1.00000000
 
ion      s     py     pz     px    dxy    dyz    dz2    dxz    dx2    tot
  1  0.000  0.001  0.000  0.001  0.000  0.110  0.000  0.110  0.755  0.975
 
band   5 # energy    4.47526476 # occ.  1.00065552
 
ion      s     py     pz     px    dxy    dyz    dz2    dxz    dx2    tot
  1  0.005  0.000  0.001  0.000  0.000  0.033  0.908  0.033  0.000  0.980
 
band   6 # energy    6.20874100 # occ. -0.00471571
 
ion      s     py     pz     px    dxy    dyz    dz2    dxz    dx2    tot
  1  0.067  0.028  0.053  0.028  0.298  0.217  0.018  0.217  0.000  0.926
 
band   7 # energy   18.41789027 # occ.  0.00000000
 
ion      s     py     pz     px    dxy    dyz    dz2    dxz    dx2    tot
  1  0.000  0.162  0.000  0.162  0.000  0.162  0.000  0.162  0.119  0.767
 
band   8 # energy   19.15984556 # occ.  0.00000000
 
ion      s     py     pz     px    dxy    dyz    dz2    dxz    dx2    tot
  1  0.216  0.016  0.249  0.016  0.067  0.088  0.015  0.088  0.000  0.755
 
band   9 # energy   22.97347460 # occ.  0.00000000
 
ion      s     py     pz     px    dxy    dyz    dz2    dxz    dx2    tot
  1  0.135  0.196  0.010  0.196  0.165  0.007  0.028  0.007  0.000  0.745
 
band  10 # energy   32.98139166 # occ.  0.00000000
 
ion      s     py     pz     px    dxy    dyz    dz2    dxz    dx2    tot
  1  0.000  0.014  0.000  0.014  0.000  0.086  0.000  0.086  0.143  0.343
 
band  11 # energy   36.44836826 # occ.  0.00000000
 
ion      s     py     pz     px    dxy    dyz    dz2    dxz    dx2    tot
  1  0.021  0.024  0.034  0.024  0.366  0.157  0.015  0.157  0.000  0.798
 
band  12 # energy   38.79855855 # occ.  0.00000000
 
ion      s     py     pz     px    dxy    dyz    dz2    dxz    dx2    tot
  1  0.000  0.089  0.000  0.089  0.000  0.023  0.000  0.023  0.395  0.620
 

 k-point    7 :    0.31250000 0.18750000 0.06250000     weight = 0.09375000

band   1 # energy    1.49076026 # occ.  1.00000000
 
ion      s     py     pz     px    dxy    dyz    dz2    dxz    dx2    tot
  1  0.081  0.002  0.006  0.041  0.030  0.528  0.056  0.040  0.098  0.881
 
band   2 # energy    2.13540825 # occ.  1.00000000
 
ion      s     py     pz     px    dxy    dyz    dz2    dxz    dx2    tot
  1  0.000  0.019  0.009  0.010  0.323  0.023  0.000  0.472  0.070  0.927
 
band   3 # energy    3.08914523 # occ.  1.00000000
 
ion      s     py     pz     px    dxy    dyz    dz2    dxz    dx2    tot
  1  0.019  0.075  0.105  0.000  0.374  0.009  0.081  0.146  0.061  0.870
 
band   4 # energy    4.38913574 # occ.  1.00000000
 
ion      s     py     pz     px    dxy    dyz    dz2    dxz    dx2    tot
  1  0.002  0.001  0.000  0.002  0.000  0.212  0.053  0.047  0.662  0.979
 
band   5 # energy    4.56597018 # occ.  1.00934205
 
ion      s     py     pz     px    dxy    dyz    dz2    dxz    dx2    tot
  1  0.004  0.004  0.005  0.000  0.055  0.013  0.764  0.080  0.056  0.981
 
band   6 # energy    8.61478352 # occ. -0.00371444
 
ion      s     py     pz     px    dxy    dyz    dz2    dxz    dx2    tot
  1  0.074  0.113  0.169  0.018  0.184  0.081  0.030  0.168  0.000  0.838
 
band   7 # energy   13.81730456 # occ.  0.00000000
 
ion      s     py     pz     px    dxy    dyz    dz2    dxz    dx2    tot
  1  0.249  0.114  0.030  0.065  0.014  0.273  0.004  0.017  0.058  0.823
 
band   8 # energy   17.63123881 # occ.  0.00000000
 
ion      s     py     pz     px    dxy    dyz    dz2    dxz    dx2    tot
  1  0.176  0.049  0.098  0.157  0.083  0.003  0.001  0.155  0.027  0.750
 
band   9 # energy   21.73591943 # occ.  0.00000000
 
ion      s     py     pz     px    dxy    dyz    dz2    dxz    dx2    tot
  1  0.124  0.111  0.057  0.231  0.108  0.038  0.008  0.044  0.003  0.725
 
band  10 # energy   33.29482140 # occ.  0.00000000
 
ion      s     py     pz     px    dxy    dyz    dz2    dxz    dx2    tot
  1  0.008  0.001  0.002  0.028  0.131  0.006  0.014  0.203  0.142  0.534
 
band  11 # energy   37.52740479 # occ.  0.00000000
 
ion      s     py     pz     px    dxy    dyz    dz2    dxz    dx2    tot
  1  0.004  0.063  0.001  0.000  0.154  0.060  0.087  0.010  0.115  0.493
 
band  12 # energy   39.36525526 # occ.  0.00000000
 
ion      s     py     pz     px    dxy    dyz    dz2    dxz    dx2    tot
  1  0.047  0.006  0.004  0.119  0.061  0.000  0.236  0.035  0.288  0.797
 

 k-point    8 :   -0.18750000 0.18750000 0.06250000     weight = 0.04687500

band   1 # energy   -1.30004210 # occ.  1.00000000
 
ion      s     py     pz     px    dxy    dyz    dz2    dxz    dx2    tot
  1  0.585  0.018  0.000  0.076  0.013  0.000  0.006  0.000  0.005  0.701
 
band   2 # energy    2.87729476 # occ.  1.00000000
 
ion      s     py     pz     px    dxy    dyz    dz2    dxz    dx2    tot
  1  0.000  0.000  0.002  0.000  0.000  0.374  0.000  0.588  0.000  0.963
 
band   3 # energy    3.06114862 # occ.  1.00000000
 
ion      s     py     pz     px    dxy    dyz    dz2    dxz    dx2    tot
  1  0.004  0.012  0.000  0.006  0.809  0.000  0.107  0.000  0.011  0.950
 
band   4 # energy    3.78856313 # occ.  1.00000000
 
ion      s     py     pz     px    dxy    dyz    dz2    dxz    dx2    tot
  1  0.000  0.000  0.006  0.000  0.000  0.596  0.000  0.371  0.000  0.972
 
band   5 # energy    3.94705916 # occ.  1.00000000
 
ion      s     py     pz     px    dxy    dyz    dz2    dxz    dx2    tot
  1  0.000  0.000  0.000  0.000  0.125  0.000  0.655  0.000  0.179  0.959
 
band   6 # energy    4.44797757 # occ.  1.01088881
 
ion      s     py     pz     px    dxy    dyz    dz2    dxz    dx2    tot
  1  0.005  0.000  0.000  0.001  0.005  0.000  0.188  0.000  0.777  0.975
 
band   7 # energy   23.73221527 # occ.  0.00000000
 
ion      s     py     pz     px    dxy    dyz    dz2    dxz    dx2    tot
  1  0.029  0.128  0.000  0.060  0.270  0.000  0.185  0.000  0.014  0.686
 
band   8 # energy   27.11079500 # occ.  0.00000000
 
ion      s     py     pz     px    dxy    dyz    dz2    dxz    dx2    tot
  1  0.027  0.001  0.000  0.146  0.045  0.000  0.049  0.000  0.138  0.405
 
band   9 # energy   27.87603007 # occ.  0.00000000
 
ion      s     py     pz     px    dxy    dyz    dz2    dxz    dx2    tot
  1  0.000  0.000  0.221  0.000  0.000  0.019  0.000  0.563  0.000  0.804
 
band  10 # energy   31.82285488 # occ.  0.00000000
 
ion      s     py     pz     px    dxy    dyz    dz2    dxz    dx2    tot
  1  0.001  0.263  0.000  0.075  0.212  0.000  0.121  0.000  0.001  0.673
 
band  11 # energy   31.95071391 # occ.  0.00000000
 
ion      s     py     pz     px    dxy    dyz    dz2    dxz    dx2    tot
  1  0.000  0.000  0.339  0.000  0.000  0.460  0.000  0.002  0.000  0.800
 
band  12 # energy   33.51088679 # occ.  0.00000000
 
ion      s     py     pz     px    dxy    dyz    dz2    dxz    dx2    tot
  1  0.095  0.115  0.000  0.125  0.000  0.000  0.090  0.000  0.008  0.433
 

 k-point    9 :    0.31250000 0.31250000 0.06250000     weight = 0.01562500

band   1 # energy    1.79604948 # occ.  1.00000000
 
ion      s     py     pz     px    dxy    dyz    dz2    dxz    dx2    tot
  1  0.036  0.006  0.006  0.006  0.289  0.289  0.000  0.289  0.000  0.920
 
band   2 # energy    2.47752450 # occ.  1.00000000
 
ion      s     py     pz     px    dxy    dyz    dz2    dxz    dx2    tot
  1  0.000  0.021  0.085  0.021  0.363  0.091  0.216  0.091  0.000  0.887
 
band   3 # energy    2.47752608 # occ.  1.00000000
 
ion      s     py     pz     px    dxy    dyz    dz2    dxz    dx2    tot
  1  0.000  0.063  0.000  0.063  0.000  0.272  0.000  0.272  0.216  0.887
 
band   4 # energy    4.51844364 # occ.  1.00000000
 
ion      s     py     pz     px    dxy    dyz    dz2    dxz    dx2    tot
  1  0.000  0.003  0.000  0.003  0.000  0.121  0.000  0.121  0.732  0.981
 
band   5 # energy    4.51844394 # occ.  1.00000000
 
ion      s     py     pz     px    dxy    dyz    dz2    dxz    dx2    tot
  1  0.000  0.001  0.005  0.001  0.162  0.040  0.732  0.040  0.000  0.981
 
band   6 # energy   12.06799557 # occ.  0.00000000
 
ion      s     py     pz     px    dxy    dyz    dz2    dxz    dx2    tot
  1  0.000  0.070  0.281  0.070  0.213  0.053  0.057  0.053  0.000  0.798
 
band   7 # energy   12.06799785 # occ.  0.00000000
 
ion      s     py     pz     px    dxy    dyz    dz2    dxz    dx2    tot
  1  0.000  0.211  0.000  0.211  0.000  0.159  0.000  0.159  0.057  0.798
 
band   8 # energy   14.42248613 # occ.  0.00000000
 
ion      s     py     pz     px    dxy    dyz    dz2    dxz    dx2    tot
  1  0.585  0.002  0.002  0.002  0.074  0.074  0.000  0.074  0.000  0.811
 
band   9 # energy   21.27566772 # occ.  0.00000000
 
ion      s     py     pz     px    dxy    dyz    dz2    dxz    dx2    tot
  1  0.124  0.127  0.127  0.127  0.079  0.079  0.000  0.079  0.000  0.741
 
band  10 # energy   35.70011858 # occ.  0.00000000
 
ion      s     py     pz     px    dxy    dyz    dz2    dxz    dx2    tot
  1  0.000  0.008  0.032  0.008  0.059  0.015  0.279  0.015  0.000  0.416
 
band  11 # energy   35.70012148 # occ.  0.00000000
 
ion      s     py     pz     px    dxy    dyz    dz2    dxz    dx2    tot
  1  0.000  0.024  0.000  0.024  0.000  0.044  0.000  0.044  0.279  0.416
 
band  12 # energy   42.51058410 # occ.  0.00000000
 
ion      s     py     pz     px    dxy    dyz    dz2    dxz    dx2    tot
  1  0.029  0.054  0.054  0.054  0.346  0.346  0.000  0.346  0.000  1.227
 

 k-point   10 :   -0.31250000 0.31250000 0.06250000     weight = 0.04687500

band   1 # energy    0.31054833 # occ.  1.00000000
 
ion      s     py     pz     px    dxy    dyz    dz2    dxz    dx2    tot
  1  0.354  0.027  0.000  0.088  0.193  0.000  0.090  0.000  0.010  0.763
 
band   2 # energy    2.50603978 # occ.  1.00000000
 
ion      s     py     pz     px    dxy    dyz    dz2    dxz    dx2    tot
  1  0.000  0.000  0.002  0.000  0.000  0.431  0.000  0.521  0.000  0.955
 
band   3 # energy    3.12331927 # occ.  1.00000000
 
ion      s     py     pz     px    dxy    dyz    dz2    dxz    dx2    tot
  1  0.056  0.059  0.000  0.065  0.266  0.000  0.277  0.000  0.148  0.871
 
band   4 # energy    4.13910143 # occ.  1.00000000
 
ion      s     py     pz     px    dxy    dyz    dz2    dxz    dx2    tot
  1  0.001  0.010  0.000  0.010  0.450  0.000  0.478  0.000  0.018  0.967
 
band   5 # energy    4.62238126 # occ.  1.01677413
 
ion      s     py     pz     px    dxy    dyz    dz2    dxz    dx2    tot
  1  0.032  0.009  0.000  0.017  0.007  0.000  0.097  0.000  0.801  0.963
 
band   6 # energy    4.73948368 # occ.  0.71609484
 
ion      s     py     pz     px    dxy    dyz    dz2    dxz    dx2    tot
  1  0.000  0.000  0.008  0.000  0.000  0.537  0.000  0.434  0.000  0.979
 
band   7 # energy   17.99100100 # occ.  0.00000000
 
ion      s     py     pz     px    dxy    dyz    dz2    dxz    dx2    tot
  1  0.142  0.170  0.000  0.093  0.283  0.000  0.109  0.000  0.006  0.802
 
band   8 # energy   24.75582339 # occ.  0.00000000
 
ion      s     py     pz     px    dxy    dyz    dz2    dxz    dx2    tot
  1  0.028  0.058  0.000  0.148  0.003  0.000  0.068  0.000  0.064  0.369
 
band   9 # energy   25.70153458 # occ.  0.00000000
 
ion      s     py     pz     px    dxy    dyz    dz2    dxz    dx2    tot
  1  0.000  0.000  0.476  0.000  0.000  0.012  0.000  0.403  0.000  0.891
 
band  10 # energy   30.16579284 # occ.  0.00000000
 
ion      s     py     pz     px    dxy    dyz    dz2    dxz    dx2    tot
  1  0.000  0.000  0.184  0.000  0.000  0.569  0.000  0.167  0.000  0.921
 
band  11 # energy   31.97858752 # occ.  0.00000000
 
ion      s     py     pz     px    dxy    dyz    dz2    dxz    dx2    tot
  1  0.082  0.226  0.000  0.000  0.013  0.000  0.445  0.000  0.004  0.771
 
band  12 # energy   34.88694726 # occ.  0.00000000
 
ion      s     py     pz     px    dxy    dyz    dz2    dxz    dx2    tot
  1  0.108  0.020  0.000  0.068  0.186  0.000  0.027  0.000  0.110  0.519
 

 k-point   11 :   -0.18750000 0.31250000 0.06250000     weight = 0.04687500

band   1 # energy    0.11763981 # occ.  1.00000000
 
ion      s     py     pz     px    dxy    dyz    dz2    dxz    dx2    tot
  1  0.430  0.012  0.012  0.131  0.038  0.000  0.016  0.038  0.049  0.727
 
band   2 # energy    2.68013959 # occ.  1.00000000
 
ion      s     py     pz     px    dxy    dyz    dz2    dxz    dx2    tot
  1  0.000  0.010  0.010  0.000  0.281  0.000  0.261  0.281  0.087  0.929
 
band   3 # energy    2.86903227 # occ.  1.00000000
 
ion      s     py     pz     px    dxy    dyz    dz2    dxz    dx2    tot
  1  0.009  0.004  0.004  0.018  0.220  0.469  0.000  0.220  0.000  0.946
 
band   4 # energy    3.83060517 # occ.  1.00000000
 
ion      s     py     pz     px    dxy    dyz    dz2    dxz    dx2    tot
  1  0.000  0.002  0.002  0.000  0.186  0.000  0.438  0.186  0.146  0.961
 
band   5 # energy    4.47833122 # occ.  1.00149481
 
ion      s     py     pz     px    dxy    dyz    dz2    dxz    dx2    tot
  1  0.001  0.003  0.003  0.001  0.158  0.332  0.080  0.158  0.241  0.978
 
band   6 # energy    4.81298331 # occ.  0.76842985
 
ion      s     py     pz     px    dxy    dyz    dz2    dxz    dx2    tot
  1  0.045  0.006  0.006  0.022  0.057  0.168  0.149  0.057  0.448  0.958
 
band   7 # energy   20.96800779 # occ.  0.00000000
 
ion      s     py     pz     px    dxy    dyz    dz2    dxz    dx2    tot
  1  0.000  0.128  0.128  0.000  0.132  0.000  0.177  0.132  0.059  0.757
 
band   8 # energy   21.86815817 # occ.  0.00000000
 
ion      s     py     pz     px    dxy    dyz    dz2    dxz    dx2    tot
  1  0.148  0.068  0.068  0.176  0.136  0.016  0.001  0.136  0.004  0.753
 
band   9 # energy   28.37637019 # occ.  0.00000000
 
ion      s     py     pz     px    dxy    dyz    dz2    dxz    dx2    tot
  1  0.000  0.057  0.057  0.000  0.126  0.000  0.192  0.126  0.064  0.623
 
band  10 # energy   28.49967293 # occ.  0.00000000
 
ion      s     py     pz     px    dxy    dyz    dz2    dxz    dx2    tot
  1  0.001  0.222  0.222  0.064  0.015  0.086  0.003  0.015  0.010  0.638
 
band  11 # energy   32.21665977 # occ.  0.00000000
 
ion      s     py     pz     px    dxy    dyz    dz2    dxz    dx2    tot
  1  0.101  0.001  0.001  0.063  0.123  0.328  0.013  0.123  0.038  0.792
 
band  12 # energy   36.77877130 # occ.  0.00000000
 
ion      s     py     pz     px    dxy    dyz    dz2    dxz    dx2    tot
  1  0.000  0.144  0.144  0.000  0.005  0.000  0.096  0.005  0.032  0.427
 

 k-point   12 :   -0.43750000 0.43750000 0.06250000     weight = 0.04687500

band   1 # energy    0.77776572 # occ.  1.00000000
 
ion      s     py     pz     px    dxy    dyz    dz2    dxz    dx2    tot
  1  0.138  0.000  0.000  0.015  0.430  0.000  0.272  0.000  0.001  0.857
 
band   2 # energy    2.25338017 # occ.  1.00000000
 
ion      s     py     pz     px    dxy    dyz    dz2    dxz    dx2    tot
  1  0.000  0.000  0.002  0.000  0.000  0.461  0.000  0.487  0.000  0.950
 
band   3 # energy    3.85617678 # occ.  1.00000000
 
ion      s     py     pz     px    dxy    dyz    dz2    dxz    dx2    tot
  1  0.016  0.056  0.000  0.061  0.003  0.000  0.105  0.000  0.661  0.902
 
band   4 # energy    4.29363319 # occ.  1.00000000
 
ion      s     py     pz     px    dxy    dyz    dz2    dxz    dx2    tot
  1  0.007  0.005  0.000  0.004  0.333  0.000  0.540  0.000  0.085  0.974
 
band   5 # energy    5.50309849 # occ.  0.52461800
 
ion      s     py     pz     px    dxy    dyz    dz2    dxz    dx2    tot
  1  0.000  0.000  0.002  0.000  0.000  0.510  0.000  0.478  0.000  0.990
 
band   6 # energy    5.98025422 # occ.  0.00022431
 
ion      s     py     pz     px    dxy    dyz    dz2    dxz    dx2    tot
  1  0.056  0.190  0.000  0.230  0.064  0.000  0.009  0.000  0.237  0.786
 
band   7 # energy   13.28843913 # occ.  0.00000000
 
ion      s     py     pz     px    dxy    dyz    dz2    dxz    dx2    tot
  1  0.344  0.082  0.000  0.024  0.322  0.000  0.090  0.000  0.003  0.864
 
band   8 # energy   23.41858976 # occ.  0.00000000
 
ion      s     py     pz     px    dxy    dyz    dz2    dxz    dx2    tot
  1  0.026  0.106  0.000  0.132  0.001  0.000  0.067  0.000  0.008  0.339
 
band   9 # energy   24.10728712 # occ.  0.00000000
 
ion      s     py     pz     px    dxy    dyz    dz2    dxz    dx2    tot
  1  0.000  0.000  0.612  0.000  0.000  0.042  0.000  0.164  0.000  0.818
 
band  10 # energy   29.46674190 # occ.  0.00000000
 
ion      s     py     pz     px    dxy    dyz    dz2    dxz    dx2    tot
  1  0.000  0.000  0.116  0.000  0.000  0.531  0.000  0.401  0.000  1.048
 
band  11 # energy   32.20268406 # occ.  0.00000000
 
ion      s     py     pz     px    dxy    dyz    dz2    dxz    dx2    tot