<?xml version="1.0" encoding="ISO-8859-1"?>
<modeling>
 <generator>
  <i name="program" type="string">vasp </i>
  <i name="version" type="string">5.4.1  </i>
  <i name="subversion" type="string">24Jun15 (build Jul 19 2016 16:50:41) complex                          parallel </i>
  <i name="platform" type="string">IFC91_ompi </i>
  <i name="date" type="string">2019 10 17 </i>
  <i name="time" type="string">12:02:41 </i>
 </generator>
 <incar>
  <i type="string" name="SYSTEM"> Fe BCC</i>
  <i type="string" name="PREC">accurate</i>
  <i type="int" name="ISPIN">     2</i>
  <i name="EDIFF">      0.00000100</i>
  <i name="ENMAX">    400.00000000</i>
  <v name="MAGMOM">      4.00000000</v>
  <i type="int" name="ISMEAR">    -5</i>
  <i type="logical" name="LORBIT"> F  </i>
  <v type="int" name="KPOINT_BSE">    -1     0     0     0</v>
 </incar>
 <kpoints>
  <generation param="Monkhorst-Pack">
   <v type="int" name="divisions">       8        8        8 </v>
   <v name="usershift">      0.00000000       0.00000000       0.00000000 </v>
   <v name="genvec1">      0.12500000       0.00000000       0.00000000 </v>
   <v name="genvec2">      0.00000000       0.12500000       0.00000000 </v>
   <v name="genvec3">      0.00000000       0.00000000       0.12500000 </v>
   <v name="shift">      0.50000000       0.50000000       0.50000000 </v>
  </generation>
  <varray name="kpointlist" >
   <v>       0.06250000       0.06250000       0.06250000 </v>
   <v>       0.18750000       0.06250000       0.06250000 </v>
   <v>       0.31250000       0.06250000       0.06250000 </v>
   <v>       0.43750000       0.06250000       0.06250000 </v>
   <v>      -0.06250000       0.06250000       0.06250000 </v>
   <v>       0.18750000       0.18750000       0.06250000 </v>
   <v>       0.31250000       0.18750000       0.06250000 </v>
   <v>      -0.18750000       0.18750000       0.06250000 </v>
   <v>       0.31250000       0.31250000       0.06250000 </v>
   <v>      -0.31250000       0.31250000       0.06250000 </v>
   <v>      -0.18750000       0.31250000       0.06250000 </v>
   <v>      -0.43750000       0.43750000       0.06250000 </v>
   <v>      -0.31250000       0.43750000       0.06250000 </v>
   <v>      -0.43750000      -0.43750000       0.06250000 </v>
   <v>      -0.31250000      -0.43750000       0.06250000 </v>
   <v>       0.18750000       0.18750000       0.18750000 </v>
   <v>       0.31250000       0.18750000       0.18750000 </v>
   <v>      -0.18750000       0.18750000       0.18750000 </v>
   <v>      -0.31250000       0.31250000       0.18750000 </v>
   <v>      -0.43750000       0.43750000       0.18750000 </v>
   <v>      -0.31250000       0.43750000       0.18750000 </v>
   <v>      -0.43750000      -0.43750000       0.18750000 </v>
   <v>      -0.31250000       0.31250000       0.31250000 </v>
   <v>      -0.43750000       0.43750000       0.31250000 </v>
   <v>      -0.43750000      -0.43750000       0.31250000 </v>
   <v>      -0.43750000       0.43750000       0.43750000 </v>
  </varray>
  <varray name="weights" >
   <v>       0.01562500 </v>
   <v>       0.04687500 </v>
   <v>       0.04687500 </v>
   <v>       0.02343750 </v>
   <v>       0.01171875 </v>
   <v>       0.04687500 </v>
   <v>       0.09375000 </v>
   <v>       0.04687500 </v>
   <v>       0.01562500 </v>
   <v>       0.04687500 </v>
   <v>       0.04687500 </v>
   <v>       0.04687500 </v>
   <v>       0.09375000 </v>
   <v>       0.04687500 </v>
   <v>       0.04687500 </v>
   <v>       0.01562500 </v>
   <v>       0.02343750 </v>
   <v>       0.01171875 </v>
   <v>       0.04687500 </v>
   <v>       0.04687500 </v>
   <v>       0.04687500 </v>
   <v>       0.04687500 </v>
   <v>       0.01171875 </v>
   <v>       0.04687500 </v>
   <v>       0.01562500 </v>
   <v>       0.01171875 </v>
  </varray>
  <varray name="tetrahedronlist"  type="int" >
   <v type="int" >        4        1        2        2        6 </v>
   <v type="int" >        8        2        2        6        6 </v>
   <v type="int" >        4        2        6        6       16 </v>
   <v type="int" >        4        2        3        6        7 </v>
   <v type="int" >        4        2        6        6        7 </v>
   <v type="int" >       12        6        6        7       16 </v>
   <v type="int" >        8        3        6        7        7 </v>
   <v type="int" >        8        6        7        7       17 </v>
   <v type="int" >        8        6        7       16       17 </v>
   <v type="int" >        4        3        4        7        7 </v>
   <v type="int" >        4        3        7        7        7 </v>
   <v type="int" >       16        7        7        7       17 </v>
   <v type="int" >        8        4        7        7        7 </v>
   <v type="int" >        4        7        7        7       16 </v>
   <v type="int" >       20        7        7       16       17 </v>
   <v type="int" >        4        3        4        6        7 </v>
   <v type="int" >        4        4        6        7        7 </v>
   <v type="int" >       16        6        7        7       16 </v>
   <v type="int" >        8        3        6        6        7 </v>
   <v type="int" >        4        6        6        6        7 </v>
   <v type="int" >        4        2        2        3        6 </v>
   <v type="int" >        8        2        3        6        6 </v>
   <v type="int" >        4        2        6        6        6 </v>
   <v type="int" >        4        2        2        2        6 </v>
   <v type="int" >        8        2        2        6       11 </v>
   <v type="int" >        4        2        6        6       11 </v>
   <v type="int" >       16        1        2        2        8 </v>
   <v type="int" >        4        2        2        2        8 </v>
   <v type="int" >       12        2        2        8       11 </v>
   <v type="int" >       16        1        2        8        8 </v>
   <v type="int" >        4        2        8        8       18 </v>
   <v type="int" >        4        2        8       11       18 </v>
   <v type="int" >       20        1        5        8        8 </v>
   <v type="int" >        4        1        8        8        8 </v>
   <v type="int" >        4        8        8        8       18 </v>
   <v type="int" >        8        5        8        8        8 </v>
   <v type="int" >        4        8        8        8       11 </v>
   <v type="int" >        4        8        8       11       18 </v>
   <v type="int" >        8        1        2        5        8 </v>
   <v type="int" >        8        2        5        8        8 </v>
   <v type="int" >        8        2        8        8       11 </v>
   <v type="int" >        4        2        2        6        8 </v>
   <v type="int" >        4        2        6        8       11 </v>
   <v type="int" >        4        6        7        9       16 </v>
   <v type="int" >       16        7        9       16       17 </v>
   <v type="int" >       12        9       16       17       17 </v>
   <v type="int" >       20        7        7        9       17 </v>
   <v type="int" >       12        7        9       17       17 </v>
   <v type="int" >        8        7        7       17       17 </v>
   <v type="int" >       12        3        6        7       16 </v>
   <v type="int" >        8        3        7        7       16 </v>
   <v type="int" >        8        3        6        6       16 </v>
   <v type="int" >        4        3        6       13       16 </v>
   <v type="int" >        4        3        7       13       16 </v>
   <v type="int" >        4        2        6        6       10 </v>
   <v type="int" >        4        3        6        6       10 </v>
   <v type="int" >        8        3        6       10       13 </v>
   <v type="int" >       12        2        6       10       11 </v>
   <v type="int" >        4        6       10       11       19 </v>
   <v type="int" >        4        6       10       13       19 </v>
   <v type="int" >        4        2        8       11       11 </v>
   <v type="int" >        4        2       10       11       11 </v>
   <v type="int" >        4       10       11       11       19 </v>
   <v type="int" >        8        8       11       11       18 </v>
   <v type="int" >        8       11       11       18       19 </v>
   <v type="int" >        4       11       11       19       19 </v>
   <v type="int" >        4        8        8       10       18 </v>
   <v type="int" >       12        8       10       11       18 </v>
   <v type="int" >       12       10       11       18       19 </v>
   <v type="int" >        4       10       11       13       18 </v>
   <v type="int" >        4       10       13       18       19 </v>
   <v type="int" >        4        2        3        8       11 </v>
   <v type="int" >        4        3        8       10       11 </v>
   <v type="int" >        8        3       10       11       13 </v>
   <v type="int" >       16        2        3        6       11 </v>
   <v type="int" >        4        3        6        7       11 </v>
   <v type="int" >        4        3        7       11       13 </v>
   <v type="int" >        4        4        7        9       17 </v>
   <v type="int" >        8        4        7        7       17 </v>
   <v type="int" >        4        4        7       14       17 </v>
   <v type="int" >        4        3        7        7       12 </v>
   <v type="int" >        8        4        7        7       12 </v>
   <v type="int" >        8        4        7       12       14 </v>
   <v type="int" >        8        3        7       12       13 </v>
   <v type="int" >        4        7       12       13       20 </v>
   <v type="int" >        4        7       12       14       20 </v>
   <v type="int" >        4        3       10       13       13 </v>
   <v type="int" >        4        3       12       13       13 </v>
   <v type="int" >        4       12       13       13       20 </v>
   <v type="int" >        8       10       13       13       19 </v>
   <v type="int" >       12       13       13       19       21 </v>
   <v type="int" >        4       13       13       20       21 </v>
   <v type="int" >        8       10       11       13       19 </v>
   <v type="int" >        8       11       13       19       19 </v>
   <v type="int" >        4       13       19       19       20 </v>
   <v type="int" >        8       13       19       20       21 </v>
   <v type="int" >        4       10       11       12       19 </v>
   <v type="int" >        4       11       12       13       19 </v>
   <v type="int" >        8       12       13       19       20 </v>
   <v type="int" >        8       10       12       13       19 </v>
   <v type="int" >        4       12       13       14       19 </v>
   <v type="int" >        4       12       14       19       20 </v>
   <v type="int" >        4        3        4       10       13 </v>
   <v type="int" >        4        4       10       12       13 </v>
   <v type="int" >       12        4       12       13       14 </v>
   <v type="int" >       12        3        4        7       13 </v>
   <v type="int" >        8        4        7        7       13 </v>
   <v type="int" >       12        4        7       13       14 </v>
   <v type="int" >        4        4       12       14       14 </v>
   <v type="int" >        4       12       14       14       20 </v>
   <v type="int" >        4       14       14       20       22 </v>
   <v type="int" >        4       12       13       15       20 </v>
   <v type="int" >        4       12       14       15       20 </v>
   <v type="int" >        8       14       15       20       22 </v>
   <v type="int" >       12       13       15       20       21 </v>
   <v type="int" >       12       15       20       21       22 </v>
   <v type="int" >        4       15       20       22       22 </v>
   <v type="int" >        4       13       13       14       21 </v>
   <v type="int" >       12       13       14       15       21 </v>
   <v type="int" >       16       14       15       21       22 </v>
   <v type="int" >        8       13       14       20       21 </v>
   <v type="int" >        4       14       20       20       21 </v>
   <v type="int" >       12       14       20       21       22 </v>
   <v type="int" >        4       12       12       13       20 </v>
   <v type="int" >        8       12       13       14       20 </v>
   <v type="int" >        8       12       14       20       20 </v>
   <v type="int" >        8       12       12       14       20 </v>
   <v type="int" >        4       12       13       20       20 </v>
   <v type="int" >       16        3        4       12       14 </v>
   <v type="int" >        8        3       12       12       14 </v>
   <v type="int" >        8        3       12       13       14 </v>
   <v type="int" >       16        3        4        7       14 </v>
   <v type="int" >        4        3        6        7       14 </v>
   <v type="int" >        4        3        6       13       14 </v>
   <v type="int" >        8       14       15       15       22 </v>
   <v type="int" >        8       15       15       22       22 </v>
   <v type="int" >        8       15       21       22       22 </v>
   <v type="int" >       12       13       14       15       22 </v>
   <v type="int" >        4       13       15       15       22 </v>
   <v type="int" >        8       13       15       21       22 </v>
   <v type="int" >       12       13       14       20       22 </v>
   <v type="int" >        4       13       19       20       22 </v>
   <v type="int" >        4       13       19       21       22 </v>
   <v type="int" >        4       10       12       14       20 </v>
   <v type="int" >        4       10       13       14       20 </v>
   <v type="int" >        8       10       13       19       20 </v>
   <v type="int" >        8       10       12       13       20 </v>
   <v type="int" >        4       10       11       13       20 </v>
   <v type="int" >        4       10       11       19       20 </v>
   <v type="int" >        4        2        3       12       13 </v>
   <v type="int" >        4        2       10       12       13 </v>
   <v type="int" >        8        2       10       11       13 </v>
   <v type="int" >       12        2        3        6       13 </v>
   <v type="int" >        4        2        2        6       13 </v>
   <v type="int" >        4        2        2       11       13 </v>
   <v type="int" >        4       11       13       15       21 </v>
   <v type="int" >        8       11       13       19       21 </v>
   <v type="int" >        4       11       18       19       21 </v>
   <v type="int" >        4        8       10       13       19 </v>
   <v type="int" >        4        8       11       13       19 </v>
   <v type="int" >        8        8       11       18       19 </v>
   <v type="int" >        8        8       10       11       19 </v>
   <v type="int" >        4        8        8       11       19 </v>
   <v type="int" >        4        8        8       18       19 </v>
   <v type="int" >        4        1        2       10       11 </v>
   <v type="int" >        4        1        8       10       11 </v>
   <v type="int" >        8        1        8        8       11 </v>
   <v type="int" >        8        1        2        2       11 </v>
   <v type="int" >       12        1        2        8       11 </v>
   <v type="int" >        4        5        8       11       18 </v>
   <v type="int" >        4        5        8        8       18 </v>
   <v type="int" >        4        1        5        8       18 </v>
   <v type="int" >        4        5        5        8        8 </v>
   <v type="int" >       12        1        5        5        8 </v>
   <v type="int" >        6        1        1        5        5 </v>
   <v type="int" >        8        1        1        5        8 </v>
   <v type="int" >        4        1        1        2        8 </v>
   <v type="int" >        4        2        3        6       16 </v>
   <v type="int" >        4        3        7       16       17 </v>
   <v type="int" >       12        7       16       17       17 </v>
   <v type="int" >        8        7       17       17       17 </v>
   <v type="int" >       12        7        7        9       16 </v>
   <v type="int" >        4        6        6        7        7 </v>
   <v type="int" >       16        3        6        7       13 </v>
   <v type="int" >       12        6        7        7       13 </v>
   <v type="int" >        4        3        6        6       11 </v>
   <v type="int" >       12        3        6       11       13 </v>
   <v type="int" >       12        2        3       10       11 </v>
   <v type="int" >        4        3       10       11       19 </v>
   <v type="int" >        4        3       11       13       19 </v>
   <v type="int" >        4        2        8       10       18 </v>
   <v type="int" >        4        2       10       11       18 </v>
   <v type="int" >        4       10       18       19       19 </v>
   <v type="int" >        4        8        8       11       11 </v>
   <v type="int" >        4        8       10       11       11 </v>
   <v type="int" >        4       10       11       11       13 </v>
   <v type="int" >        4       11       11       13       19 </v>
   <v type="int" >        4        2        6        8       10 </v>
   <v type="int" >        4        6        8       10       11 </v>
   <v type="int" >       12        6       10       11       13 </v>
   <v type="int" >        8        2        3        6       10 </v>
   <v type="int" >        4        3        6        7       10 </v>
   <v type="int" >        4        6        7       10       13 </v>
   <v type="int" >        4       16       17       17       17 </v>
   <v type="int" >        4       17       17       17       17 </v>
   <v type="int" >        4        9       17       17       17 </v>
   <v type="int" >        8        7        7       15       17 </v>
   <v type="int" >        8        7        9       15       17 </v>
   <v type="int" >        4        6        7       13       16 </v>
   <v type="int" >        4        7        7       13       16 </v>
   <v type="int" >       12        7        7       13       15 </v>
   <v type="int" >        8        6        7       13       13 </v>
   <v type="int" >        4        7       13       13       21 </v>
   <v type="int" >        4        7       13       15       21 </v>
   <v type="int" >        4        6       11       13       19 </v>
   <v type="int" >        4        6       13       13       19 </v>
   <v type="int" >        4       13       19       19       23 </v>
   <v type="int" >        4       13       19       21       23 </v>
   <v type="int" >        4       11       18       19       19 </v>
   <v type="int" >        4       11       19       19       19 </v>
   <v type="int" >        4       19       19       19       23 </v>
   <v type="int" >        4       18       19       19       19 </v>
   <v type="int" >        4       19       19       19       21 </v>
   <v type="int" >        4       19       19       21       23 </v>
   <v type="int" >        4       11       13       18       19 </v>
   <v type="int" >        4       13       18       19       19 </v>
   <v type="int" >        8       13       19       19       21 </v>
   <v type="int" >       12       11       13       13       19 </v>
   <v type="int" >        4       13       13       15       19 </v>
   <v type="int" >        4       13       15       19       21 </v>
   <v type="int" >        4        6        7       11       13 </v>
   <v type="int" >        4        7       11       13       13 </v>
   <v type="int" >        8        7       13       13       15 </v>
   <v type="int" >        4        7        7        9       13 </v>
   <v type="int" >        4        7        9       13       15 </v>
   <v type="int" >        4        7        9       14       17 </v>
   <v type="int" >       12        7        9       14       15 </v>
   <v type="int" >        4        9       14       15       22 </v>
   <v type="int" >        4        7       13       15       20 </v>
   <v type="int" >        4        7       14       15       20 </v>
   <v type="int" >        4       15       20       21       24 </v>
   <v type="int" >        4       15       20       22       24 </v>
   <v type="int" >        4       13       19       21       21 </v>
   <v type="int" >        4       13       20       21       21 </v>
   <v type="int" >        4       20       21       21       24 </v>
   <v type="int" >        8       19       21       21       23 </v>
   <v type="int" >        8       21       21       23       24 </v>
   <v type="int" >        4       21       21       24       24 </v>
   <v type="int" >        4       19       19       20       23 </v>
   <v type="int" >       12       19       20       21       23 </v>
   <v type="int" >       12       20       21       23       24 </v>
   <v type="int" >        4       20       21       22       23 </v>
   <v type="int" >        4       20       22       23       24 </v>
   <v type="int" >        4       13       14       19       21 </v>
   <v type="int" >        4       14       19       20       21 </v>
   <v type="int" >        4       14       15       15       21 </v>
   <v type="int" >       16        7       13       14       15 </v>
   <v type="int" >        8        7       14       15       15 </v>
   <v type="int" >       16        7        7        9       15 </v>
   <v type="int" >        4        7        7       15       15 </v>
   <v type="int" >        4       14       20       22       22 </v>
   <v type="int" >        8       20       22       22       24 </v>
   <v type="int" >       16       22       22       24       25 </v>
   <v type="int" >       16       20       21       22       24 </v>
   <v type="int" >        8       21       22       24       24 </v>
   <v type="int" >        4       22       24       24       24 </v>
   <v type="int" >       16       22       24       24       25 </v>
   <v type="int" >        4       20       20       21       24 </v>
   <v type="int" >       12       20       22       24       24 </v>
   <v type="int" >        8       20       20       22       24 </v>
   <v type="int" >        4       20       21       24       24 </v>
   <v type="int" >        4       13       20       20       22 </v>
   <v type="int" >        8       13       20       21       22 </v>
   <v type="int" >        4       13       13       15       22 </v>
   <v type="int" >        4       13       13       21       22 </v>
   <v type="int" >        4        6        7       14       15 </v>
   <v type="int" >        4        6       13       14       15 </v>
   <v type="int" >        4        6       13       13       15 </v>
   <v type="int" >        4        6        7        7       15 </v>
   <v type="int" >        4        3        6        7       15 </v>
   <v type="int" >        4        3        6       13       15 </v>
   <v type="int" >        8       21       22       22       25 </v>
   <v type="int" >       12       21       22       24       25 </v>
   <v type="int" >        4       21       23       24       25 </v>
   <v type="int" >        4       19       20       22       24 </v>
   <v type="int" >        4       19       21       22       24 </v>
   <v type="int" >        8       19       21       23       24 </v>
   <v type="int" >        8       19       20       21       24 </v>
   <v type="int" >        4       19       19       21       24 </v>
   <v type="int" >        4       19       19       23       24 </v>
   <v type="int" >        4       11       13       20       21 </v>
   <v type="int" >        4       11       19       20       21 </v>
   <v type="int" >        4       11       19       19       21 </v>
   <v type="int" >        4       11       13       13       21 </v>
   <v type="int" >        4       10       11       13       21 </v>
   <v type="int" >        4       10       11       19       21 </v>
   <v type="int" >        4        2        6       13       13 </v>
   <v type="int" >        4        2       11       13       13 </v>
   <v type="int" >       12        2        3       10       13 </v>
   <v type="int" >        4        2       10       10       13 </v>
   <v type="int" >        4       18       19       21       23 </v>
   <v type="int" >        4       18       19       19       23 </v>
   <v type="int" >        4       11       18       19       23 </v>
   <v type="int" >        4        8       11       19       19 </v>
   <v type="int" >        4        8       18       19       19 </v>
   <v type="int" >        4        2        8       10       19 </v>
   <v type="int" >        4        2        8       11       19 </v>
   <v type="int" >       16        2        8       10       11 </v>
   <v type="int" >        4        8        8       10       11 </v>
   <v type="int" >       12        2        8        8       10 </v>
   <v type="int" >        8        2        8       10       10 </v>
   <v type="int" >        4        8       10       10       11 </v>
   <v type="int" >        4        1        8       11       18 </v>
   <v type="int" >        4        2        8        8        8 </v>
   <v type="int" >        8        2        2        8       10 </v>
   <v type="int" >        4        2        2        3       10 </v>
   <v type="int" >        4        3        4        7       17 </v>
   <v type="int" >        4        4        7       16       17 </v>
   <v type="int" >        4        7        7        7        9 </v>
   <v type="int" >        4        4        7        7       14 </v>
   <v type="int" >        4        7        7        7       14 </v>
   <v type="int" >       12        3        4       12       13 </v>
   <v type="int" >        4        4       12       13       20 </v>
   <v type="int" >        4        4       13       14       20 </v>
   <v type="int" >        4        3       10       12       19 </v>
   <v type="int" >        4        3       12       13       19 </v>
   <v type="int" >        4       12       13       19       21 </v>
   <v type="int" >        4       12       19       20       21 </v>
   <v type="int" >        4       10       13       19       19 </v>
   <v type="int" >        8       13       13       19       20 </v>
   <v type="int" >        4       10       11       13       13 </v>
   <v type="int" >        4       10       12       13       13 </v>
   <v type="int" >        4       12       13       13       14 </v>
   <v type="int" >        4       13       13       14       20 </v>
   <v type="int" >        4        3        7       10       12 </v>
   <v type="int" >        4        7       10       12       13 </v>
   <v type="int" >        8        7       12       13       14 </v>
   <v type="int" >        8        3        4        7       12 </v>
   <v type="int" >        4        7        7       12       14 </v>
   <v type="int" >        4        7        9       15       16 </v>
   <v type="int" >       12        7        9       15       15 </v>
   <v type="int" >        8        7        7       14       15 </v>
   <v type="int" >        4        7       14       15       22 </v>
   <v type="int" >        4        7       15       15       22 </v>
   <v type="int" >        4        7       13       14       21 </v>
   <v type="int" >        4        7       14       15       21 </v>
   <v type="int" >        4       14       20       21       24 </v>
   <v type="int" >        4       14       21       22       24 </v>
   <v type="int" >        4       13       19       20       23 </v>
   <v type="int" >        4       13       20       21       23 </v>
   <v type="int" >        4       20       23       24       24 </v>
   <v type="int" >        4       19       19       21       21 </v>
   <v type="int" >        4       19       20       21       21 </v>
   <v type="int" >        4       20       21       21       22 </v>
   <v type="int" >        4       21       21       22       24 </v>
   <v type="int" >        4       13       15       19       20 </v>
   <v type="int" >        4       15       19       20       21 </v>
   <v type="int" >        8       13       14       15       20 </v>
   <v type="int" >        4       14       15       15       20 </v>
   <v type="int" >        4       15       15       20       22 </v>
   <v type="int" >        4        7        9       13       14 </v>
   <v type="int" >        4        9       13       14       15 </v>
   <v type="int" >        8        9       14       15       15 </v>
   <v type="int" >        8        7        7        9       14 </v>
   <v type="int" >        4        9       15       15       22 </v>
   <v type="int" >        4       15       22       22       25 </v>
   <v type="int" >        4       15       21       22       24 </v>
   <v type="int" >        4       15       22       22       24 </v>
   <v type="int" >        8       22       24       24       26 </v>
   <v type="int" >        8       22       24       25       26 </v>
   <v type="int" >        4       21       23       24       24 </v>
   <v type="int" >        4       21       24       24       24 </v>
   <v type="int" >        8       24       24       24       26 </v>
   <v type="int" >        4       23       24       24       24 </v>
   <v type="int" >        4       24       24       24       25 </v>
   <v type="int" >       20       24       24       25       26 </v>
   <v type="int" >        4       21       22       23       24 </v>
   <v type="int" >        4       22       23       24       24 </v>
   <v type="int" >       12       21       22       22       24 </v>
   <v type="int" >        4       22       22       22       24 </v>
   <v type="int" >        4       15       15       21       22 </v>
   <v type="int" >        4       15       22       22       22 </v>
   <v type="int" >        4       15       15       15       22 </v>
   <v type="int" >        4       14       15       22       22 </v>
   <v type="int" >        4        7       15       15       15 </v>
   <v type="int" >        4        4        7        7       15 </v>
   <v type="int" >        4        4        7       14       15 </v>
   <v type="int" >        4       22       24       25       25 </v>
   <v type="int" >        8       24       25       25       26 </v>
   <v type="int" >        6       25       25       26       26 </v>
   <v type="int" >       12       24       25       26       26 </v>
   <v type="int" >        4       24       24       26       26 </v>
   <v type="int" >        8       21       24       24       25 </v>
   <v type="int" >        4       20       21       22       25 </v>
   <v type="int" >        4       20       21       24       25 </v>
   <v type="int" >        4       13       15       22       22 </v>
   <v type="int" >        4       13       21       22       22 </v>
   <v type="int" >        4       12       13       14       22 </v>
   <v type="int" >        4       12       13       20       22 </v>
   <v type="int" >        4        3        7       14       15 </v>
   <v type="int" >        4        3       13       14       15 </v>
   <v type="int" >        4       23       24       25       26 </v>
   <v type="int" >        4       23       24       24       26 </v>
   <v type="int" >        4       21       23       24       26 </v>
   <v type="int" >        4       19       21       24       24 </v>
   <v type="int" >        4       19       23       24       24 </v>
   <v type="int" >        4       13       19       20       24 </v>
   <v type="int" >        4       13       19       21       24 </v>
   <v type="int" >        4       10       13       20       21 </v>
   <v type="int" >        4       10       19       20       21 </v>
   <v type="int" >        4        3       10       12       20 </v>
   <v type="int" >        4        3       10       13       20 </v>
   <v type="int" >        8        3       10       12       13 </v>
   <v type="int" >        4       10       10       12       13 </v>
   <v type="int" >        8        3       10       10       12 </v>
   <v type="int" >        8        3       10       12       12 </v>
   <v type="int" >        4       10       12       12       13 </v>
   <v type="int" >        4       11       19       21       23 </v>
   <v type="int" >        4        6       11       13       21 </v>
   <v type="int" >        4        2       10       13       19 </v>
   <v type="int" >        4        2       11       13       19 </v>
   <v type="int" >        8        2        6       11       13 </v>
   <v type="int" >        4        2        6        6       13 </v>
   <v type="int" >        4        3       10       10       11 </v>
   <v type="int" >        4        3       11       13       13 </v>
   <v type="int" >        4        2        2        6       10 </v>
   <v type="int" >        4        6       10       12       13 </v>
   <v type="int" >        4        3        6       10       12 </v>
   <v type="int" >        4        2        3        3       10 </v>
   <v type="int" >        4        3        3       10       12 </v>
   <v type="int" >        4        3        3        4       12 </v>
   <v type="int" >        4        3        4        7       16 </v>
   <v type="int" >        4        6        7        7        7 </v>
   <v type="int" >        4        6        6        7       13 </v>
   <v type="int" >        8        3        7        7       14 </v>
   <v type="int" >        8        3        7       13       14 </v>
   <v type="int" >        4        3       12       14       20 </v>
   <v type="int" >        4        3       13       14       20 </v>
   <v type="int" >        4        4       12       12       20 </v>
   <v type="int" >        4        4       12       14       20 </v>
   <v type="int" >        4       12       14       20       22 </v>
   <v type="int" >        4       12       20       20       22 </v>
   <v type="int" >        4       12       13       14       21 </v>
   <v type="int" >        4       12       14       20       21 </v>
   <v type="int" >        4       14       21       22       22 </v>
   <v type="int" >        4       13       13       15       20 </v>
   <v type="int" >        4       14       15       20       20 </v>
   <v type="int" >        4       15       20       20       22 </v>
   <v type="int" >        4       12       13       14       14 </v>
   <v type="int" >        4       13       14       14       20 </v>
   <v type="int" >        2       14       14       20       20 </v>
   <v type="int" >        2       12       12       14       14 </v>
   <v type="int" >        8        4        7       12       12 </v>
   <v type="int" >        4        7       12       12       14 </v>
   <v type="int" >        4        3        6        7       12 </v>
   <v type="int" >        4        6        7       12       13 </v>
   <v type="int" >        4        6        7       15       16 </v>
   <v type="int" >        8        6        7       13       15 </v>
   <v type="int" >        4        6       13       15       21 </v>
   <v type="int" >        4        7       13       14       22 </v>
   <v type="int" >        4        7       13       15       22 </v>
   <v type="int" >        4       13       20       22       24 </v>
   <v type="int" >        4       13       21       22       24 </v>
   <v type="int" >        4       14       20       20       24 </v>
   <v type="int" >        4       14       20       22       24 </v>
   <v type="int" >        4       20       22       24       25 </v>
   <v type="int" >        4       20       24       24       25 </v>
   <v type="int" >        6       22       22       24       24 </v>
   <v type="int" >        4       20       21       22       22 </v>
   <v type="int" >        2       20       20       22       22 </v>
   <v type="int" >        4        7        7       13       14 </v>
   <v type="int" >        4        3        7       13       13 </v>
   <v type="int" >        4       15       21       22       25 </v>
   <v type="int" >        4       21       24       25       26 </v>
   <v type="int" >        4       24       26       26       26 </v>
   <v type="int" >        6       24       24       25       25 </v>
   <v type="int" >        4        4        7       13       15 </v>
   <v type="int" >        4        4       13       14       15 </v>
   <v type="int" >        8        4       12       12       13 </v>
   <v type="int" >        4       25       26       26       26 </v>
   <v type="int" >        2       26       26       26       26 </v>
   <v type="int" >        4        4       12       12       14 </v>
   <v type="int" >        4       12       12       12       14 </v>
   <v type="int" >        8        4       12       12       12 </v>
   <v type="int" >        4        3        4        4       12 </v>
   <v type="int" >        4        4        4       12       12 </v>
   <v type="int" >        4        1        5        8       11 </v>
   <v type="int" >        4        1        2        6       11 </v>
   <v type="int" >        4        2        8       10       13 </v>
   <v type="int" >        4        2        8       11       13 </v>
   <v type="int" >        4        2        3        7       13 </v>
   <v type="int" >        4        2        6        7       13 </v>
   <v type="int" >        4        3       10       12       14 </v>
   <v type="int" >        4        3       10       13       14 </v>
   <v type="int" >        4        3        4        6       13 </v>
   <v type="int" >        4        4        6        7       13 </v>
   <v type="int" >        4        3       10       11       12 </v>
   <v type="int" >        4        3       11       12       13 </v>
   <v type="int" >        4        2        2        3       11 </v>
   <v type="int" >        6        2        2        8        8 </v>
   <v type="int" >        6        1        1        8        8 </v>
   <v type="int" >        4        5        5        5        8 </v>
   <v type="int" >        4        6       11       13       15 </v>
   <v type="int" >        4        6        7        9       15 </v>
   <v type="int" >        4        7       13       15       15 </v>
   <v type="int" >        4        7        7        7       15 </v>
   <v type="int" >        4        7       13       13       14 </v>
   <v type="int" >        4        3        7        7       13 </v>
   <v type="int" >        4        6       10       13       13 </v>
   <v type="int" >        4        2        6       10       10 </v>
   <v type="int" >        4        3        6       10       10 </v>
   <v type="int" >        4        2        2       10       11 </v>
   <v type="int" >        2        2        2       10       10 </v>
   <v type="int" >        4        1        8        8       10 </v>
   <v type="int" >        4        1        2        8       10 </v>
   <v type="int" >        4        2        3        8       10 </v>
   <v type="int" >        4        3        8       10       10 </v>
   <v type="int" >        4        4        7        9       14 </v>
   <v type="int" >        4        7       12       13       15 </v>
   <v type="int" >        4        7       12       14       15 </v>
   <v type="int" >        4        3        7       12       12 </v>
   <v type="int" >        4        3        3       10       13 </v>
   <v type="int" >        4        3        3       12       13 </v>
   <v type="int" >        2        3        3       12       12 </v>
   <v type="int" >        2        3        3       10       10 </v>
   <v type="int" >        4        2       10       10       12 </v>
   <v type="int" >        4        2        3       10       12 </v>
   <v type="int" >        4        3        4       10       12 </v>
   <v type="int" >        4        4       10       12       12 </v>
   <v type="int" >        4        4        4       12       14 </v>
   <v type="int" >        4        3       12       12       12 </v>
   <v type="int" >        4        3        4       12       12 </v>
   <v type="int" >        4        1        5        5        5 </v>
   <v type="int" >        2        5        5        5        5 </v>
  </varray>
  <i name="volumeweight">      0.00032552 </i>
 </kpoints>
 <parameters>
  <separator name="general" >
   <i type="string" name="SYSTEM">Fe BCC</i>
   <i type="logical" name="LCOMPAT"> F  </i>
  </separator>
  <separator name="electronic" >
   <i type="string" name="PREC">accura</i>
   <i name="ENMAX">    400.00000000</i>
   <i name="ENAUG">    511.36800000</i>
   <i name="EDIFF">      0.00000100</i>
   <i type="int" name="IALGO">    38</i>
   <i type="int" name="IWAVPR">    10</i>
   <i type="int" name="NBANDS">    12</i>
   <i name="NELECT">      8.00000000</i>
   <i type="int" name="TURBO">     0</i>
   <i type="int" name="IRESTART">     0</i>
   <i type="int" name="NREBOOT">     0</i>
   <i type="int" name="NMIN">     0</i>
   <i name="EREF">      0.00000000</i>
   <separator name="electronic smearing" >
    <i type="int" name="ISMEAR">    -5</i>
    <i name="SIGMA">      0.20000000</i>
    <i name="KSPACING">      0.50000000</i>
    <i type="logical" name="KGAMMA"> T  </i>
   </separator>
   <separator name="electronic projectors" >
    <i type="logical" name="LREAL"> F  </i>
    <v name="ROPT">      0.00000000</v>
    <i type="int" name="LMAXPAW">  -100</i>
    <i type="int" name="LMAXMIX">     2</i>
    <i type="logical" name="NLSPLINE"> F  </i>
   </separator>
   <separator name="electronic startup" >
    <i type="int" name="ISTART">     0</i>
    <i type="int" name="ICHARG">     2</i>
    <i type="int" name="INIWAV">     1</i>
   </separator>
   <separator name="electronic spin" >
    <i type="int" name="ISPIN">     2</i>
    <i type="logical" name="LNONCOLLINEAR"> F  </i>
    <v name="MAGMOM">      4.00000000</v>
    <i name="NUPDOWN">     -1.00000000</i>
    <i type="logical" name="LSORBIT"> F  </i>
    <v name="SAXIS">      0.00000000      0.00000000      1.00000000</v>
    <i type="logical" name="LSPIRAL"> F  </i>
    <v name="QSPIRAL">      0.00000000      0.00000000      0.00000000</v>
    <i type="logical" name="LZEROZ"> F  </i>
   </separator>
   <separator name="electronic exchange-correlation" >
    <i type="logical" name="LASPH"> F  </i>
    <i type="logical" name="LMETAGGA"> F  </i>
   </separator>
   <separator name="electronic convergence" >
    <i type="int" name="NELM">    60</i>
    <i type="int" name="NELMDL">    -5</i>
    <i type="int" name="NELMIN">     2</i>
    <i name="ENINI">    400.00000000</i>
    <separator name="electronic convergence detail" >
     <i type="logical" name="LDIAG"> T  </i>
     <i type="logical" name="LSUBROT"> F  </i>
     <i name="WEIMIN">      0.00000000</i>
     <i name="EBREAK">      0.00000002</i>
     <i name="DEPER">      0.30000000</i>
     <i type="int" name="NRMM">     4</i>
     <i name="TIME">      0.40000000</i>
    </separator>
   </separator>
   <separator name="electronic mixer" >
    <i name="AMIX">      0.40000000</i>
    <i name="BMIX">      1.00000000</i>
    <i name="AMIN">      0.10000000</i>
    <i name="AMIX_MAG">      1.60000000</i>
    <i name="BMIX_MAG">      1.00000000</i>
    <separator name="electronic mixer details" >
     <i type="int" name="IMIX">     4</i>
     <i type="logical" name="MIXFIRST"> F  </i>
     <i type="int" name="MAXMIX">   -45</i>
     <i name="WC">    100.00000000</i>
     <i type="int" name="INIMIX">     1</i>
     <i type="int" name="MIXPRE">     1</i>
     <i type="int" name="MREMOVE">     5</i>
    </separator>
   </separator>
   <separator name="electronic dipolcorrection" >
    <i type="logical" name="LDIPOL"> F  </i>
    <i type="logical" name="LMONO"> F  </i>
    <i type="int" name="IDIPOL">     0</i>
    <i name="EPSILON">      1.00000000</i>
    <v name="DIPOL">   -100.00000000   -100.00000000   -100.00000000</v>
    <i name="EFIELD">      0.00000000</i>
   </separator>
  </separator>
  <separator name="grids" >
   <i type="int" name="NGX">    16</i>
   <i type="int" name="NGY">    16</i>
   <i type="int" name="NGZ">    16</i>
   <i type="int" name="NGXF">    32</i>
   <i type="int" name="NGYF">    32</i>
   <i type="int" name="NGZF">    32</i>
   <i type="logical" name="ADDGRID"> F  </i>
  </separator>
  <separator name="ionic" >
   <i type="int" name="NSW">     0</i>
   <i type="int" name="IBRION">    -1</i>
   <i type="int" name="ISIF">     2</i>
   <i name="PSTRESS">      0.00000000</i>
   <i name="EDIFFG">      0.00001000</i>
   <i type="int" name="NFREE">     0</i>
   <i name="POTIM">      0.50000000</i>
   <i name="SMASS">     -3.00000000</i>
   <i name="SCALEE">      1.00000000</i>
  </separator>
  <separator name="ionic md" >
   <i name="TEBEG">      0.00010000</i>
   <i name="TEEND">      0.00010000</i>
   <i type="int" name="NBLOCK">     1</i>
   <i type="int" name="KBLOCK">     1</i>
   <i type="int" name="NPACO">   256</i>
   <i name="APACO">     16.00000000</i>
  </separator>
  <separator name="symmetry" >
   <i type="int" name="ISYM">     2</i>
   <i name="SYMPREC">      0.00001000</i>
  </separator>
  <separator name="dos" >
   <i type="logical" name="LORBIT"> F  </i>
   <v name="RWIGS">     -1.00000000</v>
   <i type="int" name="NEDOS">   301</i>
   <i name="EMIN">     10.00000000</i>
   <i name="EMAX">    -10.00000000</i>
   <i name="EFERMI">      0.00000000</i>
  </separator>
  <separator name="writing" >
   <i type="int" name="NWRITE">     2</i>
   <i type="logical" name="LWAVE"> T  </i>
   <i type="logical" name="LCHARG"> T  </i>
   <i type="logical" name="LPARD"> F  </i>
   <i type="logical" name="LVTOT"> F  </i>
   <i type="logical" name="LVHAR"> F  </i>
   <i type="logical" name="LELF"> F  </i>
   <i type="logical" name="LOPTICS"> F  </i>
   <v name="STM">      0.00000000      0.00000000      0.00000000      0.00000000      0.00000000      0.00000000      0.00000000</v>
  </separator>
  <separator name="performance" >
   <i type="int" name="NPAR">     4</i>
   <i type="int" name="NSIM">     4</i>
   <i type="int" name="NBLK">    -1</i>
   <i type="logical" name="LPLANE"> T  </i>
   <i type="logical" name="LSCALAPACK"> F  </i>
   <i type="logical" name="LSCAAWARE"> F  </i>
   <i type="logical" name="LSCALU"> F  </i>
   <i type="logical" name="LASYNC"> F  </i>
   <i type="logical" name="LORBITALREAL"> F  </i>
  </separator>
  <separator name="miscellaneous" >
   <i type="int" name="IDIOT">     3</i>
   <i type="logical" name="LMUSIC"> F  </i>
   <v name="POMASS">     55.84700000</v>
   <v name="DARWINR">      0.00000000</v>
   <v name="DARWINV">      1.00000000</v>
   <i type="logical" name="LCORR"> T  </i>
  </separator>
  <i type="logical" name="GGA_COMPAT"> T  </i>
  <i type="logical" name="LBERRY"> F  </i>
  <i type="int" name="ICORELEVEL">     0</i>
  <i type="logical" name="LDAU"> F  </i>
  <i type="int" name="I_CONSTRAINED_M">     0</i>
  <separator name="electronic exchange-correlation" >
   <i type="string" name="GGA">--</i>
   <i type="int" name="VOSKOWN">     0</i>
   <i type="logical" name="LHFCALC"> F  </i>
   <i type="string" name="PRECFOCK"></i>
   <i type="logical" name="LSYMGRAD"> F  </i>
   <i type="logical" name="LHFONE"> F  </i>
   <i type="logical" name="LRHFCALC"> F  </i>
   <i type="logical" name="LTHOMAS"> F  </i>
   <i type="logical" name="LMODELHF"> F  </i>
   <i name="ENCUT4O">     -1.00000000</i>
   <i type="int" name="EXXOEP">     0</i>
   <i type="int" name="FOURORBIT">     0</i>
   <i name="AEXX">      0.00000000</i>
   <i name="HFALPHA">      0.00000000</i>
   <i name="MCALPHA">      0.00000000</i>
   <i name="ALDAX">      1.00000000</i>
   <i name="AGGAX">      1.00000000</i>
   <i name="ALDAC">      1.00000000</i>
   <i name="AGGAC">      1.00000000</i>
   <i type="int" name="NKREDX">     1</i>
   <i type="int" name="NKREDY">     1</i>
   <i type="int" name="NKREDZ">     1</i>
   <i type="logical" name="SHIFTRED"> F  </i>
   <i type="logical" name="ODDONLY"> F  </i>
   <i type="logical" name="EVENONLY"> F  </i>
   <i type="int" name="LMAXFOCK">     0</i>
   <i type="int" name="NMAXFOCKAE">     0</i>
   <i type="logical" name="LFOCKAEDFT"> F  </i>
   <i name="HFSCREEN">      0.00000000</i>
   <i name="HFSCREENC">      0.00000000</i>
   <i type="int" name="NBANDSGWLOW">     0</i>
  </separator>
  <separator name="vdW DFT" >
   <i type="logical" name="LUSE_VDW"> F  </i>
   <i name="Zab_VDW">     -0.84910000</i>
   <i name="PARAM1">      0.12340000</i>
   <i name="PARAM2">      1.00000000</i>
   <i name="PARAM3">      0.00000000</i>
  </separator>
  <separator name="model GW" >
   <i type="int" name="MODEL_GW">     0</i>
   <i name="MODEL_EPS0">      7.12910156</i>
   <i name="MODEL_ALPHA">      1.00000000</i>
  </separator>
  <separator name="linear response parameters" >
   <i type="logical" name="LEPSILON"> F  </i>
   <i type="logical" name="LRPA"> F  </i>
   <i type="logical" name="LNABLA"> F  </i>
   <i type="logical" name="LVEL"> F  </i>
   <i type="int" name="KINTER">     0</i>
   <i name="CSHIFT">      0.10000000</i>
   <i name="OMEGAMAX">     -1.00000000</i>
   <i name="DEG_THRESHOLD">      0.00200000</i>
  </separator>
  <separator name="orbital magnetization" >
   <i type="logical" name="NUCIND"> F  </i>
   <v name="MAGPOS">      0.00000000      0.00000000      0.00000000</v>
   <i type="logical" name="LNICSALL"> T  </i>
   <i type="logical" name="ORBITALMAG"> F  </i>
   <i type="logical" name="LMAGBLOCH"> F  </i>
   <i type="logical" name="LCHIMAG"> F  </i>
   <i type="logical" name="LGAUGE"> T  </i>
   <i type="int" name="MAGATOM">     0</i>
   <v name="MAGDIPOL">      0.00000000      0.00000000      0.00000000</v>
   <v name="AVECCONST">      0.00000000      0.00000000      0.00000000</v>
  </separator>
  <separator name="response functions" >
   <i type="logical" name="LADDER"> F  </i>
   <i type="logical" name="LFXC"> F  </i>
   <i type="logical" name="LHARTREE"> T  </i>
   <i type="int" name="IBSE">     0</i>
   <v type="int" name="KPOINT">    -1     0     0     0</v>
   <i type="logical" name="LTCTE"> F  </i>
   <i type="logical" name="LTETE"> F  </i>
   <i type="logical" name="LTRIPLET"> F  </i>
   <i type="logical" name="LFXCEPS"> F  </i>
   <i type="logical" name="LFXHEG"> F  </i>
   <i type="int" name="NATURALO">     0</i>
   <i type="logical" name="L2ORDER"> F  </i>
   <i type="logical" name="LUSEW"> F  </i>
   <i name="ENCUTGW">     -2.00000000</i>
   <i name="ENCUTGWSOFT">     -2.00000000</i>
   <i name="ENCUTLF">     -1.00000000</i>
   <i type="int" name="LMAXMP2">    -1</i>
   <i name="SCISSOR">      0.00000000</i>
   <i type="int" name="NOMEGA">     0</i>
   <i type="int" name="NOMEGAR">     0</i>
   <i type="int" name="NBANDSGW">    -1</i>
   <i type="int" name="NBANDSO">    -1</i>
   <i type="int" name="NBANDSV">    -1</i>
   <i type="int" name="NELM">     1</i>
   <i type="int" name="NELMHF">     1</i>
   <i type="int" name="DIM">     3</i>
   <i type="int" name="ANTIRES">     0</i>
   <i name="OMEGAMAX">    -30.00000000</i>
   <i name="OMEGAMIN">    -30.00000000</i>
   <i name="OMEGATL">   -200.00000000</i>
   <i type="int" name="OMEGAGRID">     0</i>
   <i name="CSHIFT">     -0.10000000</i>
   <i type="logical" name="SELFENERGY"> F  </i>
   <i type="logical" name="LSPECTRAL"> F  </i>
   <i type="logical" name="LSPECTRALGW"> F  </i>
   <i type="logical" name="LSINGLES"> F  </i>
   <i type="logical" name="LFERMIGW"> F  </i>
   <i type="logical" name="ODDONLYGW"> F  </i>
   <i type="logical" name="EVENONLYGW"> F  </i>
   <i type="int" name="NKREDLFX">     1</i>
   <i type="int" name="NKREDLFY">     1</i>
   <i type="int" name="NKREDLFZ">     1</i>
   <i type="int" name="MAXMEM">  1800</i>
   <i type="int" name="TELESCOPE">     0</i>
   <i type="int" name="TAUPAR">     1</i>
   <i type="int" name="OMEGAPAR">    -1</i>
   <i name="LAMBDA">      1.00000000</i>
  </separator>
  <separator name="External order field" >
   <i name="OFIELD_KAPPA">      0.00000000</i>
   <v name="OFIELD_K">      0.00000000      0.00000000      0.00000000</v>
   <i name="OFIELD_Q6_NEAR">      0.00000000</i>
   <i name="OFIELD_Q6_FAR">      0.00000000</i>
   <i name="OFIELD_A">      0.00000000</i>
  </separator>
 </parameters>
 <atominfo>
  <atoms>       1 </atoms>
  <types>       1 </types>
  <array name="atoms" >
   <dimension dim="1">ion</dimension>
   <field type="string">element</field>
   <field type="int">atomtype</field>
   <set>
    <rc><c>Fe</c><c>   1</c></rc>
   </set>
  </array>
  <array name="atomtypes" >
   <dimension dim="1">type</dimension>
   <field type="int">atomspertype</field>
   <field type="string">element</field>
   <field>mass</field>
   <field>valence</field>
   <field type="string">pseudopotential</field>
   <set>
    <rc><c>   1</c><c>Fe</c><c>     55.84700000</c><c>      8.00000000</c><c>  PAW_PBE Fe 06Sep2000                  </c></rc>
   </set>
  </array>
 </atominfo>
 <structure name="initialpos" >
  <crystal>
   <varray name="basis" >
    <v>      -1.43750000       1.43750000       1.43750000 </v>
    <v>       1.43750000      -1.43750000       1.43750000 </v>
    <v>       1.43750000       1.43750000      -1.43750000 </v>
   </varray>
   <i name="volume">     11.88183594 </i>
   <varray name="rec_basis" >
    <v>       0.00000000       0.34782609       0.34782609 </v>
    <v>       0.34782609       0.00000000       0.34782609 </v>
    <v>       0.34782609       0.34782609       0.00000000 </v>
   </varray>
  </crystal>
  <varray name="positions" >
   <v>       0.00000000       0.00000000       0.00000000 </v>
  </varray>
 </structure>
 <calculation>
  <scstep>
   <time name="dav">    0.72    0.41</time>
   <time name="total">    0.88    0.49</time>
   <energy>
    <i name="alphaZ">     58.16758989 </i>
    <i name="ewald">   -583.28138704 </i>
    <i name="hartreedc">   -114.98496009 </i>
    <i name="XCdc">      5.87134414 </i>
    <i name="pawpsdc">    552.89180568 </i>
    <i name="pawaedc">   -560.64780826 </i>
    <i name="eentropy">      0.00000000 </i>
    <i name="bandstr">     67.29457949 </i>
    <i name="atom">    594.30652615 </i>
    <i name="e_fr_energy">     19.61768996 </i>
    <i name="e_wo_entrp">     19.61768996 </i>
    <i name="e_0_energy">     19.61768996 </i>
   </energy>
  </scstep>
  <scstep>
   <time name="dav">    0.64    0.32</time>
   <time name="total">    0.74    0.37</time>
   <energy>
    <i name="e_fr_energy">     -8.02143149 </i>
    <i name="e_wo_entrp">     -8.02143149 </i>
    <i name="e_0_energy">     -8.02143149 </i>
   </energy>
  </scstep>
  <scstep>
   <time name="dav">    0.73    0.37</time>
   <time name="total">    0.84    0.42</time>
   <energy>
    <i name="e_fr_energy">     -8.71403905 </i>
    <i name="e_wo_entrp">     -8.71403905 </i>
    <i name="e_0_energy">     -8.71403905 </i>
   </energy>
  </scstep>
  <scstep>
   <time name="dav">    0.67    0.34</time>
   <time name="total">    0.78    0.39</time>
   <energy>
    <i name="e_fr_energy">     -8.71701507 </i>
    <i name="e_wo_entrp">     -8.71701507 </i>
    <i name="e_0_energy">     -8.71701507 </i>
   </energy>
  </scstep>
  <scstep>
   <time name="dav">    1.11    0.56</time>
   <time name="total">    1.26    0.63</time>
   <energy>
    <i name="e_fr_energy">     -8.71703294 </i>
    <i name="e_wo_entrp">     -8.71703294 </i>
    <i name="e_0_energy">     -8.71703294 </i>
   </energy>
  </scstep>
  <scstep>
   <time name="dav">    0.68    0.34</time>
   <time name="total">    0.89    0.44</time>
   <energy>
    <i name="e_fr_energy">     -8.29853568 </i>
    <i name="e_wo_entrp">     -8.29853568 </i>
    <i name="e_0_energy">     -8.29853568 </i>
   </energy>
  </scstep>
  <scstep>
   <time name="dav">    0.71    0.35</time>
   <time name="total">    0.91    0.46</time>
   <energy>
    <i name="e_fr_energy">     -8.23811796 </i>
    <i name="e_wo_entrp">     -8.23811796 </i>
    <i name="e_0_energy">     -8.23811796 </i>
   </energy>
  </scstep>
  <scstep>
   <time name="dav">    0.85    0.43</time>
   <time name="total">    1.07    0.55</time>
   <energy>
    <i name="e_fr_energy">     -8.23056495 </i>
    <i name="e_wo_entrp">     -8.23056495 </i>
    <i name="e_0_energy">     -8.23056495 </i>
   </energy>
  </scstep>
  <scstep>
   <time name="dav">    1.23    0.61</time>
   <time name="total">    1.42    0.71</time>
   <energy>
    <i name="e_fr_energy">     -8.22543831 </i>
    <i name="e_wo_entrp">     -8.22543831 </i>
    <i name="e_0_energy">     -8.22543831 </i>
   </energy>
  </scstep>
  <scstep>
   <time name="dav">    0.69    0.34</time>
   <time name="total">    0.88    0.44</time>
   <energy>
    <i name="e_fr_energy">     -8.22549565 </i>
    <i name="e_wo_entrp">     -8.22549565 </i>
    <i name="e_0_energy">     -8.22549565 </i>
   </energy>
  </scstep>
  <scstep>
   <time name="dav">    0.69    0.34</time>
   <time name="total">    0.88    0.44</time>
   <energy>
    <i name="e_fr_energy">     -8.22549549 </i>
    <i name="e_wo_entrp">     -8.22549549 </i>
    <i name="e_0_energy">     -8.22549549 </i>
   </energy>
  </scstep>
  <scstep>
   <time name="dav">    0.68    0.34</time>
   <time name="total">    0.88    0.44</time>
   <energy>
    <i name="e_fr_energy">     -8.22550061 </i>
    <i name="e_wo_entrp">     -8.22550061 </i>
    <i name="e_0_energy">     -8.22550061 </i>
   </energy>
  </scstep>
  <scstep>
   <time name="dav">    0.42    0.21</time>
   <time name="total">    0.62    0.31</time>
   <energy>
    <i name="e_fr_energy">     -8.22550752 </i>
    <i name="e_wo_entrp">     -8.22550752 </i>
    <i name="e_0_energy">     -8.22550752 </i>
   </energy>
  </scstep>
  <scstep>
   <time name="dav">    0.39    0.20</time>
   <time name="total">    0.62    0.31</time>
   <energy>
    <i name="e_fr_energy">     -8.22551185 </i>
    <i name="e_wo_entrp">     -8.22551185 </i>
    <i name="e_0_energy">     -8.22551185 </i>
   </energy>
  </scstep>
  <scstep>
   <time name="dav">    0.62    0.31</time>
   <time name="total">    0.87    0.44</time>
   <energy>
    <i name="e_fr_energy">     -8.22551021 </i>
    <i name="e_wo_entrp">     -8.22551021 </i>
    <i name="e_0_energy">     -8.22551021 </i>
   </energy>
  </scstep>
  <scstep>
   <time name="dav">    0.39    0.20</time>
   <time name="total">    0.55    0.28</time>
   <energy>
    <i name="alphaZ">     58.16758989 </i>
    <i name="ewald">   -583.28138704 </i>
    <i name="hartreedc">    -98.58492096 </i>
    <i name="XCdc">      4.26832750 </i>
    <i name="pawpsdc">    701.20647772 </i>
    <i name="pawaedc">   -710.14068244 </i>
    <i name="eentropy">      0.00000000 </i>
    <i name="bandstr">     25.83255897 </i>
    <i name="atom">    594.30652615 </i>
    <i name="e_fr_energy">     -8.22551022 </i>
    <i name="e_wo_entrp">     -8.22551022 </i>
    <i name="e_0_energy">     -8.22551022 </i>
   </energy>
  </scstep>
  <structure>
   <crystal>
    <varray name="basis" >
     <v>      -1.43750000       1.43750000       1.43750000 </v>
     <v>       1.43750000      -1.43750000       1.43750000 </v>
     <v>       1.43750000       1.43750000      -1.43750000 </v>
    </varray>
    <i name="volume">     11.88183594 </i>
    <varray name="rec_basis" >
     <v>       0.00000000       0.34782609       0.34782609 </v>
     <v>       0.34782609       0.00000000       0.34782609 </v>
     <v>       0.34782609       0.34782609       0.00000000 </v>
    </varray>
   </crystal>
   <varray name="positions" >
    <v>       0.00000000       0.00000000       0.00000000 </v>
   </varray>
  </structure>
  <varray name="forces" >
   <v>      -0.00000000       0.00000000      -0.00000000 </v>
  </varray>
  <varray name="stress" >
   <v>     -83.92211458      -0.00000000       0.00000000 </v>
   <v>       0.00000000     -83.92211458      -0.00000000 </v>
   <v>       0.00000000      -0.00000000     -83.92211458 </v>
  </varray>
  <energy>
   <i name="e_fr_energy">     -8.22551022 </i>
   <i name="e_wo_entrp">     -8.22551022 </i>
   <i name="e_0_energy">      0.00000000 </i>
  </energy>
  <time name="totalsc">   14.67    7.45</time>
  <eigenvalues>
   <array>
    <dimension dim="1">band</dimension>
    <dimension dim="2">kpoint</dimension>
    <dimension dim="3">spin</dimension>
    <field>eigene</field>
    <field>occ</field>
    <set>
     <set comment="spin 1">
      <set comment="kpoint 1">
       <r>   -1.8600    1.0000 </r>
       <r>    2.9367    1.0000 </r>
       <r>    2.9367    1.0000 </r>
       <r>    3.6890    1.0000 </r>
       <r>    4.2407    1.0000 </r>
       <r>    4.2407    1.0034 </r>
       <r>   26.2849    0.0000 </r>
       <r>   26.2849    0.0000 </r>
       <r>   29.8260    0.0000 </r>
       <r>   30.8422    0.0000 </r>
       <r>   35.5052    0.0000 </r>
       <r>   35.5052    0.0000 </r>
      </set>
      <set comment="kpoint 2">
       <r>   -0.3057    1.0000 </r>
       <r>    2.5542    1.0000 </r>
       <r>    2.7540    1.0000 </r>
       <r>    4.1827    1.0000 </r>
       <r>    4.3545    1.0008 </r>
       <r>    4.6513    0.8873 </r>
       <r>   20.8718    0.0000 </r>
       <r>   23.9601    0.0000 </r>
       <r>   26.0712    0.0000 </r>
       <r>   31.0957    0.0000 </r>
       <r>   34.8952    0.0000 </r>
       <r>   36.1705    0.0000 </r>
      </set>
      <set comment="kpoint 3">
       <r>    0.8314    1.0000 </r>
       <r>    2.2258    1.0000 </r>
       <r>    3.4970    1.0000 </r>
       <r>    4.3151    1.0000 </r>
       <r>    4.4442    1.0320 </r>
       <r>    6.0159    0.0143 </r>
       <r>   15.4642    0.0000 </r>
       <r>   22.2951    0.0000 </r>
       <r>   23.8080    0.0000 </r>
       <r>   30.5174    0.0000 </r>
       <r>   34.2093    0.0000 </r>
       <r>   39.4256    0.0000 </r>
      </set>
      <set comment="kpoint 4">
       <r>    0.8962    1.0000 </r>
       <r>    2.0995    1.0000 </r>
       <r>    4.3736    1.0000 </r>
       <r>    4.4501    1.0000 </r>
       <r>    4.4807    1.0789 </r>
       <r>    7.4005   -0.0049 </r>
       <r>   12.3872    0.0000 </r>
       <r>   21.6880    0.0000 </r>
       <r>   22.9649    0.0000 </r>
       <r>   30.2727    0.0000 </r>
       <r>   34.0949    0.0000 </r>
       <r>   39.4512    0.0000 </r>
      </set>
      <set comment="kpoint 5">
       <r>   -2.4584    1.0000 </r>
       <r>    3.1263    1.0000 </r>
       <r>    3.1263    1.0000 </r>
       <r>    3.2086    1.0000 </r>
       <r>    4.1709    1.0000 </r>
       <r>    4.3555    1.0000 </r>
       <r>   28.2587    0.0000 </r>
       <r>   29.5514    0.0000 </r>
       <r>   29.5514    0.0000 </r>
       <r>   32.4326    0.0000 </r>
       <r>   34.4254    0.0000 </r>
       <r>   34.4254    0.0000 </r>
      </set>
      <set comment="kpoint 6">
       <r>    1.1417    1.0000 </r>
       <r>    2.2927    1.0000 </r>
       <r>    2.4797    1.0000 </r>
       <r>    4.2581    1.0000 </r>
       <r>    4.4753    1.0007 </r>
       <r>    6.2087   -0.0047 </r>
       <r>   18.4179    0.0000 </r>
       <r>   19.1598    0.0000 </r>
       <r>   22.9735    0.0000 </r>
       <r>   32.9814    0.0000 </r>
       <r>   36.4484    0.0000 </r>
       <r>   38.7986    0.0000 </r>
      </set>
      <set comment="kpoint 7">
       <r>    1.4908    1.0000 </r>
       <r>    2.1354    1.0000 </r>
       <r>    3.0891    1.0000 </r>
       <r>    4.3891    1.0000 </r>
       <r>    4.5660    1.0093 </r>
       <r>    8.6148   -0.0037 </r>
       <r>   13.8173    0.0000 </r>
       <r>   17.6312    0.0000 </r>
       <r>   21.7359    0.0000 </r>
       <r>   33.2948    0.0000 </r>
       <r>   37.5274    0.0000 </r>
       <r>   39.3653    0.0000 </r>
      </set>
      <set comment="kpoint 8">
       <r>   -1.3000    1.0000 </r>
       <r>    2.8773    1.0000 </r>
       <r>    3.0611    1.0000 </r>
       <r>    3.7886    1.0000 </r>
       <r>    3.9471    1.0000 </r>
       <r>    4.4480    1.0109 </r>
       <r>   23.7322    0.0000 </r>
       <r>   27.1108    0.0000 </r>
       <r>   27.8760    0.0000 </r>
       <r>   31.8229    0.0000 </r>
       <r>   31.9507    0.0000 </r>
       <r>   33.5109    0.0000 </r>
      </set>
      <set comment="kpoint 9">
       <r>    1.7960    1.0000 </r>
       <r>    2.4775    1.0000 </r>
       <r>    2.4775    1.0000 </r>
       <r>    4.5184    1.0000 </r>
       <r>    4.5184    1.0000 </r>
       <r>   12.0680    0.0000 </r>
       <r>   12.0680    0.0000 </r>
       <r>   14.4225    0.0000 </r>
       <r>   21.2757    0.0000 </r>
       <r>   35.7001    0.0000 </r>
       <r>   35.7001    0.0000 </r>
       <r>   42.5106    0.0000 </r>
      </set>
      <set comment="kpoint 10">
       <r>    0.3105    1.0000 </r>
       <r>    2.5060    1.0000 </r>
       <r>    3.1233    1.0000 </r>
       <r>    4.1391    1.0000 </r>
       <r>    4.6224    1.0168 </r>
       <r>    4.7395    0.7161 </r>
       <r>   17.9910    0.0000 </r>
       <r>   24.7558    0.0000 </r>
       <r>   25.7015    0.0000 </r>
       <r>   30.1658    0.0000 </r>
       <r>   31.9786    0.0000 </r>
       <r>   34.8869    0.0000 </r>
      </set>
      <set comment="kpoint 11">
       <r>    0.1176    1.0000 </r>
       <r>    2.6801    1.0000 </r>
       <r>    2.8690    1.0000 </r>
       <r>    3.8306    1.0000 </r>
       <r>    4.4783    1.0015 </r>
       <r>    4.8130    0.7684 </r>
       <r>   20.9680    0.0000 </r>
       <r>   21.8682    0.0000 </r>
       <r>   28.3764    0.0000 </r>
       <r>   28.4997    0.0000 </r>
       <r>   32.2167    0.0000 </r>
       <r>   36.7788    0.0000 </r>
      </set>
      <set comment="kpoint 12">
       <r>    0.7778    1.0000 </r>
       <r>    2.2534    1.0000 </r>
       <r>    3.8562    1.0000 </r>
       <r>    4.2936    1.0000 </r>
       <r>    5.5031    0.5246 </r>
       <r>    5.9803    0.0002 </r>
       <r>   13.2884    0.0000 </r>
       <r>   23.4186    0.0000 </r>
       <r>   24.1073    0.0000 </r>
       <r>   29.4667    0.0000 </r>
       <r>   32.2027    0.0000 </r>
       <r>   36.6181    0.0000 </r>
      </set>
      <set comment="kpoint 13">
       <r>    1.1622    1.0000 </r>
       <r>    2.3920    1.0000 </r>
       <r>    2.9361    1.0000 </r>
       <r>    4.1124    1.0000 </r>
       <r>    4.8457    1.0245 </r>
       <r>    6.4908   -0.0354 </r>
       <r>   15.8413    0.0000 </r>
       <r>   19.6987    0.0000 </r>
       <r>   26.1762    0.0000 </r>
       <r>   29.3071    0.0000 </r>
       <r>   32.8668    0.0000 </r>
       <r>   37.2669    0.0000 </r>
      </set>
      <set comment="kpoint 14">
       <r>    1.2057    1.0000 </r>
       <r>    2.3819    1.0000 </r>
       <r>    3.1029    1.0000 </r>
       <r>    4.2091    1.0000 </r>
       <r>    5.1798    0.9133 </r>
       <r>    8.4807   -0.0019 </r>
       <r>   12.4968    0.0000 </r>
       <r>   19.0194    0.0000 </r>
       <r>   25.3622    0.0000 </r>
       <r>   29.6162    0.0000 </r>
       <r>   33.8976    0.0000 </r>
       <r>   36.5692    0.0000 </r>
      </set>
      <set comment="kpoint 15">
       <r>    1.8600    1.0000 </r>
       <r>    2.1089    1.0000 </r>
       <r>    2.6181    1.0000 </r>
       <r>    4.3942    1.0000 </r>
       <r>    4.8220    1.0335 </r>
       <r>    9.6573   -0.0006 </r>
       <r>   13.9751    0.0000 </r>
       <r>   15.2321    0.0000 </r>
       <r>   26.5258    0.0000 </r>
       <r>   29.7638    0.0000 </r>
       <r>   31.8983    0.0000 </r>
       <r>   38.6547    0.0000 </r>
      </set>
      <set comment="kpoint 16">
       <r>    2.1203    1.0000 </r>
       <r>    2.1203    1.0000 </r>
       <r>    2.2748    1.0000 </r>
       <r>    4.4587    1.0000 </r>
       <r>    4.4587    1.0000 </r>
       <r>    8.5834   -0.0047 </r>
       <r>   16.8005    0.0000 </r>
       <r>   16.8005    0.0000 </r>
       <r>   17.9761    0.0000 </r>
       <r>   37.6306    0.0000 </r>
       <r>   40.1503    0.0000 </r>
       <r>   40.1503    0.0000 </r>
      </set>
      <set comment="kpoint 17">
       <r>    2.0099    1.0000 </r>
       <r>    2.0840    1.0000 </r>
       <r>    2.7085    1.0000 </r>
       <r>    4.4904    1.0000 </r>
       <r>    4.5039    1.0000 </r>
       <r>   11.3765    0.0000 </r>
       <r>   13.1299    0.0000 </r>
       <r>   16.2457    0.0000 </r>
       <r>   17.0924    0.0000 </r>
       <r>   38.6090    0.0000 </r>
       <r>   41.9128    0.0000 </r>
       <r>   42.2262    0.0000 </r>
      </set>
      <set comment="kpoint 18">
       <r>   -0.2819    1.0000 </r>
       <r>    3.2178    1.0000 </r>
       <r>    3.2730    1.0000 </r>
       <r>    3.2730    1.0000 </r>
       <r>    3.8024    1.0000 </r>
       <r>    4.7887    0.9138 </r>
       <r>   23.9328    0.0000 </r>
       <r>   24.7442    0.0000 </r>
       <r>   24.7442    0.0000 </r>
       <r>   26.6592    0.0000 </r>
       <r>   35.9649    0.0000 </r>
       <r>   35.9649    0.0000 </r>
      </set>
      <set comment="kpoint 19">
       <r>    1.0039    1.0000 </r>
       <r>    2.4998    1.0000 </r>
       <r>    3.1436    1.0000 </r>
       <r>    3.7660    1.0000 </r>
       <r>    4.6308    1.0293 </r>
       <r>    5.6180    0.1202 </r>
       <r>   18.8342    0.0000 </r>
       <r>   22.1746    0.0000 </r>
       <r>   23.4309    0.0000 </r>
       <r>   27.2636    0.0000 </r>
       <r>   35.0211    0.0000 </r>
       <r>   36.7104    0.0000 </r>
      </set>
      <set comment="kpoint 20">
       <r>    1.3005    1.0000 </r>
       <r>    2.4356    1.0000 </r>
       <r>    2.9577    1.0000 </r>
       <r>    3.9675    1.0000 </r>
       <r>    5.4270    0.4107 </r>
       <r>    8.0582   -0.0116 </r>
       <r>   13.8137    0.0000 </r>
       <r>   20.5964    0.0000 </r>
       <r>   22.6020    0.0000 </r>
       <r>   29.7876    0.0000 </r>
       <r>   34.1070    0.0000 </r>
       <r>   34.7042    0.0000 </r>
      </set>
      <set comment="kpoint 21">
       <r>    1.5999    1.0000 </r>
       <r>    1.9098    1.0000 </r>
       <r>    3.2200    1.0000 </r>
       <r>    4.1390    1.0000 </r>
       <r>    5.0287    1.0624 </r>
       <r>    7.9238   -0.0156 </r>
       <r>   16.7410    0.0000 </r>
       <r>   17.3106    0.0000 </r>
       <r>   24.8366    0.0000 </r>
       <r>   26.2678    0.0000 </r>
       <r>   33.7416    0.0000 </r>
       <r>   36.5242    0.0000 </r>
      </set>
      <set comment="kpoint 22">
       <r>    1.5633    1.0000 </r>
       <r>    1.9182    1.0000 </r>
       <r>    3.0366    1.0000 </r>
       <r>    4.4305    1.0000 </r>
       <r>    5.2468    0.8586 </r>
       <r>   10.8804    0.0000 </r>
       <r>   12.9860    0.0000 </r>
       <r>   16.3564    0.0000 </r>
       <r>   24.8337    0.0000 </r>
       <r>   27.9706    0.0000 </r>
       <r>   31.1889    0.0000 </r>
       <r>   35.5549    0.0000 </r>
      </set>
      <set comment="kpoint 23">
       <r>    1.3951    1.0000 </r>
       <r>    1.8683    1.0000 </r>
       <r>    4.0025    1.0000 </r>
       <r>    4.0025    1.0000 </r>
       <r>    4.6641    1.1533 </r>
       <r>    7.3067   -0.0226 </r>
       <r>   19.3047    0.0000 </r>
       <r>   19.3047    0.0000 </r>
       <r>   21.6031    0.0000 </r>
       <r>   23.5381    0.0000 </r>
       <r>   34.9859    0.0000 </r>
       <r>   39.8558    0.0000 </r>
      </set>
      <set comment="kpoint 24">
       <r>    1.3115    1.0000 </r>
       <r>    1.4370    1.0000 </r>
       <r>    4.1325    1.0000 </r>
       <r>    4.3979    1.0000 </r>
       <r>    5.3215    0.4152 </r>
       <r>   10.3654    0.0000 </r>
       <r>   15.0085    0.0000 </r>
       <r>   17.5409    0.0000 </r>
       <r>   21.7426    0.0000 </r>
       <r>   24.5725    0.0000 </r>
       <r>   30.3554    0.0000 </r>
       <r>   39.3481    0.0000 </r>
      </set>
      <set comment="kpoint 25">
       <r>    1.1809    1.0000 </r>
       <r>    1.1809    1.0000 </r>
       <r>    4.2331    1.0000 </r>
       <r>    5.1764    1.0000 </r>
       <r>    5.1764    1.1718 </r>
       <r>   13.7036    0.0000 </r>
       <r>   13.7036    0.0000 </r>
       <r>   14.7752    0.0000 </r>
       <r>   23.2111    0.0000 </r>
       <r>   23.2111    0.0000 </r>
       <r>   27.8020    0.0000 </r>
       <r>   39.8765    0.0000 </r>
      </set>
      <set comment="kpoint 26">
       <r>    0.9339    1.0000 </r>
       <r>    0.9342    1.0000 </r>
       <r>    5.1382    1.0000 </r>
       <r>    5.1382    1.0000 </r>
       <r>    5.2883    0.4194 </r>
       <r>   13.1129    0.0000 </r>
       <r>   15.5904    0.0000 </r>
       <r>   15.5904    0.0000 </r>
       <r>   20.7098    0.0000 </r>
       <r>   21.8498    0.0000 </r>
       <r>   26.3091    0.0000 </r>
       <r>   43.0984    0.0000 </r>
      </set>
     </set>
     <set comment="spin 2">
      <set comment="kpoint 1">
       <r>   -1.7475    1.0000 </r>
       <r>    4.9124    1.0000 </r>
       <r>    4.9124    1.0000 </r>
       <r>    5.7649   -0.0239 </r>
       <r>    6.9657    0.0000 </r>
       <r>    6.9657    0.0000 </r>
       <r>   26.4334    0.0000 </r>
       <r>   26.4334    0.0000 </r>
       <r>   30.4989    0.0000 </r>
       <r>   30.6638    0.0000 </r>
       <r>   35.8048    0.0000 </r>
       <r>   35.8048    0.0000 </r>
      </set>
      <set comment="kpoint 2">
       <r>   -0.1026    1.0000 </r>
       <r>    4.4408    1.0000 </r>
       <r>    4.5970    1.0000 </r>
       <r>    6.7707   -0.0001 </r>
       <r>    6.8251    0.0000 </r>
       <r>    7.1149    0.0000 </r>
       <r>   21.4392    0.0000 </r>
       <r>   24.2329    0.0000 </r>
       <r>   26.7859    0.0000 </r>
       <r>   30.9917    0.0000 </r>
       <r>   35.4410    0.0000 </r>
       <r>   36.3857    0.0000 </r>
      </set>
      <set comment="kpoint 3">
       <r>    1.7062    1.0000 </r>
       <r>    4.0343    1.0000 </r>
       <r>    4.6812    1.0159 </r>
       <r>    6.9139    0.0000 </r>
       <r>    7.2476    0.0000 </r>
       <r>    8.0052    0.0000 </r>
       <r>   16.4034    0.0000 </r>
       <r>   22.5566    0.0000 </r>
       <r>   24.4305    0.0000 </r>
       <r>   30.6673    0.0000 </r>
       <r>   34.7409    0.0000 </r>
       <r>   39.6140    0.0000 </r>
      </set>
      <set comment="kpoint 4">
       <r>    2.2156    1.0000 </r>
       <r>    3.8786    1.0000 </r>
       <r>    5.4056    0.7411 </r>
       <r>    6.9822    0.0000 </r>
       <r>    7.3047    0.0000 </r>
       <r>    8.8337    0.0000 </r>
       <r>   13.7425    0.0000 </r>
       <r>   21.9284    0.0000 </r>
       <r>   23.5384    0.0000 </r>
       <r>   30.4984    0.0000 </r>
       <r>   34.6507    0.0000 </r>
       <r>   39.4131    0.0000 </r>
      </set>
      <set comment="kpoint 5">
       <r>   -2.3534    1.0000 </r>
       <r>    5.1406    1.0000 </r>
       <r>    5.1406    1.0000 </r>
       <r>    5.2452    0.1668 </r>
       <r>    6.8848    0.0000 </r>
       <r>    7.1254    0.0000 </r>
       <r>   28.1012    0.0000 </r>
       <r>   29.4001    0.0000 </r>
       <r>   29.4001    0.0000 </r>
       <r>   32.7881    0.0000 </r>
       <r>   35.1687    0.0000 </r>
       <r>   35.1687    0.0000 </r>
      </set>
      <set comment="kpoint 6">
       <r>    1.6639    1.0000 </r>
       <r>    4.0546    1.0000 </r>
       <r>    4.1573    1.0003 </r>
       <r>    6.8991    0.0000 </r>
       <r>    7.2414    0.0000 </r>
       <r>    8.1883    0.0000 </r>
       <r>   19.0877    0.0000 </r>
       <r>   19.7829    0.0000 </r>
       <r>   23.5298    0.0000 </r>
       <r>   32.8713    0.0000 </r>
       <r>   36.7254    0.0000 </r>
       <r>   39.0607    0.0000 </r>
      </set>
      <set comment="kpoint 7">
       <r>    2.8044    1.0000 </r>
       <r>    3.8270    1.0000 </r>
       <r>    4.3643    1.0088 </r>
       <r>    7.0330    0.0000 </r>
       <r>    7.3090    0.0000 </r>
       <r>   10.0519    0.0000 </r>
       <r>   14.8391    0.0000 </r>
       <r>   18.2685    0.0000 </r>
       <r>   22.2525    0.0000 </r>
       <r>   33.3258    0.0000 </r>
       <r>   37.5985    0.0000 </r>
       <r>   39.7424    0.0000 </r>
      </set>
      <set comment="kpoint 8">
       <r>   -1.1689    1.0000 </r>
       <r>    4.8332    1.0000 </r>
       <r>    5.0202    1.0000 </r>
       <r>    5.8866   -0.0083 </r>
       <r>    6.5458    0.0000 </r>
       <r>    7.2272    0.0000 </r>
       <r>   24.1162    0.0000 </r>
       <r>   27.1883    0.0000 </r>
       <r>   28.2220    0.0000 </r>
       <r>   32.2083    0.0000 </r>
       <r>   32.4656    0.0000 </r>
       <r>   33.8612    0.0000 </r>
      </set>
      <set comment="kpoint 9">
       <r>    3.3702    1.0000 </r>
       <r>    3.9343    1.0000 </r>
       <r>    3.9343    1.0003 </r>
       <r>    7.2015    0.0000 </r>
       <r>    7.2015    0.0000 </r>
       <r>   13.0963    0.0000 </r>
       <r>   13.0963    0.0000 </r>
       <r>   15.3232    0.0000 </r>
       <r>   21.8133    0.0000 </r>
       <r>   35.6842    0.0000 </r>
       <r>   35.6842    0.0000 </r>
       <r>   43.2057    0.0000 </r>
      </set>
      <set comment="kpoint 10">
       <r>    0.7538    1.0000 </r>
       <r>    4.3823    1.0000 </r>
       <r>    4.7474    1.0061 </r>
       <r>    6.6059    0.0000 </r>
       <r>    6.9594    0.0000 </r>
       <r>    7.3394    0.0000 </r>
       <r>   18.7645    0.0000 </r>
       <r>   24.8382    0.0000 </r>
       <r>   26.2878    0.0000 </r>
       <r>   30.5935    0.0000 </r>
       <r>   32.4577    0.0000 </r>
       <r>   35.1237    0.0000 </r>
      </set>
      <set comment="kpoint 11">
       <r>    0.3872    1.0000 </r>
       <r>    4.6212    1.0000 </r>
       <r>    4.7258    1.0016 </r>
       <r>    6.2797   -0.0000 </r>
       <r>    6.7060    0.0000 </r>
       <r>    7.4449    0.0000 </r>
       <r>   21.5359    0.0000 </r>
       <r>   22.4200    0.0000 </r>
       <r>   28.5592    0.0000 </r>
       <r>   28.9641    0.0000 </r>
       <r>   32.5804    0.0000 </r>
       <r>   37.0634    0.0000 </r>
      </set>
      <set comment="kpoint 12">
       <r>    1.9958    1.0000 </r>
       <r>    4.0789    1.0000 </r>
       <r>    5.2794    0.8986 </r>
       <r>    6.8081    0.0000 </r>
       <r>    7.6917    0.0000 </r>
       <r>    7.8429    0.0000 </r>
       <r>   14.5038    0.0000 </r>
       <r>   23.4700    0.0000 </r>
       <r>   24.6635    0.0000 </r>
       <r>   29.9351    0.0000 </r>
       <r>   32.7573    0.0000 </r>
       <r>   36.6877    0.0000 </r>
      </set>
      <set comment="kpoint 13">
       <r>    2.1074    1.0000 </r>
       <r>    4.1894    1.0000 </r>
       <r>    4.5650    1.0116 </r>
       <r>    6.5212    0.0000 </r>
       <r>    7.3425    0.0000 </r>
       <r>    8.3944    0.0000 </r>
       <r>   16.7346    0.0000 </r>
       <r>   20.2803    0.0000 </r>
       <r>   26.4888    0.0000 </r>
       <r>   29.6468    0.0000 </r>
       <r>   33.1515    0.0000 </r>
       <r>   37.6549    0.0000 </r>
      </set>
      <set comment="kpoint 14">
       <r>    2.6223    1.0000 </r>
       <r>    4.1872    1.0000 </r>
       <r>    4.6325    1.0181 </r>
       <r>    6.6703    0.0000 </r>
       <r>    7.5624    0.0000 </r>
       <r>    9.7370    0.0000 </r>
       <r>   13.7809    0.0000 </r>
       <r>   19.5882    0.0000 </r>
       <r>   25.6405    0.0000 </r>
       <r>   30.0443    0.0000 </r>
       <r>   33.9508    0.0000 </r>
       <r>   37.0584    0.0000 </r>
      </set>
[...]
       </set>
       <set comment="band 5">
        <r>  0.0062  0.0011  0.0011  0.0090  0.0916  0.3225  0.1137  0.0916  0.3412 </r>
       </set>
       <set comment="band 6">
        <r>  0.0581  0.0403  0.0403  0.1987  0.0927  0.1423  0.0517  0.0927  0.1550 </r>
       </set>
       <set comment="band 7">
        <r>  0.0000  0.1905  0.1905  0.0000  0.1315  0.0000  0.1388  0.1315  0.0463 </r>
       </set>
       <set comment="band 8">
        <r>  0.4496  0.0410  0.0410  0.0268  0.0747  0.0858  0.0015  0.0747  0.0044 </r>
       </set>
       <set comment="band 9">
        <r>  0.0248  0.1807  0.1807  0.0892  0.0492  0.0807  0.0004  0.0492  0.0012 </r>
       </set>
       <set comment="band 10">
        <r>  0.0000  0.0439  0.0439  0.0000  0.0472  0.0000  0.2850  0.0472  0.0950 </r>
       </set>
       <set comment="band 11">
        <r>  0.0272  0.0105  0.0105  0.0270  0.0211  0.1320  0.0872  0.0211  0.2616 </r>
       </set>
       <set comment="band 12">
        <r>  0.1164  0.0368  0.0368  0.1750  0.2081  0.2159  0.0180  0.2081  0.0539 </r>
       </set>
      </set>
      <set comment="kpoint 16">
       <set comment="band 1">
        <r>  0.1483  0.0827  0.0827  0.0827  0.1289  0.1289  0.0000  0.1289  0.0000 </r>
       </set>
       <set comment="band 2">
        <r>  0.0000  0.0297  0.0062  0.0362  0.0682  0.3959  0.0056  0.3247  0.0374 </r>
       </set>
       <set comment="band 3">
        <r>  0.0000  0.0184  0.0418  0.0119  0.4577  0.1300  0.0374  0.2011  0.0056 </r>
       </set>
       <set comment="band 4">
        <r>  0.0000  0.0000  0.0000  0.0000  0.0244  0.0208  0.5977  0.0115  0.3280 </r>
       </set>
       <set comment="band 5">
        <r>  0.0000  0.0000  0.0000  0.0000  0.0134  0.0170  0.3280  0.0263  0.5977 </r>
       </set>
       <set comment="band 6">
        <r>  0.0687  0.0542  0.0542  0.0542  0.2231  0.2231  0.0000  0.2231  0.0000 </r>
       </set>
       <set comment="band 7">
        <r>  0.0000  0.1063  0.0207  0.1974  0.0251  0.2391  0.0036  0.1288  0.0344 </r>
       </set>
       <set comment="band 8">
        <r>  0.0000  0.1099  0.1955  0.0188  0.2369  0.0228  0.0344  0.1332  0.0036 </r>
       </set>
       <set comment="band 9">
        <r>  0.5565  0.0760  0.0760  0.0760  0.0011  0.0011  0.0000  0.0011  0.0000 </r>
       </set>
       <set comment="band 10">
        <r>  0.0000  0.0000  0.0000  0.0000  0.0000  0.0000  0.0000  0.0000  0.0000 </r>
       </set>
       <set comment="band 11">
        <r>  0.0000  0.0014  0.0049  0.0013  0.3301  0.0893  0.0687  0.0935  0.0025 </r>
       </set>
       <set comment="band 12">
        <r>  0.0000  0.0037  0.0002  0.0037  0.0118  0.2526  0.0025  0.2484  0.0687 </r>
       </set>
      </set>
      <set comment="kpoint 17">
       <set comment="band 1">
        <r>  0.0327  0.0000  0.0000  0.1197  0.0000  0.6690  0.0118  0.0000  0.0354 </r>
       </set>
       <set comment="band 2">
        <r>  0.0000  0.0407  0.0407  0.0000  0.4106  0.0000  0.0000  0.4106  0.0000 </r>
       </set>
       <set comment="band 3">
        <r>  0.0000  0.1115  0.1115  0.0000  0.3116  0.0000  0.0000  0.3116  0.0000 </r>
       </set>
       <set comment="band 4">
        <r>  0.0003  0.0000  0.0000  0.0002  0.0000  0.0660  0.2294  0.0000  0.6882 </r>
       </set>
       <set comment="band 5">
        <r>  0.0000  0.0000  0.0000  0.0000  0.0000  0.0000  0.7394  0.0000  0.2465 </r>
       </set>
       <set comment="band 6">
        <r>  0.0000  0.1681  0.1681  0.0000  0.2417  0.0000  0.0000  0.2417  0.0000 </r>
       </set>
       <set comment="band 7">
        <r>  0.2416  0.0000  0.0000  0.1687  0.0000  0.3925  0.0067  0.0000  0.0202 </r>
       </set>
       <set comment="band 8">
        <r>  0.0000  0.1652  0.1652  0.0000  0.2114  0.0000  0.0000  0.2114  0.0000 </r>
       </set>
       <set comment="band 9">
        <r>  0.5121  0.0000  0.0000  0.2077  0.0000  0.0509  0.0020  0.0000  0.0059 </r>
       </set>
       <set comment="band 10">
        <r>  0.0000  0.0001  0.0001  0.0000  0.1162  0.0000  0.0000  0.1162  0.0000 </r>
       </set>
       <set comment="band 11">
        <r>  0.0000  0.0252  0.0252  0.0000  0.0574  0.0000  0.0000  0.0574  0.0000 </r>
       </set>
       <set comment="band 12">
        <r>  0.0122  0.0000  0.0000  0.0949  0.0000  0.1099  0.1047  0.0000  0.3142 </r>
       </set>
      </set>
      <set comment="kpoint 18">
       <set comment="band 1">
        <r>  0.4947  0.0000  0.0000  0.1623  0.0000  0.0000  0.0101  0.0000  0.0303 </r>
       </set>
       <set comment="band 2">
        <r>  0.0000  0.0111  0.0111  0.0000  0.4669  0.0000  0.0000  0.4669  0.0000 </r>
       </set>
       <set comment="band 3">
        <r>  0.0000  0.0111  0.0111  0.0000  0.4669  0.0000  0.0000  0.4669  0.0000 </r>
       </set>
       <set comment="band 4">
        <r>  0.0000  0.0000  0.0000  0.0000  0.0000  0.0000  0.6792  0.0000  0.2264 </r>
       </set>
       <set comment="band 5">
        <r>  0.0000  0.0000  0.0000  0.0000  0.0000  0.9728  0.0000  0.0000  0.0000 </r>
       </set>
       <set comment="band 6">
        <r>  0.0250  0.0000  0.0000  0.0063  0.0000  0.0000  0.2370  0.0000  0.7111 </r>
       </set>
       <set comment="band 7">
        <r>  0.0000  0.0000  0.0000  0.0000  0.0000  0.0000  0.4166  0.0000  0.1389 </r>
       </set>
       <set comment="band 8">
        <r>  0.0000  0.1771  0.1771  0.0000  0.2566  0.0000  0.0000  0.2566  0.0000 </r>
       </set>
       <set comment="band 9">
        <r>  0.0000  0.1771  0.1771  0.0000  0.2566  0.0000  0.0000  0.2565  0.0000 </r>
       </set>
       <set comment="band 10">
        <r>  0.1661  0.0000  0.0000  0.2842  0.0000  0.0000  0.0000  0.0000  0.0000 </r>
       </set>
       <set comment="band 11">
        <r>  0.0000  0.1595  0.1595  0.0000  0.0060  0.0000  0.0000  0.0060  0.0000 </r>
       </set>
       <set comment="band 12">
        <r>  0.0000  0.1595  0.1595  0.0000  0.0060  0.0000  0.0000  0.0060  0.0000 </r>
       </set>
      </set>
      <set comment="kpoint 19">
       <set comment="band 1">
        <r>  0.3108  0.0077  0.0000  0.2084  0.0452  0.0000  0.0594  0.0000  0.0932 </r>
       </set>
       <set comment="band 2">
        <r>  0.0014  0.0285  0.0000  0.0106  0.2198  0.0000  0.4024  0.0000  0.2145 </r>
       </set>
       <set comment="band 3">
        <r>  0.0000  0.0000  0.0225  0.0000  0.0000  0.2726  0.0000  0.6549  0.0000 </r>
       </set>
       <set comment="band 4">
        <r>  0.0000  0.0206  0.0000  0.0070  0.6281  0.0000  0.2714  0.0000  0.0162 </r>
       </set>
       <set comment="band 5">
        <r>  0.0000  0.0000  0.0083  0.0000  0.0000  0.7005  0.0000  0.2668  0.0000 </r>
       </set>
       <set comment="band 6">
        <r>  0.0800  0.0067  0.0000  0.0444  0.0086  0.0000  0.1733  0.0000  0.6437 </r>
       </set>
       <set comment="band 7">
        <r>  0.0921  0.2629  0.0000  0.0342  0.2599  0.0000  0.1091  0.0000  0.0479 </r>
       </set>
       <set comment="band 8">
        <r>  0.0000  0.0000  0.4807  0.0000  0.0000  0.0095  0.0000  0.3754  0.0000 </r>
       </set>
       <set comment="band 9">
        <r>  0.0940  0.0009  0.0000  0.0750  0.0227  0.0000  0.3348  0.0000  0.0443 </r>
       </set>
       <set comment="band 10">
        <r>  0.0650  0.1991  0.0000  0.0697  0.1082  0.0000  0.0376  0.0000  0.1174 </r>
       </set>
       <set comment="band 11">
        <r>  0.0000  0.0000  0.1702  0.0000  0.0000  0.5406  0.0000  0.1337  0.0000 </r>
       </set>
       <set comment="band 12">
        <r>  0.0672  0.1708  0.0000  0.0111  0.0945  0.0000  0.1617  0.0000  0.0829 </r>
       </set>
      </set>
      <set comment="kpoint 20">
       <set comment="band 1">
        <r>  0.1170  0.0001  0.0000  0.0866  0.2545  0.0000  0.3213  0.0000  0.0372 </r>
       </set>
       <set comment="band 2">
        <r>  0.0035  0.0916  0.0000  0.0864  0.0351  0.0000  0.1001  0.0000  0.4974 </r>
       </set>
       <set comment="band 3">
        <r>  0.0000  0.0000  0.0221  0.0000  0.0000  0.4114  0.0000  0.5124  0.0000 </r>
       </set>
       <set comment="band 4">
        <r>  0.0185  0.0101  0.0000  0.0006  0.4945  0.0000  0.4186  0.0000  0.0034 </r>
       </set>
       <set comment="band 5">
        <r>  0.0000  0.0000  0.0024  0.0000  0.0000  0.5576  0.0000  0.4289  0.0000 </r>
       </set>
       <set comment="band 6">
        <r>  0.0661  0.0947  0.0000  0.1951  0.0398  0.0000  0.0346  0.0000  0.4448 </r>
       </set>
       <set comment="band 7">
        <r>  0.2622  0.1807  0.0000  0.0024  0.2886  0.0000  0.0971  0.0000  0.0276 </r>
       </set>
       <set comment="band 8">
        <r>  0.0000  0.0000  0.5662  0.0000  0.0000  0.0606  0.0000  0.1956  0.0000 </r>
       </set>
       <set comment="band 9">
        <r>  0.1083  0.0228  0.0000  0.0533  0.0061  0.0000  0.3639  0.0000  0.0049 </r>
       </set>
       <set comment="band 10">
        <r>  0.0120  0.1557  0.0000  0.0010  0.0248  0.0000  0.0330  0.0000  0.3485 </r>
       </set>
       <set comment="band 11">
        <r>  0.0000  0.0000  0.1447  0.0000  0.0000  0.4699  0.0000  0.3092  0.0000 </r>
       </set>
       <set comment="band 12">
        <r>  0.0021  0.1418  0.0000  0.2183  0.0039  0.0000  0.3286  0.0000  0.0979 </r>
       </set>
      </set>
      <set comment="kpoint 21">
       <set comment="band 1">
        <r>  0.1223  0.0050  0.0050  0.1770  0.0450  0.0001  0.0946  0.0450  0.2837 </r>
       </set>
       <set comment="band 2">
        <r>  0.0000  0.0196  0.0196  0.0000  0.0658  0.0000  0.5149  0.0658  0.1716 </r>
       </set>
       <set comment="band 3">
        <r>  0.0062  0.0151  0.0151  0.0087  0.2494  0.3218  0.0169  0.2494  0.0508 </r>
       </set>
       <set comment="band 4">
        <r>  0.0000  0.0146  0.0146  0.0000  0.3786  0.0000  0.1259  0.3786  0.0420 </r>
       </set>
       <set comment="band 5">
        <r>  0.0115  0.0004  0.0004  0.0049  0.1158  0.6073  0.0304  0.1158  0.0913 </r>
       </set>
       <set comment="band 6">
        <r>  0.1238  0.0168  0.0168  0.1730  0.0467  0.0420  0.1070  0.0467  0.3211 </r>
       </set>
       <set comment="band 7">
        <r>  0.0000  0.2039  0.2039  0.0000  0.1055  0.0000  0.1602  0.1055  0.0534 </r>
       </set>
       <set comment="band 8">
        <r>  0.2348  0.1410  0.1410  0.0307  0.1002  0.0263  0.0037  0.1002  0.0110 </r>
       </set>
       <set comment="band 9">
        <r>  0.0000  0.0602  0.0602  0.0000  0.0417  0.0000  0.3726  0.0417  0.1242 </r>
       </set>
       <set comment="band 10">
        <r>  0.0918  0.1175  0.1175  0.0360  0.0105  0.0018  0.0466  0.0105  0.1399 </r>
       </set>
       <set comment="band 11">
        <r>  0.0009  0.0669  0.0669  0.1322  0.0470  0.2067  0.0556  0.0470  0.1667 </r>
       </set>
       <set comment="band 12">
        <r>  0.1641  0.0000  0.0000  0.1693  0.1104  0.2067  0.0341  0.1104  0.1022 </r>
       </set>
      </set>
      <set comment="kpoint 22">
       <set comment="band 1">
        <r>  0.0279  0.0230  0.0203  0.0230  0.1606  0.0000  0.5837  0.0000  0.0000 </r>
       </set>
       <set comment="band 2">
        <r>  0.0000  0.0707  0.0000  0.0707  0.0000  0.0181  0.0000  0.0181  0.6414 </r>
       </set>
       <set comment="band 3">
        <r>  0.0309  0.0009  0.0208  0.0009  0.1515  0.3394  0.0449  0.3394  0.0000 </r>
       </set>
       <set comment="band 4">
        <r>  0.0096  0.0061  0.0112  0.0061  0.5070  0.1093  0.1996  0.1093  0.0000 </r>
       </set>
       <set comment="band 5">
        <r>  0.0000  0.0089  0.0000  0.0089  0.0000  0.4369  0.0000  0.4369  0.0891 </r>
       </set>
       <set comment="band 6">
        <r>  0.0000  0.2248  0.0000  0.2248  0.0000  0.0471  0.0000  0.0471  0.2913 </r>
       </set>
       <set comment="band 7">
        <r>  0.2583  0.0859  0.0377  0.0859  0.2515  0.0003  0.1320  0.0003  0.0000 </r>
       </set>
       <set comment="band 8">
        <r>  0.1641  0.0028  0.3632  0.0028  0.0020  0.0900  0.0790  0.0900  0.0000 </r>
       </set>
       <set comment="band 9">
        <r>  0.0314  0.0026  0.1464  0.0026  0.0132  0.0125  0.4359  0.0125  0.0000 </r>
       </set>
       <set comment="band 10">
        <r>  0.0000  0.0473  0.0000  0.0473  0.0000  0.0051  0.0000  0.0051  0.5138 </r>
       </set>
       <set comment="band 11">
        <r>  0.0448  0.2173  0.0843  0.2173  0.0000  0.0331  0.0994  0.0331  0.0000 </r>
       </set>
       <set comment="band 12">
        <r>  0.2087  0.0182  0.0088  0.0182  0.1815  0.2616  0.0063  0.2616  0.0000 </r>
       </set>
      </set>
      <set comment="kpoint 23">
       <set comment="band 1">
        <r>  0.1318  0.0000  0.0000  0.2021  0.0000  0.0000  0.1071  0.0000  0.3213 </r>
       </set>
       <set comment="band 2">
        <r>  0.0000  0.0000  0.0000  0.0000  0.0000  0.0000  0.6436  0.0000  0.2145 </r>
       </set>
       <set comment="band 3">
        <r>  0.0000  0.0231  0.0231  0.0000  0.4512  0.0000  0.0000  0.4512  0.0000 </r>
       </set>
       <set comment="band 4">
        <r>  0.0000  0.0231  0.0231  0.0000  0.4512  0.0000  0.0000  0.4512  0.0000 </r>
       </set>
       <set comment="band 5">
        <r>  0.0000  0.0000  0.0000  0.0000  0.0000  0.9767  0.0000  0.0000  0.0000 </r>
       </set>
       <set comment="band 6">
        <r>  0.1745  0.0000  0.0000  0.1588  0.0000  0.0000  0.1406  0.0000  0.4219 </r>
       </set>
       <set comment="band 7">
        <r>  0.0000  0.2756  0.2756  0.0000  0.1385  0.0000  0.0000  0.1385  0.0000 </r>
       </set>
       <set comment="band 8">
        <r>  0.0000  0.2756  0.2756  0.0000  0.1385  0.0000  0.0000  0.1385  0.0000 </r>
       </set>
       <set comment="band 9">
        <r>  0.0000  0.0000  0.0000  0.0000  0.0000  0.0000  0.5690  0.0000  0.1897 </r>
       </set>
       <set comment="band 10">
        <r>  0.2936  0.0000  0.0000  0.0769  0.0000  0.0000  0.0502  0.0000  0.1506 </r>
       </set>
       <set comment="band 11">
        <r>  0.1246  0.0000  0.0000  0.3069  0.0000  0.0000  0.0991  0.0000  0.2972 </r>
       </set>
       <set comment="band 12">
        <r>  0.0000  0.0000  0.0000  0.0000  0.0000  0.9467  0.0000  0.0000  0.0000 </r>
       </set>
      </set>
      <set comment="kpoint 24">
       <set comment="band 1">
        <r>  0.0230  0.0014  0.0000  0.0938  0.0199  0.0000  0.3347  0.0000  0.3438 </r>
       </set>
       <set comment="band 2">
        <r>  0.0000  0.0236  0.0000  0.0056  0.0153  0.0000  0.4237  0.0000  0.3730 </r>
       </set>
       <set comment="band 3">
        <r>  0.0000  0.0000  0.0373  0.0000  0.0000  0.3290  0.0000  0.5862  0.0000 </r>
       </set>
       <set comment="band 4">
        <r>  0.0186  0.0315  0.0000  0.0057  0.8291  0.0000  0.0612  0.0000  0.0018 </r>
       </set>
       <set comment="band 5">
        <r>  0.0000  0.0000  0.0023  0.0000  0.0000  0.6429  0.0000  0.3412  0.0000 </r>
       </set>
       <set comment="band 6">
        <r>  0.1266  0.0374  0.0000  0.3445  0.0306  0.0000  0.0491  0.0000  0.2373 </r>
       </set>
       <set comment="band 7">
        <r>  0.1228  0.4168  0.0000  0.0000  0.1655  0.0000  0.0539  0.0000  0.0495 </r>
       </set>
       <set comment="band 8">
        <r>  0.0000  0.0000  0.6137  0.0000  0.0000  0.0280  0.0000  0.1421  0.0000 </r>
       </set>
       <set comment="band 9">
        <r>  0.0831  0.0024  0.0000  0.0047  0.0068  0.0000  0.6427  0.0000  0.0167 </r>
       </set>
       <set comment="band 10">
        <r>  0.0857  0.1052  0.0000  0.0000  0.0084  0.0000  0.0000  0.0000  0.4885 </r>
       </set>
       <set comment="band 11">
        <r>  0.2761  0.0599  0.0000  0.2761  0.0123  0.0000  0.0799  0.0000  0.1016 </r>
       </set>
       <set comment="band 12">
        <r>  0.0000  0.0000  0.0716  0.0000  0.0000  0.4634  0.0000  0.2305  0.0000 </r>
       </set>
      </set>
      <set comment="kpoint 25">
       <set comment="band 1">
        <r>  0.0000  0.0188  0.0000  0.0188  0.0000  0.0041  0.0000  0.0041  0.7890 </r>
       </set>
       <set comment="band 2">
        <r>  0.0000  0.0063  0.0250  0.0063  0.0055  0.0014  0.7890  0.0014  0.0000 </r>
       </set>
       <set comment="band 3">
        <r>  0.0170  0.0125  0.0125  0.0125  0.2972  0.2972  0.0000  0.2972  0.0000 </r>
       </set>
       <set comment="band 4">
        <r>  0.0000  0.0031  0.0125  0.0031  0.6269  0.1567  0.0180  0.1567  0.0000 </r>
       </set>
       <set comment="band 5">
        <r>  0.0000  0.0094  0.0000  0.0094  0.0000  0.4702  0.0000  0.4702  0.0180 </r>
       </set>
       <set comment="band 6">
        <r>  0.0000  0.2808  0.0000  0.2808  0.0000  0.0281  0.0000  0.0281  0.1746 </r>
       </set>
       <set comment="band 7">
        <r>  0.0000  0.0936  0.3744  0.0936  0.0375  0.0094  0.1746  0.0094  0.0000 </r>
       </set>
       <set comment="band 8">
        <r>  0.2557  0.1219  0.1219  0.1219  0.0507  0.0507  0.0000  0.0507  0.0000 </r>
       </set>
       <set comment="band 9">
        <r>  0.0000  0.0414  0.0000  0.0414  0.0000  0.0034  0.0000  0.0034  0.6734 </r>
       </set>
       <set comment="band 10">
        <r>  0.0000  0.0138  0.0551  0.0138  0.0045  0.0011  0.6734  0.0011  0.0000 </r>
       </set>
       <set comment="band 11">
        <r>  0.4793  0.0989  0.0989  0.0989  0.0034  0.0034  0.0000  0.0034  0.0000 </r>
       </set>
       <set comment="band 12">
        <r>  0.0348  0.0188  0.0188  0.0188  0.1985  0.1985  0.0000  0.1985  0.0000 </r>
       </set>
      </set>
      <set comment="kpoint 26">
       <set comment="band 1">
        <r>  0.0014  0.0000  0.0000  0.0255  0.0000  0.0000  0.2016  0.0000  0.6048 </r>
       </set>
       <set comment="band 2">
        <r>  0.0000  0.0000  0.0000  0.0000  0.0000  0.0000  0.6301  0.0000  0.2100 </r>
       </set>
       <set comment="band 3">
        <r>  0.0000  0.0099  0.0099  0.0000  0.4778  0.0000  0.0000  0.4778  0.0000 </r>
       </set>
       <set comment="band 4">
        <r>  0.0000  0.0099  0.0099  0.0000  0.4778  0.0000  0.0000  0.4778  0.0000 </r>
       </set>
       <set comment="band 5">
        <r>  0.0000  0.0000  0.0000  0.0000  0.0000  0.9867  0.0000  0.0000  0.0000 </r>
       </set>
       <set comment="band 6">
        <r>  0.0828  0.0000  0.0000  0.5527  0.0000  0.0000  0.0305  0.0000  0.0914 </r>
       </set>
       <set comment="band 7">
        <r>  0.0000  0.3395  0.3395  0.0000  0.0275  0.0000  0.0000  0.0275  0.0000 </r>
       </set>
       <set comment="band 8">
        <r>  0.0000  0.3395  0.3395  0.0000  0.0275  0.0000  0.0000  0.0275  0.0000 </r>
       </set>
       <set comment="band 9">
        <r>  0.0000  0.0000  0.0000  0.0000  0.0000  0.0000  0.6452  0.0000  0.2151 </r>
       </set>
       <set comment="band 10">
        <r>  0.0699  0.0000  0.0000  0.0184  0.0000  0.0000  0.1786  0.0000  0.5358 </r>
       </set>
       <set comment="band 11">
        <r>  0.6263  0.0000  0.0000  0.1229  0.0000  0.0000  0.0107  0.0000  0.0321 </r>
       </set>
       <set comment="band 12">
        <r>  0.0000  0.0000  0.0000  0.0000  0.0000  0.2605  0.0000  0.0000  0.0000 </r>
       </set>
      </set>
     </set>
    </set>
   </array>
  </projected>
 </calculation>
 <structure name="finalpos" >
  <crystal>
   <varray name="basis" >
    <v>      -1.43750000       1.43750000       1.43750000 </v>
    <v>       1.43750000      -1.43750000       1.43750000 </v>
    <v>       1.43750000       1.43750000      -1.43750000 </v>
   </varray>
   <i name="volume">     11.88183594 </i>
   <varray name="rec_basis" >
    <v>       0.00000000       0.34782609       0.34782609 </v>
    <v>       0.34782609       0.00000000       0.34782609 </v>
    <v>       0.34782609       0.34782609       0.00000000 </v>
   </varray>
  </crystal>
  <varray name="positions" >
   <v>       0.00000000       0.00000000       0.00000000 </v>
  </varray>
 </structure>
</modeling>
