Fe BCC                                  
           1
    -1.437500    1.437500    1.437500
     1.437500   -1.437500    1.437500
     1.437500    1.437500   -1.437500
   Fe
   1
Direct configuration=     1
   0.00000000  0.00000000  0.00000000
