Fe BCC                                  
   2.85000000000000     
    -0.500000    0.500000    0.500000
     0.500000   -0.500000    0.500000
     0.500000    0.500000   -0.500000
   Fe
     1
Direct
  0.000000  0.000000  0.000000
 
   36   36   36
  98.113      96.288      91.030      82.938      72.865      61.750      50.475      39.765      30.156      22.010    
  15.527      10.757      7.5919      5.7602      4.8563      4.4046      4.0928      3.9044      3.8419      3.9044    
  4.0928      4.4046      4.8563      5.7602      7.5919      10.757      15.527      22.010      30.156      39.765    
  50.475      61.750      72.865      82.938      91.030      96.288      96.288      95.684      91.584      84.462    
  75.093      64.393      53.261      42.470      32.612      24.099      17.179      11.950      8.3556      6.1762    
  5.0478      4.5114      4.1648      3.9375      3.8345      3.8551      3.9996      4.2680      4.6545      5.3350    
  6.7662      9.3842      13.509      19.305      26.776      35.776      46.001      56.983      68.065      78.424    
  87.139      93.324      91.030      91.584      88.734      82.816      74.491      64.606      54.041      43.584    
  33.861      25.323      18.258      12.803      8.9462      6.5201      5.2074      4.5815      4.2094      3.9509    
  3.8123      3.7928      3.8921      4.1115      4.4474      4.9489      5.9841      8.0018      11.363      16.289    
  22.843      30.933      40.322      50.612      61.229      71.433      80.362      87.139      82.938      84.462    
  82.816      78.197      71.134      62.371      52.730      42.981      33.759      25.536      18.625      13.195    
  9.2720      6.7319      5.3069      4.6121      4.2217      3.9419      3.7751      3.7205      3.7768      3.9456    
  4.2280      4.6216      5.3219      6.7575      9.3172      13.273      18.748      25.716      34.000      43.277    
  53.061      62.705      71.433      78.424      72.865      75.093      74.491      71.134      65.414      57.957    
  49.495      40.747      32.331      24.720      18.239      13.075      9.2806      6.7708      5.3227      4.5979    
  4.1995      3.9088      3.7227      3.6404      3.6591      3.7796      4.0058      4.3365      4.8105      5.7497    
  7.5502      10.524      14.854      20.576      27.584      35.625      44.300      53.061      61.229      68.065    
  61.750      64.393      64.606      62.371      57.957      51.862      44.714      37.157      29.764      22.991    
  17.160      12.464      8.9711      6.6254      5.2445      4.5360      4.1432      3.8516      3.6558      3.5543    
  3.5428      3.6209      3.7930      4.0633      4.4288      5.0117      6.1689      8.2348      11.442      15.893    
  21.548      28.231      35.625      43.277      50.612      56.983      50.475      53.261      54.041      52.730    
  49.495      44.714      38.902      32.615      26.365      20.571      15.538      11.453      8.3915      6.3166    
  5.0790      4.4294      4.0557      3.7722      3.5756      3.4636      3.4305      3.4741      3.5981      3.8091    
  4.1110      4.5086      5.1963      6.5033      8.6971      11.937      16.255      21.548      27.584      34.000    
  40.322      46.001      39.765      42.470      43.584      42.981      40.747      37.157      32.615      27.582    
  22.501      17.740      13.576      10.180      7.6274      5.8911      4.8482      4.2873      3.9422      3.6742    
  3.4845      3.3698      3.3236      3.3418      3.4263      3.5840      3.8230      4.1452      4.5718      5.3267    
  6.6885      8.8601      11.937      15.893      20.576      25.716      30.933      35.776      30.156      32.612    
  33.861      33.759      32.331      29.764      26.365      22.501      18.536      14.788      11.492      8.8019    
  6.7812      5.4096      4.5830      4.1223      3.8097      3.5627      3.3858      3.2751      3.2231      3.2245    
  3.2793      3.3931      3.5749      3.8323      4.1652      4.6074      5.3738      6.6885      8.6971      11.442    
  14.854      18.748      22.843      26.776      22.010      24.099      25.323      25.536      24.720      22.991    
  20.571      17.740      14.788      11.971      9.4880      7.4643      5.9524      4.9325      4.3144      3.9463    
  3.6656      3.4436      3.2838      3.1818      3.1299      3.1222      3.1567      3.2372      3.3716      3.5693    
  3.8368      4.1717      4.6074      5.3267      6.5033      8.2348      10.524      13.273      16.289      19.305    
  15.527      17.179      18.258      18.625      18.239      17.160      15.538      13.576      11.492      9.4880    
  7.7186      6.2831      5.2199      4.5070      4.0650      3.7657      3.5179      3.3232      3.1830      3.0928    
  3.0452      3.0340      3.0564      3.1138      3.2124      3.3607      3.5674      3.8368      4.1652      4.5718    
  5.1963      6.1689      7.5502      9.3172      11.363      13.509      10.757      11.950      12.803      13.195    
  13.075      12.464      11.453      10.180      8.8019      7.4643      6.2831      5.3306      4.6306      4.1580    
  3.8417      3.5873      3.3738      3.2074      3.0880      3.0111      2.9702      2.9596      2.9758      3.0190    
  3.0929      3.2042      3.3607      3.5693      3.8323      4.1452      4.5086      5.0117      5.7497      6.7575    
  8.0018      9.3842      7.5919      8.3556      8.9462      9.2720      9.2806      8.9711      8.3915      7.6274    
  6.7812      5.9524      5.2199      4.6306      4.1944      3.8831      3.6352      3.4187      3.2396      3.1013    
  3.0025      2.9392      2.9062      2.8984      2.9127      2.9482      3.0068      3.0929      3.2124      3.3716    
  3.5749      3.8230      4.1110      4.4288      4.8105      5.3219      5.9841      6.7662      5.7602      6.1762    
  6.5201      6.7319      6.7708      6.6254      6.3166      5.8911      5.4096      4.9325      4.5070      4.1580    
  3.8831      3.6522      3.4445      3.2658      3.1201      3.0084      2.9293      2.8792      2.8542      2.8505    
  2.8655      2.8979      2.9482      3.0190      3.1138      3.2372      3.3931      3.5840      3.8091      4.0633    
  4.3365      4.6216      4.9489      5.3350      4.8563      5.0478      5.2074      5.3069      5.3227      5.2445    
  5.0790      4.8482      4.5830      4.3144      4.0650      3.8417      3.6352      3.4445      3.2757      3.1329    
  3.0181      2.9310      2.8699      2.8322      2.8151      2.8161      2.8332      2.8655      2.9127      2.9758    
  3.0564      3.1567      3.2793      3.4263      3.5981      3.7930      4.0058      4.2280      4.4474      4.6545    
  4.4046      4.5114      4.5815      4.6121      4.5979      4.5360      4.4294      4.2873      4.1223      3.9463    
  3.7657      3.5873      3.4187      3.2658      3.1329      3.0225      2.9350      2.8696      2.8248      2.7986    
  2.7893      2.7954      2.8161      2.8505      2.8984      2.9596      3.0340      3.1222      3.2245      3.3418    
  3.4741      3.6209      3.7796      3.9456      4.1115      4.2680      4.0928      4.1648      4.2094      4.2217    
  4.1995      4.1432      4.0557      3.9422      3.8097      3.6656      3.5179      3.3738      3.2396      3.1201    
  3.0181      2.9350      2.8706      2.8239      2.7935      2.7781      2.7769      2.7893      2.8151      2.8542    
  2.9062      2.9702      3.0452      3.1299      3.2231      3.3236      3.4305      3.5428      3.6591      3.7768    
  3.8921      3.9996      3.9044      3.9375      3.9509      3.9419      3.9088      3.8516      3.7722      3.6742    
  3.5627      3.4436      3.3232      3.2074      3.1013      3.0084      2.9310      2.8696      2.8239      2.7928    
  2.7752      2.7704      2.7781      2.7986      2.8322      2.8792      2.9392      3.0111      3.0928      3.1818    
  3.2751      3.3698      3.4636      3.5543      3.6404      3.7205      3.7928      3.8551      3.8419      3.8345    
  3.8123      3.7751      3.7227      3.6558      3.5756      3.4845      3.3858      3.2838      3.1830      3.0880    
  3.0025      2.9293      2.8699      2.8248      2.7935      2.7752      2.7692      2.7752      2.7935      2.8248    
  2.8699      2.9293      3.0025      3.0880      3.1830      3.2838      3.3858      3.4845      3.5756      3.6558    
  3.7227      3.7751      3.8123      3.8345      3.9044      3.8551      3.7928      3.7205      3.6404      3.5543    
  3.4636      3.3698      3.2751      3.1818      3.0928      3.0111      2.9392      2.8792      2.8322      2.7986    
  2.7781      2.7704      2.7752      2.7928      2.8239      2.8696      2.9310      3.0084      3.1013      3.2074    
  3.3232      3.4436      3.5627      3.6742      3.7722      3.8516      3.9088      3.9419      3.9509      3.9375    
  4.0928      3.9996      3.8921      3.7768      3.6591      3.5428      3.4305      3.3236      3.2231      3.1299    
  3.0452      2.9702      2.9062      2.8542      2.8151      2.7893      2.7769      2.7781      2.7935      2.8239    
  2.8706      2.9350      3.0181      3.1201      3.2396      3.3738      3.5179      3.6656      3.8097      3.9422    
  4.0557      4.1432      4.1995      4.2217      4.2094      4.1648      4.4046      4.2680      4.1115      3.9456    
  3.7796      3.6209      3.4741      3.3418      3.2245      3.1222      3.0340      2.9596      2.8984      2.8505    
  2.8161      2.7954      2.7893      2.7986      2.8248      2.8696      2.9350      3.0225      3.1329      3.2658    
  3.4187      3.5873      3.7657      3.9463      4.1223      4.2873      4.4294      4.5360      4.5979      4.6121    
  4.5815      4.5114      4.8563      4.6545      4.4474      4.2280      4.0058      3.7930      3.5981      3.4263    
  3.2793      3.1567      3.0564      2.9758      2.9127      2.8655      2.8332      2.8161      2.8151      2.8322    
  2.8699      2.9310      3.0181      3.1329      3.2757      3.4445      3.6352      3.8417      4.0650      4.3144    
  4.5830      4.8482      5.0790      5.2445      5.3227      5.3069      5.2074      5.0478      5.7602      5.3350    
  4.9489      4.6216      4.3365      4.0633      3.8091      3.5840      3.3931      3.2372      3.1138      3.0190    
  2.9482      2.8979      2.8655      2.8505      2.8542      2.8792      2.9293      3.0084      3.1201      3.2658    
  3.4445      3.6522      3.8831      4.1580      4.5070      4.9325      5.4096      5.8911      6.3166      6.6254    
  6.7708      6.7319      6.5201      6.1762      7.5919      6.7662      5.9841      5.3219      4.8105      4.4288    
  4.1110      3.8230      3.5749      3.3716      3.2124      3.0929      3.0068      2.9482      2.9127      2.8984    
  2.9062      2.9392      3.0025      3.1013      3.2396      3.4187      3.6352      3.8831      4.1944      4.6306    
  5.2199      5.9524      6.7812      7.6274      8.3915      8.9711      9.2806      9.2720      8.9462      8.3556    
  10.757      9.3842      8.0018      6.7575      5.7497      5.0117      4.5086      4.1452      3.8323      3.5693    
  3.3607      3.2042      3.0929      3.0190      2.9758      2.9596      2.9702      3.0111      3.0880      3.2074    
  3.3738      3.5873      3.8417      4.1580      4.6306      5.3306      6.2831      7.4643      8.8019      10.180    
  11.453      12.464      13.075      13.195      12.803      11.950      15.527      13.509      11.363      9.3172    
  7.5502      6.1689      5.1963      4.5718      4.1652      3.8368      3.5674      3.3607      3.2124      3.1138    
  3.0564      3.0340      3.0452      3.0928      3.1830      3.3232      3.5179      3.7657      4.0650      4.5070    
  5.2199      6.2831      7.7186      9.4880      11.492      13.576      15.538      17.160      18.239      18.625    
  18.258      17.179      22.010      19.305      16.289      13.273      10.524      8.2348      6.5033      5.3267    
  4.6074      4.1717      3.8368      3.5693      3.3716      3.2372      3.1567      3.1222      3.1299      3.1818    
  3.2838      3.4436      3.6656      3.9463      4.3144      4.9325      5.9524      7.4643      9.4880      11.971    
  14.788      17.740      20.571      22.991      24.720      25.536      25.323      24.099      30.156      26.776    
  22.843      18.748      14.854      11.442      8.6971      6.6885      5.3738      4.6074      4.1652      3.8323    
  3.5749      3.3931      3.2793      3.2245      3.2231      3.2751      3.3858      3.5627      3.8097      4.1223    
  4.5830      5.4096      6.7812      8.8019      11.492      14.788      18.536      22.501      26.365      29.764    
  32.331      33.759      33.861      32.612      39.765      35.776      30.933      25.716      20.576      15.893    
  11.937      8.8601      6.6885      5.3267      4.5718      4.1452      3.8230      3.5840      3.4263      3.3418    
  3.3236      3.3698      3.4845      3.6742      3.9422      4.2873      4.8482      5.8911      7.6274      10.180    
  13.576      17.740      22.501      27.582      32.615      37.157      40.747      42.981      43.584      42.470    
  50.475      46.001      40.322      34.000      27.584      21.548      16.255      11.937      8.6971      6.5033    
  5.1963      4.5086      4.1110      3.8091      3.5981      3.4741      3.4305      3.4636      3.5756      3.7722    
  4.0557      4.4294      5.0790      6.3166      8.3915      11.453      15.538      20.571      26.365      32.615    
  38.902      44.714      49.495      52.730      54.041      53.261      61.750      56.983      50.612      43.277    
  35.625      28.231      21.548      15.893      11.442      8.2348      6.1689      5.0117      4.4288      4.0633    
  3.7930      3.6209      3.5428      3.5543      3.6558      3.8516      4.1432      4.5360      5.2445      6.6254    
  8.9711      12.464      17.160      22.991      29.764      37.157      44.714      51.862      57.957      62.371    
  64.606      64.393      72.865      68.065      61.229      53.061      44.300      35.625      27.584      20.576    
  14.854      10.524      7.5502      5.7497      4.8105      4.3365      4.0058      3.7796      3.6591      3.6404    
  3.7227      3.9088      4.1995      4.5979      5.3227      6.7708      9.2806      13.075      18.239      24.720    
  32.331      40.747      49.495      57.957      65.414      71.134      74.491      75.093      82.938      78.424    
  71.433      62.705      53.061      43.277      34.000      25.716      18.748      13.273      9.3172      6.7575    
  5.3219      4.6216      4.2280      3.9456      3.7768      3.7205      3.7751      3.9419      4.2217      4.6121    
  5.3069      6.7319      9.2720      13.195      18.625      25.536      33.759      42.981      52.730      62.371    
  71.134      78.197      82.816      84.462      91.030      87.139      80.362      71.433      61.229      50.612    
  40.322      30.933      22.843      16.289      11.363      8.0018      5.9841      4.9489      4.4474      4.1115    
  3.8921      3.7928      3.8123      3.9509      4.2094      4.5815      5.2074      6.5201      8.9462      12.803    
  18.258      25.323      33.861      43.584      54.041      64.606      74.491      82.816      88.734      91.584    
  96.288      93.324      87.139      78.424      68.065      56.983      46.001      35.776      26.776      19.305    
  13.509      9.3842      6.7662      5.3350      4.6545      4.2680      3.9996      3.8551      3.8345      3.9375    
  4.1648      4.5114      5.0478      6.1762      8.3556      11.950      17.179      24.099      32.612      42.470    
  53.261      64.393      75.093      84.462      91.584      95.684      96.288      95.684      91.584      84.462    
  75.093      64.393      53.261      42.470      32.612      24.099      17.179      11.950      8.3556      6.1762    
  5.0478      4.5114      4.1648      3.9375      3.8345      3.8551      3.9996      4.2680      4.6545      5.3350    
  6.7662      9.3842      13.509      19.305      26.776      35.776      46.001      56.983      68.065      78.424    
  87.139      93.324      95.684      96.288      93.324      87.139      78.424      68.065      56.983      46.001    
  35.776      26.776      19.305      13.509      9.3842      6.7662      5.3350      4.6545      4.2680      3.9996    
  3.8551      3.8345      3.9375      4.1648      4.5114      5.0478      6.1762      8.3556      11.950      17.179    
  24.099      32.612      42.470      53.261      64.393      75.093      84.462      91.584      91.584      93.324    
  91.584      86.568      78.849      69.241      58.642      47.894      37.695      28.559      20.835      14.713    
  10.235      7.2873      5.5993      4.7712      4.3425      4.0412      3.8599      3.7998      3.8599      4.0412    
  4.3425      4.7712      5.5993      7.2873      10.235      14.713      20.835      28.559      37.695      47.894    
  58.642      69.241      78.849      86.568      84.462      87.139      86.568      82.816      76.319      67.784    
  58.048      47.933      38.147      29.237      21.581      15.403      10.785      7.6569      5.7976      4.8514    
  4.3819      4.0578      3.8472      3.7525      3.7717      3.9056      4.1557      4.5165      5.0964      6.3042    
  8.5592      12.178      17.332      24.039      32.169      41.444      51.424      61.505      70.927      78.849    
  75.093      78.424      78.849      76.319      71.134      63.873      55.279      46.121      37.089      28.735    
  21.452      15.488      10.952      7.8119      5.8909      4.8806      4.3825      4.0464      3.8157      3.6936    
  3.6772      3.7660      3.9629      4.2684      4.6922      5.4926      7.0852      9.8198      13.923      19.474    
  26.408      34.513      43.431      52.649      61.505      69.241      64.393      68.065      69.241      67.784    
  63.873      57.957      50.664      42.685      34.661      27.127      20.476      14.962      10.713      7.7240    
  5.8563      4.8478      4.3434      4.0059      3.7650      3.6240      3.5793      3.6286      3.7748      4.0221    
  4.3680      4.8844      5.9150      7.8239      10.882      15.232      20.873      27.664      35.325      43.431    
  51.424      58.642      53.261      56.983      58.642      58.048      55.279      50.664      44.714      38.020    
  31.158      24.622      18.787      13.905      10.107      7.4055      5.6939      4.7510      4.2670      3.9374    
  3.6958      3.5450      3.4802      3.4978      3.5991      3.7899      4.0746      4.4520      5.0765      6.2920    
  8.3978      11.589      15.932      21.358      27.664      34.513      41.444      47.894      42.470      46.001    
  47.894      47.933      46.121      42.685      38.020      32.615      26.967      21.515      16.602      12.462    
  9.2225      6.9055      5.4264      4.5994      4.1582      3.8444      3.6103      3.4580      3.3816      3.3759    
  3.4407      3.5811      3.8050      4.1152      4.5227      5.2341      6.5522      8.7107      11.836      15.932    
  20.873      26.408      32.169      37.695      32.612      35.776      37.695      38.147      37.089      34.661    
  31.158      26.967      22.501      18.134      14.168      10.812      8.1805      6.2972      5.0927      4.4106    
  4.0240      3.7319      3.5121      3.3652      3.2847      3.2643      3.3018      3.4008      3.5697      3.8164    
  4.1420      4.5719      5.3231      6.6450      8.7107      11.589      15.232      19.474      24.039      28.559    
  24.099      26.776      28.559      29.237      28.735      27.127      24.622      21.515      18.134      14.788    
  11.729      9.1359      7.1070      5.6608      4.7378      4.2053      3.8722      3.6064      3.4057      3.2696    
  3.1912      3.1634      3.1824      3.2502      3.3737      3.5623      3.8231      4.1550      4.5898      5.3231    
  6.5522      8.3978      10.882      13.923      17.332      20.835      17.179      19.305      20.835      21.581    
  21.452      20.476      18.787      16.602      14.168      11.729      9.4880      7.5896      6.1122      5.0674    
  4.4014      4.0001      3.7113      3.4748      3.2966      3.1748      3.1028      3.0732      3.0816      3.1279    
  3.2171      3.3575      3.5584      3.8252      4.1550      4.5719      5.2341      6.2920      7.8239      9.8198    
  12.178      14.713      11.950      13.509      14.713      15.403      15.488      14.962      13.905      12.462    
  10.812      9.1359      7.5896      6.2831      5.2742      4.5660      4.1081      3.8019      3.5495      3.3441    
  3.1900      3.0845      3.0215      2.9942      2.9978      3.0309      3.0963      3.2006      3.3521      3.5584    
  3.8231      4.1420      4.5227      5.0765      5.9150      7.0852      8.5592      10.235      8.3556      9.3842    
  10.235      10.785      10.952      10.713      10.107      9.2225      8.1805      7.1070      6.1122      5.2742    
  4.6306      4.1758      3.8617      3.6102      3.3942      3.2205      3.0907      3.0022      2.9495      2.9268    
  2.9295      2.9557      3.0064      3.0859      3.2006      3.3575      3.5623      3.8164      4.1152      4.4520    
  4.8844      5.4926      6.3042      7.2873      6.1762      6.7662      7.2873      7.6569      7.8119      7.7240    
  7.4055      6.9055      6.2972      5.6608      5.0674      4.5660      4.1758      3.8831      3.6436      3.4311    
  3.2515      3.1087      3.0027      2.9307      2.8886      2.8715      2.8758      2.8993      2.9421      3.0064    
  3.0963      3.2171      3.3737      3.5697      3.8050      4.0746      4.3680      4.6922      5.0964      5.5993    
  5.0478      5.3350      5.5993      5.7976      5.8909      5.8563      5.6939      5.4264      5.0927      4.7378    
  4.4014      4.1081      3.8617      3.6436      3.4445      3.2706      3.1260      3.0121      2.9283      2.8720    
  2.8400      2.8290      2.8361      2.8598      2.8993      2.9557      3.0309      3.1279      3.2502      3.4008    
  3.5811      3.7899      4.0221      4.2684      4.5165      4.7712      4.5114      4.6545      4.7712      4.8514    
  4.8806      4.8478      4.7510      4.5994      4.4106      4.2053      4.0001      3.8019      3.6102      3.4311    
  3.2706      3.1329      3.0202      2.9325      2.8687      2.8268      2.8044      2.7996      2.8105      2.8361    
  2.8758      2.9295      2.9978      3.0816      3.1824      3.3018      3.4407      3.5991      3.7748      3.9629    
  4.1557      4.3425      4.1648      4.2680      4.3425      4.3819      4.3825      4.3434      4.2670      4.1582    
  4.0240      3.8722      3.7113      3.5495      3.3942      3.2515      3.1260      3.0202      2.9350      2.8700    
  2.8239      2.7950      2.7820      2.7838      2.7996      2.8290      2.8715      2.9268      2.9942      3.0732    
  3.1634      3.2643      3.3759      3.4978      3.6286      3.7660      3.9056      4.0412      3.9375      3.9996    
  4.0412      4.0578      4.0464      4.0059      3.9374      3.8444      3.7319      3.6064      3.4748      3.3441    
  3.2205      3.1087      3.0121      2.9325      2.8700      2.8239      2.7930      2.7762      2.7726      2.7820    
  2.8044      2.8400      2.8886      2.9495      3.0215      3.1028      3.1912      3.2847      3.3816      3.4802    
  3.5793      3.6772      3.7717      3.8599      3.8345      3.8551      3.8599      3.8472      3.8157      3.7650    
  3.6958      3.6103      3.5121      3.4057      3.2966      3.1900      3.0907      3.0027      2.9283      2.8687    
  2.8239      2.7930      2.7752      2.7697      2.7762      2.7950      2.8268      2.8720      2.9307      3.0022    
  3.0845      3.1748      3.2696      3.3652      3.4580      3.5450      3.6240      3.6936      3.7525      3.7998    
  3.8551      3.8345      3.7998      3.7525      3.6936      3.6240      3.5450      3.4580      3.3652      3.2696    
  3.1748      3.0845      3.0022      2.9307      2.8720      2.8268      2.7950      2.7762      2.7697      2.7752    
  2.7930      2.8239      2.8687      2.9283      3.0027      3.0907      3.1900      3.2966      3.4057      3.5121    
  3.6103      3.6958      3.7650      3.8157      3.8472      3.8599      3.9996      3.9375      3.8599      3.7717    
  3.6772      3.5793      3.4802      3.3816      3.2847      3.1912      3.1028      3.0215      2.9495      2.8886    
  2.8400      2.8044      2.7820      2.7726      2.7762      2.7930      2.8239      2.8700      2.9325      3.0121    
  3.1087      3.2205      3.3441      3.4748      3.6064      3.7319      3.8444      3.9374      4.0059      4.0464    
  4.0578      4.0412      4.2680      4.1648      4.0412      3.9056      3.7660      3.6286      3.4978      3.3759    
  3.2643      3.1634      3.0732      2.9942      2.9268      2.8715      2.8290      2.7996      2.7838      2.7820    
  2.7950      2.8239      2.8700      2.9350      3.0202      3.1260      3.2515      3.3942      3.5495      3.7113    
  3.8722      4.0240      4.1582      4.2670      4.3434      4.3825      4.3819      4.3425      4.6545      4.5114    
  4.3425      4.1557      3.9629      3.7748      3.5991      3.4407      3.3018      3.1824      3.0816      2.9978    
  2.9295      2.8758      2.8361      2.8105      2.7996      2.8044      2.8268      2.8687      2.9325      3.0202    
  3.1329      3.2706      3.4311      3.6102      3.8019      4.0001      4.2053      4.4106      4.5994      4.7510    
  4.8478      4.8806      4.8514      4.7712      5.3350      5.0478      4.7712      4.5165      4.2684      4.0221    
  3.7899      3.5811      3.4008      3.2502      3.1279      3.0309      2.9557      2.8993      2.8598      2.8361    
  2.8290      2.8400      2.8720      2.9283      3.0121      3.1260      3.2706      3.4445      3.6436      3.8617    
  4.1081      4.4014      4.7378      5.0927      5.4264      5.6939      5.8563      5.8909      5.7976      5.5993    
  6.7662      6.1762      5.5993      5.0964      4.6922      4.3680      4.0746      3.8050      3.5697      3.3737    
  3.2171      3.0963      3.0064      2.9421      2.8993      2.8758      2.8715      2.8886      2.9307      3.0027    
  3.1087      3.2515      3.4311      3.6436      3.8831      4.1758      4.5660      5.0674      5.6608      6.2972    
  6.9055      7.4055      7.7240      7.8119      7.6569      7.2873      9.3842      8.3556      7.2873      6.3042    
  5.4926      4.8844      4.4520      4.1152      3.8164      3.5623      3.3575      3.2006      3.0859      3.0064    
  2.9557      2.9295      2.9268      2.9495      3.0022      3.0907      3.2205      3.3942      3.6102      3.8617    
  4.1758      4.6306      5.2742      6.1122      7.1070      8.1805      9.2225      10.107      10.713      10.952    
  10.785      10.235      13.509      11.950      10.235      8.5592      7.0852      5.9150      5.0765      4.5227    
  4.1420      3.8231      3.5584      3.3521      3.2006      3.0963      3.0309      2.9978      2.9942      3.0215    
  3.0845      3.1900      3.3441      3.5495      3.8019      4.1081      4.5660      5.2742      6.2831      7.5896    
  9.1359      10.812      12.462      13.905      14.962      15.488      15.403      14.713      19.305      17.179    
  14.713      12.178      9.8198      7.8239      6.2920      5.2341      4.5719      4.1550      3.8252      3.5584    
  3.3575      3.2171      3.1279      3.0816      3.0732      3.1028      3.1748      3.2966      3.4748      3.7113    
  4.0001      4.4014      5.0674      6.1122      7.5896      9.4880      11.729      14.168      16.602      18.787    
  20.476      21.452      21.581      20.835      26.776      24.099      20.835      17.332      13.923      10.882    
  8.3978      6.5522      5.3231      4.5898      4.1550      3.8231      3.5623      3.3737      3.2502      3.1824    
  3.1634      3.1912      3.2696      3.4057      3.6064      3.8722      4.2053      4.7378      5.6608      7.1070    
  9.1359      11.729      14.788      18.134      21.515      24.622      27.127      28.735      29.237      28.559    
  35.776      32.612      28.559      24.039      19.474      15.232      11.589      8.7107      6.6450      5.3231    
  4.5719      4.1420      3.8164      3.5697      3.4008      3.3018      3.2643      3.2847      3.3652      3.5121    
  3.7319      4.0240      4.4106      5.0927      6.2972      8.1805      10.812      14.168      18.134      22.501    
  26.967      31.158      34.661      37.089      38.147      37.695      46.001      42.470      37.695      32.169    
  26.408      20.873      15.932      11.836      8.7107      6.5522      5.2341      4.5227      4.1152      3.8050    
  3.5811      3.4407      3.3759      3.3816      3.4580      3.6103      3.8444      4.1582      4.5994      5.4264    
  6.9055      9.2225      12.462      16.602      21.515      26.967      32.615      38.020      42.685      46.121    
  47.933      47.894      56.983      53.261      47.894      41.444      34.513      27.664      21.358      15.932    
  11.589      8.3978      6.2920      5.0765      4.4520      4.0746      3.7899      3.5991      3.4978      3.4802    
  3.5450      3.6958      3.9374      4.2670      4.7510      5.6939      7.4055      10.107      13.905      18.787    
  24.622      31.158      38.020      44.714      50.664      55.279      58.048      58.642      68.065      64.393    