Fe BCC                                  
   2.85000000000000     
    -0.500000    0.500000    0.500000
     0.500000   -0.500000    0.500000
     0.500000    0.500000   -0.500000
   Fe
     1
Direct
  0.000000  0.000000  0.000000
 
   36   36   36
 0.98113102815E+02 0.96288366951E+02 0.91030305649E+02 0.82938211649E+02 0.72864731863E+02
 0.61750475217E+02 0.50475492752E+02 0.39764885039E+02 0.30156383268E+02 0.22009860857E+02
 0.15526867397E+02 0.10757240771E+02 0.75918519940E+01 0.57602220398E+01 0.48563251234E+01
 0.44046451295E+01 0.40927897785E+01 0.39044175472E+01 0.38418622136E+01 0.39044175472E+01
 0.40927897785E+01 0.44046451295E+01 0.48563251234E+01 0.57602220398E+01 0.75918519940E+01
 0.10757240771E+02 0.15526867397E+02 0.22009860857E+02 0.30156383268E+02 0.39764885039E+02
 0.50475492752E+02 0.61750475217E+02 0.72864731863E+02 0.82938211649E+02 0.91030305649E+02
 0.96288366951E+02 0.96288366951E+02 0.95684200547E+02 0.91583503092E+02 0.84461791624E+02
 0.75092999230E+02 0.64392634379E+02 0.53260991969E+02 0.42470119142E+02 0.32612436978E+02
 0.24099227219E+02 0.17179285188E+02 0.11950444839E+02 0.83555575720E+01 0.61762461320E+01
 0.50478390697E+01 0.45113505849E+01 0.41648170518E+01 0.39374703205E+01 0.38344961590E+01
 0.38550877819E+01 0.39995792118E+01 0.42679718413E+01 0.46545328507E+01 0.53349774875E+01
 0.67662434799E+01 0.93841982959E+01 0.13508713117E+02 0.19304642676E+02 0.26776364750E+02
 0.35775700010E+02 0.46001291512E+02 0.56982691122E+02 0.68064961265E+02 0.78424149545E+02
 0.87139387154E+02 0.93324071633E+02 0.91030305649E+02 0.91583503092E+02 0.88733708081E+02
 0.82816028730E+02 0.74490899870E+02 0.64605823928E+02 0.54040782260E+02 0.43583555541E+02
 0.33860965985E+02 0.25323389939E+02 0.18258071893E+02 0.12802883842E+02 0.89462332705E+01
 0.65201409433E+01 0.52074010501E+01 0.45815141958E+01 0.42093619844E+01 0.39508807983E+01
 0.38122968475E+01 0.37928260042E+01 0.38920804825E+01 0.41114665473E+01 0.44474042642E+01
 0.49489081060E+01 0.59841078629E+01 0.80017991171E+01 0.11363211808E+02 0.16289091551E+02
 0.22842548470E+02 0.30933452954E+02 0.40322473447E+02 0.50611758271E+02 0.61229497835E+02
 0.71433497281E+02 0.80361503723E+02 0.87139387154E+02 0.82938211649E+02 0.84461791624E+02
 0.82816028730E+02 0.78197438347E+02 0.71133735626E+02 0.62370856367E+02 0.52730216252E+02
 0.42981024733E+02 0.33758762854E+02 0.25535579223E+02 0.18625132275E+02 0.13195439141E+02
 0.92719567071E+01 0.67319369587E+01 0.53068647486E+01 0.46120630304E+01 0.42217211619E+01
 0.39418537259E+01 0.37750598727E+01 0.37205229020E+01 0.37767911819E+01 0.39455770940E+01
 0.42279628406E+01 0.46216430664E+01 0.53218607585E+01 0.67575284661E+01 0.93172438435E+01
 0.13272912750E+02 0.18748447725E+02 0.25715817623E+02 0.34000001780E+02 0.43276510348E+02
 0.53060516953E+02 0.62704992616E+02 0.71433497281E+02 0.78424149545E+02 0.72864731863E+02
 0.75092999230E+02 0.74490899870E+02 0.71133735626E+02 0.65414127270E+02 0.57956827410E+02
 0.49494875087E+02 0.40747268749E+02 0.32330995478E+02 0.24719688101E+02 0.18238798807E+02
 0.13074947510E+02 0.92806482430E+01 0.67707584035E+01 0.53226729221E+01 0.45978557657E+01
 0.41995462418E+01 0.39087619638E+01 0.37227442329E+01 0.36404370801E+01 0.36590689688E+01
 0.37796464015E+01 0.40058380068E+01 0.43364736890E+01 0.48104991146E+01 0.57496960740E+01
 0.75501535539E+01 0.10523957293E+02 0.14853729614E+02 0.20576408795E+02 0.27583959144E+02
 0.35624952750E+02 0.44300076773E+02 0.53060516953E+02 0.61229497835E+02 0.68064961265E+02
 0.61750475217E+02 0.64392634379E+02 0.64605823928E+02 0.62370856367E+02 0.57956827410E+02
 0.51862326939E+02 0.44714086166E+02 0.37156557847E+02 0.29763985784E+02 0.22991292130E+02
 0.17160254524E+02 0.12463857065E+02 0.89710752756E+01 0.66253914106E+01 0.52444897399E+01
 0.45359921905E+01 0.41432025653E+01 0.38516044626E+01 0.36558242954E+01 0.35542889875E+01
 0.35427957461E+01 0.36209176847E+01 0.37929649322E+01 0.40633269097E+01 0.44288429406E+01
 0.50117442779E+01 0.61689134292E+01 0.82347711983E+01 0.11442288679E+02 0.15892957253E+02
 0.21548401455E+02 0.28231145625E+02 0.35624952750E+02 0.43276510348E+02 0.50611758271E+02
 0.56982691122E+02 0.50475492752E+02 0.53260991969E+02 0.54040782260E+02 0.52730216252E+02
 0.49494875087E+02 0.44714086166E+02 0.38902358329E+02 0.32614821258E+02 0.26364765249E+02
 0.20571194933E+02 0.15538006519E+02 0.11453009216E+02 0.83915483852E+01 0.63166068808E+01
 0.50790187288E+01 0.44294055760E+01 0.40556951955E+01 0.37722206239E+01 0.35756171857E+01
 0.34635534779E+01 0.34304629189E+01 0.34741425382E+01 0.35980729407E+01 0.38091295191E+01
 0.41109705291E+01 0.45086060266E+01 0.51962705808E+01 0.65033074013E+01 0.86970684323E+01
 0.11937076073E+02 0.16254785129E+02 0.21548401455E+02 0.27583959144E+02 0.34000001780E+02
 0.40322473447E+02 0.46001291512E+02 0.39764885039E+02 0.42470119142E+02 0.43583555541E+02
 0.42981024733E+02 0.40747268749E+02 0.37156557847E+02 0.32614821258E+02 0.27582352050E+02
 0.22500520149E+02 0.17740005585E+02 0.13575557984E+02 0.10180273484E+02 0.76273525952E+01
 0.58911298243E+01 0.48482351130E+01 0.42872709360E+01 0.39422449098E+01 0.36742230119E+01
 0.34844801101E+01 0.33698183783E+01 0.33235602817E+01 0.33417710604E+01 0.34262606177E+01
 0.35840045301E+01 0.38230085346E+01 0.41451510332E+01 0.45717814879E+01 0.53267295381E+01
 0.66885196412E+01 0.88601207159E+01 0.11937076073E+02 0.15892957253E+02 0.20576408795E+02
 0.25715817623E+02 0.30933452954E+02 0.35775700010E+02 0.30156383268E+02 0.32612436978E+02
 0.33860965985E+02 0.33758762854E+02 0.32330995478E+02 0.29763985784E+02 0.26364765249E+02
 0.22500520149E+02 0.18536433795E+02 0.14787666958E+02 0.11492272111E+02 0.88018503625E+01
 0.67812000799E+01 0.54096259565E+01 0.45830255556E+01 0.41223443351E+01 0.38096530730E+01
 0.35626716111E+01 0.33858055720E+01 0.32750661882E+01 0.32230782068E+01 0.32245359137E+01
 0.32793454802E+01 0.33931047265E+01 0.35748652117E+01 0.38323212848E+01 0.41651721414E+01
 0.46074372111E+01 0.53738482901E+01 0.66885196412E+01 0.86970684323E+01 0.11442288679E+02
 0.14853729614E+02 0.18748447725E+02 0.22842548470E+02 0.26776364750E+02 0.22009860857E+02
 0.24099227219E+02 0.25323389939E+02 0.25535579223E+02 0.24719688101E+02 0.22991292130E+02
 0.20571194933E+02 0.17740005585E+02 0.14787666958E+02 0.11971206419E+02 0.94880292502E+01
 0.74642684728E+01 0.59524399602E+01 0.49324781025E+01 0.43144370893E+01 0.39462860382E+01
 0.36655859568E+01 0.34435536885E+01 0.32837937259E+01 0.31817740645E+01 0.31299370293E+01
 0.31221721515E+01 0.31567198777E+01 0.32371810396E+01 0.33715547129E+01 0.35693171488E+01
 0.38367956442E+01 0.41717033409E+01 0.46074372111E+01 0.53267295381E+01 0.65033074013E+01
 0.82347711983E+01 0.10523957293E+02 0.13272912750E+02 0.16289091551E+02 0.19304642676E+02
 0.15526867397E+02 0.17179285188E+02 0.18258071893E+02 0.18625132275E+02 0.18238798807E+02
 0.17160254524E+02 0.15538006519E+02 0.13575557984E+02 0.11492272111E+02 0.94880292502E+01
 0.77186224077E+01 0.62831155828E+01 0.52198777456E+01 0.45069580994E+01 0.40649689687E+01
 0.37656716093E+01 0.35178641156E+01 0.33231527188E+01 0.31830363897E+01 0.30927955770E+01
 0.30452228348E+01 0.30340483073E+01 0.30563741851E+01 0.31138354041E+01 0.32123941435E+01
 0.33607457231E+01 0.35674045404E+01 0.38367956442E+01 0.41651721414E+01 0.45717814879E+01
 0.51962705808E+01 0.61689134292E+01 0.75501535539E+01 0.93172438435E+01 0.11363211808E+02
 0.13508713117E+02 0.10757240771E+02 0.11950444839E+02 0.12802883842E+02 0.13195439141E+02
 0.13074947510E+02 0.12463857065E+02 0.11453009216E+02 0.10180273484E+02 0.88018503625E+01
 0.74642684728E+01 0.62831155828E+01 0.53306125988E+01 0.46305793726E+01 0.41580019655E+01
 0.38417017634E+01 0.35873079822E+01 0.33738020078E+01 0.32073968096E+01 0.30879946240E+01
 0.30110623364E+01 0.29702009073E+01 0.29595839214E+01 0.29758153119E+01 0.30189929347E+01
 0.30928818606E+01 0.32041596318E+01 0.33607457231E+01 0.35693171488E+01 0.38323212848E+01
 0.41451510332E+01 0.45086060266E+01 0.50117442779E+01 0.57496960740E+01 0.67575284661E+01
 0.80017991171E+01 0.93841982959E+01 0.75918519940E+01 0.83555575720E+01 0.89462332705E+01
 0.92719567071E+01 0.92806482430E+01 0.89710752756E+01 0.83915483852E+01 0.76273525952E+01
 0.67812000799E+01 0.59524399602E+01 0.52198777456E+01 0.46305793726E+01 0.41944482805E+01
 0.38830970789E+01 0.36352408622E+01 0.34186605360E+01 0.32396334907E+01 0.31012796639E+01
 0.30024818547E+01 0.29392027059E+01 0.29061625211E+01 0.28984401198E+01 0.29127455014E+01
 0.29482393754E+01 0.30068267383E+01 0.30928818606E+01 0.32123941435E+01 0.33715547129E+01
 0.35748652117E+01 0.38230085346E+01 0.41109705291E+01 0.44288429406E+01 0.48104991146E+01
 0.53218607585E+01 0.59841078629E+01 0.67662434799E+01 0.57602220398E+01 0.61762461320E+01
 0.65201409433E+01 0.67319369587E+01 0.67707584035E+01 0.66253914106E+01 0.63166068808E+01
 0.58911298243E+01 0.54096259565E+01 0.49324781025E+01 0.45069580994E+01 0.41580019655E+01
 0.38830970789E+01 0.36521632480E+01 0.34445318385E+01 0.32657830018E+01 0.31200763500E+01
 0.30084444238E+01 0.29292694395E+01 0.28792020549E+01 0.28542130081E+01 0.28505499497E+01
 0.28654904286E+01 0.28978525010E+01 0.29482393754E+01 0.30189929347E+01 0.31138354041E+01
 0.32371810396E+01 0.33931047265E+01 0.35840045301E+01 0.38091295191E+01 0.40633269097E+01
 0.43364736890E+01 0.46216430664E+01 0.49489081060E+01 0.53349774875E+01 0.48563251234E+01
 0.50478390697E+01 0.52074010501E+01 0.53068647486E+01 0.53226729221E+01 0.52444897399E+01
 0.50790187288E+01 0.48482351130E+01 0.45830255556E+01 0.43144370893E+01 0.40649689687E+01
 0.38417017634E+01 0.36352408622E+01 0.34445318385E+01 0.32757162523E+01 0.31329464474E+01
 0.30181057507E+01 0.29310040839E+01 0.28699070071E+01 0.28322160164E+01 0.28151167799E+01
 0.28160853711E+01 0.28332292071E+01 0.28654904286E+01 0.29127455014E+01 0.29758153119E+01
 0.30563741851E+01 0.31567198777E+01 0.32793454802E+01 0.34262606177E+01 0.35980729407E+01
 0.37929649322E+01 0.40058380068E+01 0.42279628406E+01 0.44474042642E+01 0.46545328507E+01
 0.44046451295E+01 0.45113505849E+01 0.45815141958E+01 0.46120630304E+01 0.45978557657E+01
 0.45359921905E+01 0.44294055760E+01 0.42872709360E+01 0.41223443351E+01 0.39462860382E+01
 0.37656716093E+01 0.35873079822E+01 0.34186605360E+01 0.32657830018E+01 0.31329464474E+01
 0.30224948467E+01 0.29349922838E+01 0.28696335219E+01 0.28247989590E+01 0.27985986327E+01
 0.27892795839E+01 0.27954421636E+01 0.28160853711E+01 0.28505499497E+01 0.28984401198E+01
 0.29595839214E+01 0.30340483073E+01 0.31221721515E+01 0.32245359137E+01 0.33417710604E+01
 0.34741425382E+01 0.36209176847E+01 0.37796464015E+01 0.39455770940E+01 0.41114665473E+01
 0.42679718413E+01 0.40927897785E+01 0.41648170518E+01 0.42093619844E+01 0.42217211619E+01
 0.41995462418E+01 0.41432025653E+01 0.40556951955E+01 0.39422449098E+01 0.38096530730E+01
 0.36655859568E+01 0.35178641156E+01 0.33738020078E+01 0.32396334907E+01 0.31200763500E+01
 0.30181057507E+01 0.29349922838E+01 0.28706056067E+01 0.28239092409E+01 0.27935130574E+01
 0.27781377612E+01 0.27768852323E+01 0.27892795839E+01 0.28151167799E+01 0.28542130081E+01
 0.29061625211E+01 0.29702009073E+01 0.30452228348E+01 0.31299370293E+01 0.32230782068E+01
 0.33235602817E+01 0.34304629189E+01 0.35427957461E+01 0.36590689688E+01 0.37767911819E+01
 0.38920804825E+01 0.39995792118E+01 0.39044175472E+01 0.39374703205E+01 0.39508807983E+01
 0.39418537259E+01 0.39087619638E+01 0.38516044626E+01 0.37722206239E+01 0.36742230119E+01
 0.35626716111E+01 0.34435536885E+01 0.33231527188E+01 0.32073968096E+01 0.31012796639E+01
 0.30084444238E+01 0.29310040839E+01 0.28696335219E+01 0.28239092409E+01 0.27928086177E+01
 0.27752344621E+01 0.27704238043E+01 0.27781377612E+01 0.27985986327E+01 0.28322160164E+01
 0.28792020549E+01 0.29392027059E+01 0.30110623364E+01 0.30927955770E+01 0.31817740645E+01
 0.32750661882E+01 0.33698183783E+01 0.34635534779E+01 0.35542889875E+01 0.36404370801E+01
 0.37205229020E+01 0.37928260042E+01 0.38550877819E+01 0.38418622136E+01 0.38344961590E+01
 0.38122968475E+01 0.37750598727E+01 0.37227442329E+01 0.36558242954E+01 0.35756171857E+01
 0.34844801101E+01 0.33858055720E+01 0.32837937259E+01 0.31830363897E+01 0.30879946240E+01
 0.30024818547E+01 0.29292694395E+01 0.28699070071E+01 0.28247989590E+01 0.27935130574E+01
 0.27752344621E+01 0.27692367875E+01 0.27752344621E+01 0.27935130574E+01 0.28247989590E+01
 0.28699070071E+01 0.29292694395E+01 0.30024818547E+01 0.30879946240E+01 0.31830363897E+01
 0.32837937259E+01 0.33858055720E+01 0.34844801101E+01 0.35756171857E+01 0.36558242954E+01
 0.37227442329E+01 0.37750598727E+01 0.38122968475E+01 0.38344961590E+01 0.39044175472E+01
 0.38550877819E+01 0.37928260042E+01 0.37205229020E+01 0.36404370801E+01 0.35542889875E+01
 0.34635534779E+01 0.33698183783E+01 0.32750661882E+01 0.31817740645E+01 0.30927955770E+01
 0.30110623364E+01 0.29392027059E+01 0.28792020549E+01 0.28322160164E+01 0.27985986327E+01
 0.27781377612E+01 0.27704238043E+01 0.27752344621E+01 0.27928086177E+01 0.28239092409E+01
 0.28696335219E+01 0.29310040839E+01 0.30084444238E+01 0.31012796639E+01 0.32073968096E+01
 0.33231527188E+01 0.34435536885E+01 0.35626716111E+01 0.36742230119E+01 0.37722206239E+01
 0.38516044626E+01 0.39087619638E+01 0.39418537259E+01 0.39508807983E+01 0.39374703205E+01
 0.40927897785E+01 0.39995792118E+01 0.38920804825E+01 0.37767911819E+01 0.36590689688E+01
 0.35427957461E+01 0.34304629189E+01 0.33235602817E+01 0.32230782068E+01 0.31299370293E+01
 0.30452228348E+01 0.29702009073E+01 0.29061625211E+01 0.28542130081E+01 0.28151167799E+01
 0.27892795839E+01 0.27768852323E+01 0.27781377612E+01 0.27935130574E+01 0.28239092409E+01
 0.28706056067E+01 0.29349922838E+01 0.30181057507E+01 0.31200763500E+01 0.32396334907E+01
 0.33738020078E+01 0.35178641156E+01 0.36655859568E+01 0.38096530730E+01 0.39422449098E+01
 0.40556951955E+01 0.41432025653E+01 0.41995462418E+01 0.42217211619E+01 0.42093619844E+01
 0.41648170518E+01 0.44046451295E+01 0.42679718413E+01 0.41114665473E+01 0.39455770940E+01
 0.37796464015E+01 0.36209176847E+01 0.34741425382E+01 0.33417710604E+01 0.32245359137E+01
 0.31221721515E+01 0.30340483073E+01 0.29595839214E+01 0.28984401198E+01 0.28505499497E+01
 0.28160853711E+01 0.27954421636E+01 0.27892795839E+01 0.27985986327E+01 0.28247989590E+01
 0.28696335219E+01 0.29349922838E+01 0.30224948467E+01 0.31329464474E+01 0.32657830018E+01
 0.34186605360E+01 0.35873079822E+01 0.37656716093E+01 0.39462860382E+01 0.41223443351E+01
 0.42872709360E+01 0.44294055760E+01 0.45359921905E+01 0.45978557657E+01 0.46120630304E+01
 0.45815141958E+01 0.45113505849E+01 0.48563251234E+01 0.46545328507E+01 0.44474042642E+01
 0.42279628406E+01 0.40058380068E+01 0.37929649322E+01 0.35980729407E+01 0.34262606177E+01
 0.32793454802E+01 0.31567198777E+01 0.30563741851E+01 0.29758153119E+01 0.29127455014E+01
 0.28654904286E+01 0.28332292071E+01 0.28160853711E+01 0.28151167799E+01 0.28322160164E+01
 0.28699070071E+01 0.29310040839E+01 0.30181057507E+01 0.31329464474E+01 0.32757162523E+01
 0.34445318385E+01 0.36352408622E+01 0.38417017634E+01 0.40649689687E+01 0.43144370893E+01
 0.45830255556E+01 0.48482351130E+01 0.50790187288E+01 0.52444897399E+01 0.53226729221E+01
 0.53068647486E+01 0.52074010501E+01 0.50478390697E+01 0.57602220398E+01 0.53349774875E+01
 0.49489081060E+01 0.46216430664E+01 0.43364736890E+01 0.40633269097E+01 0.38091295191E+01
 0.35840045301E+01 0.33931047265E+01 0.32371810396E+01 0.31138354041E+01 0.30189929347E+01
 0.29482393754E+01 0.28978525010E+01 0.28654904286E+01 0.28505499497E+01 0.28542130081E+01
 0.28792020549E+01 0.29292694395E+01 0.30084444238E+01 0.31200763500E+01 0.32657830018E+01
 0.34445318385E+01 0.36521632480E+01 0.38830970789E+01 0.41580019655E+01 0.45069580994E+01
 0.49324781025E+01 0.54096259565E+01 0.58911298243E+01 0.63166068808E+01 0.66253914106E+01
 0.67707584035E+01 0.67319369587E+01 0.65201409433E+01 0.61762461320E+01 0.75918519940E+01
 0.67662434799E+01 0.59841078629E+01 0.53218607585E+01 0.48104991146E+01 0.44288429406E+01
 0.41109705291E+01 0.38230085346E+01 0.35748652117E+01 0.33715547129E+01 0.32123941435E+01
 0.30928818606E+01 0.30068267383E+01 0.29482393754E+01 0.29127455014E+01 0.28984401198E+01
 0.29061625211E+01 0.29392027059E+01 0.30024818547E+01 0.31012796639E+01 0.32396334907E+01
 0.34186605360E+01 0.36352408622E+01 0.38830970789E+01 0.41944482805E+01 0.46305793726E+01
 0.52198777456E+01 0.59524399602E+01 0.67812000799E+01 0.76273525952E+01 0.83915483852E+01
 0.89710752756E+01 0.92806482430E+01 0.92719567071E+01 0.89462332705E+01 0.83555575720E+01
 0.10757240771E+02 0.93841982959E+01 0.80017991171E+01 0.67575284661E+01 0.57496960740E+01
 0.50117442779E+01 0.45086060266E+01 0.41451510332E+01 0.38323212848E+01 0.35693171488E+01
 0.33607457231E+01 0.32041596318E+01 0.30928818606E+01 0.30189929347E+01 0.29758153119E+01
 0.29595839214E+01 0.29702009073E+01 0.30110623364E+01 0.30879946240E+01 0.32073968096E+01
 0.33738020078E+01 0.35873079822E+01 0.38417017634E+01 0.41580019655E+01 0.46305793726E+01
 0.53306125988E+01 0.62831155828E+01 0.74642684728E+01 0.88018503625E+01 0.10180273484E+02
 0.11453009216E+02 0.12463857065E+02 0.13074947510E+02 0.13195439141E+02 0.12802883842E+02
 0.11950444839E+02 0.15526867397E+02 0.13508713117E+02 0.11363211808E+02 0.93172438435E+01
 0.75501535539E+01 0.61689134292E+01 0.51962705808E+01 0.45717814879E+01 0.41651721414E+01
 0.38367956442E+01 0.35674045404E+01 0.33607457231E+01 0.32123941435E+01 0.31138354041E+01
 0.30563741851E+01 0.30340483073E+01 0.30452228348E+01 0.30927955770E+01 0.31830363897E+01
 0.33231527188E+01 0.35178641156E+01 0.37656716093E+01 0.40649689687E+01 0.45069580994E+01
 0.52198777456E+01 0.62831155828E+01 0.77186224077E+01 0.94880292502E+01 0.11492272111E+02
 0.13575557984E+02 0.15538006519E+02 0.17160254524E+02 0.18238798807E+02 0.18625132275E+02
 0.18258071893E+02 0.17179285188E+02 0.22009860857E+02 0.19304642676E+02 0.16289091551E+02
 0.13272912750E+02 0.10523957293E+02 0.82347711983E+01 0.65033074013E+01 0.53267295381E+01
 0.46074372111E+01 0.41717033409E+01 0.38367956442E+01 0.35693171488E+01 0.33715547129E+01
 0.32371810396E+01 0.31567198777E+01 0.31221721515E+01 0.31299370293E+01 0.31817740645E+01
 0.32837937259E+01 0.34435536885E+01 0.36655859568E+01 0.39462860382E+01 0.43144370893E+01
 0.49324781025E+01 0.59524399602E+01 0.74642684728E+01 0.94880292502E+01 0.11971206419E+02
 0.14787666958E+02 0.17740005585E+02 0.20571194933E+02 0.22991292130E+02 0.24719688101E+02
 0.25535579223E+02 0.25323389939E+02 0.24099227219E+02 0.30156383268E+02 0.26776364750E+02
 0.22842548470E+02 0.18748447725E+02 0.14853729614E+02 0.11442288679E+02 0.86970684323E+01
 0.66885196412E+01 0.53738482901E+01 0.46074372111E+01 0.41651721414E+01 0.38323212848E+01
 0.35748652117E+01 0.33931047265E+01 0.32793454802E+01 0.32245359137E+01 0.32230782068E+01
 0.32750661882E+01 0.33858055720E+01 0.35626716111E+01 0.38096530730E+01 0.41223443351E+01
 0.45830255556E+01 0.54096259565E+01 0.67812000799E+01 0.88018503625E+01 0.11492272111E+02
 0.14787666958E+02 0.18536433795E+02 0.22500520149E+02 0.26364765249E+02 0.29763985784E+02
 0.32330995478E+02 0.33758762854E+02 0.33860965985E+02 0.32612436978E+02 0.39764885039E+02
 0.35775700010E+02 0.30933452954E+02 0.25715817623E+02 0.20576408795E+02 0.15892957253E+02
 0.11937076073E+02 0.88601207159E+01 0.66885196412E+01 0.53267295381E+01 0.45717814879E+01
 0.41451510332E+01 0.38230085346E+01 0.35840045301E+01 0.34262606177E+01 0.33417710604E+01
 0.33235602817E+01 0.33698183783E+01 0.34844801101E+01 0.36742230119E+01 0.39422449098E+01
 0.42872709360E+01 0.48482351130E+01 0.58911298243E+01 0.76273525952E+01 0.10180273484E+02
 0.13575557984E+02 0.17740005585E+02 0.22500520149E+02 0.27582352050E+02 0.32614821258E+02
 0.37156557847E+02 0.40747268749E+02 0.42981024733E+02 0.43583555541E+02 0.42470119142E+02
 0.50475492752E+02 0.46001291512E+02 0.40322473447E+02 0.34000001780E+02 0.27583959144E+02
 0.21548401455E+02 0.16254785129E+02 0.11937076073E+02 0.86970684323E+01 0.65033074013E+01
 0.51962705808E+01 0.45086060266E+01 0.41109705291E+01 0.38091295191E+01 0.35980729407E+01
 0.34741425382E+01 0.34304629189E+01 0.34635534779E+01 0.35756171857E+01 0.37722206239E+01
 0.40556951955E+01 0.44294055760E+01 0.50790187288E+01 0.63166068808E+01 0.83915483852E+01
 0.11453009216E+02 0.15538006519E+02 0.20571194933E+02 0.26364765249E+02 0.32614821258E+02
 0.38902358329E+02 0.44714086166E+02 0.49494875087E+02 0.52730216252E+02 0.54040782260E+02
 0.53260991969E+02 0.61750475217E+02 0.56982691122E+02 0.50611758271E+02 0.43276510348E+02
 0.35624952750E+02 0.28231145625E+02 0.21548401455E+02 0.15892957253E+02 0.11442288679E+02
 0.82347711983E+01 0.61689134292E+01 0.50117442779E+01 0.44288429406E+01 0.40633269097E+01
 0.37929649322E+01 0.36209176847E+01 0.35427957461E+01 0.35542889875E+01 0.36558242954E+01
 0.38516044626E+01 0.41432025653E+01 0.45359921905E+01 0.52444897399E+01 0.66253914106E+01
 0.89710752756E+01 0.12463857065E+02 0.17160254524E+02 0.22991292130E+02 0.29763985784E+02
 0.37156557847E+02 0.44714086166E+02 0.51862326939E+02 0.57956827410E+02 0.62370856367E+02
 0.64605823928E+02 0.64392634379E+02 0.72864731863E+02 0.68064961265E+02 0.61229497835E+02
 0.53060516953E+02 0.44300076773E+02 0.35624952750E+02 0.27583959144E+02 0.20576408795E+02
 0.14853729614E+02 0.10523957293E+02 0.75501535539E+01 0.57496960740E+01 0.48104991146E+01
 0.43364736890E+01 0.40058380068E+01 0.37796464015E+01 0.36590689688E+01 0.36404370801E+01
 0.37227442329E+01 0.39087619638E+01 0.41995462418E+01 0.45978557657E+01 0.53226729221E+01
 0.67707584035E+01 0.92806482430E+01 0.13074947510E+02 0.18238798807E+02 0.24719688101E+02
 0.32330995478E+02 0.40747268749E+02 0.49494875087E+02 0.57956827410E+02 0.65414127270E+02
 0.71133735626E+02 0.74490899870E+02 0.75092999230E+02 0.82938211649E+02 0.78424149545E+02
 0.71433497281E+02 0.62704992616E+02 0.53060516953E+02 0.43276510348E+02 0.34000001780E+02
 0.25715817623E+02 0.18748447725E+02 0.13272912750E+02 0.93172438435E+01 0.67575284661E+01
 0.53218607585E+01 0.46216430664E+01 0.42279628406E+01 0.39455770940E+01 0.37767911819E+01
 0.37205229020E+01 0.37750598727E+01 0.39418537259E+01 0.42217211619E+01 0.46120630304E+01
 0.53068647486E+01 0.67319369587E+01 0.92719567071E+01 0.13195439141E+02 0.18625132275E+02
 0.25535579223E+02 0.33758762854E+02 0.42981024733E+02 0.52730216252E+02 0.62370856367E+02
 0.71133735626E+02 0.78197438347E+02 0.82816028730E+02 0.84461791624E+02 0.91030305649E+02
 0.87139387154E+02 0.80361503723E+02 0.71433497281E+02 0.61229497835E+02 0.50611758271E+02
 0.40322473447E+02 0.30933452954E+02 0.22842548470E+02 0.16289091551E+02 0.11363211808E+02
 0.80017991171E+01 0.59841078629E+01 0.49489081060E+01 0.44474042642E+01 0.41114665473E+01
 0.38920804825E+01 0.37928260042E+01 0.38122968475E+01 0.39508807983E+01 0.42093619844E+01
 0.45815141958E+01 0.52074010501E+01 0.65201409433E+01 0.89462332705E+01 0.12802883842E+02
 0.18258071893E+02 0.25323389939E+02 0.33860965985E+02 0.43583555541E+02 0.54040782260E+02
 0.64605823928E+02 0.74490899870E+02 0.82816028730E+02 0.88733708081E+02 0.91583503092E+02
 0.96288366951E+02 0.93324071633E+02 0.87139387154E+02 0.78424149545E+02 0.68064961265E+02
 0.56982691122E+02 0.46001291512E+02 0.35775700010E+02 0.26776364750E+02 0.19304642676E+02
 0.13508713117E+02 0.93841982959E+01 0.67662434799E+01 0.53349774875E+01 0.46545328507E+01
 0.42679718413E+01 0.39995792118E+01 0.38550877819E+01 0.38344961590E+01 0.39374703205E+01
 0.41648170518E+01 0.45113505849E+01 0.50478390697E+01 0.61762461320E+01 0.83555575720E+01
 0.11950444839E+02 0.17179285188E+02 0.24099227219E+02 0.32612436978E+02 0.42470119142E+02
 0.53260991969E+02 0.64392634379E+02 0.75092999230E+02 0.84461791624E+02 0.91583503092E+02
 0.95684200547E+02 0.96288366951E+02 0.95684200547E+02 0.91583503092E+02 0.84461791624E+02
 0.75092999230E+02 0.64392634379E+02 0.53260991969E+02 0.42470119142E+02 0.32612436978E+02
 0.24099227219E+02 0.17179285188E+02 0.11950444839E+02 0.83555575720E+01 0.61762461320E+01
 0.50478390697E+01 0.45113505849E+01 0.41648170518E+01 0.39374703205E+01 0.38344961590E+01
 0.38550877819E+01 0.39995792118E+01 0.42679718413E+01 0.46545328507E+01 0.53349774875E+01
 0.67662434799E+01 0.93841982959E+01 0.13508713117E+02 0.19304642676E+02 0.26776364750E+02
 0.35775700010E+02 0.46001291512E+02 0.56982691122E+02 0.68064961265E+02 0.78424149545E+02
 0.87139387154E+02 0.93324071633E+02 0.95684200547E+02 0.96288366741E+02 0.93324071242E+02
 0.87139386647E+02 0.78424149004E+02 0.68064960768E+02 0.56982690721E+02 0.46001291229E+02
 0.35775699835E+02 0.26776364655E+02 0.19304642629E+02 0.13508713092E+02 0.93841982819E+01
 0.67662434756E+01 0.53349774957E+01 0.46545328714E+01 0.42679718686E+01 0.39995792356E+01
 0.38550877929E+01 0.38344961540E+01 0.39374703043E+01 0.41648170351E+01 0.45113505788E+01
 0.50478390808E+01 0.61762461600E+01 0.83555576128E+01 0.11950444891E+02 0.17179285259E+02
 0.24099227327E+02 0.32612437149E+02 0.42470119397E+02 0.53260992310E+02 0.64392634780E+02
 0.75092999636E+02 0.84461791962E+02 0.91583503287E+02 0.91583503092E+02 0.93324071242E+02
 0.91583502741E+02 0.86567935365E+02 0.78849055580E+02 0.69240706623E+02 0.58641664754E+02
 0.47894336146E+02 0.37694520406E+02 0.28559451078E+02 0.20835109976E+02 0.14712954419E+02
 0.10235041992E+02 0.72873434831E+01 0.55992800443E+01 0.47712084809E+01 0.43424960741E+01
 0.40411662194E+01 0.38598959203E+01 0.37998161940E+01 0.38598958934E+01 0.40411661791E+01
 0.43424960397E+01 0.47712084681E+01 0.55992800581E+01 0.72873435186E+01 0.10235042043E+02
 0.14712954493E+02 0.20835110100E+02 0.28559451297E+02 0.37694520771E+02 0.47894336686E+02
 0.58641665458E+02 0.69240707425E+02 0.78849056364E+02 0.86567935995E+02 0.84461791624E+02
 0.87139386647E+02 0.86567935365E+02 0.82816028357E+02 0.76319222051E+02 0.67784394016E+02
 0.58047661200E+02 0.47932525043E+02 0.38147270958E+02 0.29237194794E+02 0.21580746909E+02
 0.15403281621E+02 0.10785004710E+02 0.76569183124E+01 0.57975776751E+01 0.48514289587E+01
 0.43819321924E+01 0.40577861152E+01 0.38472162314E+01 0.37524724366E+01 0.37717461101E+01
 0.39056077584E+01 0.41556846387E+01 0.45164506540E+01 0.50963552935E+01 0.63042303881E+01
 0.85592480339E+01 0.12177773437E+02 0.17331782267E+02 0.24039221439E+02 0.32169373880E+02
 0.41443587375E+02 0.51424274078E+02 0.61504951255E+02 0.70927456506E+02 0.78849056207E+02
 0.75092999230E+02 0.78424149004E+02 0.78849055580E+02 0.76319222051E+02 0.71133735339E+02
 0.63873027142E+02 0.55278858635E+02 0.46120935766E+02 0.37089406109E+02 0.28734713425E+02
 0.21451854515E+02 0.15488265823E+02 0.10952302549E+02 0.78119087547E+01 0.58908683205E+01
 0.48806486834E+01 0.43824548236E+01 0.40463815462E+01 0.38157448288E+01 0.36935690335E+01
 0.36771589263E+01 0.37659989339E+01 0.39629431906E+01 0.42684252965E+01 0.46921976407E+01
 0.54926031097E+01 0.70852279894E+01 0.98197511868E+01 0.13922649072E+02 0.19474265605E+02
 0.26407879933E+02 0.34513021239E+02 0.43431240195E+02 0.52648679762E+02 0.61504951145E+02
 0.69240707173E+02 0.64392634379E+02 0.68064960768E+02 0.69240706623E+02 0.67784394016E+02
 0.63873027142E+02 0.57956827269E+02 0.50664378296E+02 0.42684542561E+02 0.34661479220E+02
 0.27127222178E+02 0.20475519420E+02 0.14962476835E+02 0.10713495113E+02 0.77239537303E+01
 0.58563010776E+01 0.48478034465E+01 0.43433957146E+01 0.40058698442E+01 0.37650275928E+01
 0.36240492493E+01 0.35792547293E+01 0.36286083118E+01 0.37747754212E+01 0.40220795355E+01
 0.43679892541E+01 0.48844233502E+01 0.59149636197E+01 0.78238539161E+01 0.10882414071E+02
 0.15232081688E+02 0.20872799006E+02 0.27663908924E+02 0.35324553008E+02 0.43431240127E+02
 0.51424273913E+02 0.58641665177E+02 0.53260991969E+02 0.56982690721E+02 0.58641664754E+02
 0.58047661200E+02 0.55278858635E+02 0.50664378296E+02 0.44714086164E+02 0.38019627114E+02
 0.31157957169E+02 0.24622085328E+02 0.18787417639E+02 0.13905286518E+02 0.10106987788E+02
 0.74054828018E+01 0.56938876785E+01 0.47510303849E+01 0.42670252306E+01 0.39374168747E+01
 0.36958300028E+01 0.35449947269E+01 0.34802112238E+01 0.34977554885E+01 0.35990648311E+01
 0.37899038857E+01 0.40746148834E+01 0.44519848672E+01 0.50764968913E+01 0.62919728288E+01
 0.83977590934E+01 0.11588962159E+02 0.15932005188E+02 0.21358119348E+02 0.27663908883E+02
 0.34513021140E+02 0.41443587202E+02 0.47894336428E+02 0.42470119142E+02 0.46001291229E+02
 0.47894336146E+02 0.47932525043E+02 0.46120935766E+02 0.42684542561E+02 0.38019627114E+02
 0.32614821345E+02 0.26967013290E+02 0.21514956980E+02 0.16601592634E+02 0.12461709041E+02
 0.92225334714E+01 0.69055406415E+01 0.54263539317E+01 0.45994282577E+01 0.41582237296E+01
 0.38443670857E+01 0.36103297606E+01 0.34579504634E+01 0.33815888341E+01 0.33759446419E+01
 0.34406859626E+01 0.35811437632E+01 0.38049815521E+01 0.41152454932E+01 0.45226789255E+01
 0.52340889057E+01 0.65522282161E+01 0.87106972056E+01 0.11836293552E+02 0.15932005161E+02
 0.20872798944E+02 0.26407879829E+02 0.32169373725E+02 0.37694520563E+02 0.32612436978E+02
 0.35775699835E+02 0.37694520406E+02 0.38147270958E+02 0.37089406109E+02 0.34661479220E+02
 0.31157957169E+02 0.26967013290E+02 0.22500520259E+02 0.18133924078E+02 0.14167817506E+02
 0.10811539544E+02 0.81804623879E+01 0.62972189180E+01 0.50927017298E+01 0.44106305957E+01
 0.40239715684E+01 0.37318799722E+01 0.35120784045E+01 0.33651544368E+01 0.32847486456E+01
 0.32643412600E+01 0.33017762351E+01 0.34008314165E+01 0.35696903882E+01 0.38164049474E+01
 0.41419778649E+01 0.45719496098E+01 0.53231080901E+01 0.66450258734E+01 0.87106971840E+01
 0.11588962113E+02 0.15232081617E+02 0.19474265506E+02 0.24039221311E+02 0.28559451144E+02
 0.24099227219E+02 0.26776364655E+02 0.28559451078E+02 0.29237194794E+02 0.28734713425E+02
 0.27127222178E+02 0.24622085328E+02 0.21514956980E+02 0.18133924078E+02 0.14787667037E+02