   1   1   1   0
  0.1157456E+02  0.2468172E-09  0.2468172E-09  0.2468172E-09  0.5000000E-15
  1.000000000000000E-004
  CAR 
 Fe BCC                                  
     46.43150485     -4.66565221  301      5.56072758      1.00000000
     -4.666  0.0000E+00  0.0000E+00  0.0000E+00  0.0000E+00
     -4.495  0.0000E+00  0.0000E+00  0.0000E+00  0.0000E+00
     -4.325  0.0000E+00  0.0000E+00  0.0000E+00  0.0000E+00
     -4.155  0.0000E+00  0.0000E+00  0.0000E+00  0.0000E+00
     -3.984  0.0000E+00  0.0000E+00  0.0000E+00  0.0000E+00
     -3.814  0.0000E+00  0.0000E+00  0.0000E+00  0.0000E+00
     -3.644  0.0000E+00  0.0000E+00  0.0000E+00  0.0000E+00
     -3.473  0.0000E+00  0.0000E+00  0.0000E+00  0.0000E+00
     -3.303  0.0000E+00  0.0000E+00  0.0000E+00  0.0000E+00
     -3.133  0.0000E+00  0.0000E+00  0.0000E+00  0.0000E+00
     -2.962  0.0000E+00  0.0000E+00  0.0000E+00  0.0000E+00
     -2.792  0.0000E+00  0.0000E+00  0.0000E+00  0.0000E+00
     -2.622  0.0000E+00  0.0000E+00  0.0000E+00  0.0000E+00
     -2.451  0.0000E+00  0.0000E+00  0.0000E+00  0.0000E+00
     -2.281  0.1232E-01  0.0000E+00  0.1334E-02  0.0000E+00
     -2.111  0.1876E-01  0.1443E-01  0.3996E-02  0.2134E-02
     -1.940  0.2417E-01  0.2025E-01  0.7667E-02  0.5102E-02
     -1.770  0.2855E-01  0.2504E-01  0.1217E-01  0.8975E-02
     -1.600  0.3586E-01  0.2927E-01  0.1760E-01  0.1358E-01
     -1.429  0.4264E-01  0.3658E-01  0.2431E-01  0.1921E-01
     -1.259  0.4770E-01  0.4216E-01  0.3203E-01  0.2594E-01
     -1.089  0.4900E-01  0.4601E-01  0.4027E-01  0.3347E-01
     -0.919  0.5464E-01  0.4607E-01  0.4909E-01  0.4121E-01
     -0.748  0.6081E-01  0.5030E-01  0.5891E-01  0.4941E-01
     -0.578  0.6751E-01  0.5481E-01  0.6983E-01  0.5836E-01
     -0.408  0.7474E-01  0.5960E-01  0.8194E-01  0.6810E-01
     -0.237  0.8251E-01  0.6467E-01  0.9532E-01  0.7867E-01
     -0.067  0.9364E-01  0.7001E-01  0.1101E+00  0.9014E-01
      0.103  0.1111E+00  0.7475E-01  0.1276E+00  0.1025E+00
      0.274  0.1299E+00  0.8223E-01  0.1481E+00  0.1159E+00
      0.444  0.1529E+00  0.8949E-01  0.1720E+00  0.1305E+00
      0.614  0.1926E+00  0.9597E-01  0.2012E+00  0.1463E+00
      0.785  0.2451E+00  0.1028E+00  0.2383E+00  0.1632E+00
      0.955  0.4759E+00  0.1117E+00  0.2924E+00  0.1814E+00
      1.125  0.5900E+00  0.1230E+00  0.3821E+00  0.2014E+00
      1.296  0.8206E+00  0.1358E+00  0.5007E+00  0.2234E+00
      1.466  0.1166E+01  0.1501E+00  0.6704E+00  0.2477E+00
      1.636  0.9085E+00  0.1659E+00  0.8490E+00  0.2746E+00
      1.807  0.5733E+00  0.1862E+00  0.9745E+00  0.3044E+00
      1.977  0.4283E+00  0.2527E+00  0.1060E+01  0.3411E+00
      2.147  0.4110E+00  0.3780E+00  0.1122E+01  0.3929E+00
      2.318  0.1624E+01  0.3790E+00  0.1266E+01  0.4592E+00
      2.488  0.1640E+01  0.3939E+00  0.1566E+01  0.5251E+00
      2.658  0.8608E+00  0.3934E+00  0.1786E+01  0.5924E+00
      2.829  0.7907E+00  0.4639E+00  0.1919E+01  0.6614E+00
      2.999  0.1081E+01  0.7054E+00  0.2072E+01  0.7620E+00
      3.169  0.1883E+01  0.6253E+00  0.2312E+01  0.8888E+00
      3.340  0.1107E+01  0.4615E+00  0.2629E+01  0.9818E+00
      3.510  0.5070E+00  0.2260E+00  0.2752E+01  0.1044E+01
      3.680  0.4262E+00  0.1633E+00  0.2830E+01  0.1076E+01
      3.851  0.4183E+00  0.5135E+00  0.2901E+01  0.1121E+01
      4.021  0.7216E+00  0.1183E+01  0.2983E+01  0.1289E+01
      4.191  0.9034E+00  0.1550E+01  0.3106E+01  0.1512E+01
      4.362  0.1627E+01  0.1050E+01  0.3318E+01  0.1761E+01
      4.532  0.2250E+01  0.1152E+01  0.3669E+01  0.1947E+01
      4.702  0.1943E+01  0.1106E+01  0.4075E+01  0.2130E+01
      4.872  0.1350E+01  0.1467E+01  0.4428E+01  0.2347E+01
      5.043  0.1068E+01  0.1273E+01  0.4637E+01  0.2578E+01
      5.213  0.8490E+00  0.8904E+00  0.4792E+01  0.2762E+01
      5.383  0.8109E+00  0.2710E+00  0.4932E+01  0.2857E+01
      5.554  0.1172E+01  0.2084E+00  0.5092E+01  0.2899E+01
      5.724  0.2885E+00  0.1472E+00  0.5212E+01  0.2926E+01
      5.894  0.1511E+00  0.1651E+00  0.5244E+01  0.2952E+01
      6.065  0.1507E+00  0.3024E+00  0.5270E+01  0.2990E+01
      6.235  0.1557E+00  0.3806E+00  0.5296E+01  0.3046E+01
      6.405  0.1736E+00  0.5549E+00  0.5327E+01  0.3124E+01
      6.576  0.1648E+00  0.8160E+00  0.5355E+01  0.3238E+01
      6.746  0.1560E+00  0.1027E+01  0.5383E+01  0.3398E+01
      6.916  0.1513E+00  0.1493E+01  0.5409E+01  0.3620E+01
      7.087  0.1512E+00  0.1648E+01  0.5434E+01  0.3900E+01
      7.257  0.1511E+00  0.1231E+01  0.5460E+01  0.4132E+01
      7.427  0.1510E+00  0.1344E+01  0.5486E+01  0.4348E+01
      7.598  0.1509E+00  0.1544E+01  0.5512E+01  0.4756E+01
      7.768  0.1508E+00  0.1335E+01  0.5537E+01  0.4995E+01
      7.938  0.1501E+00  0.6292E+00  0.5563E+01  0.5192E+01
      8.109  0.1482E+00  0.2982E+00  0.5588E+01  0.5249E+01
      8.279  0.1452E+00  0.2762E+00  0.5613E+01  0.5298E+01
      8.449  0.1489E+00  0.2524E+00  0.5639E+01  0.5343E+01
      8.620  0.1430E+00  0.2221E+00  0.5663E+01  0.5384E+01
      8.790  0.1360E+00  0.2071E+00  0.5687E+01  0.5420E+01
      8.960  0.1556E+00  0.2032E+00  0.5711E+01  0.5455E+01
      9.131  0.1276E+00  0.2006E+00  0.5735E+01  0.5489E+01
      9.301  0.1226E+00  0.1990E+00  0.5756E+01  0.5523E+01
      9.471  0.1177E+00  0.1949E+00  0.5777E+01  0.5557E+01
      9.642  0.1128E+00  0.1880E+00  0.5796E+01  0.5589E+01
      9.812  0.1080E+00  0.1885E+00  0.5815E+01  0.5621E+01
      9.982  0.1033E+00  0.1721E+00  0.5833E+01  0.5652E+01
     10.153  0.9692E-01  0.1629E+00  0.5850E+01  0.5680E+01
     10.323  0.9054E-01  0.1638E+00  0.5866E+01  0.5708E+01
     10.493  0.8424E-01  0.1492E+00  0.5881E+01  0.5736E+01
     10.663  0.7803E-01  0.1421E+00  0.5895E+01  0.5761E+01
     10.834  0.8118E-01  0.1353E+00  0.5908E+01  0.5784E+01
     11.004  0.7445E-01  0.1286E+00  0.5921E+01  0.5807E+01
     11.174  0.6519E-01  0.1222E+00  0.5933E+01  0.5828E+01
     11.345  0.4643E-01  0.1160E+00  0.5943E+01  0.5848E+01
     11.515  0.4277E-01  0.1073E+00  0.5950E+01  0.5867E+01
     11.685  0.3932E-01  0.9866E-01  0.5957E+01  0.5885E+01
     11.856  0.3469E-01  0.9821E-01  0.5965E+01  0.5902E+01
     12.026  0.2705E-01  0.8776E-01  0.5970E+01  0.5918E+01
     12.196  0.2145E-01  0.7506E-01  0.5974E+01  0.5932E+01
     12.367  0.1790E-01  0.5456E-01  0.5978E+01  0.5943E+01
     12.537  0.1648E-01  0.4976E-01  0.5981E+01  0.5952E+01
     12.707  0.1864E-01  0.4526E-01  0.5984E+01  0.5960E+01
     12.878  0.2518E-01  0.3893E-01  0.5987E+01  0.5968E+01
     13.048  0.5465E-01  0.2985E-01  0.5994E+01  0.5974E+01
     13.218  0.8645E-01  0.2317E-01  0.6006E+01  0.5979E+01
     13.389  0.1242E+00  0.1889E-01  0.6024E+01  0.5982E+01
     13.559  0.1826E+00  0.1703E-01  0.6050E+01  0.5985E+01
     13.729  0.2350E+00  0.1811E-01  0.6088E+01  0.5988E+01
     13.900  0.2472E+00  0.2228E-01  0.6129E+01  0.5991E+01
     14.070  0.2579E+00  0.3288E-01  0.6172E+01  0.5997E+01
     14.240  0.2664E+00  0.5152E-01  0.6216E+01  0.6003E+01
     14.411  0.2258E+00  0.9676E-01  0.6260E+01  0.6016E+01
     14.581  0.1835E+00  0.1646E+00  0.6292E+01  0.6038E+01
     14.751  0.1794E+00  0.2296E+00  0.6323E+01  0.6073E+01
     14.922  0.1748E+00  0.2821E+00  0.6353E+01  0.6117E+01
     15.092  0.1703E+00  0.2988E+00  0.6382E+01  0.6167E+01
     15.262  0.1669E+00  0.3080E+00  0.6411E+01  0.6218E+01
     15.433  0.1694E+00  0.2149E+00  0.6440E+01  0.6266E+01
     15.603  0.1774E+00  0.2088E+00  0.6470E+01  0.6302E+01
     15.773  0.1784E+00  0.2021E+00  0.6500E+01  0.6337E+01
     15.944  0.1770E+00  0.2011E+00  0.6530E+01  0.6371E+01
     16.114  0.1669E+00  0.2026E+00  0.6561E+01  0.6406E+01
     16.284  0.1710E+00  0.2200E+00  0.6589E+01  0.6443E+01
     16.455  0.1768E+00  0.1708E+00  0.6619E+01  0.6476E+01
     16.625  0.1837E+00  0.1790E+00  0.6650E+01  0.6506E+01
     16.795  0.1990E+00  0.1822E+00  0.6684E+01  0.6537E+01
     16.965  0.2011E+00  0.1862E+00  0.6718E+01  0.6568E+01
     17.136  0.2034E+00  0.1907E+00  0.6752E+01  0.6600E+01
     17.306  0.2063E+00  0.1967E+00  0.6787E+01  0.6633E+01
     17.476  0.2089E+00  0.2133E+00  0.6822E+01  0.6669E+01
     17.647  0.2101E+00  0.2158E+00  0.6858E+01  0.6705E+01
     17.817  0.2175E+00  0.2179E+00  0.6896E+01  0.6742E+01
     17.987  0.2322E+00  0.2203E+00  0.6935E+01  0.6780E+01
     18.158  0.1932E+00  0.2225E+00  0.6971E+01  0.6817E+01
     18.328  0.1907E+00  0.2302E+00  0.7004E+01  0.6857E+01
     18.498  0.1882E+00  0.2299E+00  0.7036E+01  0.6896E+01
     18.669  0.1858E+00  0.2155E+00  0.7068E+01  0.6936E+01
     18.839  0.1837E+00  0.2022E+00  0.7099E+01  0.6972E+01
     19.009  0.1827E+00  0.1996E+00  0.7130E+01  0.7006E+01
     19.180  0.1813E+00  0.1971E+00  0.7161E+01  0.7040E+01
     19.350  0.1797E+00  0.1946E+00  0.7192E+01  0.7073E+01
     19.520  0.1810E+00  0.1924E+00  0.7224E+01  0.7106E+01
     19.691  0.1771E+00  0.1915E+00  0.7254E+01  0.7139E+01
     19.861  0.1738E+00  0.1902E+00  0.7284E+01  0.7171E+01
     20.031  0.1726E+00  0.1888E+00  0.7313E+01  0.7203E+01
     20.202  0.1704E+00  0.1922E+00  0.7343E+01  0.7236E+01
     20.372  0.1687E+00  0.1843E+00  0.7371E+01  0.7268E+01
     20.542  0.1673E+00  0.1833E+00  0.7400E+01  0.7300E+01
     20.713  0.1659E+00  0.1815E+00  0.7428E+01  0.7331E+01
     20.883  0.1645E+00  0.1793E+00  0.7456E+01  0.7361E+01
     21.053  0.1632E+00  0.1781E+00  0.7484E+01  0.7392E+01
     21.224  0.1619E+00  0.1769E+00  0.7512E+01  0.7422E+01
     21.394  0.1681E+00  0.1756E+00  0.7541E+01  0.7452E+01
     21.564  0.1696E+00  0.1744E+00  0.7570E+01  0.7482E+01
     21.735  0.1727E+00  0.1732E+00  0.7599E+01  0.7512E+01
     21.905  0.1766E+00  0.1721E+00  0.7629E+01  0.7541E+01
     22.075  0.1826E+00  0.1706E+00  0.7659E+01  0.7570E+01
     22.246  0.2086E+00  0.1781E+00  0.7692E+01  0.7601E+01
     22.416  0.2066E+00  0.1815E+00  0.7727E+01  0.7631E+01
     22.586  0.2233E+00  0.1889E+00  0.7764E+01  0.7663E+01
     22.756  0.2346E+00  0.1994E+00  0.7803E+01  0.7696E+01
     22.927  0.2283E+00  0.2245E+00  0.7841E+01  0.7731E+01
     23.097  0.2349E+00  0.2260E+00  0.7881E+01  0.7769E+01
     23.267  0.2410E+00  0.2444E+00  0.7921E+01  0.7810E+01
     23.438  0.2471E+00  0.2417E+00  0.7963E+01  0.7852E+01
     23.608  0.2515E+00  0.2494E+00  0.8006E+01  0.7894E+01
     23.778  0.2598E+00  0.2556E+00  0.8049E+01  0.7937E+01
     23.949  0.2609E+00  0.2612E+00  0.8094E+01  0.7981E+01
     24.119  0.2747E+00  0.2556E+00  0.8140E+01  0.8024E+01
     24.289  0.3112E+00  0.2597E+00  0.8187E+01  0.8068E+01
     24.460  0.2926E+00  0.2724E+00  0.8238E+01  0.8113E+01
     24.630  0.3121E+00  0.2817E+00  0.8289E+01  0.8160E+01
     24.800  0.3068E+00  0.2890E+00  0.8343E+01  0.8210E+01
     24.971  0.3042E+00  0.2997E+00  0.8395E+01  0.8260E+01
     25.141  0.3011E+00  0.3148E+00  0.8446E+01  0.8312E+01
     25.311  0.2897E+00  0.3184E+00  0.8496E+01  0.8368E+01
     25.482  0.2868E+00  0.3144E+00  0.8546E+01  0.8422E+01
     25.652  0.2798E+00  0.3047E+00  0.8594E+01  0.8475E+01
     25.822  0.2716E+00  0.3015E+00  0.8641E+01  0.8527E+01
     25.993  0.2623E+00  0.2915E+00  0.8686E+01  0.8577E+01
     26.163  0.2511E+00  0.2811E+00  0.8730E+01  0.8626E+01
     26.333  0.2373E+00  0.2707E+00  0.8772E+01  0.8673E+01
     26.504  0.2255E+00  0.2587E+00  0.8811E+01  0.8718E+01
     26.674  0.2029E+00  0.2444E+00  0.8848E+01  0.8761E+01
     26.844  0.1756E+00  0.2280E+00  0.8880E+01  0.8801E+01
     27.015  0.1612E+00  0.2128E+00  0.8908E+01  0.8839E+01
     27.185  0.1531E+00  0.1908E+00  0.8936E+01  0.8873E+01
     27.355  0.1533E+00  0.1748E+00  0.8962E+01  0.8904E+01
     27.526  0.1542E+00  0.1653E+00  0.8988E+01  0.8933E+01
     27.696  0.1513E+00  0.1566E+00  0.9014E+01  0.8960E+01
     27.866  0.1567E+00  0.1500E+00  0.9041E+01  0.8986E+01
     28.037  0.1496E+00  0.1517E+00  0.9066E+01  0.9012E+01
     28.207  0.1491E+00  0.1593E+00  0.9092E+01  0.9039E+01
     28.377  0.1486E+00  0.1530E+00  0.9117E+01  0.9065E+01
     28.547  0.1589E+00  0.1522E+00  0.9143E+01  0.9091E+01
     28.718  0.1554E+00  0.1482E+00  0.9170E+01  0.9117E+01
     28.888  0.1469E+00  0.1639E+00  0.9196E+01  0.9143E+01
     29.058  0.1455E+00  0.1523E+00  0.9221E+01  0.9170E+01
     29.229  0.1500E+00  0.1439E+00  0.9246E+01  0.9195E+01
     29.399  0.1561E+00  0.1473E+00  0.9272E+01  0.9220E+01
     29.569  0.1629E+00  0.1508E+00  0.9299E+01  0.9245E+01
     29.740  0.1703E+00  0.1558E+00  0.9327E+01  0.9271E+01
     29.910  0.1784E+00  0.1629E+00  0.9357E+01  0.9299E+01
     30.080  0.2424E+00  0.1667E+00  0.9391E+01  0.9328E+01
     30.251  0.3773E+00  0.1744E+00  0.9448E+01  0.9357E+01
     30.421  0.2729E+00  0.2243E+00  0.9509E+01  0.9390E+01
     30.591  0.2376E+00  0.3257E+00  0.9552E+01  0.9436E+01
     30.762  0.2191E+00  0.2984E+00  0.9591E+01  0.9502E+01
     30.932  0.1992E+00  0.2744E+00  0.9627E+01  0.9550E+01
     31.102  0.1756E+00  0.2473E+00  0.9658E+01  0.9595E+01
     31.273  0.1728E+00  0.2123E+00  0.9688E+01  0.9634E+01
     31.443  0.1732E+00  0.1915E+00  0.9717E+01  0.9669E+01
     31.613  0.1822E+00  0.1930E+00  0.9747E+01  0.9701E+01
     31.784  0.1899E+00  0.1852E+00  0.9780E+01  0.9733E+01
     31.954  0.1829E+00  0.1773E+00  0.9811E+01  0.9764E+01
     32.124  0.1819E+00  0.1749E+00  0.9842E+01  0.9794E+01
     32.295  0.1783E+00  0.1687E+00  0.9873E+01  0.9823E+01
     32.465  0.1732E+00  0.1630E+00  0.9903E+01  0.9852E+01
     32.635  0.1600E+00  0.1576E+00  0.9932E+01  0.9879E+01
     32.806  0.2271E+00  0.1622E+00  0.9966E+01  0.9911E+01
     32.976  0.2467E+00  0.1610E+00  0.1000E+02  0.9939E+01
     33.146  0.2679E+00  0.1520E+00  0.1005E+02  0.9965E+01
     33.317  0.2836E+00  0.2169E+00  0.1010E+02  0.1000E+02
     33.487  0.3059E+00  0.2502E+00  0.1015E+02  0.1004E+02
     33.657  0.3309E+00  0.2888E+00  0.1020E+02  0.1009E+02
     33.828  0.3370E+00  0.3149E+00  0.1026E+02  0.1014E+02
     33.998  0.3267E+00  0.3215E+00  0.1031E+02  0.1020E+02
     34.168  0.3250E+00  0.3316E+00  0.1037E+02  0.1025E+02
     34.339  0.3353E+00  0.3346E+00  0.1043E+02  0.1031E+02
     34.509  0.3294E+00  0.3306E+00  0.1048E+02  0.1036E+02
     34.679  0.3107E+00  0.3332E+00  0.1054E+02  0.1042E+02
     34.849  0.2685E+00  0.3223E+00  0.1059E+02  0.1048E+02
     35.020  0.2519E+00  0.3059E+00  0.1063E+02  0.1053E+02
     35.190  0.2445E+00  0.2830E+00  0.1067E+02  0.1058E+02
     35.360  0.2365E+00  0.2631E+00  0.1072E+02  0.1063E+02
     35.531  0.2246E+00  0.2497E+00  0.1075E+02  0.1067E+02
     35.701  0.2209E+00  0.2428E+00  0.1079E+02  0.1071E+02
     35.871  0.2099E+00  0.2362E+00  0.1083E+02  0.1075E+02
     36.042  0.2079E+00  0.2405E+00  0.1087E+02  0.1079E+02
     36.212  0.2087E+00  0.2442E+00  0.1090E+02  0.1084E+02
     36.382  0.2167E+00  0.2225E+00  0.1094E+02  0.1088E+02
     36.553  0.2337E+00  0.2050E+00  0.1098E+02  0.1091E+02
     36.723  0.2492E+00  0.2109E+00  0.1102E+02  0.1095E+02
     36.893  0.2647E+00  0.2219E+00  0.1106E+02  0.1098E+02
     37.064  0.2773E+00  0.2405E+00  0.1111E+02  0.1102E+02
     37.234  0.2915E+00  0.2573E+00  0.1116E+02  0.1107E+02
     37.404  0.3338E+00  0.2730E+00  0.1121E+02  0.1111E+02
     37.575  0.3489E+00  0.2982E+00  0.1127E+02  0.1116E+02
     37.745  0.3158E+00  0.3103E+00  0.1133E+02  0.1121E+02
     37.915  0.2783E+00  0.3542E+00  0.1138E+02  0.1127E+02
     38.086  0.2397E+00  0.3288E+00  0.1143E+02  0.1133E+02
     38.256  0.2265E+00  0.2954E+00  0.1147E+02  0.1138E+02
     38.426  0.2188E+00  0.2445E+00  0.1150E+02  0.1143E+02
     38.597  0.2111E+00  0.2272E+00  0.1154E+02  0.1147E+02
     38.767  0.2034E+00  0.2193E+00  0.1158E+02  0.1151E+02
     38.937  0.1956E+00  0.2115E+00  0.1161E+02  0.1154E+02
     39.108  0.1879E+00  0.2037E+00  0.1164E+02  0.1158E+02
     39.278  0.1802E+00  0.1905E+00  0.1167E+02  0.1161E+02
     39.448  0.1666E+00  0.1839E+00  0.1170E+02  0.1164E+02
     39.619  0.1723E+00  0.1774E+00  0.1173E+02  0.1168E+02
     39.789  0.1774E+00  0.1710E+00  0.1176E+02  0.1171E+02
     39.959  0.1782E+00  0.1750E+00  0.1179E+02  0.1173E+02
     40.130  0.1745E+00  0.1789E+00  0.1182E+02  0.1176E+02
     40.300  0.1219E+00  0.1803E+00  0.1185E+02  0.1180E+02
     40.470  0.9676E-01  0.1958E+00  0.1187E+02  0.1183E+02
     40.640  0.7677E-01  0.1241E+00  0.1189E+02  0.1186E+02
     40.811  0.6593E-01  0.9241E-01  0.1190E+02  0.1187E+02
     40.981  0.6093E-01  0.7212E-01  0.1191E+02  0.1189E+02
     41.151  0.5693E-01  0.6508E-01  0.1192E+02  0.1190E+02
     41.322  0.5310E-01  0.6092E-01  0.1193E+02  0.1191E+02
     41.492  0.4942E-01  0.5691E-01  0.1194E+02  0.1192E+02
     41.662  0.4589E-01  0.5305E-01  0.1195E+02  0.1193E+02
     41.833  0.4252E-01  0.4935E-01  0.1195E+02  0.1194E+02
     42.003  0.3930E-01  0.4579E-01  0.1196E+02  0.1195E+02
     42.173  0.3624E-01  0.4239E-01  0.1197E+02  0.1195E+02
     42.344  0.3333E-01  0.3914E-01  0.1197E+02  0.1196E+02
     42.514  0.3058E-01  0.3604E-01  0.1198E+02  0.1197E+02
     42.684  0.2340E-01  0.2831E-01  0.1198E+02  0.1198E+02
     42.855  0.2150E-01  0.2607E-01  0.1199E+02  0.1198E+02
     43.025  0.1974E-01  0.2395E-01  0.1199E+02  0.1198E+02
     43.195  0.1273E-01  0.2197E-01  0.1200E+02  0.1199E+02
     43.366  0.4155E-02  0.2080E-01  0.1200E+02  0.1199E+02
     43.536  0.3127E-02  0.1364E-01  0.1200E+02  0.1200E+02
     43.706  0.2697E-02  0.8230E-02  0.1200E+02  0.1200E+02
     43.877  0.2289E-02  0.4556E-02  0.1200E+02  0.1200E+02
     44.047  0.0000E+00  0.2623E-02  0.1200E+02  0.1200E+02
     44.217  0.0000E+00  0.0000E+00  0.1200E+02  0.1200E+02
     44.388  0.0000E+00  0.0000E+00  0.1200E+02  0.1200E+02
     44.558  0.0000E+00  0.0000E+00  0.1200E+02  0.1200E+02
     44.728  0.0000E+00  0.0000E+00  0.1200E+02  0.1200E+02
     44.899  0.0000E+00  0.0000E+00  0.1200E+02  0.1200E+02
     45.069  0.0000E+00  0.0000E+00  0.1200E+02  0.1200E+02
     45.239  0.0000E+00  0.0000E+00  0.1200E+02  0.1200E+02
     45.410  0.0000E+00  0.0000E+00  0.1200E+02  0.1200E+02
     45.580  0.0000E+00  0.0000E+00  0.1200E+02  0.1200E+02
     45.750  0.0000E+00  0.0000E+00  0.1200E+02  0.1200E+02
     45.921  0.0000E+00  0.0000E+00  0.1200E+02  0.1200E+02
     46.091  0.0000E+00  0.0000E+00  0.1200E+02  0.1200E+02
     46.261  0.0000E+00  0.0000E+00  0.1200E+02  0.1200E+02
     46.432  0.0000E+00  0.0000E+00  0.1200E+02  0.1200E+02
     46.43150485     -4.66565221  301      5.56072758      1.00000000
     -4.666  0.0000E+00  0.0000E+00  0.0000E+00  0.0000E+00  0.0000E+00  0.0000E+00  0.0000E+00  0.0000E+00  0.0000E+00  0.0000E+00  0.0000E+00  0.0000E+00  0.0000E+00  0.0000E+00  0.0000E+00  0.0000E+00  0.0000E+00  0.0000E+00
     -4.495  0.0000E+00  0.0000E+00  0.0000E+00  0.0000E+00  0.0000E+00  0.0000E+00  0.0000E+00  0.0000E+00  0.0000E+00  0.0000E+00  0.0000E+00  0.0000E+00  0.0000E+00  0.0000E+00  0.0000E+00  0.0000E+00  0.0000E+00  0.0000E+00
     -4.325  0.0000E+00  0.0000E+00  0.0000E+00  0.0000E+00  0.0000E+00  0.0000E+00  0.0000E+00  0.0000E+00  0.0000E+00  0.0000E+00  0.0000E+00  0.0000E+00  0.0000E+00  0.0000E+00  0.0000E+00  0.0000E+00  0.0000E+00  0.0000E+00
     -4.155  0.0000E+00  0.0000E+00  0.0000E+00  0.0000E+00  0.0000E+00  0.0000E+00  0.0000E+00  0.0000E+00  0.0000E+00  0.0000E+00  0.0000E+00  0.0000E+00  0.0000E+00  0.0000E+00  0.0000E+00  0.0000E+00  0.0000E+00  0.0000E+00
     -3.984  0.0000E+00  0.0000E+00  0.0000E+00  0.0000E+00  0.0000E+00  0.0000E+00  0.0000E+00  0.0000E+00  0.0000E+00  0.0000E+00  0.0000E+00  0.0000E+00  0.0000E+00  0.0000E+00  0.0000E+00  0.0000E+00  0.0000E+00  0.0000E+00
     -3.814  0.0000E+00  0.0000E+00  0.0000E+00  0.0000E+00  0.0000E+00  0.0000E+00  0.0000E+00  0.0000E+00  0.0000E+00  0.0000E+00  0.0000E+00  0.0000E+00  0.0000E+00  0.0000E+00  0.0000E+00  0.0000E+00  0.0000E+00  0.0000E+00
     -3.644  0.0000E+00  0.0000E+00  0.0000E+00  0.0000E+00  0.0000E+00  0.0000E+00  0.0000E+00  0.0000E+00  0.0000E+00  0.0000E+00  0.0000E+00  0.0000E+00  0.0000E+00  0.0000E+00  0.0000E+00  0.0000E+00  0.0000E+00  0.0000E+00
     -3.473  0.0000E+00  0.0000E+00  0.0000E+00  0.0000E+00  0.0000E+00  0.0000E+00  0.0000E+00  0.0000E+00  0.0000E+00  0.0000E+00  0.0000E+00  0.0000E+00  0.0000E+00  0.0000E+00  0.0000E+00  0.0000E+00  0.0000E+00  0.0000E+00
     -3.303  0.0000E+00  0.0000E+00  0.0000E+00  0.0000E+00  0.0000E+00  0.0000E+00  0.0000E+00  0.0000E+00  0.0000E+00  0.0000E+00  0.0000E+00  0.0000E+00  0.0000E+00  0.0000E+00  0.0000E+00  0.0000E+00  0.0000E+00  0.0000E+00
     -3.133  0.0000E+00  0.0000E+00  0.0000E+00  0.0000E+00  0.0000E+00  0.0000E+00  0.0000E+00  0.0000E+00  0.0000E+00  0.0000E+00  0.0000E+00  0.0000E+00  0.0000E+00  0.0000E+00  0.0000E+00  0.0000E+00  0.0000E+00  0.0000E+00
     -2.962  0.0000E+00  0.0000E+00  0.0000E+00  0.0000E+00  0.0000E+00  0.0000E+00  0.0000E+00  0.0000E+00  0.0000E+00  0.0000E+00  0.0000E+00  0.0000E+00  0.0000E+00  0.0000E+00  0.0000E+00  0.0000E+00  0.0000E+00  0.0000E+00
     -2.792  0.0000E+00  0.0000E+00  0.0000E+00  0.0000E+00  0.0000E+00  0.0000E+00  0.0000E+00  0.0000E+00  0.0000E+00  0.0000E+00  0.0000E+00  0.0000E+00  0.0000E+00  0.0000E+00  0.0000E+00  0.0000E+00  0.0000E+00  0.0000E+00
     -2.622  0.0000E+00  0.0000E+00  0.0000E+00  0.0000E+00  0.0000E+00  0.0000E+00  0.0000E+00  0.0000E+00  0.0000E+00  0.0000E+00  0.0000E+00  0.0000E+00  0.0000E+00  0.0000E+00  0.0000E+00  0.0000E+00  0.0000E+00  0.0000E+00
     -2.451  0.0000E+00  0.0000E+00  0.0000E+00  0.0000E+00  0.0000E+00  0.0000E+00  0.0000E+00  0.0000E+00  0.0000E+00  0.0000E+00  0.0000E+00  0.0000E+00  0.0000E+00  0.0000E+00  0.0000E+00  0.0000E+00  0.0000E+00  0.0000E+00
     -2.281  0.8286E-02  0.0000E+00  0.8297E-04  0.0000E+00  0.5620E-04  0.0000E+00  0.3524E-03  0.0000E+00  0.2641E-04  0.0000E+00  0.6962E-05  0.0000E+00  0.9784E-05  0.0000E+00  0.6637E-05  0.0000E+00  0.1122E-04  0.0000E+00
     -2.111  0.1240E-01  0.9631E-02  0.1804E-03  0.1176E-03  0.1129E-03  0.7716E-04  0.6292E-03  0.4424E-03  0.6434E-04  0.2348E-04  0.1905E-04  0.6793E-05  0.2471E-04  0.8307E-05  0.1447E-04  0.6165E-05  0.2839E-04  0.1001E-04
     -1.940  0.1573E-01  0.1332E-01  0.2804E-03  0.2152E-03  0.1594E-03  0.1296E-03  0.9369E-03  0.7227E-03  0.1119E-03  0.4776E-04  0.3629E-04  0.1464E-04  0.4566E-04  0.1774E-04  0.2253E-04  0.1108E-04  0.5501E-04  0.2162E-04
     -1.770  0.1827E-01  0.1623E-01  0.3829E-03  0.3154E-03  0.1956E-03  0.1721E-03  0.1276E-02  0.1032E-02  0.1692E-03  0.7729E-04  0.5870E-04  0.2482E-04  0.7265E-04  0.3035E-04  0.3083E-04  0.1591E-04  0.9107E-04  0.3818E-04
     -1.600  0.2251E-01  0.1866E-01  0.5722E-03  0.4281E-03  0.2926E-03  0.2122E-03  0.1775E-02  0.1387E-02  0.2649E-03  0.1138E-03  0.1229E-03  0.3900E-04  0.1164E-03  0.4667E-04  0.5137E-04  0.2128E-04  0.1487E-03  0.6032E-04
     -1.429  0.2619E-01  0.2291E-01  0.7909E-03  0.6378E-03  0.4281E-03  0.3295E-03  0.2267E-02  0.1892E-02  0.3942E-03  0.1744E-03  0.2387E-03  0.8151E-04  0.1773E-03  0.7201E-04  0.8984E-04  0.3652E-04  0.2277E-03  0.9472E-04
     -1.259  0.2857E-01  0.2591E-01  0.1016E-02  0.8536E-03  0.5859E-03  0.4682E-03  0.2704E-02  0.2342E-02  0.5510E-03  0.2457E-03  0.4004E-03  0.1453E-03  0.2531E-03  0.1022E-03  0.1447E-03  0.5957E-04  0.3258E-03  0.1369E-03
     -1.089  0.2787E-01  0.2765E-01  0.1224E-02  0.1076E-02  0.7860E-03  0.6284E-03  0.3157E-02  0.2737E-02  0.7936E-03  0.3278E-03  0.6434E-03  0.2303E-03  0.4044E-03  0.1374E-03  0.2489E-03  0.9041E-04  0.5542E-03  0.1870E-03
     -0.919  0.3011E-01  0.2651E-01  0.1429E-02  0.1266E-02  0.9469E-03  0.8218E-03  0.3710E-02  0.3139E-02  0.1177E-02  0.4489E-03  0.8323E-03  0.3455E-03  0.6309E-03  0.2059E-03  0.3500E-03  0.1452E-03  0.7616E-03  0.3035E-03
     -0.748  0.3249E-01  0.2828E-01  0.1642E-02  0.1463E-02  0.1115E-02  0.9730E-03  0.4326E-02  0.3637E-02  0.1637E-02  0.6200E-03  0.1054E-02  0.4320E-03  0.9087E-03  0.2918E-03  0.4741E-03  0.1938E-03  0.1004E-02  0.4007E-03
     -0.578  0.3500E-01  0.3014E-01  0.1862E-02  0.1666E-02  0.1289E-02  0.1129E-02  0.5005E-02  0.4184E-02  0.2172E-02  0.8187E-03  0.1309E-02  0.5301E-03  0.1238E-02  0.3932E-03  0.6212E-03  0.2512E-03  0.1282E-02  0.5114E-03
     -0.408  0.3764E-01  0.3206E-01  0.2090E-02  0.1876E-02  0.1470E-02  0.1291E-02  0.5747E-02  0.4781E-02  0.2783E-02  0.1045E-02  0.1597E-02  0.6401E-03  0.1618E-02  0.5101E-03  0.7913E-03  0.3172E-03  0.1596E-02  0.6358E-03
     -0.237  0.4041E-01  0.3406E-01  0.2326E-02  0.2092E-02  0.1658E-02  0.1458E-02  0.6552E-02  0.5428E-02  0.3470E-02  0.1299E-02  0.1918E-02  0.7618E-03  0.2050E-02  0.6425E-03  0.9845E-03  0.3920E-03  0.1944E-02  0.7739E-03
     -0.067  0.4345E-01  0.3614E-01  0.2687E-02  0.2314E-02  0.2027E-02  0.1629E-02  0.7554E-02  0.6124E-02  0.4656E-02  0.1580E-02  0.2910E-02  0.8952E-03  0.2884E-02  0.7903E-03  0.1505E-02  0.4755E-03  0.2498E-02  0.9256E-03
      0.103  0.4786E-01  0.3742E-01  0.3187E-02  0.2527E-02  0.2557E-02  0.1849E-02  0.8997E-02  0.6841E-02  0.6702E-02  0.1947E-02  0.4680E-02  0.1143E-02  0.4444E-02  0.1000E-02  0.2218E-02  0.6413E-03  0.3555E-02  0.1103E-02
      0.274  0.5163E-01  0.3947E-01  0.3600E-02  0.2885E-02  0.3054E-02  0.2218E-02  0.1065E-01  0.7758E-02  0.9273E-02  0.2557E-02  0.6801E-02  0.1668E-02  0.6564E-02  0.1366E-02  0.3053E-02  0.8614E-03  0.5020E-02  0.1408E-02
      0.444  0.5491E-01  0.4108E-01  0.3844E-02  0.3201E-02  0.3388E-02  0.2579E-02  0.1262E-01  0.8723E-02  0.1358E-01  0.3251E-02  0.9434E-02  0.2273E-02  0.1010E-01  0.1819E-02  0.3981E-02  0.1101E-02  0.7071E-02  0.1814E-02
      0.614  0.6187E-01  0.4194E-01  0.4271E-02  0.3428E-02  0.3783E-02  0.2895E-02  0.1517E-01  0.9684E-02  0.2207E-01  0.4050E-02  0.1374E-01  0.2938E-02  0.1659E-01  0.2374E-02  0.5003E-02  0.1357E-02  0.9809E-02  0.2317E-02
      0.785  0.7021E-01  0.4272E-01  0.4712E-02  0.3606E-02  0.4228E-02  0.3162E-02  0.1808E-01  0.1065E-01  0.3433E-01  0.5086E-02  0.1971E-01  0.3660E-02  0.2609E-01  0.3077E-02  0.6193E-02  0.1623E-02  0.1327E-01  0.2882E-02
      0.955  0.1013E+00  0.4431E-01  0.5776E-02  0.3835E-02  0.5672E-02  0.3442E-02  0.2379E-01  0.1173E-01  0.9094E-01  0.6448E-02  0.6108E-01  0.4488E-02  0.7035E-01  0.3953E-02  0.8032E-02  0.1900E-02  0.2941E-01  0.3502E-02
      1.125  0.9599E-01  0.4656E-01  0.5740E-02  0.4100E-02  0.6565E-02  0.3724E-02  0.2757E-01  0.1294E-01  0.9743E-01  0.8339E-02  0.6631E-01  0.5493E-02  0.1213E+00  0.5130E-02  0.1201E-01  0.2190E-02  0.6513E-01  0.4195E-02
      1.296  0.1038E+00  0.4902E-01  0.6260E-02  0.4371E-02  0.7987E-02  0.4017E-02  0.4191E-01  0.1426E-01  0.1233E+00  0.1063E-01  0.8216E-01  0.6664E-02  0.2031E+00  0.6555E-02  0.1992E-01  0.2508E-02  0.1107E+00  0.4965E-02
      1.466  0.9474E-01  0.5169E-01  0.7820E-02  0.4647E-02  0.8942E-02  0.4322E-02  0.5711E-01  0.1568E-01  0.1467E+00  0.1333E-01  0.9121E-01  0.8000E-02  0.3867E+00  0.8229E-02  0.3570E-01  0.2854E-02  0.1774E+00  0.5811E-02
      1.636  0.6213E-01  0.5458E-01  0.7483E-02  0.4929E-02  0.7402E-02  0.4638E-02  0.4081E-01  0.1720E-01  0.1162E+00  0.1643E-01  0.9058E-01  0.9501E-02  0.2594E+00  0.1015E-01  0.4586E-01  0.3229E-02  0.1610E+00  0.6735E-02
      1.807  0.3155E-01  0.5778E-01  0.5995E-02  0.5219E-02  0.4598E-02  0.4963E-02  0.2003E-01  0.1943E-01  0.7496E-01  0.2016E-01  0.1028E+00  0.1118E-01  0.9471E-01  0.1281E-01  0.5005E-01  0.3674E-02  0.1224E+00  0.8659E-02
      1.977  0.1538E-01  0.6731E-01  0.5694E-02  0.6252E-02  0.2886E-02  0.6608E-02  0.1400E-01  0.2343E-01  0.4460E-01  0.3157E-01  0.8149E-01  0.2406E-01  0.5912E-01  0.2092E-01  0.3849E-01  0.5487E-02  0.1197E+00  0.1362E-01
      2.147  0.4554E-02  0.8524E-01  0.8900E-02  0.6899E-02  0.3668E-02  0.7745E-02  0.1230E-01  0.2926E-01  0.2561E-01  0.6086E-01  0.6238E-01  0.4590E-01  0.7723E-01  0.3989E-01  0.3506E-01  0.7353E-02  0.1374E+00  0.2187E-01
      2.318  0.1407E-02  0.7654E-01  0.3203E-01  0.6080E-02  0.2303E-01  0.7544E-02  0.1876E-01  0.3036E-01  0.3312E+00  0.6257E-01  0.1817E+00  0.4680E-01  0.1630E+00  0.4529E-01  0.5405E+00  0.9056E-02  0.2053E+00  0.2379E-01
      2.488  0.3131E-02  0.7299E-01  0.2540E-01  0.5815E-02  0.1542E-01  0.7500E-02  0.1564E-01  0.3194E-01  0.2118E+00  0.6493E-01  0.2858E+00  0.5052E-01  0.1720E+00  0.5027E-01  0.5742E+00  0.1133E-01  0.2171E+00  0.2663E-01
      2.658  0.5239E-02  0.6670E-01  0.1343E-01  0.5434E-02  0.9153E-02  0.7227E-02  0.6794E-02  0.3253E-01  0.1369E+00  0.6371E-01  0.1279E+00  0.5171E-01  0.1155E+00  0.5311E-01  0.2839E+00  0.1381E-01  0.1003E+00  0.2886E-01
      2.829  0.9492E-02  0.6158E-01  0.1925E-01  0.5310E-02  0.2079E-01  0.7058E-02  0.1135E-01  0.3822E-01  0.1786E+00  0.6569E-01  0.1387E+00  0.5264E-01  0.7281E-01  0.7433E-01  0.2071E+00  0.1773E-01  0.7137E-01  0.6100E-01
      2.999  0.1545E-01  0.5939E-01  0.3053E-01  0.6952E-02  0.3136E-01  0.8044E-02  0.2103E-01  0.5279E-01  0.2410E+00  0.7138E-01  0.2437E+00  0.6787E-01  0.7505E-01  0.1561E+00  0.2212E+00  0.2652E-01  0.1151E+00  0.1396E+00
      3.169  0.2785E-01  0.4374E-01  0.5099E-01  0.8205E-02  0.3935E-01  0.8276E-02  0.4708E-01  0.3868E-01  0.4254E+00  0.6809E-01  0.4414E+00  0.7019E-01  0.1048E+00  0.1620E+00  0.3785E+00  0.2924E-01  0.2235E+00  0.9865E-01
      3.340  0.1935E-01  0.2795E-01  0.3409E-01  0.7597E-02  0.2473E-01  0.6436E-02  0.2665E-01  0.2451E-01  0.2085E+00  0.4996E-01  0.2349E+00  0.6346E-01  0.5598E-01  0.1168E+00  0.2615E+00  0.2895E-01  0.1557E+00  0.6666E-01
      3.510  0.9985E-02  0.6781E-02  0.1888E-01  0.5969E-02  0.1398E-01  0.2564E-02  0.1234E-01  0.1174E-01  0.6960E-01  0.9335E-02  0.1129E+00  0.4819E-01  0.2589E-01  0.4983E-01  0.1079E+00  0.9306E-02  0.9427E-01  0.4960E-01
      3.680  0.6727E-02  0.6214E-04  0.1352E-01  0.6664E-02  0.9591E-02  0.1078E-02  0.8890E-02  0.4866E-02  0.5676E-01  0.4174E-02  0.1033E+00  0.1290E-02  0.2361E-01  0.5326E-01  0.9507E-01  0.3889E-02  0.7815E-01  0.6276E-01
      3.851  0.4860E-02  0.1834E-03  0.1050E-01  0.2348E-01  0.7513E-02  0.1064E-01  0.6477E-02  0.1203E-01  0.6677E-01  0.9712E-01  0.1037E+00  0.1489E-01  0.2937E-01  0.7181E-01  0.9689E-01  0.1151E+00  0.6677E-01  0.1057E+00