    1    1    1    2
  0.1157456E+02  0.2468172E-09  0.2468172E-09  0.2468172E-09  0.5000000E-15
  1.000000000000000E-004
  CAR 
 Fe BCC                                  
      8     26     12
 
  0.6250000E-01  0.6250000E-01  0.6250000E-01  0.1562500E-01
    1       -1.733170     -1.616368   1.000000   1.000000
    2        3.139289      5.072824   1.000000   1.000000
    3        3.139289      5.072824   1.000000   1.000000
    4        3.922636      5.955139   1.000000  -0.023771
    5        4.498080      7.191668   1.000000   0.000000
    6        4.498080      7.191668   1.003387   0.000000
    7       26.836968     26.987167   0.000000   0.000000
    8       26.836968     26.987167   0.000000   0.000000
    9       30.625163     31.043299   0.000000   0.000000
   10       31.374972     31.458569   0.000000   0.000000
   11       36.269205     36.552920   0.000000   0.000000
   12       36.269205     36.552920   0.000000   0.000000
 
  0.1875000E+00  0.6250000E-01  0.6250000E-01  0.4687500E-01
    1       -0.155587      0.053237   1.000000   1.000000
    2        2.740298      4.585309   1.000000   1.000000
    3        2.947822      4.750501   1.000000   1.000000
    4        4.437801      6.997310   1.000000  -0.000950
    5        4.617334      7.047074   1.000909   0.000000
    6        4.922654      7.346342   0.882931   0.000000
    7       21.414274     21.980105   0.000000   0.000000
    8       24.499153     24.773617   0.000000   0.000000
    9       26.786348     27.500020   0.000000   0.000000
   10       31.680061     31.580708   0.000000   0.000000
   11       35.695295     36.242798   0.000000   0.000000
   12       36.914753     37.130095   0.000000   0.000000
 
  0.3125000E+00  0.6250000E-01  0.6250000E-01  0.4687500E-01
    1        0.972806      1.848226   1.000000   1.000000
    2        2.398417      4.165954   1.000000   1.000000
    3        3.718129      4.869369   1.000000   1.007961
    4        4.576396      7.140228   1.000000   0.000000
    5        4.711712      7.484147   1.033168   0.000000
    6        6.329328      8.277933   0.010985   0.000000
    7       15.966119     16.900905   0.000000   0.000000
    8       22.807245     23.069616   0.000000   0.000000
    9       24.468970     25.090004   0.000000   0.000000
   10       31.138223     31.292611   0.000000   0.000000
   11       35.003769     35.536126   0.000000   0.000000
   12       40.226553     40.392427   0.000000   0.000000
 
  0.4375000E+00  0.6250000E-01  0.6250000E-01  0.2343750E-01
    1        1.027544      2.324140   1.000000   1.000000
    2        2.267007      4.005400   1.000000   1.000000
    3        4.638179      5.634933   1.000000   0.887977
    4        4.698979      7.211735   1.000000   0.000000
    5        4.750195      7.543805   1.080012   0.000000
    6        7.718749      9.134898  -0.004849   0.000000
    7       12.873854     14.211618   0.000000   0.000000
    8       22.187795     22.428419   0.000000   0.000000
    9       23.605323     24.177392   0.000000   0.000000
   10       30.902658     31.133535   0.000000   0.000000
   11       34.896716     35.453531   0.000000   0.000000
   12       40.170996     40.143923   0.000000   0.000000
 
 -0.6250000E-01  0.6250000E-01  0.6250000E-01  0.1171875E-01
    1       -2.343054     -2.233959   1.000000   1.000000
    2        3.337414      5.309043   1.000000   1.000000
    3        3.337415      5.309043   1.000000   1.000000
    4        3.423173      5.416943   1.000000   0.378378
    5        4.424839      7.107470   1.000000   0.000000
    6        4.618337      7.357456   1.000000   0.000000
    7       28.778680     28.631409   0.000000   0.000000
    8       30.104786     29.953068   0.000000   0.000000
    9       30.104787     29.953069   0.000000   0.000000
   10       33.155636     33.502875   0.000000   0.000000
   11       35.258036     36.004695   0.000000   0.000000
   12       35.258036     36.004698   0.000000   0.000000
 
  0.1875000E+00  0.1875000E+00  0.6250000E-01  0.4687500E-01
    1        1.305239      1.832381   1.000000   1.000000
    2        2.467165      4.192152   1.000000   1.000000
    3        2.664708      4.299220   1.000000   1.000081
    4        4.516694      7.123529   1.000000   0.000000
    5        4.744023      7.478214   1.000750   0.000000
    6        6.531187      8.469623  -0.008155   0.000000
    7       18.917774     19.588157   0.000000   0.000000
    8       19.712432     20.329652   0.000000   0.000000
    9       23.592684     24.152263   0.000000   0.000000
   10       33.598806     33.493385   0.000000   0.000000
   11       37.199718     37.475383   0.000000   0.000000
   12       39.593033     39.858660   0.000000   0.000000
 
  0.3125000E+00  0.1875000E+00  0.6250000E-01  0.9375000E-01
    1        1.642241      2.935985   1.000000   1.000000
    2        2.304741      3.958645   1.000000   1.000000
    3        3.294962      4.542931   1.000000   1.002754
    4        4.653819      7.263203   1.000000   0.000000
    5        4.838422      7.549064   1.009755   0.000000
    6        8.978606     10.393539  -0.003572   0.000000
    7       14.294107     15.309029   0.000000   0.000000
    8       18.148005     18.781890   0.000000   0.000000
    9       22.322315     22.839931   0.000000   0.000000
   10       33.944144     33.979268   0.000000   0.000000
   11       38.251840     38.325998   0.000000   0.000000
   12       40.195186     40.577232   0.000000   0.000000
 
 -0.1875000E+00  0.1875000E+00  0.6250000E-01  0.4687500E-01
    1       -1.163815     -1.027786   1.000000   1.000000
    2        3.077388      4.990837   1.000000   1.000000
    3        3.267701      5.185555   1.000000   1.000000
    4        4.026032      6.080656   1.000000  -0.012197
    5        4.190756      6.756126   1.000000   0.000000
    6        4.715039      7.463333   1.010804   0.000000
    7       24.288505     24.670096   0.000000   0.000000
    8       27.672345     27.752104   0.000000   0.000000
    9       28.511807     28.842911   0.000000   0.000000
   10       32.540632     32.917674   0.000000   0.000000
   11       32.690890     33.218065   0.000000   0.000000
   12       34.257776     34.624226   0.000000   0.000000
 
  0.3125000E+00  0.3125000E+00  0.6250000E-01  0.1562500E-01
    1        1.954655      3.493090   1.000000   1.000000
    2        2.660404      4.089131   1.000000   1.000000
    3        2.660404      4.089132   1.000000   1.000098
    4        4.788491      7.437512   1.000000   0.000000
    5        4.788491      7.437512   1.000000   0.000000
    6       12.481608     13.503697   0.000000   0.000000
    7       12.481609     13.503697   0.000000   0.000000
    8       14.945532     15.836050   0.000000   0.000000
    9       21.853792     22.391498   0.000000   0.000000
   10       36.378697     36.369196   0.000000   0.000000
   11       36.378698     36.369198   0.000000   0.000000
   12       43.424876     44.108907   0.000000   0.000000
 
 -0.3125000E+00  0.3125000E+00  0.6250000E-01  0.4687500E-01
    1        0.457409      0.909254   1.000000   1.000000
    2        2.690186      4.524595   1.000000   1.000000
    3        3.331772      4.918672   1.000000   1.001973
    4        4.391383      6.820807   1.000000   0.000000
    5        4.896374      7.190829   1.017397   0.000000
    6        5.015331      7.581513   0.709223   0.000000
    7       18.517473     19.288982   0.000000   0.000000
    8       25.279569     25.365600   0.000000   0.000000
    9       26.362508     26.942831   0.000000   0.000000
   10       30.848824     31.280076   0.000000   0.000000
   11       32.722520     33.203408   0.000000   0.000000
   12       35.629992     35.869812   0.000000   0.000000
 
 -0.1875000E+00  0.3125000E+00  0.6250000E-01  0.4687500E-01
    1        0.271713      0.547899   1.000000   1.000000
    2        2.868969      4.772634   1.000000   1.000000
    3        3.068245      4.882427   1.000000   1.001789
    4        4.069279      6.481639   1.000000  -0.000532
    5        4.744819      6.929482   1.001790   0.000000
    6        5.093504      7.692550   0.760064   0.000000
    7       21.496402     22.066036   0.000000   0.000000
    8       22.457399     23.002428   0.000000   0.000000
    9       28.974100     29.159996   0.000000   0.000000
   10       29.187087     29.652833   0.000000   0.000000
   11       32.933752     33.296343   0.000000   0.000000
   12       37.553045     37.845998   0.000000   0.000000
 
 -0.4375000E+00  0.4375000E+00  0.6250000E-01  0.4687500E-01
    1        0.907580      2.110311   1.000000   1.000000
    2        2.427291      4.211517   1.000000   1.000000
    3        4.091663      5.500039   1.000000   0.983811
    4        4.553940      7.032017   1.000000   0.000000
    5        5.810621      7.954631   0.489347   0.000000
    6        6.263221      8.105201   0.000777   0.000000
    7       13.778289     14.982357   0.000000   0.000000
    8       23.916043     23.971480   0.000000   0.000000
    9       24.748246     25.302195   0.000000   0.000000
   10       30.139007     30.607925   0.000000   0.000000
   11       32.973501     33.530503   0.000000   0.000000
   12       37.332165     37.406952   0.000000   0.000000
 
 -0.3125000E+00  0.4375000E+00  0.6250000E-01  0.9375000E-01
    1        1.311399      2.255798   1.000000   1.000000
    2        2.570520      4.333095   1.000000   1.000000
    3        3.136767      4.729387   1.000000   1.005776
    4        4.363378      6.733900   1.000000   0.000000
    5        5.127957      7.586367   1.024634   0.000000
    6        6.815553      8.686146  -0.035916   0.000000
    7       16.343393     17.233873   0.000000   0.000000
    8       20.241819     20.820137   0.000000   0.000000
    9       26.788982     27.102489   0.000000   0.000000
   10       29.956651     30.300186   0.000000   0.000000
   11       33.569520     33.853748   0.000000   0.000000
   12       38.071121     38.464614   0.000000   0.000000
 
 -0.4375000E+00 -0.4375000E+00  0.6250000E-01  0.4687500E-01
    1        1.345328      2.738295   1.000000   1.000000
    2        2.560819      4.326011   1.000000   1.000000
    3        3.307608      4.819240   1.000000   1.009793
    4        4.465334      6.889175   1.000000   0.000000
    5        5.473076      7.814982   0.887133   0.000000
    6        8.821272     10.068642  -0.001818   0.000000
    7       12.978292     14.247223   0.000000   0.000000
    8       19.550496     20.116623   0.000000   0.000000
    9       25.955535     26.235453   0.000000   0.000000
   10       30.287589     30.718786   0.000000   0.000000
   11       34.558650     34.618537   0.000000   0.000000
   12       37.375379     37.866824   0.000000   0.000000
 
 -0.3125000E+00 -0.4375000E+00  0.6250000E-01  0.4687500E-01
    1        2.023174      3.439768   1.000000   1.000000
    2        2.275654      3.942848   1.000000   1.000000
    3        2.805468      4.438784   1.000000   1.005821
    4        4.656776      7.024082   1.000000   0.000000
    5        5.102512      7.503899   1.037772   0.000000
    6       10.040568     11.336680  -0.000592   0.000000
    7       14.423931     15.386680   0.000000   0.000000
    8       15.753401     16.558853   0.000000   0.000000
    9       27.174563     27.620605   0.000000   0.000000
   10       30.375298     30.531906   0.000000   0.000000
   11       32.553246     32.725252   0.000000   0.000000
   12       39.582814     40.411106   0.000000   0.000000
 
  0.1875000E+00  0.1875000E+00  0.1875000E+00  0.1562500E-01
    1        2.289691      3.338260   1.000000   1.000000
    2        2.289691      3.884863   1.000000   1.000000
    3        2.459989      3.884863   1.000000   1.000114
    4        4.727538      7.475900   1.000000   0.000000
    5        4.727538      7.475900   1.000000   0.000000
    6        8.957089     10.477152  -0.004524   0.000000
    7       17.277618     17.985209   0.000000   0.000000
    8       17.277618     17.985209   0.000000   0.000000
    9       18.574712     19.238936   0.000000   0.000000
   10       38.283580     37.963574   0.000000   0.000000
   11       40.915057     41.039460   0.000000   0.000000
   12       40.915057     41.039460   0.000000   0.000000
 
  0.3125000E+00  0.1875000E+00  0.1875000E+00  0.2343750E-01
    1        2.177437      3.579019   1.000000   1.000000
    2        2.252462      3.798138   1.000000   1.000000
    3        2.900720      4.201832   1.000000   1.000173
    4        4.760430      7.508594   1.000000   0.000000
    5        4.774583      7.576301   1.000000   0.000000
    6       11.776652     12.806048   0.000000   0.000000
    7       13.593076     14.611677   0.000000   0.000000
    8       16.714333     17.429769   0.000000   0.000000
    9       17.659512     18.313910   0.000000   0.000000
   10       39.306938     39.159294   0.000000   0.000000
   11       42.677912     42.675725   0.000000   0.000000
   12       43.065749     43.363725   0.000000   0.000000
 
 -0.1875000E+00  0.1875000E+00  0.1875000E+00  0.1171875E-01
    1       -0.130928      0.073074   1.000000   1.000000
    2        3.427368      5.405897   1.000000   1.000000
    3        3.488429      5.405897   1.000000   0.982688
    4        3.488430      5.817860   1.000000   0.000919
    5        4.039909      6.106799   1.000000   0.000000
    6        5.071528      7.772041   0.905605   0.000000
    7       24.436448     24.721196   0.000000   0.000000
    8       25.373728     25.927433   0.000000   0.000000
    9       25.373729     25.927435   0.000000   0.000000
   10       27.308668     27.672405   0.000000   0.000000
   11       36.718834     36.970265   0.000000   0.000000
   12       36.718835     36.970266   0.000000   0.000000
 
 -0.3125000E+00  0.3125000E+00  0.1875000E+00  0.4687500E-01
    1        1.160444      1.770715   1.000000   1.000000
    2        2.679602      4.688082   1.000000   1.000000
    3        3.353106      5.239394   1.000000   0.963321
    4        4.000957      6.090520   1.000000   0.000000
    5        4.901833      7.060938   1.032846   0.000000
    6        5.926203      8.192559   0.110841   0.000000
    7       19.369063     20.089582   0.000000   0.000000
    8       22.773820     23.370582   0.000000   0.000000
    9       23.974356     24.356856   0.000000   0.000000
   10       27.904151     28.279487   0.000000   0.000000
   11       35.775744     36.183137   0.000000   0.000000
   12       37.502152     37.852082   0.000000   0.000000
 
 -0.4375000E+00  0.4375000E+00  0.1875000E+00  0.4687500E-01
    1        1.442136      2.843075   1.000000   1.000000
    2        2.614632      4.284996   1.000000   1.000000
    3        3.159633      5.010909   1.000000   0.979880
    4        4.212247      6.427923   1.000000   0.000000
    5        5.731185      8.013916   0.356250   0.000000
    6        8.402698      9.750453  -0.011330   0.000000
    7       14.298199     15.347607   0.000000   0.000000
    8       21.166862     21.714002   0.000000   0.000000
    9       23.135154     23.541723   0.000000   0.000000
   10       30.425780     30.666062   0.000000   0.000000
   11       34.848505     35.278280   0.000000   0.000000
   12       35.501503     36.064997   0.000000   0.000000
 
 -0.3125000E+00  0.4375000E+00  0.1875000E+00  0.4687500E-01
    1        1.755710      2.976177   1.000000   1.000000
    2        2.065974      3.973440   1.000000   1.000000
    3        3.432501      5.311127   1.000000   0.847621
    4        4.389160      6.484400   1.000000   0.000000
    5        5.316783      7.567187   1.064880   0.000000
    6        8.278724      9.774080  -0.015101   0.000000
    7       17.235332     18.046695   0.000000   0.000000
    8       17.843987     18.508969   0.000000   0.000000
    9       25.398122     25.798676   0.000000   0.000000
   10       26.897951     27.283638   0.000000   0.000000
   11       34.494710     34.956727   0.000000   0.000000
   12       37.389700     38.057090   0.000000   0.000000
 
 -0.4375000E+00 -0.4375000E+00  0.1875000E+00  0.4687500E-01
    1        1.708568      3.407060   1.000000   1.000000
    2        2.076676      3.766365   1.000000   1.000000
    3        3.242497      5.048593   1.000000   0.898485
    4        4.693044      6.845480   1.000000   0.000000
    5        5.543049      7.802400   0.761818   0.000000
    6       11.270223     12.276404   0.000000   0.000000
    7       13.453027     14.488415   0.000000   0.000000
    8       16.862760     17.548748   0.000000   0.000000
    9       25.405678     25.799800   0.000000   0.000000
   10       28.562376     28.804375   0.000000   0.000000
   11       31.976737     32.653409   0.000000   0.000000
   12       36.395226     37.026534   0.000000   0.000000
 
 -0.3125000E+00  0.3125000E+00  0.3125000E+00  0.1171875E-01
    1        1.544808      2.710911   1.000000   1.000000
    2        2.021109      4.054847   1.000000   1.000000
    3        4.246169      6.203180   1.000000   0.013782
    4        4.246169      6.203180   1.000000   0.000000
    5        4.936642      7.117256   1.167889   0.000000
    6        7.651107      9.222897  -0.021972   0.000000
    7       19.851300     20.416585   0.000000   0.000000
    8       19.851301     20.416587   0.000000   0.000000
    9       22.114243     22.799199   0.000000   0.000000
   10       24.151830     24.656094   0.000000   0.000000
   11       35.834829     36.530313   0.000000   0.000000
   12       40.653475     41.048015   0.000000   0.000000
 
 -0.4375000E+00  0.4375000E+00  0.3125000E+00  0.4687500E-01
    1        1.446099      3.116313   1.000000   1.000000
    2        1.575653      3.403663   1.000000   1.000000
    3        4.381442      6.381248   1.000000  -0.020824
    4        4.658205      6.682506   1.000000   0.000000
    5        5.621397      7.888565   0.294126   0.000000
    6       10.756278     11.713433   0.000000   0.000000
    7       15.486493     16.207909   0.000000   0.000000
    8       18.047996     18.518908   0.000000   0.000000
    9       22.282512     22.976277   0.000000   0.000000
   10       25.158936     25.630627   0.000000   0.000000
   11       31.183068     32.028845   0.000000   0.000000
   12       40.140334     40.500183   0.000000   0.000000
 
 -0.4375000E+00 -0.4375000E+00  0.3125000E+00  0.1562500E-01
    1        1.308960      3.099707   1.000000   1.000000
    2        1.308960      3.099707   1.000000   1.000000
    3        4.486419      6.464428   1.000000  -0.028140
    4        5.469581      7.683756   1.000000   0.000000
    5        5.469581      7.683757   1.069863   0.000000
    6       14.139211     14.804755   0.000000   0.000000
    7       14.139212     14.804758   0.000000   0.000000
    8       15.257951     15.828748   0.000000   0.000000
    9       23.755045     24.312722   0.000000   0.000000
   10       23.755045     24.312723   0.000000   0.000000
   11       28.648527     29.636127   0.000000   0.000000
   12       40.683222     41.036600   0.000000   0.000000
 
 -0.4375000E+00  0.4375000E+00  0.4375000E+00  0.1171875E-01
    1        1.051809      2.819793   1.000000   1.000000
    2        1.052371      2.878495   1.000000   1.000000
    3        5.429669      7.627171   1.000000  -0.010684
    4        5.429669      7.627171   1.000000   0.000000
    5        5.587124      7.855750   0.235211   0.000000
    6       13.537965     14.047455   0.000000   0.000000
    7       16.048868     16.356458   0.000000   0.000000
    8       16.048869     16.356461   0.000000   0.000000
    9       21.232021     22.141552   0.000000   0.000000
   10       22.398609     23.136511   0.000000   0.000000
   11       27.137359     28.153454   0.000000   0.000000
   12       43.888498     44.107251   0.000000   0.000000
