PROCAR lm decomposed
# of k-points:   26         # of bands:  12         # of ions:   1

 k-point    1 :    0.06250000 0.06250000 0.06250000     weight = 0.01562500

band   1 # energy   -1.73316968 # occ.  1.00000000
 
ion      s     py     pz     px    dxy    dyz    dz2    dxz    dx2    tot
  1  0.649  0.021  0.021  0.021  0.002  0.002  0.000  0.002  0.000  0.719
 
band   2 # energy    3.13928862 # occ.  1.00000000
 
ion      s     py     pz     px    dxy    dyz    dz2    dxz    dx2    tot
  1  0.000  0.000  0.001  0.001  0.375  0.470  0.015  0.095  0.010  0.967
 
band   3 # energy    3.13928862 # occ.  1.00000000
 
ion      s     py     pz     px    dxy    dyz    dz2    dxz    dx2    tot
  1  0.000  0.002  0.001  0.000  0.252  0.157  0.010  0.532  0.015  0.967
 
band   4 # energy    3.92263629 # occ.  1.00000000
 
ion      s     py     pz     px    dxy    dyz    dz2    dxz    dx2    tot
  1  0.002  0.003  0.003  0.003  0.321  0.321  0.000  0.321  0.000  0.974
 
band   5 # energy    4.49808013 # occ.  1.00000000
 
ion      s     py     pz     px    dxy    dyz    dz2    dxz    dx2    tot
  1  0.000  0.000  0.000  0.000  0.014  0.013  0.722  0.000  0.220  0.969
 
band   6 # energy    4.49808013 # occ.  1.00338654
 
ion      s     py     pz     px    dxy    dyz    dz2    dxz    dx2    tot
  1  0.000  0.000  0.000  0.000  0.004  0.005  0.220  0.018  0.722  0.969
 
band   7 # energy   26.83696767 # occ.  0.00000000
 
ion      s     py     pz     px    dxy    dyz    dz2    dxz    dx2    tot
  1  0.000  0.018  0.024  0.068  0.058  0.164  0.060  0.044  0.122  0.558
 
band   8 # energy   26.83696767 # occ.  0.00000000
 
ion      s     py     pz     px    dxy    dyz    dz2    dxz    dx2    tot
  1  0.000  0.055  0.049  0.006  0.119  0.013  0.122  0.134  0.060  0.558
 
band   9 # energy   30.62516259 # occ.  0.00000000
 
ion      s     py     pz     px    dxy    dyz    dz2    dxz    dx2    tot
  1  0.078  0.170  0.170  0.170  0.143  0.143  0.000  0.143  0.000  1.016
 
band  10 # energy   31.37497239 # occ.  0.00000000
 
ion      s     py     pz     px    dxy    dyz    dz2    dxz    dx2    tot
  1  0.000  0.000  0.000  0.000  0.000  0.000  0.000  0.000  0.000  0.000
 
band  11 # energy   36.26920535 # occ.  0.00000000
 
ion      s     py     pz     px    dxy    dyz    dz2    dxz    dx2    tot
  1  0.000  0.184  0.116  0.023  0.031  0.006  0.020  0.049  0.017  0.446
 
band  12 # energy   36.26920535 # occ.  0.00000000
 
ion      s     py     pz     px    dxy    dyz    dz2    dxz    dx2    tot
  1  0.000  0.031  0.099  0.192  0.026  0.051  0.017  0.008  0.020  0.446
 

 k-point    2 :    0.18750000 0.06250000 0.06250000     weight = 0.04687500

band   1 # energy   -0.15558736 # occ.  1.00000000
 
ion      s     py     pz     px    dxy    dyz    dz2    dxz    dx2    tot
  1  0.501  0.062  0.062  0.018  0.007  0.066  0.004  0.007  0.011  0.738
 
band   2 # energy    2.74029796 # occ.  1.00000000
 
ion      s     py     pz     px    dxy    dyz    dz2    dxz    dx2    tot
  1  0.000  0.002  0.002  0.000  0.464  0.000  0.019  0.464  0.006  0.957
 
band   3 # energy    2.94782233 # occ.  1.00000000
 
ion      s     py     pz     px    dxy    dyz    dz2    dxz    dx2    tot
  1  0.013  0.018  0.018  0.002  0.092  0.546  0.038  0.092  0.115  0.934
 
band   4 # energy    4.43780148 # occ.  1.00000000
 
ion      s     py     pz     px    dxy    dyz    dz2    dxz    dx2    tot
  1  0.001  0.000  0.000  0.000  0.016  0.152  0.197  0.016  0.590  0.972
 
band   5 # energy    4.61733381 # occ.  1.00090868
 
ion      s     py     pz     px    dxy    dyz    dz2    dxz    dx2    tot
  1  0.000  0.000  0.000  0.000  0.014  0.000  0.710  0.014  0.237  0.975
 
band   6 # energy    4.92265446 # occ.  0.88293118
 
ion      s     py     pz     px    dxy    dyz    dz2    dxz    dx2    tot
  1  0.014  0.011  0.011  0.010  0.369  0.181  0.000  0.369  0.000  0.967
 
band   7 # energy   21.41427448 # occ.  0.00000000
 
ion      s     py     pz     px    dxy    dyz    dz2    dxz    dx2    tot
  1  0.061  0.117  0.117  0.023  0.008  0.298  0.034  0.008  0.103  0.770
 
band   8 # energy   24.49915322 # occ.  0.00000000
 
ion      s     py     pz     px    dxy    dyz    dz2    dxz    dx2    tot
  1  0.000  0.103  0.103  0.000  0.152  0.000  0.076  0.152  0.025  0.613
 
band   9 # energy   26.78634765 # occ.  0.00000000
 
ion      s     py     pz     px    dxy    dyz    dz2    dxz    dx2    tot
  1  0.126  0.056  0.056  0.388  0.104  0.002  0.010  0.104  0.029  0.875
 
band  10 # energy   31.68006108 # occ.  0.00000000
 
ion      s     py     pz     px    dxy    dyz    dz2    dxz    dx2    tot
  1  0.000  0.003  0.003  0.000  0.177  0.000  0.018  0.177  0.006  0.383
 
band  11 # energy   35.69529519 # occ.  0.00000000
 
ion      s     py     pz     px    dxy    dyz    dz2    dxz    dx2    tot
  1  0.036  0.053  0.053  0.154  0.061  0.076  0.107  0.061  0.322  0.923
 
band  12 # energy   36.91475319 # occ.  0.00000000
 
ion      s     py     pz     px    dxy    dyz    dz2    dxz    dx2    tot
  1  0.000  0.105  0.105  0.000  0.140  0.000  0.004  0.140  0.001  0.496
 

 k-point    3 :    0.31250000 0.06250000 0.06250000     weight = 0.04687500

band   1 # energy    0.97280642 # occ.  1.00000000
 
ion      s     py     pz     px    dxy    dyz    dz2    dxz    dx2    tot
  1  0.205  0.023  0.023  0.016  0.001  0.400  0.042  0.001  0.127  0.841
 
band   2 # energy    2.39841746 # occ.  1.00000000
 
ion      s     py     pz     px    dxy    dyz    dz2    dxz    dx2    tot
  1  0.000  0.003  0.003  0.000  0.469  0.000  0.006  0.469  0.002  0.952
 
band   3 # energy    3.71812872 # occ.  1.00000000
 
ion      s     py     pz     px    dxy    dyz    dz2    dxz    dx2    tot
  1  0.080  0.117  0.117  0.000  0.161  0.086  0.031  0.161  0.093  0.846
 
band   4 # energy    4.57639598 # occ.  1.00000000
 
ion      s     py     pz     px    dxy    dyz    dz2    dxz    dx2    tot
  1  0.002  0.002  0.002  0.001  0.017  0.291  0.162  0.017  0.485  0.979
 
band   5 # energy    4.71171172 # occ.  1.03316805
 
ion      s     py     pz     px    dxy    dyz    dz2    dxz    dx2    tot
  1  0.000  0.000  0.000  0.000  0.005  0.000  0.729  0.005  0.243  0.981
 
band   6 # energy    6.32932767 # occ.  0.01098498
 
ion      s     py     pz     px    dxy    dyz    dz2    dxz    dx2    tot
  1  0.050  0.061  0.061  0.009  0.313  0.114  0.001  0.313  0.003  0.925
 
band   7 # energy   15.96611853 # occ.  0.00000000
 
ion      s     py     pz     px    dxy    dyz    dz2    dxz    dx2    tot
  1  0.223  0.106  0.106  0.013  0.004  0.296  0.022  0.004  0.066  0.839
 
band   8 # energy   22.80724507 # occ.  0.00000000
 
ion      s     py     pz     px    dxy    dyz    dz2    dxz    dx2    tot
  1  0.000  0.131  0.131  0.000  0.141  0.000  0.021  0.141  0.007  0.571
 
band   9 # energy   24.46897004 # occ.  0.00000000
 
ion      s     py     pz     px    dxy    dyz    dz2    dxz    dx2    tot
  1  0.125  0.009  0.009  0.528  0.035  0.013  0.012  0.035  0.037  0.804
 
band  10 # energy   31.13822284 # occ.  0.00000000
 
ion      s     py     pz     px    dxy    dyz    dz2    dxz    dx2    tot
  1  0.000  0.006  0.006  0.000  0.366  0.000  0.006  0.366  0.002  0.752
 
band  11 # energy   35.00376935 # occ.  0.00000000
 
ion      s     py     pz     px    dxy    dyz    dz2    dxz    dx2    tot
  1  0.103  0.021  0.021  0.127  0.016  0.000  0.155  0.016  0.464  0.924
 
band  12 # energy   40.22655330 # occ.  0.00000000
 
ion      s     py     pz     px    dxy    dyz    dz2    dxz    dx2    tot
  1  0.007  0.065  0.103  0.001  0.043  0.038  0.124  0.063  0.044  0.488
 

 k-point    4 :    0.43750000 0.06250000 0.06250000     weight = 0.02343750

band   1 # energy    1.02754422 # occ.  1.00000000
 
ion      s     py     pz     px    dxy    dyz    dz2    dxz    dx2    tot
  1  0.116  0.000  0.000  0.015  0.000  0.494  0.063  0.000  0.189  0.877
 
band   2 # energy    2.26700710 # occ.  1.00000000
 
ion      s     py     pz     px    dxy    dyz    dz2    dxz    dx2    tot
  1  0.000  0.004  0.004  0.000  0.472  0.000  0.000  0.472  0.000  0.950
 
band   3 # energy    4.63817925 # occ.  1.00000000
 
ion      s     py     pz     px    dxy    dyz    dz2    dxz    dx2    tot
  1  0.011  0.000  0.000  0.001  0.000  0.292  0.169  0.000  0.508  0.980
 
band   4 # energy    4.69897905 # occ.  1.00000000
 
ion      s     py     pz     px    dxy    dyz    dz2    dxz    dx2    tot
  1  0.000  0.133  0.133  0.000  0.302  0.000  0.000  0.302  0.000  0.870
 
band   5 # energy    4.75019522 # occ.  1.08001162
 
ion      s     py     pz     px    dxy    dyz    dz2    dxz    dx2    tot
  1  0.000  0.000  0.000  0.000  0.000  0.000  0.738  0.000  0.246  0.984
 
band   6 # energy    7.71874864 # occ. -0.00484914
 
ion      s     py     pz     px    dxy    dyz    dz2    dxz    dx2    tot
  1  0.000  0.207  0.207  0.000  0.202  0.000  0.000  0.202  0.000  0.818
 
band   7 # energy   12.87385430 # occ.  0.00000000
 
ion      s     py     pz     px    dxy    dyz    dz2    dxz    dx2    tot
  1  0.422  0.000  0.000  0.017  0.000  0.373  0.021  0.000  0.064  0.898
 
band   8 # energy   22.18779482 # occ.  0.00000000
 
ion      s     py     pz     px    dxy    dyz    dz2    dxz    dx2    tot
  1  0.000  0.139  0.139  0.000  0.135  0.000  0.000  0.135  0.000  0.548
 
band   9 # energy   23.60532347 # occ.  0.00000000
 
ion      s     py     pz     px    dxy    dyz    dz2    dxz    dx2    tot
  1  0.123  0.000  0.000  0.581  0.000  0.022  0.012  0.000  0.035  0.772
 
band  10 # energy   30.90265827 # occ.  0.00000000
 
ion      s     py     pz     px    dxy    dyz    dz2    dxz    dx2    tot
  1  0.000  0.007  0.007  0.000  0.422  0.000  0.000  0.422  0.000  0.858
 
band  11 # energy   34.89671620 # occ.  0.00000000
 
ion      s     py     pz     px    dxy    dyz    dz2    dxz    dx2    tot
  1  0.142  0.000  0.000  0.119  0.000  0.010  0.175  0.000  0.524  0.970
 
band  12 # energy   40.17099636 # occ.  0.00000000
 
ion      s     py     pz     px    dxy    dyz    dz2    dxz    dx2    tot
  1  0.000  0.034  0.034  0.000  0.007  0.000  0.000  0.007  0.000  0.081
 

 k-point    5 :   -0.06250000 0.06250000 0.06250000     weight = 0.01171875

band   1 # energy   -2.34305417 # occ.  1.00000000
 
ion      s     py     pz     px    dxy    dyz    dz2    dxz    dx2    tot
  1  0.694  0.000  0.000  0.022  0.000  0.000  0.000  0.000  0.000  0.716
 
band   2 # energy    3.33741449 # occ.  1.00000000
 
ion      s     py     pz     px    dxy    dyz    dz2    dxz    dx2    tot
  1  0.000  0.001  0.001  0.000  0.486  0.000  0.000  0.486  0.000  0.974
 
band   3 # energy    3.33741462 # occ.  1.00000000
 
ion      s     py     pz     px    dxy    dyz    dz2    dxz    dx2    tot
  1  0.000  0.001  0.001  0.000  0.486  0.000  0.000  0.486  0.000  0.974
 
band   4 # energy    3.42317251 # occ.  1.00000000
 
ion      s     py     pz     px    dxy    dyz    dz2    dxz    dx2    tot
  1  0.000  0.000  0.000  0.000  0.000  0.976  0.000  0.000  0.000  0.976
 
band   5 # energy    4.42483934 # occ.  1.00000000
 
ion      s     py     pz     px    dxy    dyz    dz2    dxz    dx2    tot
  1  0.000  0.000  0.000  0.000  0.000  0.000  0.723  0.000  0.241  0.964
 
band   6 # energy    4.61833742 # occ.  1.00000000
 
ion      s     py     pz     px    dxy    dyz    dz2    dxz    dx2    tot
  1  0.000  0.000  0.000  0.000  0.000  0.000  0.243  0.000  0.729  0.973
 
band   7 # energy   28.77867963 # occ.  0.00000000
 
ion      s     py     pz     px    dxy    dyz    dz2    dxz    dx2    tot
  1  0.000  0.000  0.000  0.000  0.000  0.000  0.193  0.000  0.064  0.258
 
band   8 # energy   30.10478618 # occ.  0.00000000
 
ion      s     py     pz     px    dxy    dyz    dz2    dxz    dx2    tot
  1  0.000  0.014  0.014  0.000  0.129  0.000  0.000  0.129  0.000  0.285
 
band   9 # energy   30.10478712 # occ.  0.00000000
 
ion      s     py     pz     px    dxy    dyz    dz2    dxz    dx2    tot
  1  0.000  0.014  0.014  0.000  0.129  0.000  0.000  0.129  0.000  0.285
 
band  10 # energy   33.15563638 # occ.  0.00000000
 
ion      s     py     pz     px    dxy    dyz    dz2    dxz    dx2    tot
  1  0.019  0.000  0.000  0.304  0.000  0.000  0.073  0.000  0.219  0.615
 
band  11 # energy   35.25803629 # occ.  0.00000000
 
ion      s     py     pz     px    dxy    dyz    dz2    dxz    dx2    tot
  1  0.000  0.226  0.226  0.000  0.243  0.000  0.000  0.243  0.000  0.939
 
band  12 # energy   35.25803646 # occ.  0.00000000
 
ion      s     py     pz     px    dxy    dyz    dz2    dxz    dx2    tot
  1  0.000  0.226  0.226  0.000  0.243  0.000  0.000  0.243  0.000  0.939
 

 k-point    6 :    0.18750000 0.18750000 0.06250000     weight = 0.04687500

band   1 # energy    1.30523936 # occ.  1.00000000
 
ion      s     py     pz     px    dxy    dyz    dz2    dxz    dx2    tot
  1  0.282  0.043  0.069  0.043  0.000  0.158  0.045  0.158  0.000  0.799
 
band   2 # energy    2.46716493 # occ.  1.00000000
 
ion      s     py     pz     px    dxy    dyz    dz2    dxz    dx2    tot
  1  0.000  0.019  0.000  0.019  0.000  0.346  0.000  0.346  0.197  0.927
 
band   3 # energy    2.66470820 # occ.  1.00000000
 
ion      s     py     pz     px    dxy    dyz    dz2    dxz    dx2    tot
  1  0.030  0.004  0.062  0.004  0.664  0.075  0.007  0.075  0.000  0.921
 
band   4 # energy    4.51669440 # occ.  1.00000000
 
ion      s     py     pz     px    dxy    dyz    dz2    dxz    dx2    tot
  1  0.000  0.001  0.000  0.001  0.000  0.110  0.000  0.110  0.754  0.976
 
band   5 # energy    4.74402296 # occ.  1.00075013
 
ion      s     py     pz     px    dxy    dyz    dz2    dxz    dx2    tot
  1  0.005  0.000  0.001  0.000  0.000  0.034  0.908  0.034  0.000  0.981
 
band   6 # energy    6.53118703 # occ. -0.00815454
 
ion      s     py     pz     px    dxy    dyz    dz2    dxz    dx2    tot
  1  0.067  0.029  0.056  0.029  0.299  0.216  0.018  0.216  0.000  0.931
 
band   7 # energy   18.91777449 # occ.  0.00000000
 
ion      s     py     pz     px    dxy    dyz    dz2    dxz    dx2    tot
  1  0.000  0.163  0.000  0.163  0.000  0.168  0.000  0.168  0.125  0.787
 
band   8 # energy   19.71243197 # occ.  0.00000000
 
ion      s     py     pz     px    dxy    dyz    dz2    dxz    dx2    tot
  1  0.212  0.015  0.252  0.015  0.073  0.093  0.016  0.093  0.000  0.768
 
band   9 # energy   23.59268415 # occ.  0.00000000
 
ion      s     py     pz     px    dxy    dyz    dz2    dxz    dx2    tot
  1  0.141  0.200  0.008  0.200  0.168  0.007  0.029  0.007  0.000  0.759
 
band  10 # energy   33.59880622 # occ.  0.00000000
 
ion      s     py     pz     px    dxy    dyz    dz2    dxz    dx2    tot
  1  0.000  0.013  0.000  0.013  0.000  0.090  0.000  0.090  0.142  0.348
 
band  11 # energy   37.19971787 # occ.  0.00000000
 
ion      s     py     pz     px    dxy    dyz    dz2    dxz    dx2    tot
  1  0.021  0.023  0.032  0.023  0.382  0.162  0.015  0.162  0.000  0.819
 
band  12 # energy   39.59303282 # occ.  0.00000000
 
ion      s     py     pz     px    dxy    dyz    dz2    dxz    dx2    tot
  1  0.000  0.088  0.000  0.088  0.000  0.028  0.000  0.028  0.407  0.640
 

 k-point    7 :    0.31250000 0.18750000 0.06250000     weight = 0.09375000

band   1 # energy    1.64224090 # occ.  1.00000000
 
ion      s     py     pz     px    dxy    dyz    dz2    dxz    dx2    tot
  1  0.083  0.002  0.006  0.043  0.030  0.530  0.056  0.040  0.098  0.889
 
band   2 # energy    2.30474055 # occ.  1.00000000
 
ion      s     py     pz     px    dxy    dyz    dz2    dxz    dx2    tot
  1  0.000  0.021  0.009  0.011  0.324  0.023  0.000  0.474  0.070  0.932
 
band   3 # energy    3.29496173 # occ.  1.00000000
 
ion      s     py     pz     px    dxy    dyz    dz2    dxz    dx2    tot
  1  0.019  0.079  0.111  0.001  0.373  0.009  0.080  0.145  0.060  0.878
 
band   4 # energy    4.65381854 # occ.  1.00000000
 
ion      s     py     pz     px    dxy    dyz    dz2    dxz    dx2    tot
  1  0.003  0.001  0.000  0.002  0.000  0.212  0.053  0.047  0.663  0.980
 
band   5 # energy    4.83842211 # occ.  1.00975502
 
ion      s     py     pz     px    dxy    dyz    dz2    dxz    dx2    tot
  1  0.004  0.004  0.005  0.000  0.055  0.013  0.766  0.079  0.055  0.982
 
band   6 # energy    8.97860633 # occ. -0.00357157
 
ion      s     py     pz     px    dxy    dyz    dz2    dxz    dx2    tot
  1  0.073  0.116  0.173  0.019  0.188  0.081  0.031  0.171  0.000  0.851
 
band   7 # energy   14.29410670 # occ.  0.00000000
 
ion      s     py     pz     px    dxy    dyz    dz2    dxz    dx2    tot
  1  0.248  0.115  0.029  0.068  0.014  0.283  0.004  0.018  0.060  0.839
 
band   8 # energy   18.14800529 # occ.  0.00000000
 
ion      s     py     pz     px    dxy    dyz    dz2    dxz    dx2    tot
  1  0.178  0.050  0.102  0.154  0.088  0.003  0.001  0.162  0.028  0.764
 
band   9 # energy   22.32231548 # occ.  0.00000000
 
ion      s     py     pz     px    dxy    dyz    dz2    dxz    dx2    tot
  1  0.130  0.111  0.055  0.237  0.110  0.039  0.008  0.044  0.003  0.738
 
band  10 # energy   33.94414400 # occ.  0.00000000
 
ion      s     py     pz     px    dxy    dyz    dz2    dxz    dx2    tot
  1  0.008  0.001  0.002  0.027  0.136  0.006  0.013  0.212  0.144  0.549
 
band  11 # energy   38.25184015 # occ.  0.00000000
 
ion      s     py     pz     px    dxy    dyz    dz2    dxz    dx2    tot
  1  0.004  0.061  0.001  0.000  0.158  0.061  0.091  0.010  0.114  0.500
 
band  12 # energy   40.19518560 # occ.  0.00000000
 
ion      s     py     pz     px    dxy    dyz    dz2    dxz    dx2    tot
  1  0.047  0.007  0.004  0.119  0.064  0.000  0.242  0.035  0.304  0.822
 

 k-point    8 :   -0.18750000 0.18750000 0.06250000     weight = 0.04687500

band   1 # energy   -1.16381487 # occ.  1.00000000
 
ion      s     py     pz     px    dxy    dyz    dz2    dxz    dx2    tot
  1  0.601  0.018  0.000  0.079  0.013  0.000  0.006  0.000  0.005  0.722
 
band   2 # energy    3.07738800 # occ.  1.00000000
 
ion      s     py     pz     px    dxy    dyz    dz2    dxz    dx2    tot
  1  0.000  0.000  0.002  0.000  0.000  0.375  0.000  0.590  0.000  0.967
 
band   3 # energy    3.26770062 # occ.  1.00000000
 
ion      s     py     pz     px    dxy    dyz    dz2    dxz    dx2    tot
  1  0.005  0.012  0.000  0.007  0.810  0.000  0.108  0.000  0.011  0.953
 
band   4 # energy    4.02603191 # occ.  1.00000000
 
ion      s     py     pz     px    dxy    dyz    dz2    dxz    dx2    tot
  1  0.000  0.000  0.006  0.000  0.000  0.597  0.000  0.371  0.000  0.974
 
band   5 # energy    4.19075620 # occ.  1.00000000
 
ion      s     py     pz     px    dxy    dyz    dz2    dxz    dx2    tot
  1  0.000  0.000  0.000  0.000  0.126  0.000  0.654  0.000  0.179  0.960
 
band   6 # energy    4.71503852 # occ.  1.01080408
 
ion      s     py     pz     px    dxy    dyz    dz2    dxz    dx2    tot
  1  0.005  0.000  0.000  0.001  0.005  0.000  0.188  0.000  0.777  0.976
 
band   7 # energy   24.28850544 # occ.  0.00000000
 
ion      s     py     pz     px    dxy    dyz    dz2    dxz    dx2    tot
  1  0.028  0.125  0.000  0.058  0.277  0.000  0.198  0.000  0.015  0.701
 
band   8 # energy   27.67234509 # occ.  0.00000000
 
ion      s     py     pz     px    dxy    dyz    dz2    dxz    dx2    tot
  1  0.026  0.001  0.000  0.143  0.050  0.000  0.047  0.000  0.143  0.410
 
band   9 # energy   28.51180679 # occ.  0.00000000
 
ion      s     py     pz     px    dxy    dyz    dz2    dxz    dx2    tot
  1  0.000  0.000  0.209  0.000  0.000  0.023  0.000  0.584  0.000  0.816
 
band  10 # energy   32.54063197 # occ.  0.00000000
 
ion      s     py     pz     px    dxy    dyz    dz2    dxz    dx2    tot
  1  0.001  0.254  0.000  0.077  0.225  0.000  0.120  0.000  0.002  0.679
 
band  11 # energy   32.69089032 # occ.  0.00000000
 
ion      s     py     pz     px    dxy    dyz    dz2    dxz    dx2    tot
  1  0.000  0.000  0.349  0.000  0.000  0.473  0.000  0.005  0.000  0.827
 
band  12 # energy   34.25777607 # occ.  0.00000000
 
ion      s     py     pz     px    dxy    dyz    dz2    dxz    dx2    tot
  1  0.095  0.123  0.000  0.123  0.000  0.000  0.098  0.000  0.007  0.446
 

 k-point    9 :    0.31250000 0.31250000 0.06250000     weight = 0.01562500

band   1 # energy    1.95465549 # occ.  1.00000000
 
ion      s     py     pz     px    dxy    dyz    dz2    dxz    dx2    tot
  1  0.038  0.007  0.007  0.007  0.290  0.290  0.000  0.290  0.000  0.927
 
band   2 # energy    2.66040395 # occ.  1.00000000
 
ion      s     py     pz     px    dxy    dyz    dz2    dxz    dx2    tot
  1  0.000  0.022  0.089  0.022  0.363  0.091  0.216  0.091  0.000  0.894
 
band   3 # energy    2.66040437 # occ.  1.00000000
 
ion      s     py     pz     px    dxy    dyz    dz2    dxz    dx2    tot
  1  0.000  0.067  0.000  0.067  0.000  0.272  0.000  0.272  0.216  0.894
 
band   4 # energy    4.78849056 # occ.  1.00000000
 
ion      s     py     pz     px    dxy    dyz    dz2    dxz    dx2    tot
  1  0.000  0.004  0.000  0.004  0.000  0.121  0.000  0.121  0.732  0.982
 
band   5 # energy    4.78849085 # occ.  1.00000000
 
ion      s     py     pz     px    dxy    dyz    dz2    dxz    dx2    tot
  1  0.000  0.001  0.005  0.001  0.162  0.040  0.732  0.040  0.000  0.982
 
band   6 # energy   12.48160771 # occ.  0.00000000
 
ion      s     py     pz     px    dxy    dyz    dz2    dxz    dx2    tot
  1  0.000  0.072  0.287  0.072  0.218  0.055  0.059  0.055  0.000  0.816
 
band   7 # energy   12.48160851 # occ.  0.00000000
 
ion      s     py     pz     px    dxy    dyz    dz2    dxz    dx2    tot
  1  0.000  0.215  0.000  0.215  0.000  0.164  0.000  0.164  0.059  0.816
 
band   8 # energy   14.94553242 # occ.  0.00000000
 
ion      s     py     pz     px    dxy    dyz    dz2    dxz    dx2    tot
  1  0.585  0.002  0.002  0.002  0.077  0.077  0.000  0.077  0.000  0.821
 
band   9 # energy   21.85379234 # occ.  0.00000000
 
ion      s     py     pz     px    dxy    dyz    dz2    dxz    dx2    tot
  1  0.129  0.128  0.128  0.128  0.081  0.081  0.000  0.081  0.000  0.755
 
band  10 # energy   36.37869724 # occ.  0.00000000
 
ion      s     py     pz     px    dxy    dyz    dz2    dxz    dx2    tot
  1  0.000  0.008  0.032  0.008  0.062  0.016  0.284  0.016  0.000  0.426
 
band  11 # energy   36.37869802 # occ.  0.00000000
 
ion      s     py     pz     px    dxy    dyz    dz2    dxz    dx2    tot
  1  0.000  0.024  0.000  0.024  0.000  0.047  0.000  0.047  0.284  0.426
 
band  12 # energy   43.42487646 # occ.  0.00000000
 
ion      s     py     pz     px    dxy    dyz    dz2    dxz    dx2    tot
  1  0.026  0.052  0.052  0.052  0.357  0.357  0.000  0.357  0.000  1.254
 

 k-point   10 :   -0.31250000 0.31250000 0.06250000     weight = 0.04687500

band   1 # energy    0.45740877 # occ.  1.00000000
 
ion      s     py     pz     px    dxy    dyz    dz2    dxz    dx2    tot
  1  0.361  0.028  0.000  0.090  0.198  0.000  0.093  0.000  0.010  0.780
 
band   2 # energy    2.69018580 # occ.  1.00000000
 
ion      s     py     pz     px    dxy    dyz    dz2    dxz    dx2    tot
  1  0.000  0.000  0.002  0.000  0.000  0.433  0.000  0.523  0.000  0.959
 
band   3 # energy    3.33177209 # occ.  1.00000000
 
ion      s     py     pz     px    dxy    dyz    dz2    dxz    dx2    tot
  1  0.059  0.062  0.000  0.069  0.264  0.000  0.275  0.000  0.148  0.877
 
band   4 # energy    4.39138279 # occ.  1.00000000
 
ion      s     py     pz     px    dxy    dyz    dz2    dxz    dx2    tot
  1  0.001  0.010  0.000  0.010  0.451  0.000  0.478  0.000  0.018  0.968
 
band   5 # energy    4.89637432 # occ.  1.01739723
 
ion      s     py     pz     px    dxy    dyz    dz2    dxz    dx2    tot
  1  0.033  0.009  0.000  0.018  0.006  0.000  0.098  0.000  0.801  0.965
 
band   6 # energy    5.01533148 # occ.  0.70922319
 
ion      s     py     pz     px    dxy    dyz    dz2    dxz    dx2    tot
  1  0.000  0.000  0.008  0.000  0.000  0.537  0.000  0.434  0.000  0.979
 
band   7 # energy   18.51747292 # occ.  0.00000000
 
ion      s     py     pz     px    dxy    dyz    dz2    dxz    dx2    tot
  1  0.141  0.171  0.000  0.092  0.295  0.000  0.116  0.000  0.007  0.822
 
band   8 # energy   25.27956922 # occ.  0.00000000
 
ion      s     py     pz     px    dxy    dyz    dz2    dxz    dx2    tot
  1  0.028  0.057  0.000  0.146  0.003  0.000  0.070  0.000  0.067  0.372
 
band   9 # energy   26.36250845 # occ.  0.00000000
 
ion      s     py     pz     px    dxy    dyz    dz2    dxz    dx2    tot
  1  0.000  0.000  0.471  0.000  0.000  0.014  0.000  0.429  0.000  0.914
 
band  10 # energy   30.84882442 # occ.  0.00000000
 
ion      s     py     pz     px    dxy    dyz    dz2    dxz    dx2    tot
  1  0.000  0.000  0.191  0.000  0.000  0.590  0.000  0.165  0.000  0.946
 
band  11 # energy   32.72252020 # occ.  0.00000000
 
ion      s     py     pz     px    dxy    dyz    dz2    dxz    dx2    tot
  1  0.081  0.228  0.000  0.000  0.017  0.000  0.459  0.000  0.004  0.790
 
band  12 # energy   35.62999232 # occ.  0.00000000
 
ion      s     py     pz     px    dxy    dyz    dz2    dxz    dx2    tot
  1  0.111  0.018  0.000  0.068  0.187  0.000  0.031  0.000  0.111  0.526
 

 k-point   11 :   -0.18750000 0.31250000 0.06250000     weight = 0.04687500

band   1 # energy    0.27171312 # occ.  1.00000000
 
ion      s     py     pz     px    dxy    dyz    dz2    dxz    dx2    tot
  1  0.440  0.013  0.013  0.137  0.039  0.000  0.017  0.039  0.050  0.746
 
band   2 # energy    2.86896905 # occ.  1.00000000
 
ion      s     py     pz     px    dxy    dyz    dz2    dxz    dx2    tot
  1  0.000  0.010  0.010  0.000  0.281  0.000  0.262  0.281  0.087  0.932
 
band   3 # energy    3.06824489 # occ.  1.00000000
 
ion      s     py     pz     px    dxy    dyz    dz2    dxz    dx2    tot
  1  0.010  0.004  0.004  0.020  0.220  0.471  0.000  0.220  0.000  0.950
 
band   4 # energy    4.06927912 # occ.  1.00000000
 
ion      s     py     pz     px    dxy    dyz    dz2    dxz    dx2    tot
  1  0.000  0.002  0.002  0.000  0.187  0.000  0.438  0.187  0.146  0.962
 
band   5 # energy    4.74481925 # occ.  1.00179029
 
ion      s     py     pz     px    dxy    dyz    dz2    dxz    dx2    tot
  1  0.001  0.003  0.003  0.001  0.160  0.336  0.079  0.160  0.236  0.979
 
band   6 # energy    5.09350375 # occ.  0.76006438
 
ion      s     py     pz     px    dxy    dyz    dz2    dxz    dx2    tot
  1  0.046  0.006  0.006  0.023  0.055  0.164  0.151  0.055  0.453  0.961
 
band   7 # energy   21.49640170 # occ.  0.00000000
 
ion      s     py     pz     px    dxy    dyz    dz2    dxz    dx2    tot
  1  0.000  0.128  0.128  0.000  0.136  0.000  0.188  0.136  0.063  0.778
 
band   8 # energy   22.45739898 # occ.  0.00000000
 
ion      s     py     pz     px    dxy    dyz    dz2    dxz    dx2    tot
  1  0.146  0.067  0.067  0.177  0.143  0.017  0.001  0.143  0.004  0.765
 
band   9 # energy   28.97409981 # occ.  0.00000000
 
ion      s     py     pz     px    dxy    dyz    dz2    dxz    dx2    tot
  1  0.000  0.057  0.057  0.000  0.134  0.000  0.194  0.134  0.065  0.641
 
band  10 # energy   29.18708706 # occ.  0.00000000
 
ion      s     py     pz     px    dxy    dyz    dz2    dxz    dx2    tot
  1  0.001  0.224  0.224  0.061  0.017  0.088  0.003  0.017  0.010  0.647
 
band  11 # energy   32.93375211 # occ.  0.00000000
 
ion      s     py     pz     px    dxy    dyz    dz2    dxz    dx2    tot
  1  0.101  0.001  0.001  0.062  0.125  0.342  0.013  0.125  0.039  0.810
 
band  12 # energy   37.55304533 # occ.  0.00000000
 
ion      s     py     pz     px    dxy    dyz    dz2    dxz    dx2    tot
  1  0.000  0.145  0.145  0.000  0.004  0.000  0.102  0.004  0.034  0.434
 

 k-point   12 :   -0.43750000 0.43750000 0.06250000     weight = 0.04687500

band   1 # energy    0.90758030 # occ.  1.00000000
 
ion      s     py     pz     px    dxy    dyz    dz2    dxz    dx2    tot
  1  0.141  0.000  0.000  0.016  0.433  0.000  0.275  0.000  0.001  0.866
 
band   2 # energy    2.42729085 # occ.  1.00000000
 
ion      s     py     pz     px    dxy    dyz    dz2    dxz    dx2    tot
  1  0.000  0.000  0.002  0.000  0.000  0.463  0.000  0.489  0.000  0.954
 
band   3 # energy    4.09166343 # occ.  1.00000000
 
ion      s     py     pz     px    dxy    dyz    dz2    dxz    dx2    tot
  1  0.017  0.060  0.000  0.066  0.002  0.000  0.103  0.000  0.657  0.905
 
band   4 # energy    4.55394039 # occ.  1.00000000
 
ion      s     py     pz     px    dxy    dyz    dz2    dxz    dx2    tot
  1  0.008  0.005  0.000  0.004  0.336  0.000  0.541  0.000  0.082  0.975
 
band   5 # energy    5.81062066 # occ.  0.48934712
 
ion      s     py     pz     px    dxy    dyz    dz2    dxz    dx2    tot
  1  0.000  0.000  0.002  0.000  0.000  0.511  0.000  0.478  0.000  0.990
 
band   6 # energy    6.26322145 # occ.  0.00077713
 
ion      s     py     pz     px    dxy    dyz    dz2    dxz    dx2    tot
  1  0.055  0.196  0.000  0.236  0.062  0.000  0.009  0.000  0.246  0.803
 
band   7 # energy   13.77828933 # occ.  0.00000000
 
ion      s     py     pz     px    dxy    dyz    dz2    dxz    dx2    tot
  1  0.346  0.082  0.000  0.023  0.332  0.000  0.094  0.000  0.003  0.880
 
band   8 # energy   23.91604332 # occ.  0.00000000
 
ion      s     py     pz     px    dxy    dyz    dz2    dxz    dx2    tot
  1  0.025  0.106  0.000  0.132  0.001  0.000  0.069  0.000  0.008  0.340
 
band   9 # energy   24.74824634 # occ.  0.00000000
 
ion      s     py     pz     px    dxy    dyz    dz2    dxz    dx2    tot
  1  0.000  0.000  0.615  0.000  0.000  0.045  0.000  0.174  0.000  0.835
 
band  10 # energy   30.13900712 # occ.  0.00000000
 
ion      s     py     pz     px    dxy    dyz    dz2    dxz    dx2    tot
  1  0.000  0.000  0.119  0.000  0.000  0.550  0.000  0.413  0.000  1.083
 
band  11 # energy   32.97350064 # occ.  0.00000000
 
ion      s     py     pz     px    dxy    dyz    dz2    dxz    dx2    tot