<?xml version="1.0" encoding="ISO-8859-1"?>
<modeling>
 <generator>
  <i name="program" type="string">vasp </i>
  <i name="version" type="string">5.4.1  </i>
  <i name="subversion" type="string">24Jun15 (build Jul 19 2016 16:50:41) complex                          parallel </i>
  <i name="platform" type="string">IFC91_ompi </i>
  <i name="date" type="string">2019 10 17 </i>
  <i name="time" type="string">11:16:02 </i>
 </generator>
 <incar>
  <i type="string" name="SYSTEM"> Fe BCC</i>
  <i type="string" name="PREC">accurate</i>
  <i type="int" name="ISPIN">     2</i>
  <i name="EDIFF">      0.00000100</i>
  <i name="ENMAX">    450.00000000</i>
  <v name="MAGMOM">      4.00000000</v>
  <i type="int" name="ISMEAR">    -5</i>
  <i type="logical" name="LORBIT"> F  </i>
  <v type="int" name="KPOINT_BSE">    -1     0     0     0</v>
 </incar>
 <kpoints>
  <generation param="Monkhorst-Pack">
   <v type="int" name="divisions">       8        8        8 </v>
   <v name="usershift">      0.00000000       0.00000000       0.00000000 </v>
   <v name="genvec1">      0.12500000       0.00000000       0.00000000 </v>
   <v name="genvec2">      0.00000000       0.12500000       0.00000000 </v>
   <v name="genvec3">      0.00000000       0.00000000       0.12500000 </v>
   <v name="shift">      0.50000000       0.50000000       0.50000000 </v>
  </generation>
  <varray name="kpointlist" >
   <v>       0.06250000       0.06250000       0.06250000 </v>
   <v>       0.18750000       0.06250000       0.06250000 </v>
   <v>       0.31250000       0.06250000       0.06250000 </v>
   <v>       0.43750000       0.06250000       0.06250000 </v>
   <v>      -0.06250000       0.06250000       0.06250000 </v>
   <v>       0.18750000       0.18750000       0.06250000 </v>
   <v>       0.31250000       0.18750000       0.06250000 </v>
   <v>      -0.18750000       0.18750000       0.06250000 </v>
   <v>       0.31250000       0.31250000       0.06250000 </v>
   <v>      -0.31250000       0.31250000       0.06250000 </v>
   <v>      -0.18750000       0.31250000       0.06250000 </v>
   <v>      -0.43750000       0.43750000       0.06250000 </v>
   <v>      -0.31250000       0.43750000       0.06250000 </v>
   <v>      -0.43750000      -0.43750000       0.06250000 </v>
   <v>      -0.31250000      -0.43750000       0.06250000 </v>
   <v>       0.18750000       0.18750000       0.18750000 </v>
   <v>       0.31250000       0.18750000       0.18750000 </v>
   <v>      -0.18750000       0.18750000       0.18750000 </v>
   <v>      -0.31250000       0.31250000       0.18750000 </v>
   <v>      -0.43750000       0.43750000       0.18750000 </v>
   <v>      -0.31250000       0.43750000       0.18750000 </v>
   <v>      -0.43750000      -0.43750000       0.18750000 </v>
   <v>      -0.31250000       0.31250000       0.31250000 </v>
   <v>      -0.43750000       0.43750000       0.31250000 </v>
   <v>      -0.43750000      -0.43750000       0.31250000 </v>
   <v>      -0.43750000       0.43750000       0.43750000 </v>
  </varray>
  <varray name="weights" >
   <v>       0.01562500 </v>
   <v>       0.04687500 </v>
   <v>       0.04687500 </v>
   <v>       0.02343750 </v>
   <v>       0.01171875 </v>
   <v>       0.04687500 </v>
   <v>       0.09375000 </v>
   <v>       0.04687500 </v>
   <v>       0.01562500 </v>
   <v>       0.04687500 </v>
   <v>       0.04687500 </v>
   <v>       0.04687500 </v>
   <v>       0.09375000 </v>
   <v>       0.04687500 </v>
   <v>       0.04687500 </v>
   <v>       0.01562500 </v>
   <v>       0.02343750 </v>
   <v>       0.01171875 </v>
   <v>       0.04687500 </v>
   <v>       0.04687500 </v>
   <v>       0.04687500 </v>
   <v>       0.04687500 </v>
   <v>       0.01171875 </v>
   <v>       0.04687500 </v>
   <v>       0.01562500 </v>
   <v>       0.01171875 </v>
  </varray>
  <varray name="tetrahedronlist"  type="int" >
   <v type="int" >        4        1        2        2        6 </v>
   <v type="int" >        8        2        2        6        6 </v>
   <v type="int" >        4        2        6        6       16 </v>
   <v type="int" >        4        2        3        6        7 </v>
   <v type="int" >        4        2        6        6        7 </v>
   <v type="int" >       12        6        6        7       16 </v>
   <v type="int" >        8        3        6        7        7 </v>
   <v type="int" >        8        6        7        7       17 </v>
   <v type="int" >        8        6        7       16       17 </v>
   <v type="int" >        4        3        4        7        7 </v>
   <v type="int" >        4        3        7        7        7 </v>
   <v type="int" >       16        7        7        7       17 </v>
   <v type="int" >        8        4        7        7        7 </v>
   <v type="int" >        4        7        7        7       16 </v>
   <v type="int" >       20        7        7       16       17 </v>
   <v type="int" >        4        3        4        6        7 </v>
   <v type="int" >        4        4        6        7        7 </v>
   <v type="int" >       16        6        7        7       16 </v>
   <v type="int" >        8        3        6        6        7 </v>
   <v type="int" >        4        6        6        6        7 </v>
   <v type="int" >        4        2        2        3        6 </v>
   <v type="int" >        8        2        3        6        6 </v>
   <v type="int" >        4        2        6        6        6 </v>
   <v type="int" >        4        2        2        2        6 </v>
   <v type="int" >        8        2        2        6       11 </v>
   <v type="int" >        4        2        6        6       11 </v>
   <v type="int" >       16        1        2        2        8 </v>
   <v type="int" >        4        2        2        2        8 </v>
   <v type="int" >       12        2        2        8       11 </v>
   <v type="int" >       16        1        2        8        8 </v>
   <v type="int" >        4        2        8        8       18 </v>
   <v type="int" >        4        2        8       11       18 </v>
   <v type="int" >       20        1        5        8        8 </v>
   <v type="int" >        4        1        8        8        8 </v>
   <v type="int" >        4        8        8        8       18 </v>
   <v type="int" >        8        5        8        8        8 </v>
   <v type="int" >        4        8        8        8       11 </v>
   <v type="int" >        4        8        8       11       18 </v>
   <v type="int" >        8        1        2        5        8 </v>
   <v type="int" >        8        2        5        8        8 </v>
   <v type="int" >        8        2        8        8       11 </v>
   <v type="int" >        4        2        2        6        8 </v>
   <v type="int" >        4        2        6        8       11 </v>
   <v type="int" >        4        6        7        9       16 </v>
   <v type="int" >       16        7        9       16       17 </v>
   <v type="int" >       12        9       16       17       17 </v>
   <v type="int" >       20        7        7        9       17 </v>
   <v type="int" >       12        7        9       17       17 </v>
   <v type="int" >        8        7        7       17       17 </v>
   <v type="int" >       12        3        6        7       16 </v>
   <v type="int" >        8        3        7        7       16 </v>
   <v type="int" >        8        3        6        6       16 </v>
   <v type="int" >        4        3        6       13       16 </v>
   <v type="int" >        4        3        7       13       16 </v>
   <v type="int" >        4        2        6        6       10 </v>
   <v type="int" >        4        3        6        6       10 </v>
   <v type="int" >        8        3        6       10       13 </v>
   <v type="int" >       12        2        6       10       11 </v>
   <v type="int" >        4        6       10       11       19 </v>
   <v type="int" >        4        6       10       13       19 </v>
   <v type="int" >        4        2        8       11       11 </v>
   <v type="int" >        4        2       10       11       11 </v>
   <v type="int" >        4       10       11       11       19 </v>
   <v type="int" >        8        8       11       11       18 </v>
   <v type="int" >        8       11       11       18       19 </v>
   <v type="int" >        4       11       11       19       19 </v>
   <v type="int" >        4        8        8       10       18 </v>
   <v type="int" >       12        8       10       11       18 </v>
   <v type="int" >       12       10       11       18       19 </v>
   <v type="int" >        4       10       11       13       18 </v>
   <v type="int" >        4       10       13       18       19 </v>
   <v type="int" >        4        2        3        8       11 </v>
   <v type="int" >        4        3        8       10       11 </v>
   <v type="int" >        8        3       10       11       13 </v>
   <v type="int" >       16        2        3        6       11 </v>
   <v type="int" >        4        3        6        7       11 </v>
   <v type="int" >        4        3        7       11       13 </v>
   <v type="int" >        4        4        7        9       17 </v>
   <v type="int" >        8        4        7        7       17 </v>
   <v type="int" >        4        4        7       14       17 </v>
   <v type="int" >        4        3        7        7       12 </v>
   <v type="int" >        8        4        7        7       12 </v>
   <v type="int" >        8        4        7       12       14 </v>
   <v type="int" >        8        3        7       12       13 </v>
   <v type="int" >        4        7       12       13       20 </v>
   <v type="int" >        4        7       12       14       20 </v>
   <v type="int" >        4        3       10       13       13 </v>
   <v type="int" >        4        3       12       13       13 </v>
   <v type="int" >        4       12       13       13       20 </v>
   <v type="int" >        8       10       13       13       19 </v>
   <v type="int" >       12       13       13       19       21 </v>
   <v type="int" >        4       13       13       20       21 </v>
   <v type="int" >        8       10       11       13       19 </v>
   <v type="int" >        8       11       13       19       19 </v>
   <v type="int" >        4       13       19       19       20 </v>
   <v type="int" >        8       13       19       20       21 </v>
   <v type="int" >        4       10       11       12       19 </v>
   <v type="int" >        4       11       12       13       19 </v>
   <v type="int" >        8       12       13       19       20 </v>
   <v type="int" >        8       10       12       13       19 </v>
   <v type="int" >        4       12       13       14       19 </v>
   <v type="int" >        4       12       14       19       20 </v>
   <v type="int" >        4        3        4       10       13 </v>
   <v type="int" >        4        4       10       12       13 </v>
   <v type="int" >       12        4       12       13       14 </v>
   <v type="int" >       12        3        4        7       13 </v>
   <v type="int" >        8        4        7        7       13 </v>
   <v type="int" >       12        4        7       13       14 </v>
   <v type="int" >        4        4       12       14       14 </v>
   <v type="int" >        4       12       14       14       20 </v>
   <v type="int" >        4       14       14       20       22 </v>
   <v type="int" >        4       12       13       15       20 </v>
   <v type="int" >        4       12       14       15       20 </v>
   <v type="int" >        8       14       15       20       22 </v>
   <v type="int" >       12       13       15       20       21 </v>
   <v type="int" >       12       15       20       21       22 </v>
   <v type="int" >        4       15       20       22       22 </v>
   <v type="int" >        4       13       13       14       21 </v>
   <v type="int" >       12       13       14       15       21 </v>
   <v type="int" >       16       14       15       21       22 </v>
   <v type="int" >        8       13       14       20       21 </v>
   <v type="int" >        4       14       20       20       21 </v>
   <v type="int" >       12       14       20       21       22 </v>
   <v type="int" >        4       12       12       13       20 </v>
   <v type="int" >        8       12       13       14       20 </v>
   <v type="int" >        8       12       14       20       20 </v>
   <v type="int" >        8       12       12       14       20 </v>
   <v type="int" >        4       12       13       20       20 </v>
   <v type="int" >       16        3        4       12       14 </v>
   <v type="int" >        8        3       12       12       14 </v>
   <v type="int" >        8        3       12       13       14 </v>
   <v type="int" >       16        3        4        7       14 </v>
   <v type="int" >        4        3        6        7       14 </v>
   <v type="int" >        4        3        6       13       14 </v>
   <v type="int" >        8       14       15       15       22 </v>
   <v type="int" >        8       15       15       22       22 </v>
   <v type="int" >        8       15       21       22       22 </v>
   <v type="int" >       12       13       14       15       22 </v>
   <v type="int" >        4       13       15       15       22 </v>
   <v type="int" >        8       13       15       21       22 </v>
   <v type="int" >       12       13       14       20       22 </v>
   <v type="int" >        4       13       19       20       22 </v>
   <v type="int" >        4       13       19       21       22 </v>
   <v type="int" >        4       10       12       14       20 </v>
   <v type="int" >        4       10       13       14       20 </v>
   <v type="int" >        8       10       13       19       20 </v>
   <v type="int" >        8       10       12       13       20 </v>
   <v type="int" >        4       10       11       13       20 </v>
   <v type="int" >        4       10       11       19       20 </v>
   <v type="int" >        4        2        3       12       13 </v>
   <v type="int" >        4        2       10       12       13 </v>
   <v type="int" >        8        2       10       11       13 </v>
   <v type="int" >       12        2        3        6       13 </v>
   <v type="int" >        4        2        2        6       13 </v>
   <v type="int" >        4        2        2       11       13 </v>
   <v type="int" >        4       11       13       15       21 </v>
   <v type="int" >        8       11       13       19       21 </v>
   <v type="int" >        4       11       18       19       21 </v>
   <v type="int" >        4        8       10       13       19 </v>
   <v type="int" >        4        8       11       13       19 </v>
   <v type="int" >        8        8       11       18       19 </v>
   <v type="int" >        8        8       10       11       19 </v>
   <v type="int" >        4        8        8       11       19 </v>
   <v type="int" >        4        8        8       18       19 </v>
   <v type="int" >        4        1        2       10       11 </v>
   <v type="int" >        4        1        8       10       11 </v>
   <v type="int" >        8        1        8        8       11 </v>
   <v type="int" >        8        1        2        2       11 </v>
   <v type="int" >       12        1        2        8       11 </v>
   <v type="int" >        4        5        8       11       18 </v>
   <v type="int" >        4        5        8        8       18 </v>
   <v type="int" >        4        1        5        8       18 </v>
   <v type="int" >        4        5        5        8        8 </v>
   <v type="int" >       12        1        5        5        8 </v>
   <v type="int" >        6        1        1        5        5 </v>
   <v type="int" >        8        1        1        5        8 </v>
   <v type="int" >        4        1        1        2        8 </v>
   <v type="int" >        4        2        3        6       16 </v>
   <v type="int" >        4        3        7       16       17 </v>
   <v type="int" >       12        7       16       17       17 </v>
   <v type="int" >        8        7       17       17       17 </v>
   <v type="int" >       12        7        7        9       16 </v>
   <v type="int" >        4        6        6        7        7 </v>
   <v type="int" >       16        3        6        7       13 </v>
   <v type="int" >       12        6        7        7       13 </v>
   <v type="int" >        4        3        6        6       11 </v>
   <v type="int" >       12        3        6       11       13 </v>
   <v type="int" >       12        2        3       10       11 </v>
   <v type="int" >        4        3       10       11       19 </v>
   <v type="int" >        4        3       11       13       19 </v>
   <v type="int" >        4        2        8       10       18 </v>
   <v type="int" >        4        2       10       11       18 </v>
   <v type="int" >        4       10       18       19       19 </v>
   <v type="int" >        4        8        8       11       11 </v>
   <v type="int" >        4        8       10       11       11 </v>
   <v type="int" >        4       10       11       11       13 </v>
   <v type="int" >        4       11       11       13       19 </v>
   <v type="int" >        4        2        6        8       10 </v>
   <v type="int" >        4        6        8       10       11 </v>
   <v type="int" >       12        6       10       11       13 </v>
   <v type="int" >        8        2        3        6       10 </v>
   <v type="int" >        4        3        6        7       10 </v>
   <v type="int" >        4        6        7       10       13 </v>
   <v type="int" >        4       16       17       17       17 </v>
   <v type="int" >        4       17       17       17       17 </v>
   <v type="int" >        4        9       17       17       17 </v>
   <v type="int" >        8        7        7       15       17 </v>
   <v type="int" >        8        7        9       15       17 </v>
   <v type="int" >        4        6        7       13       16 </v>
   <v type="int" >        4        7        7       13       16 </v>
   <v type="int" >       12        7        7       13       15 </v>
   <v type="int" >        8        6        7       13       13 </v>
   <v type="int" >        4        7       13       13       21 </v>
   <v type="int" >        4        7       13       15       21 </v>
   <v type="int" >        4        6       11       13       19 </v>
   <v type="int" >        4        6       13       13       19 </v>
   <v type="int" >        4       13       19       19       23 </v>
   <v type="int" >        4       13       19       21       23 </v>
   <v type="int" >        4       11       18       19       19 </v>
   <v type="int" >        4       11       19       19       19 </v>
   <v type="int" >        4       19       19       19       23 </v>
   <v type="int" >        4       18       19       19       19 </v>
   <v type="int" >        4       19       19       19       21 </v>
   <v type="int" >        4       19       19       21       23 </v>
   <v type="int" >        4       11       13       18       19 </v>
   <v type="int" >        4       13       18       19       19 </v>
   <v type="int" >        8       13       19       19       21 </v>
   <v type="int" >       12       11       13       13       19 </v>
   <v type="int" >        4       13       13       15       19 </v>
   <v type="int" >        4       13       15       19       21 </v>
   <v type="int" >        4        6        7       11       13 </v>
   <v type="int" >        4        7       11       13       13 </v>
   <v type="int" >        8        7       13       13       15 </v>
   <v type="int" >        4        7        7        9       13 </v>
   <v type="int" >        4        7        9       13       15 </v>
   <v type="int" >        4        7        9       14       17 </v>
   <v type="int" >       12        7        9       14       15 </v>
   <v type="int" >        4        9       14       15       22 </v>
   <v type="int" >        4        7       13       15       20 </v>
   <v type="int" >        4        7       14       15       20 </v>
   <v type="int" >        4       15       20       21       24 </v>
   <v type="int" >        4       15       20       22       24 </v>
   <v type="int" >        4       13       19       21       21 </v>
   <v type="int" >        4       13       20       21       21 </v>
   <v type="int" >        4       20       21       21       24 </v>
   <v type="int" >        8       19       21       21       23 </v>
   <v type="int" >        8       21       21       23       24 </v>
   <v type="int" >        4       21       21       24       24 </v>
   <v type="int" >        4       19       19       20       23 </v>
   <v type="int" >       12       19       20       21       23 </v>
   <v type="int" >       12       20       21       23       24 </v>
   <v type="int" >        4       20       21       22       23 </v>
   <v type="int" >        4       20       22       23       24 </v>
   <v type="int" >        4       13       14       19       21 </v>
   <v type="int" >        4       14       19       20       21 </v>
   <v type="int" >        4       14       15       15       21 </v>
   <v type="int" >       16        7       13       14       15 </v>
   <v type="int" >        8        7       14       15       15 </v>
   <v type="int" >       16        7        7        9       15 </v>
   <v type="int" >        4        7        7       15       15 </v>
   <v type="int" >        4       14       20       22       22 </v>
   <v type="int" >        8       20       22       22       24 </v>
   <v type="int" >       16       22       22       24       25 </v>
   <v type="int" >       16       20       21       22       24 </v>
   <v type="int" >        8       21       22       24       24 </v>
   <v type="int" >        4       22       24       24       24 </v>
   <v type="int" >       16       22       24       24       25 </v>
   <v type="int" >        4       20       20       21       24 </v>
   <v type="int" >       12       20       22       24       24 </v>
   <v type="int" >        8       20       20       22       24 </v>
   <v type="int" >        4       20       21       24       24 </v>
   <v type="int" >        4       13       20       20       22 </v>
   <v type="int" >        8       13       20       21       22 </v>
   <v type="int" >        4       13       13       15       22 </v>
   <v type="int" >        4       13       13       21       22 </v>
   <v type="int" >        4        6        7       14       15 </v>
   <v type="int" >        4        6       13       14       15 </v>
   <v type="int" >        4        6       13       13       15 </v>
   <v type="int" >        4        6        7        7       15 </v>
   <v type="int" >        4        3        6        7       15 </v>
   <v type="int" >        4        3        6       13       15 </v>
   <v type="int" >        8       21       22       22       25 </v>
   <v type="int" >       12       21       22       24       25 </v>
   <v type="int" >        4       21       23       24       25 </v>
   <v type="int" >        4       19       20       22       24 </v>
   <v type="int" >        4       19       21       22       24 </v>
   <v type="int" >        8       19       21       23       24 </v>
   <v type="int" >        8       19       20       21       24 </v>
   <v type="int" >        4       19       19       21       24 </v>
   <v type="int" >        4       19       19       23       24 </v>
   <v type="int" >        4       11       13       20       21 </v>
   <v type="int" >        4       11       19       20       21 </v>
   <v type="int" >        4       11       19       19       21 </v>
   <v type="int" >        4       11       13       13       21 </v>
   <v type="int" >        4       10       11       13       21 </v>
   <v type="int" >        4       10       11       19       21 </v>
   <v type="int" >        4        2        6       13       13 </v>
   <v type="int" >        4        2       11       13       13 </v>
   <v type="int" >       12        2        3       10       13 </v>
   <v type="int" >        4        2       10       10       13 </v>
   <v type="int" >        4       18       19       21       23 </v>
   <v type="int" >        4       18       19       19       23 </v>
   <v type="int" >        4       11       18       19       23 </v>
   <v type="int" >        4        8       11       19       19 </v>
   <v type="int" >        4        8       18       19       19 </v>
   <v type="int" >        4        2        8       10       19 </v>
   <v type="int" >        4        2        8       11       19 </v>
   <v type="int" >       16        2        8       10       11 </v>
   <v type="int" >        4        8        8       10       11 </v>
   <v type="int" >       12        2        8        8       10 </v>
   <v type="int" >        8        2        8       10       10 </v>
   <v type="int" >        4        8       10       10       11 </v>
   <v type="int" >        4        1        8       11       18 </v>
   <v type="int" >        4        2        8        8        8 </v>
   <v type="int" >        8        2        2        8       10 </v>
   <v type="int" >        4        2        2        3       10 </v>
   <v type="int" >        4        3        4        7       17 </v>
   <v type="int" >        4        4        7       16       17 </v>
   <v type="int" >        4        7        7        7        9 </v>
   <v type="int" >        4        4        7        7       14 </v>
   <v type="int" >        4        7        7        7       14 </v>
   <v type="int" >       12        3        4       12       13 </v>
   <v type="int" >        4        4       12       13       20 </v>
   <v type="int" >        4        4       13       14       20 </v>
   <v type="int" >        4        3       10       12       19 </v>
   <v type="int" >        4        3       12       13       19 </v>
   <v type="int" >        4       12       13       19       21 </v>
   <v type="int" >        4       12       19       20       21 </v>
   <v type="int" >        4       10       13       19       19 </v>
   <v type="int" >        8       13       13       19       20 </v>
   <v type="int" >        4       10       11       13       13 </v>
   <v type="int" >        4       10       12       13       13 </v>
   <v type="int" >        4       12       13       13       14 </v>
   <v type="int" >        4       13       13       14       20 </v>
   <v type="int" >        4        3        7       10       12 </v>
   <v type="int" >        4        7       10       12       13 </v>
   <v type="int" >        8        7       12       13       14 </v>
   <v type="int" >        8        3        4        7       12 </v>
   <v type="int" >        4        7        7       12       14 </v>
   <v type="int" >        4        7        9       15       16 </v>
   <v type="int" >       12        7        9       15       15 </v>
   <v type="int" >        8        7        7       14       15 </v>
   <v type="int" >        4        7       14       15       22 </v>
   <v type="int" >        4        7       15       15       22 </v>
   <v type="int" >        4        7       13       14       21 </v>
   <v type="int" >        4        7       14       15       21 </v>
   <v type="int" >        4       14       20       21       24 </v>
   <v type="int" >        4       14       21       22       24 </v>
   <v type="int" >        4       13       19       20       23 </v>
   <v type="int" >        4       13       20       21       23 </v>
   <v type="int" >        4       20       23       24       24 </v>
   <v type="int" >        4       19       19       21       21 </v>
   <v type="int" >        4       19       20       21       21 </v>
   <v type="int" >        4       20       21       21       22 </v>
   <v type="int" >        4       21       21       22       24 </v>
   <v type="int" >        4       13       15       19       20 </v>
   <v type="int" >        4       15       19       20       21 </v>
   <v type="int" >        8       13       14       15       20 </v>
   <v type="int" >        4       14       15       15       20 </v>
   <v type="int" >        4       15       15       20       22 </v>
   <v type="int" >        4        7        9       13       14 </v>
   <v type="int" >        4        9       13       14       15 </v>
   <v type="int" >        8        9       14       15       15 </v>
   <v type="int" >        8        7        7        9       14 </v>
   <v type="int" >        4        9       15       15       22 </v>
   <v type="int" >        4       15       22       22       25 </v>
   <v type="int" >        4       15       21       22       24 </v>
   <v type="int" >        4       15       22       22       24 </v>
   <v type="int" >        8       22       24       24       26 </v>
   <v type="int" >        8       22       24       25       26 </v>
   <v type="int" >        4       21       23       24       24 </v>
   <v type="int" >        4       21       24       24       24 </v>
   <v type="int" >        8       24       24       24       26 </v>
   <v type="int" >        4       23       24       24       24 </v>
   <v type="int" >        4       24       24       24       25 </v>
   <v type="int" >       20       24       24       25       26 </v>
   <v type="int" >        4       21       22       23       24 </v>
   <v type="int" >        4       22       23       24       24 </v>
   <v type="int" >       12       21       22       22       24 </v>
   <v type="int" >        4       22       22       22       24 </v>
   <v type="int" >        4       15       15       21       22 </v>
   <v type="int" >        4       15       22       22       22 </v>
   <v type="int" >        4       15       15       15       22 </v>
   <v type="int" >        4       14       15       22       22 </v>
   <v type="int" >        4        7       15       15       15 </v>
   <v type="int" >        4        4        7        7       15 </v>
   <v type="int" >        4        4        7       14       15 </v>
   <v type="int" >        4       22       24       25       25 </v>
   <v type="int" >        8       24       25       25       26 </v>
   <v type="int" >        6       25       25       26       26 </v>
   <v type="int" >       12       24       25       26       26 </v>
   <v type="int" >        4       24       24       26       26 </v>
   <v type="int" >        8       21       24       24       25 </v>
   <v type="int" >        4       20       21       22       25 </v>
   <v type="int" >        4       20       21       24       25 </v>
   <v type="int" >        4       13       15       22       22 </v>
   <v type="int" >        4       13       21       22       22 </v>
   <v type="int" >        4       12       13       14       22 </v>
   <v type="int" >        4       12       13       20       22 </v>
   <v type="int" >        4        3        7       14       15 </v>
   <v type="int" >        4        3       13       14       15 </v>
   <v type="int" >        4       23       24       25       26 </v>
   <v type="int" >        4       23       24       24       26 </v>
   <v type="int" >        4       21       23       24       26 </v>
   <v type="int" >        4       19       21       24       24 </v>
   <v type="int" >        4       19       23       24       24 </v>
   <v type="int" >        4       13       19       20       24 </v>
   <v type="int" >        4       13       19       21       24 </v>
   <v type="int" >        4       10       13       20       21 </v>
   <v type="int" >        4       10       19       20       21 </v>
   <v type="int" >        4        3       10       12       20 </v>
   <v type="int" >        4        3       10       13       20 </v>
   <v type="int" >        8        3       10       12       13 </v>
   <v type="int" >        4       10       10       12       13 </v>
   <v type="int" >        8        3       10       10       12 </v>
   <v type="int" >        8        3       10       12       12 </v>
   <v type="int" >        4       10       12       12       13 </v>
   <v type="int" >        4       11       19       21       23 </v>
   <v type="int" >        4        6       11       13       21 </v>
   <v type="int" >        4        2       10       13       19 </v>
   <v type="int" >        4        2       11       13       19 </v>
   <v type="int" >        8        2        6       11       13 </v>
   <v type="int" >        4        2        6        6       13 </v>
   <v type="int" >        4        3       10       10       11 </v>
   <v type="int" >        4        3       11       13       13 </v>
   <v type="int" >        4        2        2        6       10 </v>
   <v type="int" >        4        6       10       12       13 </v>
   <v type="int" >        4        3        6       10       12 </v>
   <v type="int" >        4        2        3        3       10 </v>
   <v type="int" >        4        3        3       10       12 </v>
   <v type="int" >        4        3        3        4       12 </v>
   <v type="int" >        4        3        4        7       16 </v>
   <v type="int" >        4        6        7        7        7 </v>
   <v type="int" >        4        6        6        7       13 </v>
   <v type="int" >        8        3        7        7       14 </v>
   <v type="int" >        8        3        7       13       14 </v>
   <v type="int" >        4        3       12       14       20 </v>
   <v type="int" >        4        3       13       14       20 </v>
   <v type="int" >        4        4       12       12       20 </v>
   <v type="int" >        4        4       12       14       20 </v>
   <v type="int" >        4       12       14       20       22 </v>
   <v type="int" >        4       12       20       20       22 </v>
   <v type="int" >        4       12       13       14       21 </v>
   <v type="int" >        4       12       14       20       21 </v>
   <v type="int" >        4       14       21       22       22 </v>
   <v type="int" >        4       13       13       15       20 </v>
   <v type="int" >        4       14       15       20       20 </v>
   <v type="int" >        4       15       20       20       22 </v>
   <v type="int" >        4       12       13       14       14 </v>
   <v type="int" >        4       13       14       14       20 </v>
   <v type="int" >        2       14       14       20       20 </v>
   <v type="int" >        2       12       12       14       14 </v>
   <v type="int" >        8        4        7       12       12 </v>
   <v type="int" >        4        7       12       12       14 </v>
   <v type="int" >        4        3        6        7       12 </v>
   <v type="int" >        4        6        7       12       13 </v>
   <v type="int" >        4        6        7       15       16 </v>
   <v type="int" >        8        6        7       13       15 </v>
   <v type="int" >        4        6       13       15       21 </v>
   <v type="int" >        4        7       13       14       22 </v>
   <v type="int" >        4        7       13       15       22 </v>
   <v type="int" >        4       13       20       22       24 </v>
   <v type="int" >        4       13       21       22       24 </v>
   <v type="int" >        4       14       20       20       24 </v>
   <v type="int" >        4       14       20       22       24 </v>
   <v type="int" >        4       20       22       24       25 </v>
   <v type="int" >        4       20       24       24       25 </v>
   <v type="int" >        6       22       22       24       24 </v>
   <v type="int" >        4       20       21       22       22 </v>
   <v type="int" >        2       20       20       22       22 </v>
   <v type="int" >        4        7        7       13       14 </v>
   <v type="int" >        4        3        7       13       13 </v>
   <v type="int" >        4       15       21       22       25 </v>
   <v type="int" >        4       21       24       25       26 </v>
   <v type="int" >        4       24       26       26       26 </v>
   <v type="int" >        6       24       24       25       25 </v>
   <v type="int" >        4        4        7       13       15 </v>
   <v type="int" >        4        4       13       14       15 </v>
   <v type="int" >        8        4       12       12       13 </v>
   <v type="int" >        4       25       26       26       26 </v>
   <v type="int" >        2       26       26       26       26 </v>
   <v type="int" >        4        4       12       12       14 </v>
   <v type="int" >        4       12       12       12       14 </v>
   <v type="int" >        8        4       12       12       12 </v>
   <v type="int" >        4        3        4        4       12 </v>
   <v type="int" >        4        4        4       12       12 </v>
   <v type="int" >        4        1        5        8       11 </v>
   <v type="int" >        4        1        2        6       11 </v>
   <v type="int" >        4        2        8       10       13 </v>
   <v type="int" >        4        2        8       11       13 </v>
   <v type="int" >        4        2        3        7       13 </v>
   <v type="int" >        4        2        6        7       13 </v>
   <v type="int" >        4        3       10       12       14 </v>
   <v type="int" >        4        3       10       13       14 </v>
   <v type="int" >        4        3        4        6       13 </v>
   <v type="int" >        4        4        6        7       13 </v>
   <v type="int" >        4        3       10       11       12 </v>
   <v type="int" >        4        3       11       12       13 </v>
   <v type="int" >        4        2        2        3       11 </v>
   <v type="int" >        6        2        2        8        8 </v>
   <v type="int" >        6        1        1        8        8 </v>
   <v type="int" >        4        5        5        5        8 </v>
   <v type="int" >        4        6       11       13       15 </v>
   <v type="int" >        4        6        7        9       15 </v>
   <v type="int" >        4        7       13       15       15 </v>
   <v type="int" >        4        7        7        7       15 </v>
   <v type="int" >        4        7       13       13       14 </v>
   <v type="int" >        4        3        7        7       13 </v>
   <v type="int" >        4        6       10       13       13 </v>
   <v type="int" >        4        2        6       10       10 </v>
   <v type="int" >        4        3        6       10       10 </v>
   <v type="int" >        4        2        2       10       11 </v>
   <v type="int" >        2        2        2       10       10 </v>
   <v type="int" >        4        1        8        8       10 </v>
   <v type="int" >        4        1        2        8       10 </v>
   <v type="int" >        4        2        3        8       10 </v>
   <v type="int" >        4        3        8       10       10 </v>
   <v type="int" >        4        4        7        9       14 </v>
   <v type="int" >        4        7       12       13       15 </v>
   <v type="int" >        4        7       12       14       15 </v>
   <v type="int" >        4        3        7       12       12 </v>
   <v type="int" >        4        3        3       10       13 </v>
   <v type="int" >        4        3        3       12       13 </v>
   <v type="int" >        2        3        3       12       12 </v>
   <v type="int" >        2        3        3       10       10 </v>
   <v type="int" >        4        2       10       10       12 </v>
   <v type="int" >        4        2        3       10       12 </v>
   <v type="int" >        4        3        4       10       12 </v>
   <v type="int" >        4        4       10       12       12 </v>
   <v type="int" >        4        4        4       12       14 </v>
   <v type="int" >        4        3       12       12       12 </v>
   <v type="int" >        4        3        4       12       12 </v>
   <v type="int" >        4        1        5        5        5 </v>
   <v type="int" >        2        5        5        5        5 </v>
  </varray>
  <i name="volumeweight">      0.00032552 </i>
 </kpoints>
 <parameters>
  <separator name="general" >
   <i type="string" name="SYSTEM">Fe BCC</i>
   <i type="logical" name="LCOMPAT"> F  </i>
  </separator>
  <separator name="electronic" >
   <i type="string" name="PREC">accura</i>
   <i name="ENMAX">    450.00000000</i>
   <i name="ENAUG">    511.36800000</i>
   <i name="EDIFF">      0.00000100</i>
   <i type="int" name="IALGO">    38</i>
   <i type="int" name="IWAVPR">    10</i>
   <i type="int" name="NBANDS">    12</i>
   <i name="NELECT">      8.00000000</i>
   <i type="int" name="TURBO">     0</i>
   <i type="int" name="IRESTART">     0</i>
   <i type="int" name="NREBOOT">     0</i>
   <i type="int" name="NMIN">     0</i>
   <i name="EREF">      0.00000000</i>
   <separator name="electronic smearing" >
    <i type="int" name="ISMEAR">    -5</i>
    <i name="SIGMA">      0.20000000</i>
    <i name="KSPACING">      0.50000000</i>
    <i type="logical" name="KGAMMA"> T  </i>
   </separator>
   <separator name="electronic projectors" >
    <i type="logical" name="LREAL"> F  </i>
    <v name="ROPT">      0.00000000</v>
    <i type="int" name="LMAXPAW">  -100</i>
    <i type="int" name="LMAXMIX">     2</i>
    <i type="logical" name="NLSPLINE"> F  </i>
   </separator>
   <separator name="electronic startup" >
    <i type="int" name="ISTART">     0</i>
    <i type="int" name="ICHARG">     2</i>
    <i type="int" name="INIWAV">     1</i>
   </separator>
   <separator name="electronic spin" >
    <i type="int" name="ISPIN">     2</i>
    <i type="logical" name="LNONCOLLINEAR"> F  </i>
    <v name="MAGMOM">      4.00000000</v>
    <i name="NUPDOWN">     -1.00000000</i>
    <i type="logical" name="LSORBIT"> F  </i>
    <v name="SAXIS">      0.00000000      0.00000000      1.00000000</v>
    <i type="logical" name="LSPIRAL"> F  </i>
    <v name="QSPIRAL">      0.00000000      0.00000000      0.00000000</v>
    <i type="logical" name="LZEROZ"> F  </i>
   </separator>
   <separator name="electronic exchange-correlation" >
    <i type="logical" name="LASPH"> F  </i>
    <i type="logical" name="LMETAGGA"> F  </i>
   </separator>
   <separator name="electronic convergence" >
    <i type="int" name="NELM">    60</i>
    <i type="int" name="NELMDL">    -5</i>
    <i type="int" name="NELMIN">     2</i>
    <i name="ENINI">    450.00000000</i>
    <separator name="electronic convergence detail" >
     <i type="logical" name="LDIAG"> T  </i>
     <i type="logical" name="LSUBROT"> F  </i>
     <i name="WEIMIN">      0.00000000</i>
     <i name="EBREAK">      0.00000002</i>
     <i name="DEPER">      0.30000000</i>
     <i type="int" name="NRMM">     4</i>
     <i name="TIME">      0.40000000</i>
    </separator>
   </separator>
   <separator name="electronic mixer" >
    <i name="AMIX">      0.40000000</i>
    <i name="BMIX">      1.00000000</i>
    <i name="AMIN">      0.10000000</i>
    <i name="AMIX_MAG">      1.60000000</i>
    <i name="BMIX_MAG">      1.00000000</i>
    <separator name="electronic mixer details" >
     <i type="int" name="IMIX">     4</i>
     <i type="logical" name="MIXFIRST"> F  </i>
     <i type="int" name="MAXMIX">   -45</i>
     <i name="WC">    100.00000000</i>
     <i type="int" name="INIMIX">     1</i>
     <i type="int" name="MIXPRE">     1</i>
     <i type="int" name="MREMOVE">     5</i>
    </separator>
   </separator>
   <separator name="electronic dipolcorrection" >
    <i type="logical" name="LDIPOL"> F  </i>
    <i type="logical" name="LMONO"> F  </i>
    <i type="int" name="IDIPOL">     0</i>
    <i name="EPSILON">      1.00000000</i>
    <v name="DIPOL">   -100.00000000   -100.00000000   -100.00000000</v>
    <i name="EFIELD">      0.00000000</i>
   </separator>
  </separator>
  <separator name="grids" >
   <i type="int" name="NGX">    18</i>
   <i type="int" name="NGY">    18</i>
   <i type="int" name="NGZ">    18</i>
   <i type="int" name="NGXF">    36</i>
   <i type="int" name="NGYF">    36</i>
   <i type="int" name="NGZF">    36</i>
   <i type="logical" name="ADDGRID"> F  </i>
  </separator>
  <separator name="ionic" >
   <i type="int" name="NSW">     0</i>
   <i type="int" name="IBRION">    -1</i>
   <i type="int" name="ISIF">     2</i>
   <i name="PSTRESS">      0.00000000</i>
   <i name="EDIFFG">      0.00001000</i>
   <i type="int" name="NFREE">     0</i>
   <i name="POTIM">      0.50000000</i>
   <i name="SMASS">     -3.00000000</i>
   <i name="SCALEE">      1.00000000</i>
  </separator>
  <separator name="ionic md" >
   <i name="TEBEG">      0.00010000</i>
   <i name="TEEND">      0.00010000</i>
   <i type="int" name="NBLOCK">     1</i>
   <i type="int" name="KBLOCK">     1</i>
   <i type="int" name="NPACO">   256</i>
   <i name="APACO">     16.00000000</i>
  </separator>
  <separator name="symmetry" >
   <i type="int" name="ISYM">     2</i>
   <i name="SYMPREC">      0.00001000</i>
  </separator>
  <separator name="dos" >
   <i type="logical" name="LORBIT"> F  </i>
   <v name="RWIGS">     -1.00000000</v>
   <i type="int" name="NEDOS">   301</i>
   <i name="EMIN">     10.00000000</i>
   <i name="EMAX">    -10.00000000</i>
   <i name="EFERMI">      0.00000000</i>
  </separator>
  <separator name="writing" >
   <i type="int" name="NWRITE">     2</i>
   <i type="logical" name="LWAVE"> T  </i>
   <i type="logical" name="LCHARG"> T  </i>
   <i type="logical" name="LPARD"> F  </i>
   <i type="logical" name="LVTOT"> F  </i>
   <i type="logical" name="LVHAR"> F  </i>
   <i type="logical" name="LELF"> F  </i>
   <i type="logical" name="LOPTICS"> F  </i>
   <v name="STM">      0.00000000      0.00000000      0.00000000      0.00000000      0.00000000      0.00000000      0.00000000</v>
  </separator>
  <separator name="performance" >
   <i type="int" name="NPAR">     4</i>
   <i type="int" name="NSIM">     4</i>
   <i type="int" name="NBLK">    -1</i>
   <i type="logical" name="LPLANE"> T  </i>
   <i type="logical" name="LSCALAPACK"> F  </i>
   <i type="logical" name="LSCAAWARE"> F  </i>
   <i type="logical" name="LSCALU"> F  </i>
   <i type="logical" name="LASYNC"> F  </i>
   <i type="logical" name="LORBITALREAL"> F  </i>
  </separator>
  <separator name="miscellaneous" >
   <i type="int" name="IDIOT">     3</i>
   <i type="logical" name="LMUSIC"> F  </i>
   <v name="POMASS">     55.84700000</v>
   <v name="DARWINR">      0.00000000</v>
   <v name="DARWINV">      1.00000000</v>
   <i type="logical" name="LCORR"> T  </i>
  </separator>
  <i type="logical" name="GGA_COMPAT"> T  </i>
  <i type="logical" name="LBERRY"> F  </i>
  <i type="int" name="ICORELEVEL">     0</i>
  <i type="logical" name="LDAU"> F  </i>
  <i type="int" name="I_CONSTRAINED_M">     0</i>
  <separator name="electronic exchange-correlation" >
   <i type="string" name="GGA">--</i>
   <i type="int" name="VOSKOWN">     0</i>
   <i type="logical" name="LHFCALC"> F  </i>
   <i type="string" name="PRECFOCK"></i>
   <i type="logical" name="LSYMGRAD"> F  </i>
   <i type="logical" name="LHFONE"> F  </i>
   <i type="logical" name="LRHFCALC"> F  </i>
   <i type="logical" name="LTHOMAS"> F  </i>
   <i type="logical" name="LMODELHF"> F  </i>
   <i name="ENCUT4O">     -1.00000000</i>
   <i type="int" name="EXXOEP">     0</i>
   <i type="int" name="FOURORBIT">     0</i>
   <i name="AEXX">      0.00000000</i>
   <i name="HFALPHA">      0.00000000</i>
   <i name="MCALPHA">      0.00000000</i>
   <i name="ALDAX">      1.00000000</i>
   <i name="AGGAX">      1.00000000</i>
   <i name="ALDAC">      1.00000000</i>
   <i name="AGGAC">      1.00000000</i>
   <i type="int" name="NKREDX">     1</i>
   <i type="int" name="NKREDY">     1</i>
   <i type="int" name="NKREDZ">     1</i>
   <i type="logical" name="SHIFTRED"> F  </i>
   <i type="logical" name="ODDONLY"> F  </i>
   <i type="logical" name="EVENONLY"> F  </i>
   <i type="int" name="LMAXFOCK">     0</i>
   <i type="int" name="NMAXFOCKAE">     0</i>
   <i type="logical" name="LFOCKAEDFT"> F  </i>
   <i name="HFSCREEN">      0.00000000</i>
   <i name="HFSCREENC">      0.00000000</i>
   <i type="int" name="NBANDSGWLOW">     0</i>
  </separator>
  <separator name="vdW DFT" >
   <i type="logical" name="LUSE_VDW"> F  </i>
   <i name="Zab_VDW">     -0.84910000</i>
   <i name="PARAM1">      0.12340000</i>
   <i name="PARAM2">      1.00000000</i>
   <i name="PARAM3">      0.00000000</i>
  </separator>
  <separator name="model GW" >
   <i type="int" name="MODEL_GW">     0</i>
   <i name="MODEL_EPS0">      6.94473750</i>
   <i name="MODEL_ALPHA">      1.00000000</i>
  </separator>
  <separator name="linear response parameters" >
   <i type="logical" name="LEPSILON"> F  </i>
   <i type="logical" name="LRPA"> F  </i>
   <i type="logical" name="LNABLA"> F  </i>
   <i type="logical" name="LVEL"> F  </i>
   <i type="int" name="KINTER">     0</i>
   <i name="CSHIFT">      0.10000000</i>
   <i name="OMEGAMAX">     -1.00000000</i>
   <i name="DEG_THRESHOLD">      0.00200000</i>
  </separator>
  <separator name="orbital magnetization" >
   <i type="logical" name="NUCIND"> F  </i>
   <v name="MAGPOS">      0.00000000      0.00000000      0.00000000</v>
   <i type="logical" name="LNICSALL"> T  </i>
   <i type="logical" name="ORBITALMAG"> F  </i>
   <i type="logical" name="LMAGBLOCH"> F  </i>
   <i type="logical" name="LCHIMAG"> F  </i>
   <i type="logical" name="LGAUGE"> T  </i>
   <i type="int" name="MAGATOM">     0</i>
   <v name="MAGDIPOL">      0.00000000      0.00000000      0.00000000</v>
   <v name="AVECCONST">      0.00000000      0.00000000      0.00000000</v>
  </separator>
  <separator name="response functions" >
   <i type="logical" name="LADDER"> F  </i>
   <i type="logical" name="LFXC"> F  </i>
   <i type="logical" name="LHARTREE"> T  </i>
   <i type="int" name="IBSE">     0</i>
   <v type="int" name="KPOINT">    -1     0     0     0</v>
   <i type="logical" name="LTCTE"> F  </i>
   <i type="logical" name="LTETE"> F  </i>
   <i type="logical" name="LTRIPLET"> F  </i>
   <i type="logical" name="LFXCEPS"> F  </i>
   <i type="logical" name="LFXHEG"> F  </i>
   <i type="int" name="NATURALO">     0</i>
   <i type="logical" name="L2ORDER"> F  </i>
   <i type="logical" name="LUSEW"> F  </i>
   <i name="ENCUTGW">     -2.00000000</i>
   <i name="ENCUTGWSOFT">     -2.00000000</i>
   <i name="ENCUTLF">     -1.00000000</i>
   <i type="int" name="LMAXMP2">    -1</i>
   <i name="SCISSOR">      0.00000000</i>
   <i type="int" name="NOMEGA">     0</i>
   <i type="int" name="NOMEGAR">     0</i>
   <i type="int" name="NBANDSGW">    -1</i>
   <i type="int" name="NBANDSO">    -1</i>
   <i type="int" name="NBANDSV">    -1</i>
   <i type="int" name="NELM">     1</i>
   <i type="int" name="NELMHF">     1</i>
   <i type="int" name="DIM">     3</i>
   <i type="int" name="ANTIRES">     0</i>
   <i name="OMEGAMAX">    -30.00000000</i>
   <i name="OMEGAMIN">    -30.00000000</i>
   <i name="OMEGATL">   -200.00000000</i>
   <i type="int" name="OMEGAGRID">     0</i>
   <i name="CSHIFT">     -0.10000000</i>
   <i type="logical" name="SELFENERGY"> F  </i>
   <i type="logical" name="LSPECTRAL"> F  </i>
   <i type="logical" name="LSPECTRALGW"> F  </i>
   <i type="logical" name="LSINGLES"> F  </i>
   <i type="logical" name="LFERMIGW"> F  </i>
   <i type="logical" name="ODDONLYGW"> F  </i>
   <i type="logical" name="EVENONLYGW"> F  </i>
   <i type="int" name="NKREDLFX">     1</i>
   <i type="int" name="NKREDLFY">     1</i>
   <i type="int" name="NKREDLFZ">     1</i>
   <i type="int" name="MAXMEM">  1800</i>
   <i type="int" name="TELESCOPE">     0</i>
   <i type="int" name="TAUPAR">     1</i>
   <i type="int" name="OMEGAPAR">    -1</i>
   <i name="LAMBDA">      1.00000000</i>
  </separator>
  <separator name="External order field" >
   <i name="OFIELD_KAPPA">      0.00000000</i>
   <v name="OFIELD_K">      0.00000000      0.00000000      0.00000000</v>
   <i name="OFIELD_Q6_NEAR">      0.00000000</i>
   <i name="OFIELD_Q6_FAR">      0.00000000</i>
   <i name="OFIELD_A">      0.00000000</i>
  </separator>
 </parameters>
 <atominfo>
  <atoms>       1 </atoms>
  <types>       1 </types>
  <array name="atoms" >
   <dimension dim="1">ion</dimension>
   <field type="string">element</field>
   <field type="int">atomtype</field>
   <set>
    <rc><c>Fe</c><c>   1</c></rc>
   </set>
  </array>
  <array name="atomtypes" >
   <dimension dim="1">type</dimension>
   <field type="int">atomspertype</field>
   <field type="string">element</field>
   <field>mass</field>
   <field>valence</field>
   <field type="string">pseudopotential</field>
   <set>
    <rc><c>   1</c><c>Fe</c><c>     55.84700000</c><c>      8.00000000</c><c>  PAW_PBE Fe 06Sep2000                  </c></rc>
   </set>
  </array>
 </atominfo>
 <structure name="initialpos" >
  <crystal>
   <varray name="basis" >
    <v>      -1.42500000       1.42500000       1.42500000 </v>
    <v>       1.42500000      -1.42500000       1.42500000 </v>
    <v>       1.42500000       1.42500000      -1.42500000 </v>
   </varray>
   <i name="volume">     11.57456250 </i>
   <varray name="rec_basis" >
    <v>       0.00000000       0.35087719       0.35087719 </v>
    <v>       0.35087719       0.00000000       0.35087719 </v>
    <v>       0.35087719       0.35087719       0.00000000 </v>
   </varray>
  </crystal>
  <varray name="positions" >
   <v>       0.00000000       0.00000000       0.00000000 </v>
  </varray>
 </structure>
 <calculation>
  <scstep>
   <time name="dav">    1.19    0.59</time>
   <time name="total">    1.34    0.67</time>
   <energy>
    <i name="alphaZ">     59.71178263 </i>
    <i name="ewald">   -588.39789044 </i>
    <i name="hartreedc">   -112.96750494 </i>
    <i name="XCdc">      5.94992040 </i>
    <i name="pawpsdc">    552.89180568 </i>
    <i name="pawaedc">   -560.64780826 </i>
    <i name="eentropy">      0.00000000 </i>
    <i name="bandstr">     67.39398659 </i>
    <i name="atom">    594.31193140 </i>
    <i name="e_fr_energy">     18.24622306 </i>
    <i name="e_wo_entrp">     18.24622306 </i>
    <i name="e_0_energy">     18.24622306 </i>
   </energy>
  </scstep>
  <scstep>
   <time name="dav">    1.10    0.55</time>
   <time name="total">    1.18    0.59</time>
   <energy>
    <i name="e_fr_energy">     -8.10812708 </i>
    <i name="e_wo_entrp">     -8.10812708 </i>
    <i name="e_0_energy">     -8.10812708 </i>
   </energy>
  </scstep>
  <scstep>
   <time name="dav">    1.28    0.64</time>
   <time name="total">    1.37    0.69</time>
   <energy>
    <i name="e_fr_energy">     -8.69428627 </i>
    <i name="e_wo_entrp">     -8.69428627 </i>
    <i name="e_0_energy">     -8.69428627 </i>
   </energy>
  </scstep>
  <scstep>
   <time name="dav">    1.62    0.81</time>
   <time name="total">    1.70    0.85</time>
   <energy>
    <i name="e_fr_energy">     -8.69652829 </i>
    <i name="e_wo_entrp">     -8.69652829 </i>
    <i name="e_0_energy">     -8.69652829 </i>
   </energy>
  </scstep>
  <scstep>
   <time name="dav">    1.25    0.63</time>
   <time name="total">    1.38    0.69</time>
   <energy>
    <i name="e_fr_energy">     -8.69654218 </i>
    <i name="e_wo_entrp">     -8.69654218 </i>
    <i name="e_0_energy">     -8.69654218 </i>
   </energy>
  </scstep>
  <scstep>
   <time name="dav">    1.55    0.80</time>
   <time name="total">    1.73    0.90</time>
   <energy>
    <i name="e_fr_energy">     -8.29656502 </i>
    <i name="e_wo_entrp">     -8.29656502 </i>
    <i name="e_0_energy">     -8.29656502 </i>
   </energy>
  </scstep>
  <scstep>
   <time name="dav">    1.26    0.63</time>
   <time name="total">    1.44    0.72</time>
   <energy>
    <i name="e_fr_energy">     -8.24908093 </i>
    <i name="e_wo_entrp">     -8.24908093 </i>
    <i name="e_0_energy">     -8.24908093 </i>
   </energy>
  </scstep>
  <scstep>
   <time name="dav">    1.30    0.65</time>
   <time name="total">    1.49    0.75</time>
   <energy>
    <i name="e_fr_energy">     -8.24078080 </i>
    <i name="e_wo_entrp">     -8.24078080 </i>
    <i name="e_0_energy">     -8.24078080 </i>
   </energy>
  </scstep>
  <scstep>
   <time name="dav">    1.81    0.91</time>
   <time name="total">    2.00    1.00</time>
   <energy>
    <i name="e_fr_energy">     -8.23476046 </i>
    <i name="e_wo_entrp">     -8.23476046 </i>
    <i name="e_0_energy">     -8.23476046 </i>
   </energy>
  </scstep>
  <scstep>
   <time name="dav">    1.21    0.61</time>
   <time name="total">    1.41    0.70</time>
   <energy>
    <i name="e_fr_energy">     -8.23470605 </i>
    <i name="e_wo_entrp">     -8.23470605 </i>
    <i name="e_0_energy">     -8.23470605 </i>
   </energy>
  </scstep>
  <scstep>
   <time name="dav">    1.22    0.61</time>
   <time name="total">    1.42    0.71</time>
   <energy>
    <i name="e_fr_energy">     -8.23473314 </i>
    <i name="e_wo_entrp">     -8.23473314 </i>
    <i name="e_0_energy">     -8.23473314 </i>
   </energy>
  </scstep>
  <scstep>
   <time name="dav">    1.55    0.78</time>
   <time name="total">    1.75    0.87</time>
   <energy>
    <i name="e_fr_energy">     -8.23474233 </i>
    <i name="e_wo_entrp">     -8.23474233 </i>
    <i name="e_0_energy">     -8.23474233 </i>
   </energy>
  </scstep>
  <scstep>
   <time name="dav">    0.72    0.36</time>
   <time name="total">    0.91    0.45</time>
   <energy>
    <i name="e_fr_energy">     -8.23473979 </i>
    <i name="e_wo_entrp">     -8.23473979 </i>
    <i name="e_0_energy">     -8.23473979 </i>
   </energy>
  </scstep>
  <scstep>
   <time name="dav">    0.71    0.36</time>
   <time name="total">    0.87    0.43</time>
   <energy>
    <i name="alphaZ">     59.71178263 </i>
    <i name="ewald">   -588.39789044 </i>
    <i name="hartreedc">    -96.49771411 </i>
    <i name="XCdc">      4.29489191 </i>
    <i name="pawpsdc">    712.09271227 </i>
    <i name="pawaedc">   -721.10163182 </i>
    <i name="eentropy">      0.00000000 </i>
    <i name="bandstr">     27.35117871 </i>
    <i name="atom">    594.31193140 </i>
    <i name="e_fr_energy">     -8.23473944 </i>
    <i name="e_wo_entrp">     -8.23473944 </i>
    <i name="e_0_energy">     -8.23473944 </i>
   </energy>
  </scstep>
  <structure>
   <crystal>
    <varray name="basis" >
     <v>      -1.42500000       1.42500000       1.42500000 </v>
     <v>       1.42500000      -1.42500000       1.42500000 </v>
     <v>       1.42500000       1.42500000      -1.42500000 </v>
    </varray>
    <i name="volume">     11.57456250 </i>
    <varray name="rec_basis" >
     <v>       0.00000000       0.35087719       0.35087719 </v>
     <v>       0.35087719       0.00000000       0.35087719 </v>
     <v>       0.35087719       0.35087719       0.00000000 </v>
    </varray>
   </crystal>
   <varray name="positions" >
    <v>       0.00000000       0.00000000       0.00000000 </v>
   </varray>
  </structure>
  <varray name="forces" >
   <v>       0.00000000       0.00000000       0.00000000 </v>
  </varray>
  <varray name="stress" >
   <v>     -37.70102658       0.00000000       0.00000000 </v>
   <v>      -0.00000000     -37.70102658       0.00000000 </v>
   <v>       0.00000000      -0.00000000     -37.70102658 </v>
  </varray>
  <energy>
   <i name="e_fr_energy">     -8.23473944 </i>
   <i name="e_wo_entrp">     -8.23473944 </i>
   <i name="e_0_energy">      0.00000000 </i>
  </energy>
  <time name="totalsc">   20.70   10.46</time>
  <eigenvalues>
   <array>
    <dimension dim="1">band</dimension>
    <dimension dim="2">kpoint</dimension>
    <dimension dim="3">spin</dimension>
    <field>eigene</field>
    <field>occ</field>
    <set>
     <set comment="spin 1">
      <set comment="kpoint 1">
       <r>   -1.7332    1.0000 </r>
       <r>    3.1393    1.0000 </r>
       <r>    3.1393    1.0000 </r>
       <r>    3.9226    1.0000 </r>
       <r>    4.4981    1.0000 </r>
       <r>    4.4981    1.0034 </r>
       <r>   26.8370    0.0000 </r>
       <r>   26.8370    0.0000 </r>
       <r>   30.6252    0.0000 </r>
       <r>   31.3750    0.0000 </r>
       <r>   36.2692    0.0000 </r>
       <r>   36.2692    0.0000 </r>
      </set>
      <set comment="kpoint 2">
       <r>   -0.1556    1.0000 </r>
       <r>    2.7403    1.0000 </r>
       <r>    2.9478    1.0000 </r>
       <r>    4.4378    1.0000 </r>
       <r>    4.6173    1.0009 </r>
       <r>    4.9227    0.8829 </r>
       <r>   21.4143    0.0000 </r>
       <r>   24.4992    0.0000 </r>
       <r>   26.7863    0.0000 </r>
       <r>   31.6801    0.0000 </r>
       <r>   35.6953    0.0000 </r>
       <r>   36.9148    0.0000 </r>
      </set>
      <set comment="kpoint 3">
       <r>    0.9728    1.0000 </r>
       <r>    2.3984    1.0000 </r>
       <r>    3.7181    1.0000 </r>
       <r>    4.5764    1.0000 </r>
       <r>    4.7117    1.0332 </r>
       <r>    6.3293    0.0110 </r>
       <r>   15.9661    0.0000 </r>
       <r>   22.8072    0.0000 </r>
       <r>   24.4690    0.0000 </r>
       <r>   31.1382    0.0000 </r>
       <r>   35.0038    0.0000 </r>
       <r>   40.2266    0.0000 </r>
      </set>
      <set comment="kpoint 4">
       <r>    1.0275    1.0000 </r>
       <r>    2.2670    1.0000 </r>
       <r>    4.6382    1.0000 </r>
       <r>    4.6990    1.0000 </r>
       <r>    4.7502    1.0800 </r>
       <r>    7.7187   -0.0048 </r>
       <r>   12.8739    0.0000 </r>
       <r>   22.1878    0.0000 </r>
       <r>   23.6053    0.0000 </r>
       <r>   30.9027    0.0000 </r>
       <r>   34.8967    0.0000 </r>
       <r>   40.1710    0.0000 </r>
      </set>
      <set comment="kpoint 5">
       <r>   -2.3431    1.0000 </r>
       <r>    3.3374    1.0000 </r>
       <r>    3.3374    1.0000 </r>
       <r>    3.4232    1.0000 </r>
       <r>    4.4248    1.0000 </r>
       <r>    4.6183    1.0000 </r>
       <r>   28.7787    0.0000 </r>
       <r>   30.1048    0.0000 </r>
       <r>   30.1048    0.0000 </r>
       <r>   33.1556    0.0000 </r>
       <r>   35.2580    0.0000 </r>
       <r>   35.2580    0.0000 </r>
      </set>
      <set comment="kpoint 6">
       <r>    1.3052    1.0000 </r>
       <r>    2.4672    1.0000 </r>
       <r>    2.6647    1.0000 </r>
       <r>    4.5167    1.0000 </r>
       <r>    4.7440    1.0008 </r>
       <r>    6.5312   -0.0082 </r>
       <r>   18.9178    0.0000 </r>
       <r>   19.7124    0.0000 </r>
       <r>   23.5927    0.0000 </r>
       <r>   33.5988    0.0000 </r>
       <r>   37.1997    0.0000 </r>
       <r>   39.5930    0.0000 </r>
      </set>
      <set comment="kpoint 7">
       <r>    1.6422    1.0000 </r>
       <r>    2.3047    1.0000 </r>
       <r>    3.2950    1.0000 </r>
       <r>    4.6538    1.0000 </r>
       <r>    4.8384    1.0098 </r>
       <r>    8.9786   -0.0036 </r>
       <r>   14.2941    0.0000 </r>
       <r>   18.1480    0.0000 </r>
       <r>   22.3223    0.0000 </r>
       <r>   33.9441    0.0000 </r>
       <r>   38.2518    0.0000 </r>
       <r>   40.1952    0.0000 </r>
      </set>
      <set comment="kpoint 8">
       <r>   -1.1638    1.0000 </r>
       <r>    3.0774    1.0000 </r>
       <r>    3.2677    1.0000 </r>
       <r>    4.0260    1.0000 </r>
       <r>    4.1908    1.0000 </r>
       <r>    4.7150    1.0108 </r>
       <r>   24.2885    0.0000 </r>
       <r>   27.6723    0.0000 </r>
       <r>   28.5118    0.0000 </r>
       <r>   32.5406    0.0000 </r>
       <r>   32.6909    0.0000 </r>
       <r>   34.2578    0.0000 </r>
      </set>
      <set comment="kpoint 9">
       <r>    1.9547    1.0000 </r>
       <r>    2.6604    1.0000 </r>
       <r>    2.6604    1.0000 </r>
       <r>    4.7885    1.0000 </r>
       <r>    4.7885    1.0000 </r>
       <r>   12.4816    0.0000 </r>
       <r>   12.4816    0.0000 </r>
       <r>   14.9455    0.0000 </r>
       <r>   21.8538    0.0000 </r>
       <r>   36.3787    0.0000 </r>
       <r>   36.3787    0.0000 </r>
       <r>   43.4249    0.0000 </r>
      </set>
      <set comment="kpoint 10">
       <r>    0.4574    1.0000 </r>
       <r>    2.6902    1.0000 </r>
       <r>    3.3318    1.0000 </r>
       <r>    4.3914    1.0000 </r>
       <r>    4.8964    1.0174 </r>
       <r>    5.0153    0.7092 </r>
       <r>   18.5175    0.0000 </r>
       <r>   25.2796    0.0000 </r>
       <r>   26.3625    0.0000 </r>
       <r>   30.8488    0.0000 </r>
       <r>   32.7225    0.0000 </r>
       <r>   35.6300    0.0000 </r>
      </set>
      <set comment="kpoint 11">
       <r>    0.2717    1.0000 </r>
       <r>    2.8690    1.0000 </r>
       <r>    3.0682    1.0000 </r>
       <r>    4.0693    1.0000 </r>
       <r>    4.7448    1.0018 </r>
       <r>    5.0935    0.7601 </r>
       <r>   21.4964    0.0000 </r>
       <r>   22.4574    0.0000 </r>
       <r>   28.9741    0.0000 </r>
       <r>   29.1871    0.0000 </r>
       <r>   32.9338    0.0000 </r>
       <r>   37.5530    0.0000 </r>
      </set>
      <set comment="kpoint 12">
       <r>    0.9076    1.0000 </r>
       <r>    2.4273    1.0000 </r>
       <r>    4.0917    1.0000 </r>
       <r>    4.5539    1.0000 </r>
       <r>    5.8106    0.4893 </r>
       <r>    6.2632    0.0008 </r>
       <r>   13.7783    0.0000 </r>
       <r>   23.9160    0.0000 </r>
       <r>   24.7482    0.0000 </r>
       <r>   30.1390    0.0000 </r>
       <r>   32.9735    0.0000 </r>
       <r>   37.3322    0.0000 </r>
      </set>
      <set comment="kpoint 13">
       <r>    1.3114    1.0000 </r>
       <r>    2.5705    1.0000 </r>
       <r>    3.1368    1.0000 </r>
       <r>    4.3634    1.0000 </r>
       <r>    5.1280    1.0246 </r>
       <r>    6.8156   -0.0359 </r>
       <r>   16.3434    0.0000 </r>
       <r>   20.2418    0.0000 </r>
       <r>   26.7890    0.0000 </r>
       <r>   29.9567    0.0000 </r>
       <r>   33.5695    0.0000 </r>
       <r>   38.0711    0.0000 </r>
      </set>
      <set comment="kpoint 14">
       <r>    1.3453    1.0000 </r>
       <r>    2.5608    1.0000 </r>
       <r>    3.3076    1.0000 </r>
       <r>    4.4653    1.0000 </r>
       <r>    5.4731    0.8871 </r>
       <r>    8.8213   -0.0018 </r>
       <r>   12.9783    0.0000 </r>
       <r>   19.5505    0.0000 </r>
       <r>   25.9555    0.0000 </r>
       <r>   30.2876    0.0000 </r>
       <r>   34.5587    0.0000 </r>
       <r>   37.3754    0.0000 </r>
      </set>
      <set comment="kpoint 15">
       <r>    2.0232    1.0000 </r>
       <r>    2.2757    1.0000 </r>
       <r>    2.8055    1.0000 </r>
       <r>    4.6568    1.0000 </r>
       <r>    5.1025    1.0378 </r>
       <r>   10.0406   -0.0006 </r>
       <r>   14.4239    0.0000 </r>
       <r>   15.7534    0.0000 </r>
       <r>   27.1746    0.0000 </r>
       <r>   30.3753    0.0000 </r>
       <r>   32.5532    0.0000 </r>
       <r>   39.5828    0.0000 </r>
      </set>
      <set comment="kpoint 16">
       <r>    2.2897    1.0000 </r>
       <r>    2.2897    1.0000 </r>
       <r>    2.4600    1.0000 </r>
       <r>    4.7275    1.0000 </r>
       <r>    4.7275    1.0000 </r>
       <r>    8.9571   -0.0045 </r>
       <r>   17.2776    0.0000 </r>
       <r>   17.2776    0.0000 </r>
       <r>   18.5747    0.0000 </r>
       <r>   38.2836    0.0000 </r>
       <r>   40.9151    0.0000 </r>
       <r>   40.9151    0.0000 </r>
      </set>
      <set comment="kpoint 17">
       <r>    2.1774    1.0000 </r>
       <r>    2.2525    1.0000 </r>
       <r>    2.9007    1.0000 </r>
       <r>    4.7604    1.0000 </r>
       <r>    4.7746    1.0000 </r>
       <r>   11.7767    0.0000 </r>
       <r>   13.5931    0.0000 </r>
       <r>   16.7143    0.0000 </r>
       <r>   17.6595    0.0000 </r>
       <r>   39.3069    0.0000 </r>
       <r>   42.6779    0.0000 </r>
       <r>   43.0657    0.0000 </r>
      </set>
      <set comment="kpoint 18">
       <r>   -0.1309    1.0000 </r>
       <r>    3.4274    1.0000 </r>
       <r>    3.4884    1.0000 </r>
       <r>    3.4884    1.0000 </r>
       <r>    4.0399    1.0000 </r>
       <r>    5.0715    0.9056 </r>
       <r>   24.4364    0.0000 </r>
       <r>   25.3737    0.0000 </r>
       <r>   25.3737    0.0000 </r>
       <r>   27.3087    0.0000 </r>
       <r>   36.7188    0.0000 </r>
       <r>   36.7188    0.0000 </r>
      </set>
      <set comment="kpoint 19">
       <r>    1.1604    1.0000 </r>
       <r>    2.6796    1.0000 </r>
       <r>    3.3531    1.0000 </r>
       <r>    4.0010    1.0000 </r>
       <r>    4.9018    1.0328 </r>
       <r>    5.9262    0.1108 </r>
       <r>   19.3691    0.0000 </r>
       <r>   22.7738    0.0000 </r>
       <r>   23.9744    0.0000 </r>
       <r>   27.9042    0.0000 </r>
       <r>   35.7757    0.0000 </r>
       <r>   37.5022    0.0000 </r>
      </set>
      <set comment="kpoint 20">
       <r>    1.4421    1.0000 </r>
       <r>    2.6146    1.0000 </r>
       <r>    3.1596    1.0000 </r>
       <r>    4.2122    1.0000 </r>
       <r>    5.7312    0.3563 </r>
       <r>    8.4027   -0.0113 </r>
       <r>   14.2982    0.0000 </r>
       <r>   21.1669    0.0000 </r>
       <r>   23.1352    0.0000 </r>
       <r>   30.4258    0.0000 </r>
       <r>   34.8485    0.0000 </r>
       <r>   35.5015    0.0000 </r>
      </set>
      <set comment="kpoint 21">
       <r>    1.7557    1.0000 </r>
       <r>    2.0660    1.0000 </r>
       <r>    3.4325    1.0000 </r>
       <r>    4.3892    1.0000 </r>
       <r>    5.3168    1.0649 </r>
       <r>    8.2787   -0.0151 </r>
       <r>   17.2353    0.0000 </r>
       <r>   17.8440    0.0000 </r>
       <r>   25.3981    0.0000 </r>
       <r>   26.8980    0.0000 </r>
       <r>   34.4947    0.0000 </r>
       <r>   37.3897    0.0000 </r>
      </set>
      <set comment="kpoint 22">
       <r>    1.7086    1.0000 </r>
       <r>    2.0767    1.0000 </r>
       <r>    3.2425    1.0000 </r>
       <r>    4.6930    1.0000 </r>
       <r>    5.5430    0.7618 </r>
       <r>   11.2702    0.0000 </r>
       <r>   13.4530    0.0000 </r>
       <r>   16.8628    0.0000 </r>
       <r>   25.4057    0.0000 </r>
       <r>   28.5624    0.0000 </r>
       <r>   31.9767    0.0000 </r>
       <r>   36.3952    0.0000 </r>
      </set>
      <set comment="kpoint 23">
       <r>    1.5448    1.0000 </r>
       <r>    2.0211    1.0000 </r>
       <r>    4.2462    1.0000 </r>
       <r>    4.2462    1.0000 </r>
       <r>    4.9366    1.1679 </r>
       <r>    7.6511   -0.0220 </r>
       <r>   19.8513    0.0000 </r>
       <r>   19.8513    0.0000 </r>
       <r>   22.1142    0.0000 </r>
       <r>   24.1518    0.0000 </r>
       <r>   35.8348    0.0000 </r>
       <r>   40.6535    0.0000 </r>
      </set>
      <set comment="kpoint 24">
       <r>    1.4461    1.0000 </r>
       <r>    1.5757    1.0000 </r>
       <r>    4.3814    1.0000 </r>
       <r>    4.6582    1.0000 </r>
       <r>    5.6214    0.2941 </r>
       <r>   10.7563    0.0000 </r>
       <r>   15.4865    0.0000 </r>
       <r>   18.0480    0.0000 </r>
       <r>   22.2825    0.0000 </r>
       <r>   25.1589    0.0000 </r>
       <r>   31.1831    0.0000 </r>
       <r>   40.1403    0.0000 </r>
      </set>
      <set comment="kpoint 25">
       <r>    1.3090    1.0000 </r>
       <r>    1.3090    1.0000 </r>
       <r>    4.4864    1.0000 </r>
       <r>    5.4696    1.0000 </r>
       <r>    5.4696    1.0699 </r>
       <r>   14.1392    0.0000 </r>
       <r>   14.1392    0.0000 </r>
       <r>   15.2580    0.0000 </r>
       <r>   23.7550    0.0000 </r>
       <r>   23.7550    0.0000 </r>
       <r>   28.6485    0.0000 </r>
       <r>   40.6832    0.0000 </r>
      </set>
      <set comment="kpoint 26">
       <r>    1.0518    1.0000 </r>
       <r>    1.0524    1.0000 </r>
       <r>    5.4297    1.0000 </r>
       <r>    5.4297    1.0000 </r>
       <r>    5.5871    0.2352 </r>
       <r>   13.5380    0.0000 </r>
       <r>   16.0489    0.0000 </r>
       <r>   16.0489    0.0000 </r>
       <r>   21.2320    0.0000 </r>
       <r>   22.3986    0.0000 </r>
       <r>   27.1374    0.0000 </r>
       <r>   43.8885    0.0000 </r>
      </set>
     </set>
     <set comment="spin 2">
      <set comment="kpoint 1">
       <r>   -1.6164    1.0000 </r>
       <r>    5.0728    1.0000 </r>
       <r>    5.0728    1.0000 </r>
       <r>    5.9551   -0.0238 </r>
       <r>    7.1917    0.0000 </r>
       <r>    7.1917    0.0000 </r>
       <r>   26.9872    0.0000 </r>
       <r>   26.9872    0.0000 </r>
       <r>   31.0433    0.0000 </r>
       <r>   31.4586    0.0000 </r>
       <r>   36.5529    0.0000 </r>
       <r>   36.5529    0.0000 </r>
      </set>
      <set comment="kpoint 2">
       <r>    0.0532    1.0000 </r>
       <r>    4.5853    1.0000 </r>
       <r>    4.7505    1.0000 </r>
       <r>    6.9973   -0.0010 </r>
       <r>    7.0471    0.0000 </r>
       <r>    7.3463    0.0000 </r>
       <r>   21.9801    0.0000 </r>
       <r>   24.7736    0.0000 </r>
       <r>   27.5000    0.0000 </r>
       <r>   31.5807    0.0000 </r>
       <r>   36.2428    0.0000 </r>
       <r>   37.1301    0.0000 </r>
      </set>
      <set comment="kpoint 3">
       <r>    1.8482    1.0000 </r>
       <r>    4.1660    1.0000 </r>
       <r>    4.8694    1.0080 </r>
       <r>    7.1402    0.0000 </r>
       <r>    7.4841    0.0000 </r>
       <r>    8.2779    0.0000 </r>
       <r>   16.9009    0.0000 </r>
       <r>   23.0696    0.0000 </r>
       <r>   25.0900    0.0000 </r>
       <r>   31.2926    0.0000 </r>
       <r>   35.5361    0.0000 </r>
       <r>   40.3924    0.0000 </r>
      </set>
      <set comment="kpoint 4">
       <r>    2.3241    1.0000 </r>
       <r>    4.0054    1.0000 </r>
       <r>    5.6349    0.8880 </r>
       <r>    7.2117    0.0000 </r>
       <r>    7.5438    0.0000 </r>
       <r>    9.1349    0.0000 </r>
       <r>   14.2116    0.0000 </r>
       <r>   22.4284    0.0000 </r>
       <r>   24.1774    0.0000 </r>
       <r>   31.1335    0.0000 </r>
       <r>   35.4535    0.0000 </r>
       <r>   40.1439    0.0000 </r>
      </set>
      <set comment="kpoint 5">
       <r>   -2.2340    1.0000 </r>
       <r>    5.3090    1.0000 </r>
       <r>    5.3090    1.0000 </r>
       <r>    5.4169    0.3784 </r>
       <r>    7.1075    0.0000 </r>
       <r>    7.3575    0.0000 </r>
       <r>   28.6314    0.0000 </r>
       <r>   29.9531    0.0000 </r>
       <r>   29.9531    0.0000 </r>
       <r>   33.5029    0.0000 </r>
       <r>   36.0047    0.0000 </r>
       <r>   36.0047    0.0000 </r>
      </set>
      <set comment="kpoint 6">
       <r>    1.8324    1.0000 </r>
       <r>    4.1922    1.0000 </r>
       <r>    4.2992    1.0001 </r>
       <r>    7.1235    0.0000 </r>
       <r>    7.4782    0.0000 </r>
       <r>    8.4696    0.0000 </r>
       <r>   19.5882    0.0000 </r>
       <r>   20.3297    0.0000 </r>
       <r>   24.1523    0.0000 </r>
       <r>   33.4934    0.0000 </r>
       <r>   37.4754    0.0000 </r>
       <r>   39.8587    0.0000 </r>
      </set>
      <set comment="kpoint 7">
       <r>    2.9360    1.0000 </r>
       <r>    3.9586    1.0000 </r>
       <r>    4.5429    1.0028 </r>
       <r>    7.2632    0.0000 </r>
       <r>    7.5491    0.0000 </r>
       <r>   10.3935    0.0000 </r>
       <r>   15.3090    0.0000 </r>
       <r>   18.7819    0.0000 </r>
       <r>   22.8399    0.0000 </r>
       <r>   33.9793    0.0000 </r>
       <r>   38.3260    0.0000 </r>
       <r>   40.5772    0.0000 </r>
      </set>
      <set comment="kpoint 8">
       <r>   -1.0278    1.0000 </r>
       <r>    4.9908    1.0000 </r>
       <r>    5.1856    1.0000 </r>
       <r>    6.0807   -0.0122 </r>
       <r>    6.7561    0.0000 </r>
       <r>    7.4633    0.0000 </r>
       <r>   24.6701    0.0000 </r>
       <r>   27.7521    0.0000 </r>
       <r>   28.8429    0.0000 </r>
       <r>   32.9177    0.0000 </r>
       <r>   33.2181    0.0000 </r>
       <r>   34.6242    0.0000 </r>
      </set>
      <set comment="kpoint 9">
       <r>    3.4931    1.0000 </r>
       <r>    4.0891    1.0000 </r>
       <r>    4.0891    1.0001 </r>
       <r>    7.4375    0.0000 </r>
       <r>    7.4375    0.0000 </r>
       <r>   13.5037    0.0000 </r>
       <r>   13.5037    0.0000 </r>
       <r>   15.8361    0.0000 </r>
       <r>   22.3915    0.0000 </r>
       <r>   36.3692    0.0000 </r>
       <r>   36.3692    0.0000 </r>
       <r>   44.1089    0.0000 </r>
      </set>
      <set comment="kpoint 10">
       <r>    0.9093    1.0000 </r>
       <r>    4.5246    1.0000 </r>
       <r>    4.9187    1.0020 </r>
       <r>    6.8208    0.0000 </r>
       <r>    7.1908    0.0000 </r>
       <r>    7.5815    0.0000 </r>
       <r>   19.2890    0.0000 </r>
       <r>   25.3656    0.0000 </r>
       <r>   26.9428    0.0000 </r>
       <r>   31.2801    0.0000 </r>
       <r>   33.2034    0.0000 </r>
       <r>   35.8698    0.0000 </r>
      </set>
      <set comment="kpoint 11">
       <r>    0.5479    1.0000 </r>
       <r>    4.7726    1.0000 </r>
       <r>    4.8824    1.0018 </r>
       <r>    6.4816   -0.0005 </r>
       <r>    6.9295    0.0000 </r>
       <r>    7.6925    0.0000 </r>
       <r>   22.0660    0.0000 </r>
       <r>   23.0024    0.0000 </r>
       <r>   29.1600    0.0000 </r>
       <r>   29.6528    0.0000 </r>
       <r>   33.2963    0.0000 </r>
       <r>   37.8460    0.0000 </r>
      </set>
      <set comment="kpoint 12">
       <r>    2.1103    1.0000 </r>
       <r>    4.2115    1.0000 </r>
       <r>    5.5000    0.9838 </r>
       <r>    7.0320    0.0000 </r>
       <r>    7.9546    0.0000 </r>
       <r>    8.1052    0.0000 </r>
       <r>   14.9824    0.0000 </r>
       <r>   23.9715    0.0000 </r>
       <r>   25.3022    0.0000 </r>
       <r>   30.6079    0.0000 </r>
       <r>   33.5305    0.0000 </r>
       <r>   37.4070    0.0000 </r>
      </set>
      <set comment="kpoint 13">
       <r>    2.2558    1.0000 </r>
       <r>    4.3331    1.0000 </r>
       <r>    4.7294    1.0058 </r>
       <r>    6.7339    0.0000 </r>
       <r>    7.5864    0.0000 </r>
       <r>    8.6861    0.0000 </r>
       <r>   17.2339    0.0000 </r>
       <r>   20.8201    0.0000 </r>
       <r>   27.1025    0.0000 </r>
       <r>   30.3002    0.0000 </r>
       <r>   33.8537    0.0000 </r>
       <r>   38.4646    0.0000 </r>
      </set>
      <set comment="kpoint 14">
       <r>    2.7383    1.0000 </r>
       <r>    4.3260    1.0000 </r>
       <r>    4.8192    1.0098 </r>
       <r>    6.8892    0.0000 </r>
       <r>    7.8150    0.0000 </r>
       <r>   10.0686    0.0000 </r>
       <r>   14.2472    0.0000 </r>
       <r>   20.1166    0.0000 </r>
       <r>   26.2355    0.0000 </r>
       <r>   30.7188    0.0000 </r>
       <r>   34.6185    0.0000 </r>
       <r>   37.8668    0.0000 </r>
      </set>
      <set comment="kpoint 15">
       <r>    3.4398    1.0000 </r>
       <r>    3.9428    1.0000 </r>
       <r>    4.4388    1.0058 </r>
       <r>    7.0241    0.0000 </r>
       <r>    7.5039    0.0000 </r>
       <r>   11.3367    0.0000 </r>
       <r>   15.3867    0.0000 </r>
       <r>   16.5589    0.0000 </r>
       <r>   27.6206    0.0000 </r>
       <r>   30.5319    0.0000 </r>
       <r>   32.7253    0.0000 </r>
       <r>   40.4111    0.0000 </r>
      </set>
      <set comment="kpoint 16">
       <r>    3.3383    1.0000 </r>
       <r>    3.8849    1.0000 </r>
[...]
       </set>
       <set comment="band 5">
        <r>  0.0063  0.0011  0.0011  0.0095  0.0924  0.3240  0.1131  0.0924  0.3392 </r>
       </set>
       <set comment="band 6">
        <r>  0.0582  0.0420  0.0420  0.2063  0.0919  0.1427  0.0518  0.0919  0.1553 </r>
       </set>
       <set comment="band 7">
        <r>  0.0000  0.1948  0.1948  0.0000  0.1337  0.0000  0.1420  0.1337  0.0473 </r>
       </set>
       <set comment="band 8">
        <r>  0.4530  0.0413  0.0413  0.0268  0.0775  0.0876  0.0014  0.0775  0.0043 </r>
       </set>
       <set comment="band 9">
        <r>  0.0259  0.1826  0.1826  0.0886  0.0508  0.0831  0.0004  0.0508  0.0013 </r>
       </set>
       <set comment="band 10">
        <r>  0.0000  0.0441  0.0441  0.0000  0.0500  0.0000  0.2938  0.0500  0.0979 </r>
       </set>
       <set comment="band 11">
        <r>  0.0268  0.0099  0.0099  0.0281  0.0214  0.1379  0.0903  0.0214  0.2709 </r>
       </set>
       <set comment="band 12">
        <r>  0.1141  0.0364  0.0364  0.1741  0.2168  0.2298  0.0186  0.2168  0.0559 </r>
       </set>
      </set>
      <set comment="kpoint 16">
       <set comment="band 1">
        <r>  0.1502  0.0855  0.0855  0.0855  0.1313  0.1313  0.0000  0.1313  0.0000 </r>
       </set>
       <set comment="band 2">
        <r>  0.0000  0.0254  0.0462  0.0035  0.4880  0.0366  0.0402  0.2687  0.0034 </r>
       </set>
       <set comment="band 3">
        <r>  0.0000  0.0246  0.0039  0.0466  0.0409  0.4923  0.0034  0.2602  0.0402 </r>
       </set>
       <set comment="band 4">
        <r>  0.0000  0.0000  0.0000  0.0000  0.0085  0.0164  0.2078  0.0321  0.7184 </r>
       </set>
       <set comment="band 5">
        <r>  0.0000  0.0000  0.0000  0.0000  0.0295  0.0216  0.7184  0.0059  0.2078 </r>
       </set>
       <set comment="band 6">
        <r>  0.0696  0.0568  0.0568  0.0568  0.2222  0.2222  0.0000  0.2222  0.0000 </r>
       </set>
       <set comment="band 7">
        <r>  0.0000  0.1638  0.1634  0.0026  0.1999  0.0031  0.0293  0.2004  0.0101 </r>
       </set>
       <set comment="band 8">
        <r>  0.0000  0.0560  0.0565  0.2173  0.0691  0.2659  0.0101  0.0686  0.0293 </r>
       </set>
       <set comment="band 9">
        <r>  0.5619  0.0770  0.0770  0.0770  0.0012  0.0012  0.0000  0.0012  0.0000 </r>
       </set>
       <set comment="band 10">
        <r>  0.0000  0.0000  0.0000  0.0000  0.0000  0.0000  0.0000  0.0000  0.0000 </r>
       </set>
       <set comment="band 11">
        <r>  0.0000  0.0050  0.0014  0.0013  0.0950  0.0897  0.0190  0.3481  0.0521 </r>
       </set>
       <set comment="band 12">
        <r>  0.0000  0.0001  0.0038  0.0039  0.2602  0.2655  0.0521  0.0071  0.0190 </r>
       </set>
      </set>
      <set comment="kpoint 17">
       <set comment="band 1">
        <r>  0.0330  0.0000  0.0000  0.1243  0.0000  0.6742  0.0120  0.0000  0.0359 </r>
       </set>
       <set comment="band 2">
        <r>  0.0000  0.0424  0.0424  0.0000  0.4133  0.0000  0.0000  0.4133  0.0000 </r>
       </set>
       <set comment="band 3">
        <r>  0.0000  0.1154  0.1154  0.0000  0.3139  0.0000  0.0000  0.3139  0.0000 </r>
       </set>
       <set comment="band 4">
        <r>  0.0003  0.0000  0.0000  0.0002  0.0000  0.0665  0.2295  0.0000  0.6885 </r>
       </set>
       <set comment="band 5">
        <r>  0.0000  0.0000  0.0000  0.0000  0.0000  0.0000  0.7401  0.0000  0.2467 </r>
       </set>
       <set comment="band 6">
        <r>  0.0000  0.1729  0.1729  0.0000  0.2432  0.0000  0.0000  0.2432  0.0000 </r>
       </set>
       <set comment="band 7">
        <r>  0.2361  0.0000  0.0000  0.1773  0.0000  0.4010  0.0070  0.0000  0.0209 </r>
       </set>
       <set comment="band 8">
        <r>  0.0000  0.1682  0.1682  0.0000  0.2168  0.0000  0.0000  0.2168  0.0000 </r>
       </set>
       <set comment="band 9">
        <r>  0.5247  0.0000  0.0000  0.2073  0.0000  0.0491  0.0019  0.0000  0.0058 </r>
       </set>
       <set comment="band 10">
        <r>  0.0000  0.0002  0.0002  0.0000  0.1194  0.0000  0.0000  0.1194  0.0000 </r>
       </set>
       <set comment="band 11">
        <r>  0.0000  0.0254  0.0253  0.0000  0.0599  0.0000  0.0000  0.0599  0.0000 </r>
       </set>
       <set comment="band 12">
        <r>  0.0123  0.0000  0.0000  0.0949  0.0000  0.1188  0.1065  0.0000  0.3194 </r>
       </set>
      </set>
      <set comment="kpoint 18">
       <set comment="band 1">
        <r>  0.5075  0.0000  0.0000  0.1695  0.0000  0.0000  0.0106  0.0000  0.0319 </r>
       </set>
       <set comment="band 2">
        <r>  0.0000  0.0116  0.0116  0.0000  0.4683  0.0000  0.0000  0.4683  0.0000 </r>
       </set>
       <set comment="band 3">
        <r>  0.0000  0.0116  0.0116  0.0000  0.4683  0.0000  0.0000  0.4683  0.0000 </r>
       </set>
       <set comment="band 4">
        <r>  0.0000  0.0000  0.0000  0.0000  0.0000  0.0000  0.6805  0.0000  0.2268 </r>
       </set>
       <set comment="band 5">
        <r>  0.0000  0.0000  0.0000  0.0000  0.0000  0.9748  0.0000  0.0000  0.0000 </r>
       </set>
       <set comment="band 6">
        <r>  0.0263  0.0000  0.0000  0.0068  0.0000  0.0000  0.2369  0.0000  0.7107 </r>
       </set>
       <set comment="band 7">
        <r>  0.0000  0.0000  0.0000  0.0000  0.0000  0.0000  0.4326  0.0000  0.1442 </r>
       </set>
       <set comment="band 8">
        <r>  0.0000  0.1762  0.1762  0.0000  0.2687  0.0000  0.0000  0.2687  0.0000 </r>
       </set>
       <set comment="band 9">
        <r>  0.0000  0.1762  0.1762  0.0000  0.2687  0.0000  0.0000  0.2687  0.0000 </r>
       </set>
       <set comment="band 10">
        <r>  0.1639  0.0000  0.0000  0.2825  0.0000  0.0000  0.0000  0.0000  0.0000 </r>
       </set>
       <set comment="band 11">
        <r>  0.0000  0.1604  0.1618  0.0000  0.0048  0.0000  0.0000  0.0049  0.0000 </r>
       </set>
       <set comment="band 12">
        <r>  0.0000  0.1618  0.1604  0.0000  0.0049  0.0000  0.0000  0.0048  0.0000 </r>
       </set>
      </set>
      <set comment="kpoint 19">
       <set comment="band 1">
        <r>  0.3158  0.0077  0.0000  0.2154  0.0476  0.0000  0.0626  0.0000  0.0963 </r>
       </set>
       <set comment="band 2">
        <r>  0.0016  0.0295  0.0000  0.0113  0.2158  0.0000  0.4050  0.0000  0.2186 </r>
       </set>
       <set comment="band 3">
        <r>  0.0000  0.0000  0.0234  0.0000  0.0000  0.2741  0.0000  0.6566  0.0000 </r>
       </set>
       <set comment="band 4">
        <r>  0.0000  0.0217  0.0000  0.0074  0.6323  0.0000  0.2695  0.0000  0.0153 </r>
       </set>
       <set comment="band 5">
        <r>  0.0000  0.0000  0.0087  0.0000  0.0000  0.7004  0.0000  0.2675  0.0000 </r>
       </set>
       <set comment="band 6">
        <r>  0.0836  0.0071  0.0000  0.0477  0.0086  0.0000  0.1724  0.0000  0.6401 </r>
       </set>
       <set comment="band 7">
        <r>  0.0913  0.2651  0.0000  0.0340  0.2687  0.0000  0.1161  0.0000  0.0502 </r>
       </set>
       <set comment="band 8">
        <r>  0.0000  0.0000  0.4844  0.0000  0.0000  0.0100  0.0000  0.3934  0.0000 </r>
       </set>
       <set comment="band 9">
        <r>  0.0933  0.0012  0.0000  0.0746  0.0256  0.0000  0.3456  0.0000  0.0462 </r>
       </set>
       <set comment="band 10">
        <r>  0.0643  0.1999  0.0000  0.0689  0.1136  0.0000  0.0373  0.0000  0.1215 </r>
       </set>
       <set comment="band 11">
        <r>  0.0000  0.0000  0.1720  0.0000  0.0000  0.5621  0.0000  0.1354  0.0000 </r>
       </set>
       <set comment="band 12">
        <r>  0.0673  0.1730  0.0000  0.0111  0.0938  0.0000  0.1696  0.0000  0.0854 </r>
       </set>
      </set>
      <set comment="kpoint 20">
       <set comment="band 1">
        <r>  0.1176  0.0003  0.0000  0.0870  0.2583  0.0000  0.3317  0.0000  0.0354 </r>
       </set>
       <set comment="band 2">
        <r>  0.0039  0.0939  0.0000  0.0905  0.0322  0.0000  0.0968  0.0000  0.5072 </r>
       </set>
       <set comment="band 3">
        <r>  0.0000  0.0000  0.0230  0.0000  0.0000  0.4132  0.0000  0.5142  0.0000 </r>
       </set>
       <set comment="band 4">
        <r>  0.0191  0.0106  0.0000  0.0007  0.4983  0.0000  0.4158  0.0000  0.0035 </r>
       </set>
       <set comment="band 5">
        <r>  0.0000  0.0000  0.0025  0.0000  0.0000  0.5575  0.0000  0.4291  0.0000 </r>
       </set>
       <set comment="band 6">
        <r>  0.0673  0.0990  0.0000  0.2040  0.0388  0.0000  0.0342  0.0000  0.4412 </r>
       </set>
       <set comment="band 7">
        <r>  0.2642  0.1846  0.0000  0.0022  0.2944  0.0000  0.1002  0.0000  0.0278 </r>
       </set>
       <set comment="band 8">
        <r>  0.0000  0.0000  0.5739  0.0000  0.0000  0.0632  0.0000  0.2044  0.0000 </r>
       </set>
       <set comment="band 9">
        <r>  0.1073  0.0223  0.0000  0.0530  0.0070  0.0000  0.3771  0.0000  0.0051 </r>
       </set>
       <set comment="band 10">
        <r>  0.0115  0.1542  0.0000  0.0007  0.0256  0.0000  0.0324  0.0000  0.3639 </r>
       </set>
       <set comment="band 11">
        <r>  0.0000  0.0000  0.1459  0.0000  0.0000  0.4882  0.0000  0.3195  0.0000 </r>
       </set>
       <set comment="band 12">
        <r>  0.0025  0.1439  0.0000  0.2162  0.0041  0.0000  0.3445  0.0000  0.0981 </r>
       </set>
      </set>
      <set comment="kpoint 21">
       <set comment="band 1">
        <r>  0.1231  0.0050  0.0050  0.1816  0.0458  0.0001  0.0967  0.0458  0.2902 </r>
       </set>
       <set comment="band 2">
        <r>  0.0000  0.0202  0.0202  0.0000  0.0653  0.0000  0.5194  0.0653  0.1731 </r>
       </set>
       <set comment="band 3">
        <r>  0.0063  0.0157  0.0157  0.0091  0.2499  0.3231  0.0171  0.2499  0.0514 </r>
       </set>
       <set comment="band 4">
        <r>  0.0000  0.0153  0.0153  0.0000  0.3799  0.0000  0.1246  0.3799  0.0415 </r>
       </set>
       <set comment="band 5">
        <r>  0.0117  0.0004  0.0004  0.0051  0.1166  0.6080  0.0299  0.1166  0.0898 </r>
       </set>
       <set comment="band 6">
        <r>  0.1267  0.0176  0.0176  0.1816  0.0459  0.0413  0.1064  0.0459  0.3191 </r>
       </set>
       <set comment="band 7">
        <r>  0.0000  0.2071  0.2071  0.0000  0.1084  0.0000  0.1663  0.1084  0.0554 </r>
       </set>
       <set comment="band 8">
        <r>  0.2356  0.1434  0.1434  0.0306  0.1041  0.0271  0.0037  0.1041  0.0112 </r>
       </set>
       <set comment="band 9">
        <r>  0.0000  0.0612  0.0612  0.0000  0.0444  0.0000  0.3851  0.0444  0.1284 </r>
       </set>
       <set comment="band 10">
        <r>  0.0893  0.1175  0.1175  0.0342  0.0108  0.0019  0.0492  0.0108  0.1475 </r>
       </set>
       <set comment="band 11">
        <r>  0.0011  0.0681  0.0681  0.1298  0.0494  0.2192  0.0564  0.0494  0.1691 </r>
       </set>
       <set comment="band 12">
        <r>  0.1641  0.0000  0.0000  0.1734  0.1129  0.2147  0.0361  0.1129  0.1082 </r>
       </set>
      </set>
      <set comment="kpoint 22">
       <set comment="band 1">
        <r>  0.0280  0.0236  0.0210  0.0236  0.1596  0.0000  0.5916  0.0000  0.0000 </r>
       </set>
       <set comment="band 2">
        <r>  0.0000  0.0727  0.0000  0.0727  0.0000  0.0179  0.0000  0.0179  0.6484 </r>
       </set>
       <set comment="band 3">
        <r>  0.0315  0.0009  0.0215  0.0009  0.1530  0.3409  0.0440  0.3409  0.0000 </r>
       </set>
       <set comment="band 4">
        <r>  0.0098  0.0064  0.0117  0.0064  0.5097  0.1092  0.1976  0.1092  0.0000 </r>
       </set>
       <set comment="band 5">
        <r>  0.0000  0.0093  0.0000  0.0093  0.0000  0.4375  0.0000  0.4375  0.0881 </r>
       </set>
       <set comment="band 6">
        <r>  0.0000  0.2318  0.0000  0.2318  0.0000  0.0472  0.0000  0.0472  0.2922 </r>
       </set>
       <set comment="band 7">
        <r>  0.2576  0.0887  0.0401  0.0887  0.2547  0.0003  0.1356  0.0003  0.0000 </r>
       </set>
       <set comment="band 8">
        <r>  0.1670  0.0026  0.3690  0.0026  0.0024  0.0928  0.0802  0.0928  0.0000 </r>
       </set>
       <set comment="band 9">
        <r>  0.0303  0.0023  0.1473  0.0023  0.0144  0.0132  0.4533  0.0132  0.0000 </r>
       </set>
       <set comment="band 10">
        <r>  0.0000  0.0477  0.0000  0.0477  0.0000  0.0054  0.0000  0.0054  0.5328 </r>
       </set>
       <set comment="band 11">
        <r>  0.0415  0.2160  0.0863  0.2160  0.0000  0.0370  0.1008  0.0370  0.0000 </r>
       </set>
       <set comment="band 12">
        <r>  0.2113  0.0203  0.0082  0.0203  0.1868  0.2708  0.0073  0.2708  0.0000 </r>
       </set>
      </set>
      <set comment="kpoint 23">
       <set comment="band 1">
        <r>  0.1324  0.0000  0.0000  0.2075  0.0000  0.0000  0.1098  0.0000  0.3294 </r>
       </set>
       <set comment="band 2">
        <r>  0.0000  0.0000  0.0000  0.0000  0.0000  0.0000  0.6472  0.0000  0.2157 </r>
       </set>
       <set comment="band 3">
        <r>  0.0000  0.0240  0.0240  0.0000  0.4519  0.0000  0.0000  0.4519  0.0000 </r>
       </set>
       <set comment="band 4">
        <r>  0.0000  0.0240  0.0240  0.0000  0.4519  0.0000  0.0000  0.4519  0.0000 </r>
       </set>
       <set comment="band 5">
        <r>  0.0000  0.0000  0.0000  0.0000  0.0000  0.9773  0.0000  0.0000  0.0000 </r>
       </set>
       <set comment="band 6">
        <r>  0.1792  0.0000  0.0000  0.1674  0.0000  0.0000  0.1391  0.0000  0.4174 </r>
       </set>
       <set comment="band 7">
        <r>  0.0000  0.2798  0.2798  0.0000  0.1442  0.0000  0.0000  0.1442  0.0000 </r>
       </set>
       <set comment="band 8">
        <r>  0.0000  0.2798  0.2798  0.0000  0.1442  0.0000  0.0000  0.1442  0.0000 </r>
       </set>
       <set comment="band 9">
        <r>  0.0000  0.0000  0.0000  0.0000  0.0000  0.0000  0.5903  0.0000  0.1968 </r>
       </set>
       <set comment="band 10">
        <r>  0.2893  0.0000  0.0000  0.0748  0.0000  0.0000  0.0528  0.0000  0.1583 </r>
       </set>
       <set comment="band 11">
        <r>  0.1264  0.0000  0.0000  0.3093  0.0000  0.0000  0.1024  0.0000  0.3072 </r>
       </set>
       <set comment="band 12">
        <r>  0.0000  0.0000  0.0000  0.0000  0.0000  0.9795  0.0000  0.0000  0.0000 </r>
       </set>
      </set>
      <set comment="kpoint 24">
       <set comment="band 1">
        <r>  0.0230  0.0013  0.0000  0.0955  0.0203  0.0000  0.3508  0.0000  0.3367 </r>
       </set>
       <set comment="band 2">
        <r>  0.0000  0.0245  0.0000  0.0065  0.0146  0.0000  0.4149  0.0000  0.3877 </r>
       </set>
       <set comment="band 3">
        <r>  0.0000  0.0000  0.0387  0.0000  0.0000  0.3299  0.0000  0.5865  0.0000 </r>
       </set>
       <set comment="band 4">
        <r>  0.0189  0.0328  0.0000  0.0059  0.8311  0.0000  0.0602  0.0000  0.0017 </r>
       </set>
       <set comment="band 5">
        <r>  0.0000  0.0000  0.0024  0.0000  0.0000  0.6426  0.0000  0.3417  0.0000 </r>
       </set>
       <set comment="band 6">
        <r>  0.1275  0.0391  0.0000  0.3566  0.0300  0.0000  0.0489  0.0000  0.2373 </r>
       </set>
       <set comment="band 7">
        <r>  0.1232  0.4263  0.0000  0.0000  0.1699  0.0000  0.0559  0.0000  0.0502 </r>
       </set>
       <set comment="band 8">
        <r>  0.0000  0.0000  0.6256  0.0000  0.0000  0.0290  0.0000  0.1471  0.0000 </r>
       </set>
       <set comment="band 9">
        <r>  0.0808  0.0028  0.0000  0.0043  0.0075  0.0000  0.6677  0.0000  0.0180 </r>
       </set>
       <set comment="band 10">
        <r>  0.0831  0.1043  0.0000  0.0001  0.0084  0.0000  0.0000  0.0000  0.5104 </r>
       </set>
       <set comment="band 11">
        <r>  0.2792  0.0616  0.0000  0.2772  0.0127  0.0000  0.0815  0.0000  0.1016 </r>
       </set>
       <set comment="band 12">
        <r>  0.0000  0.0000  0.0713  0.0000  0.0000  0.4802  0.0000  0.2366  0.0000 </r>
       </set>
      </set>
      <set comment="kpoint 25">
       <set comment="band 1">
        <r>  0.0000  0.0193  0.0000  0.0193  0.0000  0.0041  0.0000  0.0041  0.7962 </r>
       </set>
       <set comment="band 2">
        <r>  0.0000  0.0064  0.0258  0.0064  0.0054  0.0014  0.7962  0.0014  0.0000 </r>
       </set>
       <set comment="band 3">
        <r>  0.0172  0.0129  0.0129  0.0129  0.2977  0.2977  0.0000  0.2977  0.0000 </r>
       </set>
       <set comment="band 4">
        <r>  0.0000  0.0032  0.0130  0.0032  0.6272  0.1568  0.0178  0.1568  0.0000 </r>
       </set>
       <set comment="band 5">
        <r>  0.0000  0.0097  0.0000  0.0097  0.0000  0.4704  0.0000  0.4704  0.0178 </r>
       </set>
       <set comment="band 6">
        <r>  0.0000  0.2880  0.0000  0.2880  0.0000  0.0286  0.0000  0.0286  0.1771 </r>
       </set>
       <set comment="band 7">
        <r>  0.0000  0.0960  0.3840  0.0960  0.0382  0.0095  0.1771  0.0095  0.0000 </r>
       </set>
       <set comment="band 8">
        <r>  0.2555  0.1254  0.1254  0.1254  0.0519  0.0519  0.0000  0.0519  0.0000 </r>
       </set>
       <set comment="band 9">
        <r>  0.0000  0.0419  0.0000  0.0419  0.0000  0.0036  0.0000  0.0036  0.6989 </r>
       </set>
       <set comment="band 10">
        <r>  0.0000  0.0140  0.0558  0.0140  0.0048  0.0012  0.6989  0.0012  0.0000 </r>
       </set>
       <set comment="band 11">
        <r>  0.4782  0.0991  0.0991  0.0991  0.0034  0.0034  0.0000  0.0034  0.0000 </r>
       </set>
       <set comment="band 12">
        <r>  0.0353  0.0185  0.0185  0.0185  0.2048  0.2048  0.0000  0.2048  0.0000 </r>
       </set>
      </set>
      <set comment="kpoint 26">
       <set comment="band 1">
        <r>  0.0014  0.0000  0.0000  0.0262  0.0000  0.0000  0.2035  0.0000  0.6106 </r>
       </set>
       <set comment="band 2">
        <r>  0.0000  0.0000  0.0000  0.0000  0.0000  0.0000  0.6356  0.0000  0.2119 </r>
       </set>
       <set comment="band 3">
        <r>  0.0000  0.0103  0.0103  0.0000  0.4779  0.0000  0.0000  0.4779  0.0000 </r>
       </set>
       <set comment="band 4">
        <r>  0.0000  0.0103  0.0103  0.0000  0.4779  0.0000  0.0000  0.4779  0.0000 </r>
       </set>
       <set comment="band 5">
        <r>  0.0000  0.0000  0.0000  0.0000  0.0000  0.9869  0.0000  0.0000  0.0000 </r>
       </set>
       <set comment="band 6">
        <r>  0.0828  0.0000  0.0000  0.5684  0.0000  0.0000  0.0308  0.0000  0.0923 </r>
       </set>
       <set comment="band 7">
        <r>  0.0000  0.3474  0.3474  0.0000  0.0283  0.0000  0.0000  0.0283  0.0000 </r>
       </set>
       <set comment="band 8">
        <r>  0.0000  0.3474  0.3474  0.0000  0.0283  0.0000  0.0000  0.0283  0.0000 </r>
       </set>
       <set comment="band 9">
        <r>  0.0000  0.0000  0.0000  0.0000  0.0000  0.0000  0.6688  0.0000  0.2229 </r>
       </set>
       <set comment="band 10">
        <r>  0.0656  0.0000  0.0000  0.0197  0.0000  0.0000  0.1861  0.0000  0.5584 </r>
       </set>
       <set comment="band 11">
        <r>  0.6290  0.0000  0.0000  0.1221  0.0000  0.0000  0.0103  0.0000  0.0309 </r>
       </set>
       <set comment="band 12">
        <r>  0.0000  0.0000  0.0000  0.0000  0.0000  0.2657  0.0000  0.0000  0.0000 </r>
       </set>
      </set>
     </set>
    </set>
   </array>
  </projected>
 </calculation>
 <structure name="finalpos" >
  <crystal>
   <varray name="basis" >
    <v>      -1.42500000       1.42500000       1.42500000 </v>
    <v>       1.42500000      -1.42500000       1.42500000 </v>
    <v>       1.42500000       1.42500000      -1.42500000 </v>
   </varray>
   <i name="volume">     11.57456250 </i>
   <varray name="rec_basis" >
    <v>       0.00000000       0.35087719       0.35087719 </v>
    <v>       0.35087719       0.00000000       0.35087719 </v>
    <v>       0.35087719       0.35087719       0.00000000 </v>
   </varray>
  </crystal>
  <varray name="positions" >
   <v>       0.00000000       0.00000000       0.00000000 </v>
  </varray>
 </structure>
</modeling>
