Si beta-tin                             
   2.45000000000000     
     1.003153    0.000000    0.000000
    -0.501577    0.868756   -0.000000
    -0.000000    0.000000    1.622740
    S
     2
Direct
  0.000000  0.000000  0.000000
  0.333333  0.666667  0.500000
 
   36   36   56
 -3.8066     -3.5145     -2.6663     -1.3448     0.32136      2.1724      4.0388      5.7648      7.2284      8.3545    
  9.1181      9.5406      9.6796      9.6168      9.4448      9.2528      9.0956      8.9933      8.9579      8.9933    
  9.0956      9.2528      9.4448      9.6168      9.6796      9.5406      9.1181      8.3545      7.2284      5.7648    
  4.0388      2.1724     0.32136     -1.3448     -2.6663     -3.5145     -3.5145     -3.5145     -2.9429     -1.8558    
 -.36000      1.3988      3.2543      5.0428      6.6249      7.9028      8.8277      9.3994      9.6590      9.6777    
  9.5438      9.3493      9.1703      9.0381      8.9681      8.9681      9.0381      9.1703      9.3493      9.5438    
  9.6777      9.6590      9.3994      8.8277      7.9028      6.6249      5.0428      3.2543      1.3988     -.36000    
 -1.8558     -2.9429     -2.6663     -2.9458     -2.6663     -1.8558     -.59544     0.98936      2.7442      4.5064    
  6.1277      7.4933      8.5334      9.2263      9.5946      9.6953      9.6084      9.4238      9.2271      9.0673    
  8.9637      8.9279      8.9637      9.0673      9.2271      9.4238      9.6084      9.6953      9.5946      9.2263    
  8.5334      7.4933      6.1277      4.5064      2.7442     0.98936     -.59544     -1.8558     -1.3448     -1.8639    
 -1.8639     -1.3448     -.36000     0.98937      2.5672      4.2206      5.8006      7.1828      8.2812      9.0551    
  9.5080      9.6809      9.6421      9.4754      9.2673      9.0826      8.9470      8.8754      8.8754      8.9470    
  9.0826      9.2673      9.4754      9.6421      9.6809      9.5080      9.0551      8.2812      7.1828      5.8006    
  4.2206      2.5672     0.98936     -.36000     0.32136     -.37483     -.61550     -.37483     0.32137      1.3988    
  2.7442      4.2206      5.6865      7.0154      8.1115      8.9187      9.4233      9.6498      9.6528      9.5066    
  9.2935      9.0869      8.9214      8.8148      8.7780      8.8148      8.9214      9.0869      9.2935      9.5066    
  9.6528      9.6498      9.4233      8.9187      8.1115      7.0154      5.6865      4.2206      2.7442      1.3988    
  2.1724      1.3768     0.95542     0.95543      1.3768      2.1724      3.2543      4.5064      5.8006      7.0154    
  8.0516      8.8433      9.3624      9.6180      9.6503      9.5222      9.3087      9.0839      8.8914      8.7513    
  8.6777      8.6777      8.7513      8.8914      9.0839      9.3087      9.5222      9.6503      9.6180      9.3624    
  8.8433      8.0516      7.0154      5.8006      4.5064      3.2543      4.0388      3.2258      2.6965      2.5128    
  2.6965      3.2258      4.0388      5.0428      6.1277      7.1828      8.1115      8.8433      9.3403      9.5984    
  9.6443      9.5282      9.3159      9.0774      8.8616      8.6909      8.5816      8.5440      8.5816      8.6909    
  8.8616      9.0774      9.3159      9.5282      9.6443      9.5984      9.3403      8.8433      8.1115      7.1828    
  6.1277      5.0428      5.7648      5.0091      4.4469      4.1472      4.1472      4.4469      5.0091      5.7648    
  6.6249      7.4933      8.2812      8.9187      9.3624      9.5984      9.6414      9.5297      9.3185      9.0709    
  8.8365      8.6393      8.4971      8.4227      8.4227      8.4971      8.6393      8.8365      9.0709      9.3185    
  9.5297      9.6414      9.5984      9.3624      8.9187      8.2812      7.4933      6.6249      7.2284      6.5877    
  6.0596      5.7118      5.5905      5.7118      6.0596      6.5877      7.2284      7.9028      8.5334      9.0551    
  9.4233      9.6180      9.6443      9.5297      9.3191      9.0669      8.8199      8.6017      8.4311      8.3225    
  8.2852      8.3225      8.4311      8.6017      8.8199      9.0669      9.3191      9.5297      9.6443      9.6180    
  9.4233      9.0551      8.5334      7.9028      8.3545      7.8638      7.4198      7.0833      6.9019      6.9019    
  7.0833      7.4198      7.8638      8.3545      8.8277      9.2263      9.5080      9.6498      9.6503      9.5282    
  9.3185      9.0669      8.8140      8.5819      8.3890      8.2509      8.1789      8.1789      8.2509      8.3890    
  8.5819      8.8140      9.0669      9.3185      9.5282      9.6503      9.6498      9.5080      9.2263      8.8277    
  9.1181      8.7884      8.4576      8.1755      7.9861      7.9194      7.9861      8.1755      8.4576      8.7884    
  9.1181      9.3994      9.5946      9.6809      9.6528      9.5222      9.3159      9.0709      8.8199      8.5819    
  8.3746      8.2136      8.1117      8.0768      8.1117      8.2136      8.3746      8.5819      8.8199      9.0709    
  9.3159      9.5222      9.6528      9.6809      9.5946      9.3994      9.5406      9.3606      9.1504      8.9470    
  8.7867      8.6985      8.6985      8.7867      8.9470      9.1504      9.3606      9.5406      9.6590      9.6953    
  9.6421      9.5066      9.3087      9.0774      8.8365      8.6017      8.3890      8.2136      8.0887      8.0237    
  8.0237      8.0887      8.2136      8.3890      8.6017      8.8365      9.0774      9.3087      9.5066      9.6421    
  9.6953      9.6590      9.6796      9.6212      9.5198      9.4000      9.2887      9.2104      9.1823      9.2104    
  9.2887      9.4000      9.5198      9.6212      9.6796      9.6777      9.6084      9.4754      9.2935      9.0839    
  8.8616      8.6393      8.4311      8.2509      8.1117      8.0237      7.9936      8.0237      8.1117      8.2509    
  8.4311      8.6393      8.8616      9.0839      9.2935      9.4754      9.6084      9.6777      9.6168      9.6408    
  9.6222      9.5743      9.5150      9.4625      9.4321      9.4321      9.4626      9.5150      9.5743      9.6222    
  9.6408      9.6168      9.5438      9.4238      9.2673      9.0869      8.8914      8.6909      8.4971      8.3225    
  8.1789      8.0768      8.0237      8.0237      8.0768      8.1789      8.3225      8.4971      8.6909      8.8914    
  9.0869      9.2673      9.4238      9.5438      9.4448      9.5077      9.5368      9.5373      9.5189      9.4937    
  9.4730      9.4651      9.4730      9.4937      9.5189      9.5373      9.5368      9.5077      9.4448      9.3493    
  9.2271      9.0826      8.9214      8.7513      8.5816      8.4227      8.2852      8.1789      8.1117      8.0887    
  8.1117      8.1789      8.2852      8.4227      8.5816      8.7513      8.9214      9.0826      9.2271      9.3493    
  9.2528      9.3138      9.3533      9.3721      9.3739      9.3653      9.3540      9.3465      9.3465      9.3540    
  9.3653      9.3739      9.3721      9.3533      9.3138      9.2528      9.1703      9.0673      8.9470      8.8148    
  8.6777      8.5440      8.4227      8.3225      8.2509      8.2136      8.2136      8.2509      8.3225      8.4227    
  8.5440      8.6777      8.8148      8.9470      9.0673      9.1703      9.0956      9.1350      9.1573      9.1649    
  9.1616      9.1517      9.1397      9.1302      9.1267      9.1302      9.1397      9.1517      9.1616      9.1649    
  9.1573      9.1350      9.0956      9.0381      8.9637      8.8754      8.7780      8.6777      8.5816      8.4971    
  8.4311      8.3890      8.3746      8.3890      8.4311      8.4971      8.5816      8.6777      8.7780      8.8754    
  8.9637      9.0381      8.9933      9.0029      8.9978      8.9806      8.9553      8.9266      8.8996      8.8787    
  8.8673      8.8673      8.8787      8.8996      8.9266      8.9553      8.9806      8.9978      9.0029      8.9933    
  8.9681      8.9279      8.8754      8.8148      8.7513      8.6909      8.6393      8.6017      8.5819      8.5819    
  8.6017      8.6393      8.6909      8.7513      8.8148      8.8754      8.9279      8.9681      8.9579      8.9329    
  8.8943      8.8452      8.7898      8.7336      8.6823      8.6411      8.6145      8.6053      8.6145      8.6411    
  8.6823      8.7336      8.7898      8.8452      8.8943      8.9329      8.9579      8.9681      8.9637      8.9470    
  8.9214      8.8914      8.8616      8.8365      8.8199      8.8140      8.8199      8.8365      8.8616      8.8914    
  8.9214      8.9470      8.9637      8.9681      8.9933      8.9329      8.8585      8.7735      8.6830      8.5930    
  8.5103      8.4413      8.3918      8.3659      8.3659      8.3918      8.4413      8.5103      8.5930      8.6830    
  8.7736      8.8585      8.9329      8.9933      9.0381      9.0673      9.0826      9.0869      9.0839      9.0774    
  9.0709      9.0669      9.0669      9.0709      9.0774      9.0839      9.0869      9.0826      9.0673      9.0381    
  9.0956      9.0029      8.8943      8.7735      8.6461      8.5191      8.4001      8.2972      8.2177      8.1675    
  8.1503      8.1675      8.2177      8.2972      8.4001      8.5191      8.6462      8.7736      8.8943      9.0029    
  9.0956      9.1703      9.2271      9.2673      9.2935      9.3087      9.3159      9.3185      9.3191      9.3185    
  9.3159      9.3087      9.2935      9.2673      9.2271      9.1703      9.2528      9.1350      8.9978      8.8452    
  8.6830      8.5191      8.3622      8.2218      8.1071      8.0257      7.9835      7.9835      8.0257      8.1071    
  8.2218      8.3622      8.5191      8.6830      8.8452      8.9978      9.1350      9.2528      9.3493      9.4238    
  9.4754      9.5066      9.5222      9.5282      9.5297      9.5297      9.5282      9.5222      9.5066      9.4754    
  9.4238      9.3493      9.4448      9.3138      9.1573      8.9806      8.7898      8.5930      8.4001      8.2218    
  8.0691      7.9518      7.8780      7.8528      7.8780      7.9518      8.0691      8.2218      8.4001      8.5930    
  8.7898      8.9806      9.1573      9.3138      9.4448      9.5438      9.6084      9.6421      9.6528      9.6503    
  9.6443      9.6414      9.6443      9.6503      9.6528      9.6421      9.6084      9.5438      9.6168      9.5077    
  9.3533      9.1649      8.9553      8.7336      8.5103      8.2972      8.1071      7.9518      7.8419      7.7849    
  7.7849      7.8419      7.9518      8.1071      8.2972      8.5103      8.7336      8.9553      9.1649      9.3533    
  9.5077      9.6168      9.6777      9.6953      9.6809      9.6498      9.6180      9.5984      9.5984      9.6180    
  9.6498      9.6809      9.6953      9.6777      9.6796      9.6408      9.5368      9.3721      9.1616      8.9266    
  8.6823      8.4413      8.2177      8.0257      7.8780      7.7849      7.7531      7.7849      7.8780      8.0257    
  8.2177      8.4413      8.6823      8.9266      9.1616      9.3721      9.5368      9.6408      9.6796      9.6590    
  9.5946      9.5080      9.4233      9.3624      9.3403      9.3624      9.4233      9.5080      9.5946      9.6590    
  9.5406      9.6212      9.6222      9.5373      9.3739      9.1517      8.8996      8.6411      8.3918      8.1675    
  7.9835      7.8528      7.7849      7.7849      7.8528      7.9835      8.1675      8.3918      8.6411      8.8996    
  9.1517      9.3739      9.5373      9.6222      9.6212      9.5406      9.3994      9.2263      9.0551      8.9187    
  8.8433      8.8433      8.9187      9.0551      9.2263      9.3994      9.1181      9.3606      9.5198      9.5743    
  9.5189      9.3653      9.1397      8.8787      8.6145      8.3659      8.1503      7.9835      7.8780      7.8419    
  7.8780      7.9835      8.1503      8.3659      8.6145      8.8787      9.1397      9.3653      9.5189      9.5743    
  9.5198      9.3606      9.1181      8.8277      8.5334      8.2812      8.1115      8.0516      8.1115      8.2812    
  8.5334      8.8277      8.3545      8.7884      9.1504      9.4000      9.5150      9.4937      9.3540      9.1302    
  8.8673      8.6053      8.3659      8.1675      8.0257      7.9518      7.9518      8.0257      8.1675      8.3659    
  8.6053      8.8673      9.1302      9.3540      9.4937      9.5150      9.4000      9.1504      8.7884      8.3545    
  7.9028      7.4933      7.1828      7.0154      7.0154      7.1828      7.4933      7.9028      7.2284      7.8638    
  8.4576      8.9470      9.2887      9.4625      9.4730      9.3465      9.1267      8.8673      8.6145      8.3918    
  8.2177      8.1071      8.0691      8.1071      8.2177      8.3918      8.6145      8.8673      9.1267      9.3465    
  9.4730      9.4626      9.2887      8.9470      8.4576      7.8638      7.2284      6.6249      6.1277      5.8006    
  5.6865      5.8006      6.1277      6.6249      5.7648      6.5877      7.4198      8.1755      8.7867      9.2104    
  9.4321      9.4651      9.3465      9.1302      8.8787      8.6411      8.4413      8.2972      8.2218      8.2218    
  8.2972      8.4413      8.6411      8.8787      9.1302      9.3465      9.4651      9.4321      9.2104      8.7867    
  8.1755      7.4198      6.5877      5.7648      5.0428      4.5064      4.2206      4.2206      4.5064      5.0428    
  4.0388      5.0091      6.0596      7.0833      7.9861      8.6985      9.1823      9.4321      9.4730      9.3540    
  9.1397      8.8996      8.6823      8.5103      8.4001      8.3622      8.4001      8.5103      8.6823      8.8996    
  9.1397      9.3540      9.4730      9.4321      9.1823      8.6985      7.9861      7.0833      6.0596      5.0091    
  4.0388      3.2543      2.7442      2.5672      2.7442      3.2543      2.1724      3.2258      4.4469      5.7118    
  6.9019      7.9194      8.6985      9.2104      9.4625      9.4937      9.3653      9.1517      8.9266      8.7336    
  8.5930      8.5191      8.5191      8.5930      8.7336      8.9266      9.1517      9.3653      9.4937      9.4625    
  9.2104      8.6985      7.9194      6.9019      5.7118      4.4469      3.2258      2.1724      1.3988     0.98937    
 0.98936      1.3988     0.32136      1.3768      2.6965      4.1472      5.5905      6.9019      7.9861      8.7867    
  9.2887      9.5150      9.5189      9.3739      9.1616      8.9553      8.7898      8.6830      8.6461      8.6830    
  8.7898      8.9553      9.1616      9.3739      9.5189      9.5150      9.2887      8.7867      7.9861      6.9019    
  5.5905      4.1472      2.6965      1.3768     0.32137     -.36000     -.59544     -.36000     -1.3448     -.37483    
 0.95542      2.5128      4.1472      5.7118      7.0833      8.1755      8.9470      9.4000      9.5743      9.5373    
  9.3721      9.1649      8.9806      8.8452      8.7735      8.7735      8.8452      8.9806      9.1649      9.3721    
  9.5373      9.5743      9.4000      8.9470      8.1755      7.0833      5.7118      4.1472      2.5128     0.95543    
 -.37483     -1.3448     -1.8558     -1.8558     -2.6663     -1.8639     -.61550     0.95542      2.6965      4.4469    
  6.0596      7.4198      8.4576      9.1504      9.5198      9.6222      9.5368      9.3533      9.1573      8.9978    
  8.8943      8.8585      8.8943      8.9978      9.1573      9.3533      9.5368      9.6222      9.5198      9.1504    
  8.4576      7.4198      6.0596      4.4469      2.6965     0.95542     -.61550     -1.8639     -2.6663     -2.9429    
 -3.5145     -2.9458     -1.8639     -.37483      1.3768      3.2258      5.0091      6.5877      7.8638      8.7884    
  9.3606      9.6212      9.6408      9.5077      9.3138      9.1350      9.0029      8.9329      8.9329      9.0029    
  9.1350      9.3138      9.5077      9.6408      9.6212      9.3606      8.7884      7.8638      6.5877      5.0091    
  3.2258      1.3768     -.37483     -1.8639     -2.9458     -3.5145     -3.4787     -3.1923     -2.3610     -1.0665    
 0.56444      2.3748      4.1983      5.8821      7.3070      8.3998      9.1366      9.5387      9.6635      9.5918    
  9.4152      9.2215      9.0632      8.9605      8.9249      8.9605      9.0632      9.2215      9.4152      9.5918    
  9.6635      9.5387      9.1366      8.3998      7.3070      5.8821      4.1983      2.3748     0.56444     -1.0665    
 -2.3610     -3.1923     -3.1923     -3.1923     -2.6323     -1.5676     -.10334      1.6170      3.4303      5.1760    
  6.7176      7.9597      8.8548      9.4032      9.6459      9.6534      9.5130      9.3157      9.1356      9.0027    
  8.9323      8.9323      9.0027      9.1356      9.3157      9.5130      9.6534      9.6459      9.4032      8.8548    
  7.9597      6.7176      5.1760      3.4303      1.6170     -.10334     -1.5676     -2.6323     -2.3610     -2.6347    
 -2.3610     -1.5676     -.33414      1.2158      2.9307      4.6510      6.2315      7.5599      8.5682      9.2357    
  9.5848      9.6722      9.5771      9.3884      9.1902      9.0295      8.9255      8.8895      8.9255      9.0295    
  9.1902      9.3884      9.5771      9.6722      9.5848      9.2357      8.5682      7.5599      6.2315      4.6510    
  2.9307      1.2158     -.33414     -1.5676     -1.0665     -1.5744     -1.5744     -1.0665     -.10334      1.2158    
  2.7573      4.3711      5.9114      7.2564      8.3222      9.0692      9.5012      9.6592      9.6108      9.4388    
  9.2285      9.0429      8.9067      8.8349      8.8349      8.9067      9.0429      9.2285      9.4388      9.6108    
  9.6592      9.5012      9.0692      8.3222      7.2564      5.9114      4.3711      2.7573      1.2158     -.10334    
 0.56444     -.11596     -.35121     -.11596     0.56444      1.6170      2.9307      4.3711      5.7997      7.0927    
  8.1564      8.9362      9.4191      9.6295      9.6217      9.4692      9.2532      9.0455      8.8794      8.7725    
  8.7356      8.7725      8.8794      9.0455      9.2532      9.4692      9.6217      9.6295      9.4191      8.9362    
  8.1564      7.0927      5.7997      4.3711      2.9307      1.6170      2.3748      1.5983      1.1869      1.1869    
  1.5983      2.3748      3.4303      4.6510      5.9114      7.0927      8.0979      8.8626      9.3598      9.5988    
  9.6195      9.4843      9.2672      9.0412      8.8480      8.7076      8.6338      8.6338      8.7076      8.8480    
  9.0412      9.2672      9.4843      9.6195      9.5988      9.3598      8.8626      8.0979      7.0927      5.9114    
  4.6510      3.4303      4.1983      3.4060      2.8900      2.7109      2.8900      3.4060      4.1983      5.1760    
  6.2315      7.2564      8.1564      8.8626      9.3383      9.5798      9.6137      9.4901      9.2737      9.0337    
  8.8172      8.6461      8.5366      8.4990      8.5366      8.6461      8.8172      9.0337      9.2737      9.4901    
  9.6137      9.5798      9.3383      8.8626      8.1564      7.2564      6.2315      5.1760      5.8821      5.1472    
  4.6002      4.3084      4.3084      4.6002      5.1472      5.8821      6.7176      7.5599      8.3222      8.9362    
  9.3598      9.5798      9.6110      9.4915      9.2759      9.0265      8.7914      8.5938      8.4514      8.3769    
  8.3769      8.4514      8.5938      8.7914      9.0265      9.2759      9.4915      9.6110      9.5798      9.3598    
  8.9362      8.3222      7.5599      6.7176      7.3070      6.6859      6.1733      5.8356      5.7177      5.8356    
  6.1733      6.6859      7.3070      7.9597      8.5682      9.0692      9.4191      9.5988      9.6137      9.4915    
  9.2763      9.0223      8.7744      8.5558      8.3849      8.2763      8.2390      8.2763      8.3849      8.5558    
  8.7744      9.0223      9.2763      9.4915      9.6137      9.5988      9.4191      9.0692      8.5682      7.9597    
  8.3998      7.9265      7.4973      7.1715      6.9958      6.9958      7.1715      7.4973      7.9265      8.3998    
  8.8548      9.2357      9.5013      9.6295      9.6196      9.4901      9.2759      9.0223      8.7684      8.5358    
  8.3426      8.2045      8.1324      8.1324      8.2045      8.3426      8.5358      8.7684      9.0223      9.2759    
  9.4901      9.6195      9.6295      9.5012      9.2357      8.8548      9.1366      8.8214      8.5037      8.2322    
  8.0496      7.9853      8.0496      8.2322      8.5037      8.8214      9.1366      9.4032      9.5848      9.6592    
  9.6217      9.4843      9.2737      9.0265      8.7744      8.5358      8.3281      8.1671      8.0651      8.0302    
  8.0651      8.1671      8.3281      8.5358      8.7744      9.0265      9.2737      9.4843      9.6217      9.6592    
  9.5848      9.4032      9.5387      9.3704      9.1713      8.9774      8.8241      8.7396      8.7396      8.8241    
  8.9774      9.1713      9.3704      9.5387      9.6460      9.6722      9.6108      9.4692      9.2672      9.0337    
  8.7914      8.5558      8.3426      8.1671      8.0421      7.9771      7.9771      8.0421      8.1671      8.3426    
  8.5558      8.7914      9.0337      9.2672      9.4692      9.6108      9.6722      9.6459      9.6635      9.6140    
  9.5216      9.4099      9.3051      9.2310      9.2043      9.2310      9.3051      9.4099      9.5216      9.6140    
  9.6635      9.6534      9.5771      9.4388      9.2532      9.0412      8.8172      8.5938      8.3849      8.2045    
  8.0651      7.9771      7.9470      7.9771      8.0651      8.2045      8.3849      8.5938      8.8172      9.0412    
  9.2532      9.4388      9.5771      9.6534      9.5918      9.6224      9.6106      9.5694      9.5157      9.4675    
  9.4392      9.4392      9.4675      9.5157      9.5694      9.6106      9.6224      9.5918      9.5130      9.3884    
  9.2285      9.0455      8.8480      8.6461      8.4514      8.2763      8.1324      8.0302      7.9771      7.9771    
  8.0302      8.1324      8.2763      8.4514      8.6461      8.8480      9.0455      9.2285      9.3884      9.5130    
  9.4152      9.4827      9.5170      9.5227      9.5090      9.4876      9.4694      9.4624      9.4694      9.4876    
  9.5090      9.5227      9.5170      9.4827      9.4152      9.3157      9.1902      9.0429      8.8794      8.7076    
  8.5366      8.3769      8.2390      8.1324      8.0651      8.0421      8.0651      8.1324      8.2390      8.3769    
  8.5366      8.7076      8.8794      9.0429      9.1902      9.3157      9.2215      9.2860      9.3294      9.3521    
  9.3578      9.3525      9.3436      9.3374      9.3374      9.3436      9.3525      9.3578      9.3521      9.3294    
  9.2860      9.2215      9.1356      9.0295      8.9067      8.7725      8.6338      8.4990      8.3769      8.2763    
  8.2045      8.1671      8.1671      8.2045      8.2763      8.3769      8.4990      8.6338      8.7725      8.9067    
  9.0295      9.1356      9.0632      9.1061      9.1318      9.1428      9.1426      9.1356      9.1259      9.1179    
  9.1148      9.1179      9.1259      9.1356      9.1426      9.1428      9.1318      9.1060      9.0632      9.0027    
  8.9255      8.8349      8.7356      8.6338      8.5366      8.4514      8.3849      8.3426      8.3281      8.3426    
  8.3849      8.4514      8.5366      8.6338      8.7356      8.8349      8.9255      9.0027      8.9605      8.9732    
  8.9714      8.9575      8.9353      8.9095      8.8847      8.8654      8.8549      8.8549      8.8654      8.8847    
  8.9095      8.9353      8.9575      8.9714      8.9732      8.9605      8.9323      8.8895      8.8349      8.7725    
  8.7076      8.6461      8.5938      8.5558      8.5358      8.5358      8.5558      8.5938      8.6461      8.7076    
  8.7725      8.8349      8.8895      8.9323      8.9249      8.9029      8.8675      8.8215      8.7692      8.7159    
  8.6670      8.6277      8.6022      8.5934      8.6022      8.6277      8.6670      8.7159      8.7692      8.8215    
  8.8675      8.9029      8.9249      8.9323      8.9255      8.9067      8.8794      8.8480      8.8172      8.7914    
  8.7744      8.7684      8.7744      8.7914      8.8172      8.8480      8.8794      8.9067      8.9255      8.9323    
  8.9605      8.9029      8.8315      8.7496      8.6621      8.5750      8.4948      8.4279      8.3798      8.3547    
  8.3547      8.3798      8.4279      8.4948      8.5750      8.6621      8.7496      8.8315      8.9029      8.9605    
  9.0027      9.0295      9.0429      9.0455      9.0412      9.0337      9.0265      9.0223      9.0223      9.0265    
  9.0337      9.0412      9.0455      9.0429      9.0295      9.0027      9.0632      8.9732      8.8675      8.7496    
  8.6251      8.5009      8.3846      8.2839      8.2061      8.1569      8.1400      8.1569      8.2061      8.2839    
  8.3846      8.5009      8.6252      8.7496      8.8675      8.9732      9.0632      9.1356      9.1902      9.2285    
  9.2532      9.2672      9.2737      9.2759      9.2763      9.2759      9.2737      9.2672      9.2532      9.2285    
  9.1902      9.1356      9.2215      9.1061      8.9714      8.8215      8.6621      8.5009      8.3466      8.2085    
  8.0956      8.0155      7.9740      7.9740      8.0155      8.0956      8.2085      8.3466      8.5009      8.6621    
  8.8215      8.9714      9.1060      9.2215      9.3157      9.3884      9.4388      9.4692      9.4843      9.4901    
  9.4915      9.4915      9.4901      9.4843      9.4692      9.4388      9.3884      9.3157      9.4152      9.2860    
  9.1318      8.9575      8.7692      8.5750      8.3846      8.2085      8.0577      7.9419      7.8690      7.8441    
  7.8690      7.9419      8.0577      8.2085      8.3846      8.5750      8.7692      8.9575      9.1318      9.2860    
  9.4152      9.5130      9.5771      9.6108      9.6217      9.6196      9.6137      9.6110      9.6137      9.6195    
  9.6217      9.6108      9.5771      9.5130      9.5918      9.4827      9.3294      9.1428      8.9353      8.7159    
  8.4948      8.2839      8.0956      7.9419      7.8331      7.7767      7.7767      7.8331      7.9419      8.0956    
  8.2839      8.4948      8.7159      8.9353      9.1428      9.3294      9.4827      9.5918      9.6534      9.6722    
  9.6592      9.6295      9.5988      9.5798      9.5798      9.5988      9.6295      9.6592      9.6722      9.6534    
  9.6635      9.6224      9.5170      9.3521      9.1426      8.9095      8.6670      8.4279      8.2061      8.0155    
  7.8690      7.7767      7.7452      7.7767      7.8690      8.0155      8.2061      8.4279      8.6670      8.9095    
  9.1426      9.3521      9.5170      9.6224      9.6635      9.6460      9.5848      9.5013      9.4191      9.3598    
  9.3383      9.3598      9.4191      9.5012      9.5848      9.6459      9.5387      9.6140      9.6106      9.5227    
  9.3578      9.1356      8.8847      8.6277      8.3798      8.1569      7.9740      7.8441      7.7767      7.7767    
  7.8441      7.9740      8.1569      8.3798      8.6277      8.8847      9.1356      9.3578      9.5227      9.6106    
  9.6140      9.5387      9.4032      9.2357      9.0692      8.9362      8.8626      8.8626      8.9362      9.0692    
  9.2357      9.4032      9.1366      9.3704      9.5216      9.5694      9.5090      9.3525      9.1259      8.8654    
  8.6022      8.3547      8.1400      7.9740      7.8690      7.8331      7.8690      7.9740      8.1400      8.3547    
  8.6022      8.8654      9.1259      9.3525      9.5090      9.5694      9.5216      9.3704      9.1366      8.8548    
  8.5682      8.3222      8.1564      8.0979      8.1564      8.3222      8.5682      8.8548      8.3998      8.8214    
  9.1713      9.4099      9.5157      9.4876      9.3436      9.1179      8.8549      8.5934      8.3547      8.1569    
  8.0155      7.9419      7.9419      8.0155      8.1569      8.3547      8.5934      8.8549      9.1179      9.3436    
  9.4876      9.5157      9.4099      9.1713      8.8214      8.3998      7.9597      7.5599      7.2564      7.0927    
  7.0927      7.2564      7.5599      7.9597      7.3070      7.9265      8.5037      8.9774      9.3051      9.4675    
  9.4694      9.3374      9.1148      8.8549      8.6022      8.3798      8.2061      8.0956      8.0577      8.0956    
  8.2061      8.3798      8.6022      8.8549      9.1148      9.3374      9.4694      9.4675      9.3051      8.9774    
  8.5037      7.9265      7.3070      6.7176      6.2315      5.9114      5.7997      5.9114      6.2315      6.7176    
  5.8821      6.6859      7.4973      8.2322      8.8241      9.2310      9.4392      9.4624      9.3374      9.1179    
  8.8654      8.6277      8.4279      8.2839      8.2085      8.2085      8.2839      8.4279      8.6277      8.8654    
  9.1179      9.3374      9.4624      9.4392      9.2310      8.8241      8.2322      7.4973      6.6859      5.8821    
  5.1760      4.6510      4.3711      4.3711      4.6510      5.1760      4.1983      5.1472      6.1733      7.1715    
  8.0496      8.7396      9.2043      9.4392      9.4694      9.3436      9.1259      8.8847      8.6670      8.4948    
  8.3846      8.3466      8.3846      8.4948      8.6670      8.8847      9.1259      9.3436      9.4694      9.4392    
  9.2043      8.7396      8.0496      7.1715      6.1733      5.1472      4.1983      3.4303      2.9307      2.7573    
  2.9307      3.4303      2.3748      3.4060      4.6002      5.8356      6.9958      7.9853      8.7396      9.2310    
  9.4675      9.4876      9.3525      9.1356      8.9095      8.7159      8.5750      8.5009      8.5009      8.5750    
  8.7159      8.9095      9.1356      9.3525      9.4876      9.4675      9.2310      8.7396      7.9853      6.9958    
  5.8356      4.6002      3.4060      2.3748      1.6170      1.2158      1.2158      1.6170     0.56444      1.5983    