Si beta-tin                             
   2.45000000000000     
     1.002264    0.000000    0.000000
    -0.501132    0.867986   -0.000000
    -0.000000    0.000000    1.625620
    S
     2
Direct
 -0.000000  0.000000 -0.000000
  0.333333  0.666667  0.500000
 
   36   36   56
 -.38056884100E+01 -.35123285489E+01 -.26609921506E+01 -.13353280733E+01 0.33458419780E+00
 0.21876613782E+01 0.40533135679E+01 0.57751474793E+01 0.72313747574E+01 0.83474754760E+01
 0.90996152059E+01 0.95101585346E+01 0.96379309810E+01 0.95656950186E+01 0.93866034113E+01
 0.91899685898E+01 0.90293841126E+01 0.89251250649E+01 0.88890384142E+01 0.89251250972E+01
 0.90293841506E+01 0.91899685966E+01 0.93866033628E+01 0.95656949227E+01 0.96379308811E+01
 0.95101584945E+01 0.90996152823E+01 0.83474756906E+01 0.72313750827E+01 0.57751478448E+01
 0.40533138860E+01 0.21876615785E+01 0.33458425481E+00 -.13353281313E+01 -.26609922560E+01
 -.35123286260E+01 -.35123286260E+01 -.35123285890E+01 -.29387820306E+01 -.18484035130E+01
 -.34911369245E+00 0.14120223588E+01 0.32676110289E+01 0.50530362729E+01 0.66289181291E+01
 0.78977330088E+01 0.88116150154E+01 0.93714419972E+01 0.96194078919E+01 0.96277226301E+01
 0.94855079329E+01 0.92853670574E+01 0.91025046224E+01 0.89676304379E+01 0.88962380716E+01
 0.88962380604E+01 0.89676304024E+01 0.91025045607E+01 0.92853669745E+01 0.94855078467E+01
 0.96277225726E+01 0.96194079011E+01 0.93714421028E+01 0.88116152241E+01 0.78977332963E+01
 0.66289184434E+01 0.50530365497E+01 0.32676112134E+01 0.14120224256E+01 -.34911372990E+00
 -.18484036079E+01 -.29387821218E+01 -.26609922560E+01 -.29412727298E+01 -.26609922103E+01
 -.18484035296E+01 -.58543078131E+00 0.10013291963E+01 0.27563034157E+01 0.45160511974E+01
 0.61319340696E+01 0.74892466140E+01 0.85188561670E+01 0.92001427434E+01 0.95565687913E+01
 0.96463234662E+01 0.95502844435E+01 0.93589335455E+01 0.91578053576E+01 0.89948261081E+01
 0.88892884066E+01 0.88528015577E+01 0.88892883573E+01 0.89948260255E+01 0.91578052690E+01
 0.93589334814E+01 0.95502844289E+01 0.96463235133E+01 0.95565688959E+01 0.92001428868E+01
 0.85188563203E+01 0.74892467463E+01 0.61319341562E+01 0.45160512253E+01 0.27563033866E+01
 0.10013291254E+01 -.58543086945E+00 -.18484036079E+01 -.13353281313E+01 -.18554447296E+01
 -.18554447276E+01 -.13353281161E+01 -.34911367920E+00 0.10013292331E+01 0.25789159552E+01
 0.42297707805E+01 0.58046724067E+01 0.71790860683E+01 0.82675311859E+01 0.90300575567E+01
 0.94711244245E+01 0.96327774292E+01 0.95842953525E+01 0.94100376516E+01 0.91967466286E+01
 0.90084226226E+01 0.88703504649E+01 0.87974857371E+01 0.87974857141E+01 0.88703504094E+01
 0.90084225688E+01 0.91967466141E+01 0.94100376983E+01 0.95842954540E+01 0.96327775510E+01
 0.94711245166E+01 0.90300575741E+01 0.82675311070E+01 0.71790859035E+01 0.58046721936E+01
 0.42297705683E+01 0.25789157854E+01 0.10013291254E+01 -.34911372990E+00 0.33458425481E+00
 -.36199441459E+00 -.60286251879E+00 -.36199445705E+00 0.33458421389E+00 0.14120224523E+01
 0.27563035360E+01 0.42297708542E+01 0.56904847269E+01 0.70118005673E+01 0.80981517418E+01
 0.88942671342E+01 0.93872027333E+01 0.96023447580E+01 0.95952311024E+01 0.94408746292E+01
 0.92219370633E+01 0.90113410583E+01 0.88429267704E+01 0.87344808550E+01 0.86970806632E+01
 0.87344808255E+01 0.88429267415E+01 0.90113410724E+01 0.92219371489E+01 0.94408747787E+01
 0.95952312675E+01 0.96023448649E+01 0.93872027125E+01 0.88942669515E+01 0.80981514162E+01
 0.70118001669E+01 0.56904843436E+01 0.42297705683E+01 0.27563033866E+01 0.14120224256E+01
 0.21876615785E+01 0.13929561792E+01 0.97186912576E+00 0.97186907980E+00 0.13929560713E+01
 0.21876614844E+01 0.32676112195E+01 0.45160513875E+01 0.58046725094E+01 0.70118005729E+01
 0.80384126182E+01 0.88190879535E+01 0.93266477866E+01 0.95709147461E+01 0.95929566904E+01
 0.94562947806E+01 0.92363439773E+01 0.90072290961E+01 0.88114076045E+01 0.86690946653E+01
 0.85943241133E+01 0.85943240932E+01 0.86690946229E+01 0.88114075834E+01 0.90072291390E+01
 0.92363440977E+01 0.94562949470E+01 0.95929568328E+01 0.95709147834E+01 0.93266476625E+01
 0.88190876651E+01 0.80384122223E+01 0.70118001669E+01 0.58046721936E+01 0.45160512253E+01
 0.32676112134E+01 0.40533138860E+01 0.32429188645E+01 0.27150194517E+01 0.25317826086E+01
 0.27150193508E+01 0.32429187096E+01 0.40533137504E+01 0.50530365008E+01 0.61319342260E+01
 0.71790860753E+01 0.80981516329E+01 0.88190878541E+01 0.93046502996E+01 0.95515328828E+01
 0.95869961690E+01 0.94621594360E+01 0.92430643863E+01 0.89999103647E+01 0.87805140528E+01
 0.86072023540E+01 0.84963421553E+01 0.84582209212E+01 0.84963421010E+01 0.86072022765E+01
 0.87805139975E+01 0.89999103671E+01 0.92430644515E+01 0.94621595329E+01 0.95869962427E+01
 0.95515328797E+01 0.93046501947E+01 0.88190876651E+01 0.80981514162E+01 0.71790859035E+01
 0.61319341562E+01 0.50530365497E+01 0.57751478448E+01 0.50239506605E+01 0.44647149817E+01
 0.41663593974E+01 0.41663593534E+01 0.44647148597E+01 0.50239504870E+01 0.57751476538E+01
 0.66289182654E+01 0.74892466007E+01 0.82675309988E+01 0.88942668752E+01 0.93266476091E+01
 0.95515328438E+01 0.95841832309E+01 0.94636048649E+01 0.92454039280E+01 0.89928353659E+01
 0.87547057440E+01 0.85546051017E+01 0.84104681519E+01 0.83350817826E+01 0.83350817561E+01
 0.84104680802E+01 0.85546050049E+01 0.87547056473E+01 0.89928352906E+01 0.92454038855E+01
 0.94636048555E+01 0.95841832477E+01 0.95515328797E+01 0.93266476625E+01 0.88942669515E+01
 0.82675311070E+01 0.74892467463E+01 0.66289184434E+01 0.72313750827E+01 0.65969932060E+01
 0.60732974048E+01 0.57282279735E+01 0.56077836417E+01 0.57282279266E+01 0.60732972972E+01
 0.65969930204E+01 0.72313748125E+01 0.78977329576E+01 0.85188559547E+01 0.90300572394E+01
 0.93872024651E+01 0.95709146592E+01 0.95869962450E+01 0.94636049551E+01 0.92458734030E+01
 0.89886018462E+01 0.87376269101E+01 0.85163735749E+01 0.83434898152E+01 0.82335668640E+01
 0.81958685768E+01 0.82335668626E+01 0.83434897970E+01 0.85163735189E+01 0.87376268050E+01
 0.89886017024E+01 0.92458732557E+01 0.94636048555E+01 0.95869962427E+01 0.95709147834E+01
 0.93872027125E+01 0.90300575741E+01 0.85188563203E+01 0.78977332963E+01 0.83474756906E+01
 0.78644839169E+01 0.74263315190E+01 0.70937549401E+01 0.69143820604E+01 0.69143820607E+01
 0.70937549230E+01 0.74263314408E+01 0.78644837344E+01 0.83474753902E+01 0.88116148384E+01
 0.92001424896E+01 0.94711241979E+01 0.96023446958E+01 0.95929568359E+01 0.94621596734E+01
 0.92454040852E+01 0.89886018726E+01 0.87316582703E+01 0.84962606094E+01 0.83009057642E+01
 0.81611997363E+01 0.80884020168E+01 0.80884020574E+01 0.81611998341E+01 0.83009058595E+01
 0.84962606366E+01 0.87316581923E+01 0.89886017024E+01 0.92454038855E+01 0.94621595329E+01
 0.95929568328E+01 0.96023448649E+01 0.94711245166E+01 0.92001428868E+01 0.88116152241E+01
 0.90996152823E+01 0.87782474102E+01 0.84543323640E+01 0.81773981940E+01 0.79911213545E+01
 0.79254733927E+01 0.79911213859E+01 0.81773982257E+01 0.84543323510E+01 0.87782473198E+01
 0.90996151154E+01 0.93714418991E+01 0.95565687201E+01 0.96327774644E+01 0.95952312993E+01
 0.94562950784E+01 0.92430646211E+01 0.89928354194E+01 0.87376268306E+01 0.84962605415E+01
 0.82862967874E+01 0.81235392798E+01 0.80205134212E+01 0.79852500170E+01 0.80205135427E+01
 0.81235394710E+01 0.82862969677E+01 0.84962606366E+01 0.87376268050E+01 0.89928352906E+01
 0.92430644515E+01 0.94562949470E+01 0.95952312675E+01 0.96327775510E+01 0.95565688959E+01
 0.93714421028E+01 0.95101584945E+01 0.93387228274E+01 0.91359401418E+01 0.89384262747E+01
 0.87822213635E+01 0.86961249629E+01 0.86961249952E+01 0.87822214530E+01 0.89384264016E+01
 0.91359402826E+01 0.93387229637E+01 0.95101586188E+01 0.96194080159E+01 0.96463236251E+01
 0.95842955648E+01 0.94408748793E+01 0.92363441683E+01 0.89999103838E+01 0.87547055936E+01
 0.85163733960E+01 0.83009056911E+01 0.81235392988E+01 0.79972951336E+01 0.79316707557E+01
 0.79316708033E+01 0.79972952622E+01 0.81235394710E+01 0.83009058595E+01 0.85163735189E+01
 0.87547056473E+01 0.89999103671E+01 0.92363440977E+01 0.94408747787E+01 0.95842954540E+01
 0.96463235133E+01 0.96194079011E+01 0.96379308811E+01 0.95876715797E+01 0.94937649174E+01
 0.93801688568E+01 0.92735778664E+01 0.91982535305E+01 0.91711223291E+01 0.91982536293E+01
 0.92735780617E+01 0.93801691399E+01 0.94937652670E+01 0.95876719599E+01 0.96379312440E+01
 0.96277228680E+01 0.95502846178E+01 0.94100377649E+01 0.92219371051E+01 0.90072290210E+01
 0.87805138529E+01 0.85546048772E+01 0.83434897122E+01 0.81611997960E+01 0.80205135364E+01
 0.79316708076E+01 0.79012932187E+01 0.79316708033E+01 0.80205135427E+01 0.81611998341E+01
 0.83434897970E+01 0.85546050049E+01 0.87805139975E+01 0.90072291390E+01 0.92219371489E+01
 0.94100376983E+01 0.95502844289E+01 0.96277225726E+01 0.95656949227E+01 0.95969685440E+01
 0.95852514662E+01 0.95435465161E+01 0.94892135190E+01 0.94403062642E+01 0.94116721724E+01
 0.94116722396E+01 0.94403064615E+01 0.94892138317E+01 0.95435469137E+01 0.95852518991E+01
 0.95969689481E+01 0.95656952314E+01 0.94855080102E+01 0.93589334842E+01 0.91967464833E+01
 0.90113408719E+01 0.88114073935E+01 0.86072021667E+01 0.84104680847E+01 0.82335669688E+01
 0.80884022123E+01 0.79852501499E+01 0.79316708076E+01 0.79316707557E+01 0.79852500170E+01
 0.80884020574E+01 0.82335668626E+01 0.84104680802E+01 0.86072022765E+01 0.88114075834E+01
 0.90113410724E+01 0.91967466141E+01 0.93589334814E+01 0.94855078467E+01 0.93866033628E+01
 0.94555354327E+01 0.94907630290E+01 0.94969558827E+01 0.94834565440E+01 0.94619501103E+01
 0.94436444559E+01 0.94365715782E+01 0.94436445919E+01 0.94619503536E+01 0.94834568431E+01
 0.94969561745E+01 0.94907632529E+01 0.94555355451E+01 0.93866033476E+01 0.92853668479E+01
 0.91578050760E+01 0.90084223713E+01 0.88429266017E+01 0.86690945853E+01 0.84963421795E+01
 0.83350819291E+01 0.81958687934E+01 0.80884022123E+01 0.80205135364E+01 0.79972951336E+01
 0.80205134212E+01 0.80884020168E+01 0.81958685768E+01 0.83350817561E+01 0.84963421010E+01
 0.86690946229E+01 0.88429267415E+01 0.90084225688E+01 0.91578052690E+01 0.92853669745E+01
 0.91899685966E+01 0.92559050060E+01 0.93005247060E+01 0.93242182135E+01 0.93304646783E+01
 0.93255818899E+01 0.93168916907E+01 0.93107229742E+01 0.93107230130E+01 0.93168917865E+01
 0.93255819895E+01 0.93304647185E+01 0.93242181480E+01 0.93005245252E+01 0.92559047422E+01
 0.91899683121E+01 0.91025043250E+01 0.89948258909E+01 0.88703503950E+01 0.87344809152E+01
 0.85943242461E+01 0.84582210898E+01 0.83350819291E+01 0.82335669688E+01 0.81611997960E+01
 0.81235392988E+01 0.81235392798E+01 0.81611997363E+01 0.82335668640E+01 0.83350817826E+01
 0.84582209212E+01 0.85943240932E+01 0.87344808255E+01 0.88703504094E+01 0.89948260255E+01
 0.91025045607E+01 0.90293841506E+01 0.90733088380E+01 0.91000339856E+01 0.91118720697E+01
 0.91124513950E+01 0.91059033675E+01 0.90965298766E+01 0.90887103347E+01 0.90857037453E+01
 0.90887102748E+01 0.90965297387E+01 0.91059031302E+01 0.91124510542E+01 0.91118716547E+01
 0.91000335602E+01 0.90733084838E+01 0.90293839387E+01 0.89676303656E+01 0.88892884756E+01
 0.87974859208E+01 0.86970808704E+01 0.85943242461E+01 0.84963421795E+01 0.84104680847E+01
 0.83434897122E+01 0.83009056911E+01 0.82862967874E+01 0.83009057642E+01 0.83434898152E+01
 0.84104681519E+01 0.84963421553E+01 0.85943241133E+01 0.86970806632E+01 0.87974857141E+01
 0.88892883573E+01 0.89676304024E+01 0.89251250972E+01 0.89385365598E+01 0.89373250888E+01
 0.89239695150E+01 0.89022449470E+01 0.88767368039E+01 0.88522399707E+01 0.88331097754E+01
 0.88226529042E+01 0.88226527984E+01 0.88331094748E+01 0.88522395236E+01 0.88767362836E+01
 0.89022444402E+01 0.89239691059E+01 0.89373248411E+01 0.89385365004E+01 0.89251252080E+01
 0.88962382815E+01 0.88528018035E+01 0.87974859208E+01 0.87344809152E+01 0.86690945853E+01
 0.86072021667E+01 0.85546048772E+01 0.85163733960E+01 0.84962605415E+01 0.84962606094E+01
 0.85163735749E+01 0.85546051017E+01 0.86072023540E+01 0.86690946653E+01 0.87344808550E+01
 0.87974857371E+01 0.88528015577E+01 0.88962380604E+01 0.88890384142E+01 0.88671680356E+01
 0.88318555082E+01 0.87859890652E+01 0.87338308218E+01 0.86805593199E+01 0.86316849916E+01
 0.85924038226E+01 0.85669695080E+01 0.85581681439E+01 0.85669692260E+01 0.85924033433E+01
 0.86316844552E+01 0.86805588752E+01 0.87338305778E+01 0.87859890601E+01 0.88318557045E+01
 0.88671683407E+01 0.88890387175E+01 0.88962382815E+01 0.88892884756E+01 0.88703503950E+01
 0.88429266017E+01 0.88114073935E+01 0.87805138529E+01 0.87547055936E+01 0.87376268306E+01
 0.87316582703E+01 0.87376269101E+01 0.87547057440E+01 0.87805140528E+01 0.88114076045E+01
 0.88429267704E+01 0.88703504649E+01 0.88892884066E+01 0.88962380716E+01 0.89251250649E+01
 0.88671679917E+01 0.87953734986E+01 0.87131018517E+01 0.86252411520E+01 0.85377924440E+01
 0.84572939033E+01 0.83901452117E+01 0.83419129597E+01 0.83167062823E+01 0.83167061655E+01
 0.83419126616E+01 0.83901448666E+01 0.84572936700E+01 0.85377924383E+01 0.86252413986E+01
 0.87131022756E+01 0.87953739588E+01 0.88671683407E+01 0.89251252080E+01 0.89676303656E+01
 0.89948258909E+01 0.90084223713E+01 0.90113408719E+01 0.90072290210E+01 0.89999103838E+01
 0.89928354194E+01 0.89886018726E+01 0.89886018462E+01 0.89928353659E+01 0.89999103647E+01
 0.90072290961E+01 0.90113410583E+01 0.90084226226E+01 0.89948261081E+01 0.89676304379E+01
 0.90293841126E+01 0.89385364517E+01 0.88318554164E+01 0.87131018187E+01 0.85877655398E+01
 0.84627154648E+01 0.83456517268E+01 0.82444053889E+01 0.81661617483E+01 0.81167049224E+01
 0.80997861856E+01 0.81167048863E+01 0.81661617335E+01 0.82444054785E+01 0.83456519808E+01
 0.84627158805E+01 0.85877660396E+01 0.87131022756E+01 0.88318557045E+01 0.89385365004E+01
 0.90293839387E+01 0.91025043250E+01 0.91578050760E+01 0.91967464833E+01 0.92219371051E+01
 0.92363441683E+01 0.92430646211E+01 0.92454040852E+01 0.92458734030E+01 0.92454039280E+01
 0.92430643863E+01 0.92363439773E+01 0.92219370633E+01 0.91967466286E+01 0.91578053576E+01
 0.91025046224E+01 0.91899685898E+01 0.90733087248E+01 0.89373249505E+01 0.87859889823E+01
 0.86252411299E+01 0.84627154653E+01 0.83072438155E+01 0.81681557637E+01 0.80544337033E+01
 0.79738216762E+01 0.79320092813E+01 0.79320093697E+01 0.79738219317E+01 0.80544340954E+01
 0.81681562397E+01 0.83072443025E+01 0.84627158805E+01 0.86252413986E+01 0.87859890601E+01
 0.89373248411E+01 0.90733084838E+01 0.91899683121E+01 0.92853668479E+01 0.93589334842E+01
 0.94100377649E+01 0.94408748793E+01 0.94562950784E+01 0.94621596734E+01 0.94636049551E+01
 0.94636048649E+01 0.94621594360E+01 0.94562947806E+01 0.94408746292E+01 0.94100376516E+01
 0.93589335455E+01 0.92853670574E+01 0.93866034113E+01 0.92559049527E+01 0.91000338712E+01
 0.89239694239E+01 0.87338307871E+01 0.85377924407E+01 0.83456517347E+01 0.81681557829E+01
 0.80161170119E+01 0.78994043027E+01 0.78259417820E+01 0.78008621088E+01 0.78259420753E+01
 0.78994048003E+01 0.80161175667E+01 0.81681562397E+01 0.83456519808E+01 0.85377924383E+01
 0.87338305778E+01 0.89239691059E+01 0.91000335602E+01 0.92559047422E+01 0.93866033476E+01
 0.94855080102E+01 0.95502846178E+01 0.95842955648E+01 0.95952312993E+01 0.95929568359E+01
 0.95869962450E+01 0.95841832309E+01 0.95869961690E+01 0.95929566904E+01 0.95952311024E+01
 0.95842953525E+01 0.95502844435E+01 0.94855079329E+01 0.95656950186E+01 0.94555354771E+01
 0.93005246787E+01 0.91118720206E+01 0.89022449162E+01 0.86805593020E+01 0.84572938958E+01
 0.82444054252E+01 0.80544337948E+01 0.78994043846E+01 0.77896584714E+01 0.77327800141E+01
 0.77327801508E+01 0.77896588230E+01 0.78994048003E+01 0.80544340954E+01 0.82444054785E+01
 0.84572936700E+01 0.86805588752E+01 0.89022444402E+01 0.91118716547E+01 0.93005245252E+01
 0.94555355451E+01 0.95656952314E+01 0.96277228680E+01 0.96463236251E+01 0.96327774644E+01
 0.96023446958E+01 0.95709146592E+01 0.95515328438E+01 0.95515328828E+01 0.95709147461E+01
 0.96023447580E+01 0.96327774292E+01 0.96463234662E+01 0.96277226301E+01 0.96379309810E+01
 0.95969686757E+01 0.94907631169E+01 0.93242182448E+01 0.91124513879E+01 0.88767367636E+01
 0.86316849364E+01 0.83901452128E+01 0.81661618749E+01 0.79738218895E+01 0.78259419439E+01
 0.77327800463E+01 0.77009626632E+01 0.77327801508E+01 0.78259420753E+01 0.79738219317E+01
 0.81661617335E+01 0.83901448666E+01 0.86316844552E+01 0.88767362836E+01 0.91124510542E+01
 0.93242181480E+01 0.94907632529E+01 0.95969689481E+01 0.96379312440E+01 0.96194080159E+01
 0.95565687201E+01 0.94711241979E+01 0.93872024651E+01 0.93266476091E+01 0.93046502996E+01
 0.93266477866E+01 0.93872027333E+01 0.94711244245E+01 0.95565687913E+01 0.96194078919E+01
 0.95101585346E+01 0.95876717418E+01 0.95852516490E+01 0.94969560056E+01 0.93304647126E+01
 0.91059033091E+01 0.88522398479E+01 0.85924037342E+01 0.83419130352E+01 0.81167051828E+01
 0.79320095667E+01 0.78008622143E+01 0.77327800463E+01 0.77327800141E+01 0.78008621088E+01
 0.79320093697E+01 0.81167048863E+01 0.83419126616E+01 0.85924033433E+01 0.88522395236E+01
 0.91059031302E+01 0.93304647185E+01 0.94969561745E+01 0.95852518991E+01 0.95876719599E+01
 0.95101586188E+01 0.93714418991E+01 0.92001424896E+01 0.90300572394E+01 0.88942668752E+01
 0.88190878541E+01 0.88190879535E+01 0.88942671342E+01 0.90300575567E+01 0.92001427434E+01
 0.93714419972E+01 0.90996152059E+01 0.93387229407E+01 0.94937651357E+01 0.95435467116E+01
 0.94834566305E+01 0.93255818337E+01 0.90965296954E+01 0.88331095728E+01 0.85669694575E+01
 0.83167064871E+01 0.80997865281E+01 0.79320095667E+01 0.78259419439E+01 0.77896584714E+01
 0.78259417820E+01 0.79320092813E+01 0.80997861856E+01 0.83167061655E+01 0.85669692260E+01
 0.88331094748E+01 0.90965297387E+01 0.93255819895E+01 0.94834568431E+01 0.95435469137E+01
 0.94937652670E+01 0.93387229637E+01 0.90996151154E+01 0.88116148384E+01 0.85188559547E+01
 0.82675309988E+01 0.80981516329E+01 0.80384126182E+01 0.80981517418E+01 0.82675311859E+01
 0.85188561670E+01 0.88116150154E+01 0.83474754760E+01 0.87782474085E+01 0.91359403233E+01
 0.93801690840E+01 0.94892136586E+01 0.94619500869E+01 0.93168914926E+01 0.90887100414E+01
 0.88226527004E+01 0.85581682120E+01 0.83167064871E+01 0.81167051828E+01 0.79738218895E+01
 0.78994043846E+01 0.78994043027E+01 0.79738216762E+01 0.81167049224E+01 0.83167062823E+01
 0.85581681439E+01 0.88226527984E+01 0.90887102748E+01 0.93168917865E+01 0.94619503536E+01
 0.94892138317E+01 0.93801691399E+01 0.91359402826E+01 0.87782473198E+01 0.83474753902E+01
 0.78977329576E+01 0.74892466007E+01 0.71790860753E+01 0.70118005729E+01 0.70118005673E+01
 0.71790860683E+01 0.74892466140E+01 0.78977330088E+01 0.72313747574E+01 0.78644837777E+01
 0.84543324544E+01 0.89384264876E+01 0.92735780487E+01 0.94403063029E+01 0.94436443004E+01
 0.93107226577E+01 0.90857034237E+01 0.88226527004E+01 0.85669694575E+01 0.83419130352E+01
 0.81661618749E+01 0.80544337948E+01 0.80161170119E+01 0.80544337033E+01 0.81661617483E+01
 0.83419129597E+01 0.85669695080E+01 0.88226529042E+01 0.90857037453E+01 0.93107230130E+01
 0.94436445919E+01 0.94403064615E+01 0.92735780617E+01 0.89384264016E+01 0.84543323510E+01
 0.78644837344E+01 0.72313748125E+01 0.66289182654E+01 0.61319342260E+01 0.58046725094E+01
 0.56904847269E+01 0.58046724067E+01 0.61319340696E+01 0.66289181291E+01 0.57751474793E+01
 0.65969929619E+01 0.74263315044E+01 0.81773983589E+01 0.87822215686E+01 0.91982536443E+01
 0.94116721117E+01 0.94365713234E+01 0.93107226577E+01 0.90887100414E+01 0.88331095728E+01
 0.85924037342E+01 0.83901452128E+01 0.82444054252E+01 0.81681557829E+01 0.81681557637E+01
 0.82444053889E+01 0.83901452117E+01 0.85924038226E+01 0.88331097754E+01 0.90887103347E+01
 0.93107229742E+01 0.94365715782E+01 0.94116722396E+01 0.91982536293E+01 0.87822214530E+01
 0.81773982257E+01 0.74263314408E+01 0.65969930204E+01 0.57751476538E+01 0.50530365008E+01
 0.45160513875E+01 0.42297708542E+01 0.42297707805E+01 0.45160511974E+01 0.50530362729E+01
 0.40533135679E+01 0.50239503858E+01 0.60732973149E+01 0.70937550461E+01 0.79911215574E+01
 0.86961251392E+01 0.91711223831E+01 0.94116721117E+01 0.94436443004E+01 0.93168914926E+01
 0.90965296954E+01 0.88522398479E+01 0.86316849364E+01 0.84572938958E+01 0.83456517347E+01
 0.83072438155E+01 0.83456517268E+01 0.84572939033E+01 0.86316849916E+01 0.88522399707E+01
 0.90965298766E+01 0.93168916907E+01 0.94436444559E+01 0.94116721724E+01 0.91711223291E+01
 0.86961249952E+01 0.79911213859E+01 0.70937549230E+01 0.60732972972E+01 0.50239504870E+01
 0.40533137504E+01 0.32676112195E+01 0.27563035360E+01 0.25789159552E+01 0.27563034157E+01
 0.32676110289E+01 0.21876613782E+01 0.32429186434E+01 0.44647148738E+01 0.57282280323E+01
 0.69143822367E+01 0.79254735941E+01 0.86961251392E+01 0.91982536443E+01 0.94403063029E+01
 0.94619500869E+01 0.93255818337E+01 0.91059033091E+01 0.88767367636E+01 0.86805593020E+01
 0.85377924407E+01 0.84627154653E+01 0.84627154648E+01 0.85377924440E+01 0.86805593199E+01
 0.88767368039E+01 0.91059033675E+01 0.93255818899E+01 0.94619501103E+01 0.94403062642E+01
 0.91982535305E+01 0.86961249629E+01 0.79254733927E+01 0.69143820607E+01 0.57282279266E+01
 0.44647148597E+01 0.32429187096E+01 0.21876614844E+01 0.14120224523E+01 0.10013292331E+01
 0.10013291963E+01 0.14120223588E+01 0.33458419780E+00 0.13929560699E+01 0.27150193829E+01
 0.41663594331E+01 0.56077837734E+01 0.69143822367E+01 0.79911215574E+01 0.87822215686E+01
 0.92735780487E+01 0.94892136586E+01 0.94834566305E+01 0.93304647126E+01 0.91124513879E+01
 0.89022449162E+01 0.87338307871E+01 0.86252411299E+01 0.85877655398E+01 0.86252411520E+01
 0.87338308218E+01 0.89022449470E+01 0.91124513950E+01 0.93304646783E+01 0.94834565440E+01
 0.94892135190E+01 0.92735778664E+01 0.87822213635E+01 0.79911213545E+01 0.69143820604E+01
 0.56077836417E+01 0.41663593534E+01 0.27150193508E+01 0.13929560713E+01 0.33458421389E+00
 -.34911367920E+00 -.58543078131E+00 -.34911369245E+00 -.13353280733E+01 -.36199440417E+00
 0.97186912677E+00 0.25317826445E+01 0.41663594331E+01 0.57282280323E+01 0.70937550461E+01
 0.81773983589E+01 0.89384264876E+01 0.93801690840E+01 0.95435467116E+01 0.94969560056E+01
 0.93242182448E+01 0.91118720206E+01 0.89239694239E+01 0.87859889823E+01 0.87131018187E+01
 0.87131018517E+01 0.87859890652E+01 0.89239695150E+01 0.91118720697E+01 0.93242182135E+01
 0.94969558827E+01 0.95435465161E+01 0.93801688568E+01 0.89384262747E+01 0.81773981940E+01
 0.70937549401E+01 0.57282279735E+01 0.41663593974E+01 0.25317826086E+01 0.97186907980E+00
 -.36199445705E+00 -.13353281161E+01 -.18484035296E+01 -.18484035130E+01 -.26609921506E+01
 -.18554446416E+01 -.60286245556E+00 0.97186912677E+00 0.27150193829E+01 0.44647148738E+01
 0.60732973149E+01 0.74263315044E+01 0.84543324544E+01 0.91359403233E+01 0.94937651357E+01
 0.95852516490E+01 0.94907631169E+01 0.93005246787E+01 0.91000338712E+01 0.89373249505E+01
 0.88318554164E+01 0.87953734986E+01 0.88318555082E+01 0.89373250888E+01 0.91000339856E+01
 0.93005247060E+01 0.94907630290E+01 0.95852514662E+01 0.94937649174E+01 0.91359401418E+01
 0.84543323640E+01 0.74263315190E+01 0.60732974048E+01 0.44647149817E+01 0.27150194517E+01
 0.97186912576E+00 -.60286251879E+00 -.18554447276E+01 -.26609922103E+01 -.29387820306E+01
 -.35123285489E+01 -.29412726343E+01 -.18554446416E+01 -.36199440417E+00 0.13929560699E+01
 0.32429186434E+01 0.50239503858E+01 0.65969929619E+01 0.78644837777E+01 0.87782474085E+01
 0.93387229407E+01 0.95876717418E+01 0.95969686757E+01 0.94555354771E+01 0.92559049527E+01
 0.90733087248E+01 0.89385364517E+01 0.88671679917E+01 0.88671680356E+01 0.89385365598E+01
 0.90733088380E+01 0.92559050060E+01 0.94555354327E+01 0.95969685440E+01 0.95876715797E+01
 0.93387228274E+01 0.87782474102E+01 0.78644839169E+01 0.65969932060E+01 0.50239506605E+01
 0.32429188645E+01 0.13929561792E+01 -.36199441459E+00 -.18554447296E+01 -.29412727298E+01
 -.35123285890E+01 -.34804619958E+01 -.31928038176E+01 -.23582284474E+01 -.10593036000E+01
 0.57578459295E+00 0.23886046720E+01 0.42116947687E+01 0.58918003461E+01 0.73097985016E+01
 0.83930324762E+01 0.91186335922E+01 0.95091356758E+01 0.96229348526E+01 0.95419715018E+01
 0.93583555478E+01 0.91600364661E+01 0.89985327840E+01 0.88937612250E+01 0.88575096656E+01
 0.88937612558E+01 0.89985328199E+01 0.91600364713E+01 0.93583554993E+01 0.95419714076E+01
 0.96229347552E+01 0.95091356374E+01 0.91186336678E+01 0.83930326868E+01 0.73097988201E+01
 0.58918007035E+01 0.42116950795E+01 0.23886048675E+01 0.57578464845E+00 -.10593036568E+01
 -.23582285504E+01 -.31928038930E+01 -.31928038930E+01 -.31928038550E+01 -.26307031235E+01
 -.15624655033E+01 -.94451535771E-01 0.16286426727E+01 0.34424115137E+01 0.51854461043E+01
 0.67212990075E+01 0.79546955477E+01 0.88391371783E+01 0.93760112694E+01 0.96073301267E+01
 0.96046408455E+01 0.94561097638E+01 0.92532401330E+01 0.90692530315E+01 0.89336964672E+01
 0.88619808564E+01 0.88619808458E+01 0.89336964335E+01 0.90692529720E+01 0.92532400516E+01
 0.94561096778E+01 0.96046407862E+01 0.96073301319E+01 0.93760113688E+01 0.88391373793E+01
 0.79546958265E+01 0.67212993127E+01 0.51854463721E+01 0.34424116897E+01 0.16286427319E+01
 -.94451579552E-01 -.15624656030E+01 -.26307032178E+01 -.23582285504E+01 -.26327667258E+01
 -.23582284999E+01 -.15624655162E+01 -.32617847012E+00 0.12260856001E+01 0.29415024556E+01
 0.46597575222E+01 0.62352579195E+01 0.75558210601E+01 0.85540338491E+01 0.92101303933E+01
 0.95476745374E+01 0.96243965169E+01 0.95203494363E+01 0.93249867464E+01 0.91224108187E+01
 0.89586067365E+01 0.88526110920E+01 0.88159771750E+01 0.88526110451E+01 0.89586066575E+01
 0.91224107331E+01 0.93249866829E+01 0.95203494188E+01 0.96243965581E+01 0.95476746345E+01
 0.92101305290E+01 0.85540339957E+01 0.75558211870E+01 0.62352580011E+01 0.46597575442E+01
 0.29415024189E+01 0.12260855199E+01 -.32617856815E+00 -.15624656030E+01 -.10593036568E+01
 -.15683083961E+01 -.15683083909E+01 -.10593036331E+01 -.94451517794E-01 0.12260856376E+01
 0.27676731737E+01 0.43793694689E+01 0.59149703199E+01 0.72526067002E+01 0.83087834752E+01
 0.90447174791E+01 0.94652625261E+01 0.96122418161E+01 0.95542801194E+01 0.93748174820E+01
 0.91594908814E+01 0.89702313813E+01 0.88316000266E+01 0.87584729655E+01 0.87584729435E+01
 0.88315999735E+01 0.89702313296E+01 0.91594908671E+01 0.93748175262E+01 0.95542802161E+01
 0.96122419324E+01 0.94652626142E+01 0.90447174955E+01 0.83087833983E+01 0.72526065388E+01
 0.59149701090E+01 0.43793692552E+01 0.27676729977E+01 0.12260855199E+01 -.94451579552E-01
 0.57578464845E+00 -.10515971376E+00 -.34066624240E+00 -.10515975004E+00 0.57578461725E+00
 0.16286427678E+01 0.29415025729E+01 0.43793695390E+01 0.58031771591E+01 0.70889626252E+01
 0.81433056285E+01 0.89123531845E+01 0.93838316410E+01 0.95831556786E+01 0.95654099602E+01
 0.94048323937E+01 0.91831259388E+01 0.89715065403E+01 0.88024658176E+01 0.86936805113E+01
 0.86561727937E+01 0.86936804831E+01 0.88024657902E+01 0.89715065547E+01 0.91831260224E+01
 0.94048325395E+01 0.95654101216E+01 0.95831557844E+01 0.93838316238E+01 0.89123530104E+01
 0.81433053150E+01 0.70889622370E+01 0.58031767843E+01 0.43793692552E+01 0.29415024189E+01
 0.16286427319E+01 0.23886048675E+01 0.16127666966E+01 0.12015625487E+01 0.12015625053E+01
 0.16127665951E+01 0.23886047801E+01 0.34424116986E+01 0.46597577023E+01 0.59149704133E+01
 0.70889626264E+01 0.80849112050E+01 0.88389848412E+01 0.93249091006E+01 0.95527789163E+01
 0.95634259641E+01 0.94197687333E+01 0.91963854278E+01 0.89660851749E+01 0.87695949800E+01
 0.86269010432E+01 0.85519579774E+01 0.85519579584E+01 0.86269010035E+01 0.87695949616E+01
 0.89660852186E+01 0.91963855465E+01 0.94197688967E+01 0.95634261047E+01 0.95527789560E+01
 0.93249089851E+01 0.88389845672E+01 0.80849108267E+01 0.70889622370E+01 0.59149701090E+01
 0.46597575442E+01 0.34424116897E+01 0.42116950795E+01 0.34218325117E+01 0.29070998638E+01
 0.27283986249E+01 0.29070997648E+01 0.34218323589E+01 0.42116949435E+01 0.51854463180E+01
 0.62352580602E+01 0.72526066962E+01 0.81433055165E+01 0.88389847438E+01 0.93034795410E+01
 0.95339726309E+01 0.95577046161E+01 0.94253807700E+01 0.92023534932E+01 0.89577900332E+01
 0.87376906983E+01 0.85639798244E+01 0.84529189363E+01 0.84147370001E+01 0.84529188859E+01
 0.85639797528E+01 0.87376906483E+01 0.89577900382E+01 0.92023535577E+01 0.94253808642E+01
 0.95577046877E+01 0.95339726295E+01 0.93034794432E+01 0.88389845672E+01 0.81433053150E+01
 0.72526065388E+01 0.62352580011E+01 0.51854463721E+01 0.58918007035E+01 0.51612120488E+01
 0.46169724152E+01 0.43265154971E+01 0.43265154520E+01 0.46169722898E+01 0.51612118698E+01
 0.58918005052E+01 0.67212991266E+01 0.75558210337E+01 0.83087832844E+01 0.89123529315E+01
 0.93249089325E+01 0.95339725970E+01 0.95549826697E+01 0.94267222464E+01 0.92042716514E+01
 0.89500677604E+01 0.87111873141E+01 0.85106732967E+01 0.83663299326E+01 0.82908605374E+01
 0.82908605129E+01 0.83663298661E+01 0.85106732064E+01 0.87111872231E+01 0.89500676882E+01
 0.92042716085E+01 0.94267222337E+01 0.95549826822E+01 0.95339726295E+01 0.93249089851E+01
 0.89123530104E+01 0.83087833983E+01 0.75558211870E+01 0.67212993127E+01 0.73097988201E+01
 0.66947457603E+01 0.61864457546E+01 0.58513050269E+01 0.57342913554E+01 0.58513049734E+01
 0.61864456365E+01 0.66947455639E+01 0.73097985428E+01 0.79546954871E+01 0.85540336361E+01
 0.90447171716E+01 0.93838313886E+01 0.95527788423E+01 0.95577046967E+01 0.94267223356E+01
 0.92046059809E+01 0.89455119078E+01 0.86937038108E+01 0.84720036570E+01 0.82989091172E+01
 0.81889029475E+01 0.81511840968E+01 0.81889029463E+01 0.82989090999E+01 0.84720036029E+01
 0.86937037085E+01 0.89455117667E+01 0.92046058347E+01 0.94267222337E+01 0.95577046877E+01
 0.95527789560E+01 0.93838316238E+01 0.90447174955E+01 0.85540339957E+01 0.79546958265E+01
 0.83930326868E+01 0.79271334868E+01 0.75035880816E+01 0.71816951587E+01 0.70079684501E+01
 0.70079684459E+01 0.71816951302E+01 0.75035879907E+01 0.79271332970E+01 0.83930323889E+01