   2   2   0   0
  0.1039878E+02  0.2450000E-09  0.2450000E-09  0.4000826E-09  0.5000000E-15
  1.000000000000000E-004
  CAR 
 Si beta-tin                             
     30.15255806     -3.99575900  301     15.14343812      1.00000000
     -3.996  0.0000E+00  0.0000E+00
     -3.882  0.0000E+00  0.0000E+00
     -3.768  0.0000E+00  0.0000E+00
     -3.654  0.0000E+00  0.0000E+00
     -3.540  0.0000E+00  0.0000E+00
     -3.427  0.0000E+00  0.0000E+00
     -3.313  0.0000E+00  0.0000E+00
     -3.199  0.0000E+00  0.0000E+00
     -3.085  0.0000E+00  0.0000E+00
     -2.971  0.1371E-15  0.1560E-16
     -2.857  0.7821E-11  0.8903E-12
     -2.744  0.3572E-07  0.4067E-08
     -2.630  0.1369E-04  0.1562E-05
     -2.516  0.4835E-03  0.5660E-04
     -2.402  0.1848E-02  0.2670E-03
     -2.288  0.8626E-03  0.3652E-03
     -2.175  0.6808E-04  0.3729E-03
     -2.061  0.7306E-03  0.4561E-03
     -1.947  0.3189E-02  0.8191E-03
     -1.833  0.2301E-02  0.1081E-02
     -1.719  0.2628E-03  0.1111E-02
     -1.605  0.1856E-03  0.1132E-02
     -1.492  0.1477E-02  0.1300E-02
     -1.378  0.1428E-02  0.1463E-02
     -1.264  0.2737E-03  0.1494E-02
     -1.150  0.1877E-02  0.1708E-02
     -1.036  0.3837E-02  0.2144E-02
     -0.922  0.2376E-02  0.2415E-02
     -0.809  0.1517E-02  0.2587E-02
     -0.695  0.2056E-02  0.2821E-02
     -0.581  0.5555E-02  0.3454E-02
     -0.467  0.4037E-02  0.3913E-02
     -0.353  0.1332E-02  0.4065E-02
     -0.239  0.6296E-03  0.4137E-02
     -0.126  0.1867E-02  0.4349E-02
     -0.012  0.8056E-03  0.4441E-02
      0.102  0.5107E-03  0.4499E-02
      0.216  0.3235E-02  0.4867E-02
      0.330  0.3826E-02  0.5303E-02
      0.444  0.4114E-02  0.5771E-02
      0.557  0.2731E-02  0.6082E-02
      0.671  0.3763E-02  0.6510E-02
      0.785  0.4729E-02  0.7049E-02
      0.899  0.2818E-02  0.7369E-02
      1.013  0.1972E-02  0.7594E-02
      1.126  0.1449E-02  0.7759E-02
      1.240  0.1669E-03  0.7778E-02
      1.354  0.8531E-04  0.7787E-02
      1.468  0.1661E-02  0.7976E-02
      1.582  0.4065E-02  0.8439E-02
      1.696  0.3961E-02  0.8890E-02
      1.809  0.4142E-02  0.9362E-02
      1.923  0.7128E-02  0.1017E-01
      2.037  0.8645E-02  0.1116E-01
      2.151  0.2746E-02  0.1147E-01
      2.265  0.9807E-03  0.1158E-01
      2.379  0.3170E-02  0.1194E-01
      2.492  0.4883E-02  0.1250E-01
      2.606  0.3257E-02  0.1287E-01
      2.720  0.1158E-02  0.1300E-01
      2.834  0.1935E-02  0.1322E-01
      2.948  0.3708E-02  0.1364E-01
      3.062  0.6015E-02  0.1433E-01
      3.175  0.5187E-02  0.1492E-01
      3.289  0.6319E-02  0.1564E-01
      3.403  0.5105E-02  0.1622E-01
      3.517  0.3451E-02  0.1661E-01
      3.631  0.7960E-03  0.1670E-01
      3.745  0.2236E-02  0.1696E-01
      3.858  0.4455E-02  0.1746E-01
      3.972  0.2881E-02  0.1779E-01
      4.086  0.3118E-02  0.1815E-01
      4.200  0.4069E-02  0.1861E-01
      4.314  0.4298E-02  0.1910E-01
      4.427  0.4042E-02  0.1956E-01
      4.541  0.5661E-02  0.2020E-01
      4.655  0.5045E-02  0.2078E-01
      4.769  0.3070E-02  0.2113E-01
      4.883  0.4009E-02  0.2158E-01
      4.997  0.4328E-02  0.2208E-01
      5.110  0.4363E-02  0.2257E-01
      5.224  0.3263E-02  0.2294E-01
      5.338  0.3223E-02  0.2331E-01
      5.452  0.6592E-02  0.2406E-01
      5.566  0.5494E-02  0.2469E-01
      5.680  0.4247E-02  0.2517E-01
      5.793  0.5357E-02  0.2578E-01
      5.907  0.5892E-02  0.2645E-01
      6.021  0.2248E-02  0.2671E-01
      6.135  0.3421E-02  0.2710E-01
      6.249  0.6623E-02  0.2785E-01
      6.363  0.7991E-02  0.2876E-01
      6.476  0.4294E-02  0.2925E-01
      6.590  0.3648E-02  0.2966E-01
      6.704  0.9175E-02  0.3071E-01
      6.818  0.1243E-01  0.3212E-01
      6.932  0.5916E-02  0.3280E-01
      7.046  0.6173E-02  0.3350E-01
      7.159  0.3829E-02  0.3393E-01
      7.273  0.1485E-02  0.3410E-01
      7.387  0.2403E-02  0.3438E-01
      7.501  0.4536E-02  0.3489E-01
      7.615  0.2432E-02  0.3517E-01
      7.728  0.1366E-02  0.3533E-01
      7.842  0.5399E-02  0.3594E-01
      7.956  0.9108E-02  0.3698E-01
      8.070  0.6413E-02  0.3771E-01
      8.184  0.3018E-02  0.3805E-01
      8.298  0.4370E-02  0.3855E-01
      8.411  0.5520E-02  0.3918E-01
      8.525  0.3805E-02  0.3961E-01
      8.639  0.2846E-02  0.3993E-01
      8.753  0.6952E-02  0.4072E-01
      8.867  0.7428E-02  0.4157E-01
      8.981  0.3252E-02  0.4194E-01
      9.094  0.4518E-02  0.4245E-01
      9.208  0.7810E-02  0.4334E-01
      9.322  0.3029E-02  0.4369E-01
      9.436  0.9309E-03  0.4379E-01
      9.550  0.4492E-02  0.4431E-01
      9.664  0.9232E-02  0.4536E-01
      9.777  0.6562E-02  0.4610E-01
      9.891  0.4640E-02  0.4663E-01
     10.005  0.5477E-02  0.4725E-01
     10.119  0.6024E-02  0.4794E-01
     10.233  0.1012E-01  0.4909E-01
     10.347  0.9289E-02  0.5015E-01
     10.460  0.3005E-02  0.5049E-01
     10.574  0.2057E-02  0.5073E-01
     10.688  0.3029E-02  0.5107E-01
     10.802  0.5269E-02  0.5167E-01
     10.916  0.5969E-02  0.5235E-01
     11.030  0.6296E-02  0.5307E-01
     11.143  0.8181E-02  0.5400E-01
     11.257  0.1095E-01  0.5524E-01
     11.371  0.1061E-01  0.5645E-01
     11.485  0.7344E-02  0.5729E-01
     11.599  0.4602E-02  0.5781E-01
     11.712  0.2296E-02  0.5807E-01
     11.826  0.6326E-03  0.5815E-01
     11.940  0.5296E-04  0.5815E-01
     12.054  0.1262E-02  0.5830E-01
     12.168  0.6508E-02  0.5904E-01
     12.282  0.9357E-02  0.6010E-01
     12.395  0.1480E-01  0.6179E-01
     12.509  0.1288E-01  0.6325E-01
     12.623  0.5623E-02  0.6389E-01
     12.737  0.7498E-02  0.6475E-01
     12.851  0.5303E-02  0.6535E-01
     12.965  0.8242E-02  0.6629E-01
     13.078  0.9142E-02  0.6733E-01
     13.192  0.6417E-02  0.6806E-01
     13.306  0.4355E-02  0.6855E-01
     13.420  0.4857E-02  0.6911E-01
     13.534  0.9227E-02  0.7016E-01
     13.648  0.4913E-02  0.7072E-01
     13.761  0.1492E-02  0.7089E-01
     13.875  0.2326E-02  0.7115E-01
     13.989  0.4181E-02  0.7163E-01
     14.103  0.6029E-02  0.7231E-01
     14.217  0.9623E-02  0.7341E-01
     14.331  0.1534E-01  0.7515E-01
     14.444  0.1171E-01  0.7649E-01
     14.558  0.7649E-02  0.7736E-01
     14.672  0.4561E-02  0.7788E-01
     14.786  0.3041E-02  0.7822E-01
     14.900  0.3753E-02  0.7865E-01
     15.013  0.4378E-02  0.7915E-01
     15.127  0.5993E-02  0.7983E-01
     15.241  0.1123E-01  0.8111E-01
     15.355  0.6542E-02  0.8185E-01
     15.469  0.4973E-02  0.8242E-01
     15.583  0.8127E-02  0.8334E-01
     15.696  0.8915E-02  0.8436E-01
     15.810  0.7660E-02  0.8523E-01
     15.924  0.8182E-02  0.8616E-01
     16.038  0.6799E-02  0.8694E-01
     16.152  0.2653E-02  0.8724E-01
     16.266  0.7105E-02  0.8805E-01
     16.379  0.7982E-02  0.8896E-01
     16.493  0.2807E-02  0.8928E-01
     16.607  0.3439E-02  0.8967E-01
     16.721  0.5744E-02  0.9032E-01
     16.835  0.5339E-02  0.9093E-01
     16.949  0.6348E-02  0.9165E-01
     17.062  0.4562E-02  0.9217E-01
     17.176  0.5846E-02  0.9284E-01
     17.290  0.5731E-02  0.9349E-01
     17.404  0.6109E-02  0.9418E-01
     17.518  0.8493E-02  0.9515E-01
     17.632  0.8647E-02  0.9613E-01
     17.745  0.8965E-02  0.9715E-01
     17.859  0.1531E-01  0.9890E-01
     17.973  0.1779E-01  0.1009E+00
     18.087  0.1800E-01  0.1030E+00
     18.201  0.6109E-02  0.1037E+00
     18.314  0.3255E-03  0.1037E+00
     18.428  0.2168E-03  0.1037E+00
     18.542  0.1553E-02  0.1039E+00
     18.656  0.1347E-02  0.1041E+00
     18.770  0.5460E-03  0.1041E+00
     18.884  0.5472E-02  0.1047E+00
     18.997  0.1157E-01  0.1061E+00
     19.111  0.1125E-01  0.1073E+00
     19.225  0.1723E-01  0.1093E+00
     19.339  0.1818E-01  0.1114E+00
     19.453  0.1207E-01  0.1127E+00
     19.567  0.7912E-02  0.1136E+00
     19.680  0.9440E-02  0.1147E+00
     19.794  0.6476E-02  0.1155E+00
     19.908  0.8487E-02  0.1164E+00
     20.022  0.7944E-02  0.1173E+00
     20.136  0.7792E-02  0.1182E+00
     20.250  0.5149E-02  0.1188E+00
     20.363  0.8390E-03  0.1189E+00
     20.477  0.2055E-02  0.1191E+00
     20.591  0.6364E-02  0.1199E+00
     20.705  0.6074E-02  0.1205E+00
     20.819  0.8667E-02  0.1215E+00
     20.933  0.1408E-01  0.1231E+00
     21.046  0.8088E-02  0.1241E+00
     21.160  0.4393E-02  0.1246E+00
     21.274  0.5797E-02  0.1252E+00
     21.388  0.4036E-02  0.1257E+00
     21.502  0.8998E-02  0.1267E+00
     21.615  0.1707E-01  0.1286E+00
     21.729  0.8262E-02  0.1296E+00
     21.843  0.3395E-02  0.1300E+00
     21.957  0.5207E-02  0.1306E+00
     22.071  0.3810E-02  0.1310E+00
     22.185  0.7411E-02  0.1318E+00
     22.298  0.7655E-02  0.1327E+00
     22.412  0.1045E-01  0.1339E+00
     22.526  0.1171E-01  0.1352E+00
     22.640  0.9116E-02  0.1363E+00
     22.754  0.8999E-02  0.1373E+00
     22.868  0.4149E-02  0.1378E+00
     22.981  0.3487E-02  0.1382E+00
     23.095  0.7556E-02  0.1390E+00
     23.209  0.1103E-01  0.1403E+00
     23.323  0.8949E-02  0.1413E+00
     23.437  0.5038E-02  0.1419E+00
     23.551  0.6934E-02  0.1427E+00
     23.664  0.1242E-01  0.1441E+00
     23.778  0.1092E-01  0.1453E+00
     23.892  0.9381E-02  0.1464E+00
     24.006  0.4765E-02  0.1469E+00
     24.120  0.4962E-02  0.1475E+00
     24.234  0.5674E-02  0.1481E+00
     24.347  0.3054E-02  0.1485E+00
     24.461  0.1187E-02  0.1486E+00
     24.575  0.3254E-02  0.1490E+00
     24.689  0.2178E-02  0.1492E+00
     24.803  0.2297E-02  0.1495E+00
     24.916  0.1014E-01  0.1507E+00
     25.030  0.1080E-01  0.1519E+00
     25.144  0.6968E-02  0.1527E+00
     25.258  0.7323E-02  0.1535E+00
     25.372  0.1312E-01  0.1550E+00
     25.486  0.7357E-02  0.1558E+00
     25.599  0.7094E-03  0.1559E+00
     25.713  0.2141E-03  0.1559E+00
     25.827  0.1533E-02  0.1561E+00
     25.941  0.1367E-02  0.1563E+00
     26.055  0.1465E-03  0.1563E+00
     26.169  0.1962E-03  0.1563E+00
     26.282  0.1509E-02  0.1565E+00
     26.396  0.1541E-02  0.1567E+00
     26.510  0.2728E-02  0.1570E+00
     26.624  0.5469E-02  0.1576E+00
     26.738  0.1524E-02  0.1578E+00
     26.852  0.2664E-03  0.1578E+00
     26.965  0.1558E-02  0.1580E+00
     27.079  0.1584E-02  0.1582E+00
     27.193  0.2703E-02  0.1585E+00
     27.307  0.3207E-02  0.1588E+00
     27.421  0.4830E-03  0.1589E+00
     27.535  0.7562E-05  0.1589E+00
     27.648  0.3204E-05  0.1589E+00
     27.762  0.2203E-03  0.1589E+00
     27.876  0.1565E-02  0.1591E+00
     27.990  0.1458E-02  0.1593E+00
     28.104  0.1442E-02  0.1594E+00
     28.217  0.1585E-02  0.1596E+00
     28.331  0.2304E-03  0.1596E+00
     28.445  0.4902E-04  0.1596E+00
     28.559  0.8625E-03  0.1597E+00
     28.673  0.1848E-02  0.1599E+00
     28.787  0.4835E-03  0.1600E+00
     28.900  0.1369E-04  0.1600E+00
     29.014  0.3572E-07  0.1600E+00
     29.128  0.7821E-11  0.1600E+00
     29.242  0.1373E-15  0.1600E+00
     29.356  0.0000E+00  0.1600E+00
     29.470  0.0000E+00  0.1600E+00
     29.583  0.0000E+00  0.1600E+00
     29.697  0.0000E+00  0.1600E+00
     29.811  0.0000E+00  0.1600E+00
     29.925  0.0000E+00  0.1600E+00
     30.039  0.0000E+00  0.1600E+00
     30.153  0.0000E+00  0.1600E+00
