    2    2  100    1
  0.1039878E+02  0.2450000E-09  0.2450000E-09  0.4000826E-09  0.5000000E-15
  1.000000000000000E-004
  CAR 
 Si beta-tin                             
      8     36      8
 
  0.8333333E-01  0.8333333E-01  0.8333333E-01  0.1851852E-01
    1       -1.999106   1.000000
    2        5.407060   1.000000
    3        8.366856   1.000000
    4       20.661204   0.000000
    5       20.774174   0.000000
    6       26.957323   0.000000
    7       27.202110   0.000000
    8       27.208230   0.000000
 
  0.2500000E+00  0.8333333E-01  0.8333333E-01  0.3703704E-01
    1        0.204500   1.000000
    2        7.479421   1.000000
    3       10.290838   1.000000
    4       13.298359   1.000000
    5       17.832537   0.000000
    6       20.159163   0.000000
    7       22.639363   0.000000
    8       25.080525   0.000000
 
  0.4166667E+00  0.8333333E-01  0.8333333E-01  0.3703704E-01
    1        4.087424   1.000000
    2        6.601660   1.000000
    3       11.308208   1.000000
    4       13.502153   1.000000
    5       14.447843   1.000000
    6       16.207061   0.000000
    7       17.915454   0.000000
    8       23.816083   0.000000
 
 -0.4166667E+00  0.8333333E-01  0.8333333E-01  0.3703704E-01
    1        1.944732   1.000000
    2        8.782636   1.000000
    3        9.899371   1.000000
    4       12.326218   1.000000
    5       16.340106   0.000000
    6       17.580188   0.000000
    7       19.839231   0.000000
    8       24.228714   0.000000
 
 -0.2500000E+00  0.8333333E-01  0.8333333E-01  0.3703704E-01
    1       -1.113955   1.000000
    2        6.244914   1.000000
    3        9.177359   1.000000
    4       16.815783   0.000000
    5       19.128760   0.000000
    6       23.539789   0.000000
    7       25.350149   0.000000
    8       26.542228   0.000000
 
 -0.8333333E-01  0.8333333E-01  0.8333333E-01  0.1851852E-01
    1       -2.443563   1.000000
    2        4.985408   1.000000
    3        7.953846   1.000000
    4       22.614464   0.000000
    5       24.096133   0.000000
    6       25.820839   0.000000
    7       28.114069   0.000000
    8       28.600362   0.000000
 
  0.2500000E+00  0.2500000E+00  0.8333333E-01  0.1851852E-01
    1        3.236986   1.000000
    2        9.774008   1.000000
    3       10.903672   1.000000
    4       11.230654   1.000000
    5       13.781348   1.000000
    6       17.697735   0.000000
    7       18.534255   0.000000
    8       21.236804   0.000000
 
  0.4166667E+00  0.2500000E+00  0.8333333E-01  0.3703704E-01
    1        5.359765   1.000000
    2        7.844371   1.000000
    3       10.246369   1.000000
    4       12.695831   1.000000
    5       14.648148   1.000000
    6       15.932582   0.000000
    7       17.756738   0.000000
    8       18.974260   0.000000
 
 -0.4166667E+00  0.2500000E+00  0.8333333E-01  0.3703704E-01
    1        1.511839   1.000000
    2        8.662259   1.000000
    3       11.024287   1.000000
    4       12.435028   1.000000
    5       14.471147   1.000000
    6       18.901866   0.000000
    7       20.924670   0.000000
    8       22.459129   0.000000
 
 -0.2500000E+00  0.2500000E+00  0.8333333E-01  0.1851852E-01
    1       -0.673229   1.000000
    2        6.659705   1.000000
    3        9.565375   1.000000
    4       14.842129   0.999990
    5       21.110332   0.000000
    6       21.275622   0.000000
    7       23.061717   0.000000
    8       24.957713   0.000000
 
  0.4166667E+00  0.4166667E+00  0.8333333E-01  0.1851852E-01
    1        5.687499   1.000000
    2        5.870727   1.000000
    3       12.317384   1.000000
    4       13.130252   1.000000
    5       13.475506   1.000000
    6       15.839870   0.000000
    7       17.051197   0.000000
    8       20.862055   0.000000
 
 -0.4166667E+00  0.4166667E+00  0.8333333E-01  0.1851852E-01
    1        2.806373   1.000000
    2        7.770786   1.000000
    3       10.168258   1.000000
    4       12.992247   1.000000
    5       15.190881   0.251126
    6       17.800732   0.000000
    7       19.622556   0.000000
    8       22.380353   0.000000
 
  0.8333333E-01  0.8333333E-01  0.2500000E+00  0.1851852E-01
    1       -1.493399   1.000000
    2        2.986590   1.000000
    3       11.652956   1.000000
    4       20.968827   0.000000
    5       21.186165   0.000000
    6       23.874821   0.000000
    7       25.268700   0.000000
    8       25.381007   0.000000
 
  0.2500000E+00  0.8333333E-01  0.2500000E+00  0.3703704E-01
    1        0.703154   1.000000
    2        5.111906   1.000000
    3       12.913893   1.000000
    4       14.286408   1.000000
    5       17.400719   0.000000
    6       18.902313   0.000000
    7       22.497123   0.000000
    8       25.283999   0.000000
 
  0.4166667E+00  0.8333333E-01  0.2500000E+00  0.3703704E-01
    1        4.567354   1.000000
    2        6.990042   1.000000
    3        9.135761   1.000000
    4       11.487448   1.000000
    5       16.622791   0.000000
    6       18.047906   0.000000
    7       19.991365   0.000000
    8       21.860462   0.000000
 
 -0.4166667E+00  0.8333333E-01  0.2500000E+00  0.3703704E-01
    1        2.437035   1.000000
    2        6.746136   1.000000
    3       10.187500   1.000000
    4       14.151030   1.000000
    5       15.513769   0.000000
    6       17.964697   0.000000
    7       21.531540   0.000000
    8       23.143260   0.000000
 
 -0.2500000E+00  0.8333333E-01  0.2500000E+00  0.3703704E-01
    1       -0.611025   1.000000
    2        3.842417   1.000000
    3       12.409267   1.000000
    4       17.261008   0.000000
    5       19.463632   0.000000
    6       21.457670   0.000000
    7       23.622338   0.000000
    8       24.940079   0.000000
 
 -0.8333333E-01  0.8333333E-01  0.2500000E+00  0.1851852E-01
    1       -1.936476   1.000000
    2        2.556410   1.000000
    3       11.258099   1.000000
    4       22.692930   0.000000
    5       23.746348   0.000000
    6       24.511808   0.000000
    7       26.278155   0.000000
    8       27.867228   0.000000
 
  0.2500000E+00  0.2500000E+00  0.2500000E+00  0.1851852E-01
    1        3.723755   1.000000
    2        7.936924   1.000000
    3       11.346707   1.000000
    4       11.439636   1.000000
    5       15.171101   0.347821
    6       15.732907   0.000000
    7       17.826800   0.000000
    8       24.117285   0.000000
 
  0.4166667E+00  0.2500000E+00  0.2500000E+00  0.3703704E-01
    1        5.831245   1.000000
    2        8.207946   1.000000
    3       10.032047   1.000000
    4       11.211951   1.000000
    5       12.961708   1.000000
    6       15.199235   0.215031
    7       19.345772   0.000000
    8       21.607313   0.000000
 
 -0.4166667E+00  0.2500000E+00  0.2500000E+00  0.3703704E-01
    1        2.005900   1.000000
    2        6.358348   1.000000
    3       12.129903   1.000000
    4       14.233808   1.000000
    5       15.145455   0.488622
    6       17.132601   0.000000
    7       19.233483   0.000000
    8       24.904394   0.000000
 
 -0.2500000E+00  0.2500000E+00  0.2500000E+00  0.1851852E-01
    1       -0.171717   1.000000
    2        4.267595   1.000000
    3       12.718984   1.000000
    4       15.367584   0.000762
    5       19.257870   0.000000
    6       21.535335   0.000000
    7       23.303273   0.000000
    8       25.380701   0.000000
 
  0.4166667E+00  0.4166667E+00  0.2500000E+00  0.1851852E-01
    1        6.149699   1.000000
    2        6.325803   1.000000
    3       10.488260   1.000000
    4       10.813467   1.000000
    5       13.986756   1.000000
    6       17.573749   0.000000
    7       19.662663   0.000000
    8       20.119978   0.000000
 
 -0.4166667E+00  0.4166667E+00  0.2500000E+00  0.1851852E-01
    1        3.294580   1.000000
    2        7.364220   1.000000
    3        8.768500   1.000000
    4       12.687116   1.000000
    5       16.319940   0.000000
    6       20.047583   0.000000
    7       20.540174   0.000000
    8       22.991986   0.000000
 
  0.8333333E-01  0.8333333E-01  0.4166667E+00  0.1851852E-01
    1       -0.486779   1.000000
    2        1.011370   1.000000
    3       15.338177   0.002943
    4       19.262346   0.000000
    5       21.928619   0.000000
    6       22.110548   0.000000
    7       23.723599   0.000000
    8       23.811117   0.000000
 
  0.2500000E+00  0.8333333E-01  0.4166667E+00  0.3703704E-01
    1        1.695378   1.000000
    2        3.170799   1.000000
    3       14.286970   1.000000
    4       15.599300   0.000000
    5       17.479949   0.000000
    6       19.388360   0.000000
    7       20.843718   0.000000
    8       22.211102   0.000000
 
  0.4166667E+00  0.8333333E-01  0.4166667E+00  0.3703704E-01
    1        5.509155   1.000000
    2        6.782950   1.000000
    3        8.407660   1.000000
    4        9.659864   1.000000
    5       17.968188   0.000000
    6       19.198857   0.000000
    7       21.603911   0.000000
    8       23.577783   0.000000
 
 -0.4166667E+00  0.8333333E-01  0.4166667E+00  0.3703704E-01
    1        3.415320   1.000000
    2        4.864653   1.000000
    3       11.109015   1.000000
    4       12.487923   1.000000
    5       18.056159   0.000000
    6       19.125540   0.000000
    7       20.529406   0.000000
    8       23.324692   0.000000
 
 -0.2500000E+00  0.8333333E-01  0.4166667E+00  0.3703704E-01
    1        0.389990   1.000000
    2        1.879510   1.000000
    3       15.936674   0.000000
    4       18.043165   0.000000
    5       19.269902   0.000000
    6       19.869933   0.000000
    7       21.567497   0.000000
    8       22.366467   0.000000
 
 -0.8333333E-01  0.8333333E-01  0.4166667E+00  0.1851852E-01
    1       -0.927078   1.000000
    2        0.575300   1.000000
    3       14.977293   0.990604
    4       19.030023   0.000000
    5       23.989510   0.000000
    6       25.140854   0.000000
    7       25.341047   0.000000
    8       26.572798   0.000000
 
  0.2500000E+00  0.2500000E+00  0.4166667E+00  0.1851852E-01
    1        4.689573   1.000000
    2        6.114112   1.000000
    3       12.145484   1.000000
    4       12.205467   1.000000
    5       13.952481   1.000000
    6       14.059049   1.000000
    7       20.880209   0.000000
    8       24.580872   0.000000
 
  0.4166667E+00  0.2500000E+00  0.4166667E+00  0.3703704E-01
    1        6.751004   1.000000
    2        7.970875   1.000000
    3        9.621144   1.000000
    4       10.701389   1.000000
    5       12.325608   1.000000
    6       13.507895   1.000000
    7       22.751644   0.000000
    8       24.857167   0.000000
 
 -0.4166667E+00  0.2500000E+00  0.4166667E+00  0.3703704E-01
    1        2.988394   1.000000
    2        4.447063   1.000000
    3       13.098036   1.000000
    4       14.328190   1.000000
    5       15.725610   0.000000
    6       16.907864   0.000000
    7       19.601813   0.000000
    8       23.178854   0.000000
 
 -0.2500000E+00  0.2500000E+00  0.4166667E+00  0.1851852E-01
    1        0.826454   1.000000
    2        2.311458   1.000000
    3       15.584829   0.000000
    4       16.649827   0.000000
    5       17.820192   0.000000
    6       20.699732   0.000000
    7       22.386976   0.000000
    8       23.668090   0.000000
 
  0.4166667E+00  0.4166667E+00  0.4166667E+00  0.1851852E-01
    1        6.993294   1.000000
    2        7.132722   1.000000
    3        8.858350   1.000000
    4        9.027598   1.000000
    5       14.912791   0.999447
    6       16.243641   0.000000
    7       22.990329   0.000000
    8       23.189936   0.000000
 
 -0.4166667E+00  0.4166667E+00  0.4166667E+00  0.1851852E-01
    1        4.262504   1.000000
    2        5.682597   1.000000
    3        9.495210   1.000000
    4       10.873803   1.000000
    5       19.664411   0.000000
    6       20.899541   0.000000
    7       22.103503   0.000000
    8       22.181552   0.000000
