 vasp.5.4.1 24Jun15 (build Jul 19 2016 16:50:41) complex                        
  
 executed on           IFC91_ompi date 2019.10.10  11:11:16
 running on    4 total cores
 distrk:  each k-point on    4 cores,    1 groups
 distr:  one band on NCORES_PER_BAND=   1 cores,    4 groups


--------------------------------------------------------------------------------------------------------


 INCAR:
 POTCAR:    PAW_PBE Si 05Jan2001                  
 POTCAR:    PAW_PBE Si 05Jan2001                  
   VRHFIN = Si: s2p2                                                            
   LEXCH  = PE                                                                  
   EATOM  =   103.0669 eV,    7.5752 Ry                                         
                                                                                
   TITEL  = PAW_PBE Si 05Jan2001                                                
   LULTRA =        F    use ultrasoft PP ?                                      
   IUNSCR =        1    unscreen: 0-lin 1-nonlin 2-no                           
   RPACOR =    1.500    partial core radius                                     
   POMASS =   28.085; ZVAL   =    4.000    mass and valenz                      
   RCORE  =    1.900    outmost cutoff radius                                   
   RWIGS  =    2.480; RWIGS  =    1.312    wigner-seitz radius (au A)           
   ENMAX  =  245.345; ENMIN  =  184.009 eV                                      
   ICORE  =        2    local potential                                         
   LCOR   =        T    correct aug charges                                     
   LPAW   =        T    paw PP                                                  
   EAUG   =  322.069                                                            
   DEXC   =    0.000                                                            
   RMAX   =    1.950    core radius for proj-oper                               
   RAUG   =    1.300    factor for augmentation sphere                          
   RDEP   =    1.993    radius for radial grids                                 
   RDEPT  =    1.837    core radius for aug-charge                              
                                                                                
   Atomic configuration                                                         
    6 entries                                                                   
     n  l   j            E        occ.                                          
     1  0  0.50     -1785.8828   2.0000                                         
     2  0  0.50      -139.4969   2.0000                                         
     2  1  1.50       -95.5546   6.0000                                         
     3  0  0.50       -10.8127   2.0000                                         
     3  1  0.50        -4.0811   2.0000                                         
     3  2  1.50        -4.0817   0.0000                                         
   Description                                                                  
     l       E           TYP  RCUT    TYP  RCUT                                 
     0    -10.8127223     23  1.900                                             
     0     -7.6451159     23  1.900                                             
     1     -4.0811372     23  1.900                                             
     1      2.4879257     23  1.900                                             
     2     -4.0817478      7  1.900                                             
  local pseudopotential read in
  partial core-charges read in
  partial kinetic energy density read in
  atomic valenz-charges read in
  non local Contribution for L=           0  read in
    real space projection operators read in
  non local Contribution for L=           0  read in
    real space projection operators read in
  non local Contribution for L=           1  read in
    real space projection operators read in
  non local Contribution for L=           1  read in
    real space projection operators read in
    PAW grid and wavefunctions read in
 
   number of l-projection  operators is LMAX  =           4
   number of lm-projection operators is LMMAX =           8
 
  PAW_PBE Si 05Jan2001                  :
 energy of atom  1       EATOM= -103.0669
 kinetic energy error for atom=    0.0009 (will be added to EATOM!!)
 
 
 POSCAR: Si HCP                                  
  positions in direct lattice
  No initial velocities read in
 exchange correlation table for  LEXCH =        8
   RHO(1)=    0.500       N(1)  =     2000
   RHO(2)=  100.500       N(2)  =     4000
 


--------------------------------------------------------------------------------------------------------


 ion  position               nearest neighbor table
   1  0.000  0.000  0.000-   2 2.45   2 2.45   2 2.45   2 2.45   2 2.45   2 2.45
   2  0.333  0.667  0.500-   1 2.45   1 2.45   1 2.45   1 2.45   1 2.45   1 2.45
 
  LATTYP: Found a hexagonal cell.
 ALAT       =     2.4500000000
 C/A-ratio  =     1.6329900000
  
  Lattice vectors:
  
 A1 = (   2.4500000000,   0.0000000000,   0.0000000000)
 A2 = (  -1.2250000000,   2.1217622393,   0.0000000000)
 A3 = (   0.0000000000,   0.0000000000,   4.0008255000)


Analysis of symmetry for initial positions (statically):
=====================================================================
 Subroutine PRICEL returns:
 Original cell was already a primitive cell.
 

 Routine SETGRP: Setting up the symmetry group for a 
 hexagonal supercell.


 Subroutine GETGRP returns: Found 24 space group operations
 (whereof 12 operations were pure point group operations)
 out of a pool of 24 trial point group operations.


The static configuration has the point symmetry D_3h.
 The point group associated with its full space group is D_6h.


Analysis of symmetry for dynamics (positions and initial velocities):
=====================================================================
 Subroutine PRICEL returns:
 Original cell was already a primitive cell.
 

 Routine SETGRP: Setting up the symmetry group for a 
 hexagonal supercell.


 Subroutine GETGRP returns: Found 24 space group operations
 (whereof 12 operations were pure point group operations)
 out of a pool of 24 trial point group operations.


The dynamic configuration has the point symmetry D_3h.
 The point group associated with its full space group is D_6h.


 Subroutine INISYM returns: Found 24 space group operations
 (whereof 12 operations are pure point group operations),
 and found     1 'primitive' translations

 
 
 KPOINTS: K-Points                                

Automatic generation of k-mesh.
Space group operators:
 irot       det(A)        alpha          n_x          n_y          n_z        tau_x        tau_y        tau_z
    1     1.000000     0.000000     1.000000     0.000000     0.000000     0.000000     0.000000     0.000000
    2    -1.000000    60.000000     0.000000     0.000000    -1.000000     0.000000     0.000000     0.000000
    3     1.000000   120.000000     0.000000     0.000000    -1.000000     0.000000     0.000000     0.000000
    4    -1.000000   180.000000     0.000000     0.000000     1.000000     0.000000     0.000000     0.000000
    5     1.000000   120.000000     0.000000     0.000000     1.000000     0.000000     0.000000     0.000000
    6    -1.000000    60.000000     0.000000     0.000000     1.000000     0.000000     0.000000     0.000000
    7    -1.000000   180.000000     1.000000     0.000000     0.000000     0.000000     0.000000     0.000000
    8     1.000000   180.000000     0.866025    -0.500000     0.000000     0.000000     0.000000     0.000000
    9    -1.000000   180.000000     0.500000    -0.866025     0.000000     0.000000     0.000000     0.000000
   10     1.000000   180.000000     0.000000     1.000000     0.000000     0.000000     0.000000     0.000000
   11    -1.000000   180.000000    -0.500000    -0.866025     0.000000     0.000000     0.000000     0.000000
   12     1.000000   180.000000     0.866025     0.500000     0.000000     0.000000     0.000000     0.000000
   13    -1.000000     0.000000     1.000000     0.000000     0.000000     0.333333     0.666667     0.500000
   14     1.000000    60.000000     0.000000     0.000000    -1.000000     0.333333     0.666667     0.500000
   15    -1.000000   120.000000     0.000000     0.000000    -1.000000     0.333333     0.666667     0.500000
   16     1.000000   180.000000     0.000000     0.000000     1.000000     0.333333     0.666667     0.500000
   17    -1.000000   120.000000     0.000000     0.000000     1.000000     0.333333     0.666667     0.500000
   18     1.000000    60.000000     0.000000     0.000000     1.000000     0.333333     0.666667     0.500000
   19     1.000000   180.000000     1.000000     0.000000     0.000000     0.333333     0.666667     0.500000
   20    -1.000000   180.000000     0.866025    -0.500000     0.000000     0.333333     0.666667     0.500000
   21     1.000000   180.000000     0.500000    -0.866025     0.000000     0.333333     0.666667     0.500000
   22    -1.000000   180.000000     0.000000     1.000000     0.000000     0.333333     0.666667     0.500000
   23     1.000000   180.000000    -0.500000    -0.866025     0.000000     0.333333     0.666667     0.500000
   24    -1.000000   180.000000     0.866025     0.500000     0.000000     0.333333     0.666667     0.500000
 
 Subroutine IBZKPT returns following result:
 ===========================================
 
 Found     36 irreducible k-points:
 
 Following reciprocal coordinates:
            Coordinates               Weight
  0.083333  0.083333  0.083333     96.000000
  0.250000  0.083333  0.083333    192.000000
  0.416667  0.083333  0.083333    192.000000
 -0.416667  0.083333  0.083333    192.000000
 -0.250000  0.083333  0.083333    192.000000
 -0.083333  0.083333  0.083333     96.000000
  0.250000  0.250000  0.083333     96.000000
  0.416667  0.250000  0.083333    192.000000
 -0.416667  0.250000  0.083333    192.000000
 -0.250000  0.250000  0.083333     96.000000
  0.416667  0.416667  0.083333     96.000000
 -0.416667  0.416667  0.083333     96.000000
  0.083333  0.083333  0.250000     96.000000
  0.250000  0.083333  0.250000    192.000000
  0.416667  0.083333  0.250000    192.000000
 -0.416667  0.083333  0.250000    192.000000
 -0.250000  0.083333  0.250000    192.000000
 -0.083333  0.083333  0.250000     96.000000
  0.250000  0.250000  0.250000     96.000000
  0.416667  0.250000  0.250000    192.000000
 -0.416667  0.250000  0.250000    192.000000
 -0.250000  0.250000  0.250000     96.000000
  0.416667  0.416667  0.250000     96.000000
 -0.416667  0.416667  0.250000     96.000000
  0.083333  0.083333  0.416667     96.000000
  0.250000  0.083333  0.416667    192.000000
  0.416667  0.083333  0.416667    192.000000
 -0.416667  0.083333  0.416667    192.000000
 -0.250000  0.083333  0.416667    192.000000
 -0.083333  0.083333  0.416667     96.000000
  0.250000  0.250000  0.416667     96.000000
  0.416667  0.250000  0.416667    192.000000
 -0.416667  0.250000  0.416667    192.000000
 -0.250000  0.250000  0.416667     96.000000
  0.416667  0.416667  0.416667     96.000000
 -0.416667  0.416667  0.416667     96.000000
 
 Following cartesian coordinates:
            Coordinates               Weight
  0.083333  0.144338  0.051031     96.000000
  0.250000  0.240563  0.051031    192.000000
  0.416667  0.336788  0.051031    192.000000
 -0.416667 -0.144338  0.051031    192.000000
 -0.250000 -0.048113  0.051031    192.000000
 -0.083333  0.048113  0.051031     96.000000
  0.250000  0.433013  0.051031     96.000000
  0.416667  0.529238  0.051031    192.000000
 -0.416667  0.048113  0.051031    192.000000
 -0.250000  0.144338  0.051031     96.000000
  0.416667  0.721688  0.051031     96.000000
 -0.416667  0.240563  0.051031     96.000000
  0.083333  0.144338  0.153093     96.000000
  0.250000  0.240563  0.153093    192.000000
  0.416667  0.336788  0.153093    192.000000
 -0.416667 -0.144338  0.153093    192.000000
 -0.250000 -0.048113  0.153093    192.000000
 -0.083333  0.048113  0.153093     96.000000
  0.250000  0.433013  0.153093     96.000000
  0.416667  0.529238  0.153093    192.000000
 -0.416667  0.048113  0.153093    192.000000
 -0.250000  0.144338  0.153093     96.000000
  0.416667  0.721688  0.153093     96.000000
 -0.416667  0.240563  0.153093     96.000000
  0.083333  0.144338  0.255156     96.000000
  0.250000  0.240563  0.255156    192.000000
  0.416667  0.336788  0.255156    192.000000
 -0.416667 -0.144338  0.255156    192.000000
 -0.250000 -0.048113  0.255156    192.000000
 -0.083333  0.048113  0.255156     96.000000
  0.250000  0.433013  0.255156     96.000000
  0.416667  0.529238  0.255156    192.000000
 -0.416667  0.048113  0.255156    192.000000
 -0.250000  0.144338  0.255156     96.000000
  0.416667  0.721688  0.255156     96.000000
 -0.416667  0.240563  0.255156     96.000000
 


--------------------------------------------------------------------------------------------------------




 Dimension of arrays:
   k-points           NKPTS =     36   k-points in BZ     NKDIM =     36   number of bands    NBANDS=      8
   number of dos      NEDOS =    301   number of ions     NIONS =      2
   non local maximal  LDIM  =      4   non local SUM 2l+1 LMDIM =      8
   total plane-waves  NPLWV =   9072
   max r-space proj   IRMAX =      1   max aug-charges    IRDMAX=  14782
   dimension x,y,z NGX =    18 NGY =   18 NGZ =   28
   dimension x,y,z NGXF=    36 NGYF=   36 NGZF=   56
   support grid    NGXF=    36 NGYF=   36 NGZF=   56
   ions per type =               2
 NGX,Y,Z   is equivalent  to a cutoff of  12.21, 12.21, 11.63 a.u.
 NGXF,Y,Z  is equivalent  to a cutoff of  24.43, 24.43, 23.27 a.u.


 I would recommend the setting:
   dimension x,y,z NGX =    17 NGY =   17 NGZ =   28
 SYSTEM =  Si beta-tin                             
 POSCAR =  Si HCP                                  

 Startparameter for this run:
   NWRITE =      2    write-flag & timer
   PREC   = accura    normal or accurate (medium, high low for compatibility)
   ISTART =      0    job   : 0-new  1-cont  2-samecut
   ICHARG =      2    charge: 1-file 2-atom 10-const
   ISPIN  =      1    spin polarized calculation?
   LNONCOLLINEAR =      F non collinear calculations
   LSORBIT =      F    spin-orbit coupling
   INIWAV =      1    electr: 0-lowe 1-rand  2-diag
   LASPH  =      F    aspherical Exc in radial PAW
   METAGGA=      F    non-selfconsistent MetaGGA calc.

 Electronic Relaxation 1
   ENCUT  =  450.0 eV  33.07 Ry    5.75 a.u.   4.24  4.24  6.92*2*pi/ulx,y,z
   ENINI  =  450.0     initial cutoff
   ENAUG  =  322.1 eV  augmentation charge cutoff
   NELM   =     60;   NELMIN=  2; NELMDL= -5     # of ELM steps 
   EDIFF  = 0.1E-04   stopping-criterion for ELM
   LREAL  =      F    real-space projection
   NLSPLINE    = F    spline interpolate recip. space projectors
   LCOMPAT=      F    compatible to vasp.4.4
   GGA_COMPAT  = T    GGA compatible to vasp.4.4-vasp.4.6
   LMAXPAW     = -100 max onsite density
   LMAXMIX     =    2 max onsite mixed and CHGCAR
   VOSKOWN=      0    Vosko Wilk Nusair interpolation
   ROPT   =    0.00000
 Ionic relaxation
   EDIFFG = -.1E-01   stopping-criterion for IOM
   NSW    =    100    number of steps for IOM
   NBLOCK =      1;   KBLOCK =    100    inner block; outer block 
   IBRION =      2    ionic relax: 0-MD 1-quasi-New 2-CG
   NFREE  =      1    steps in history (QN), initial steepest desc. (CG)
   ISIF   =      4    stress and relaxation
   IWAVPR =     11    prediction:  0-non 1-charg 2-wave 3-comb
   ISYM   =      2    0-nonsym 1-usesym 2-fastsym
   LCORR  =      T    Harris-Foulkes like correction to forces

   POTIM  = 0.5000    time-step for ionic-motion
   TEIN   =    0.0    initial temperature
   TEBEG  =    0.0;   TEEND  =   0.0 temperature during run
   SMASS  =  -3.00    Nose mass-parameter (am)
   estimated Nose-frequenzy (Omega)   =  0.10E-29 period in steps =****** mass=  -0.137E-27a.u.
   SCALEE = 1.0000    scale energy and forces
   NPACO  =    256;   APACO  = 16.0  distance and # of slots for P.C.
   PSTRESS=    0.0 pullay stress

  Mass of Ions in am
   POMASS =  28.09
  Ionic Valenz
   ZVAL   =   4.00
  Atomic Wigner-Seitz radii
   RWIGS  =  -1.00
  virtual crystal weights 
   VCA    =   1.00
   NELECT =       8.0000    total number of electrons
   NUPDOWN=      -1.0000    fix difference up-down

 DOS related values:
   EMIN   =  10.00;   EMAX   =-10.00  energy-range for DOS
   EFERMI =   0.00
   ISMEAR =     0;   SIGMA  =   0.10  broadening in eV -4-tet -1-fermi 0-gaus

 Electronic relaxation 2 (details)
   IALGO  =     38    algorithm
   LDIAG  =      T    sub-space diagonalisation (order eigenvalues)
   LSUBROT=      F    optimize rotation matrix (better conditioning)
   TURBO    =      0    0=normal 1=particle mesh
   IRESTART =      0    0=no restart 2=restart with 2 vectors
   NREBOOT  =      0    no. of reboots
   NMIN     =      0    reboot dimension
   EREF     =   0.00    reference energy to select bands
   IMIX   =      4    mixing-type and parameters
     AMIX     =   0.40;   BMIX     =  1.00
     AMIX_MAG =   1.60;   BMIX_MAG =  1.00
     AMIN     =   0.10
     WC   =   100.;   INIMIX=   1;  MIXPRE=   1;  MAXMIX= -45

 Intra band minimization:
   WEIMIN = 0.0010     energy-eigenvalue tresh-hold
   EBREAK =  0.31E-06  absolut break condition
   DEPER  =   0.30     relativ break condition  

   TIME   =   0.40     timestep for ELM

  volume/ion in A,a.u.               =      10.40        70.17
  Fermi-wavevector in a.u.,A,eV,Ry     =   1.190604  2.249915 19.286776  1.417538
  Thomas-Fermi vector in A             =   2.326685
 
 Write flags
   LWAVE  =      T    write WAVECAR
   LCHARG =      T    write CHGCAR
   LVTOT  =      F    write LOCPOT, total local potential
   LVHAR  =      F    write LOCPOT, Hartree potential only
   LELF   =      F    write electronic localiz. function (ELF)
   LORBIT =      0    0 simple, 1 ext, 2 COOP (PROOUT)


 Dipole corrections
   LMONO  =      F    monopole corrections only (constant potential shift)
   LDIPOL =      F    correct potential (dipole corrections)
   IDIPOL =      0    1-x, 2-y, 3-z, 4-all directions 
   EPSILON=  1.0000000 bulk dielectric constant

 Exchange correlation treatment:
   GGA     =    --    GGA type
   LEXCH   =     8    internal setting for exchange type
   VOSKOWN=      0    Vosko Wilk Nusair interpolation
   LHFCALC =     F    Hartree Fock is set to
   LHFONE  =     F    Hartree Fock one center treatment
   AEXX    =    0.0000 exact exchange contribution

 Linear response parameters
   LEPSILON=     F    determine dielectric tensor
   LRPA    =     F    only Hartree local field effects (RPA)
   LNABLA  =     F    use nabla operator in PAW spheres
   LVEL    =     F    velocity operator in full k-point grid
   LINTERFAST=   F  fast interpolation
   KINTER  =     0    interpolate to denser k-point grid
   CSHIFT  =0.1000    complex shift for real part using Kramers Kronig
   OMEGAMAX=  -1.0    maximum frequency
   DEG_THRESHOLD= 0.2000000E-02 threshold for treating states as degnerate
   RTIME   =    0.100 relaxation time in fs

 Orbital magnetization related:
   ORBITALMAG=     F  switch on orbital magnetization
   LCHIMAG   =     F  perturbation theory with respect to B field
   DQ        =  0.001000  dq finite difference perturbation B field



--------------------------------------------------------------------------------------------------------


 conjugate gradient relaxation of ions
 charge density and potential will be updated during run
 non-spin polarized calculation
 Variant of blocked Davidson
 Davidson routine will perform the subspace rotation
 perform sub-space diagonalisation
    after iterative eigenvector-optimisation
 modified Broyden-mixing scheme, WC =      100.0
 initial mixing is a Kerker type mixing with AMIX =  0.4000 and BMIX =      1.0000
 Hartree-type preconditioning will be used
 using additional bands            4
 reciprocal scheme for non local part
 use partial core corrections
 calculate Harris-corrections to forces 
   (improved forces if not selfconsistent)
 use gradient corrections 
 use of overlap-Matrix (Vanderbilt PP)
 Gauss-broadening in eV      SIGMA  =   0.10


--------------------------------------------------------------------------------------------------------


  energy-cutoff  :      450.00
  volume of cell :       20.80
      direct lattice vectors                 reciprocal lattice vectors
     2.450000000  0.000000000  0.000000000     0.408163265  0.235653171  0.000000000
    -1.225000000  2.121762239  0.000000000     0.000000000  0.471306342  0.000000000
     0.000000000  0.000000000  4.000825500     0.000000000  0.000000000  0.249948417

  length of vectors
     2.450000000  2.450000000  4.000825500     0.471306342  0.471306342  0.249948417


 
 k-points in units of 2pi/SCALE and weight: K-Points                                
   0.08333333  0.14433757  0.05103114       0.019
   0.25000000  0.24056261  0.05103114       0.037
   0.41666667  0.33678766  0.05103114       0.037
  -0.41666667 -0.14433757  0.05103114       0.037
  -0.25000000 -0.04811252  0.05103114       0.037
  -0.08333333  0.04811252  0.05103114       0.019
   0.25000000  0.43301270  0.05103114       0.019
   0.41666667  0.52923775  0.05103114       0.037
  -0.41666667  0.04811252  0.05103114       0.037
  -0.25000000  0.14433757  0.05103114       0.019
   0.41666667  0.72168784  0.05103114       0.019
  -0.41666667  0.24056261  0.05103114       0.019
   0.08333333  0.14433757  0.15309341       0.019
   0.25000000  0.24056261  0.15309341       0.037
   0.41666667  0.33678766  0.15309341       0.037
  -0.41666667 -0.14433757  0.15309341       0.037
  -0.25000000 -0.04811252  0.15309341       0.037
  -0.08333333  0.04811252  0.15309341       0.019
   0.25000000  0.43301270  0.15309341       0.019
   0.41666667  0.52923775  0.15309341       0.037
  -0.41666667  0.04811252  0.15309341       0.037
  -0.25000000  0.14433757  0.15309341       0.019
   0.41666667  0.72168784  0.15309341       0.019
  -0.41666667  0.24056261  0.15309341       0.019
   0.08333333  0.14433757  0.25515568       0.019
   0.25000000  0.24056261  0.25515568       0.037
   0.41666667  0.33678766  0.25515568       0.037
  -0.41666667 -0.14433757  0.25515568       0.037
  -0.25000000 -0.04811252  0.25515568       0.037
  -0.08333333  0.04811252  0.25515568       0.019
   0.25000000  0.43301270  0.25515568       0.019
   0.41666667  0.52923775  0.25515568       0.037
  -0.41666667  0.04811252  0.25515568       0.037
  -0.25000000  0.14433757  0.25515568       0.019
   0.41666667  0.72168784  0.25515568       0.019
  -0.41666667  0.24056261  0.25515568       0.019
 
 k-points in reciprocal lattice and weights: K-Points                                
   0.08333333  0.08333333  0.08333333       0.019
   0.25000000  0.08333333  0.08333333       0.037
   0.41666667  0.08333333  0.08333333       0.037
  -0.41666667  0.08333333  0.08333333       0.037
  -0.25000000  0.08333333  0.08333333       0.037
  -0.08333333  0.08333333  0.08333333       0.019
   0.25000000  0.25000000  0.08333333       0.019
   0.41666667  0.25000000  0.08333333       0.037
  -0.41666667  0.25000000  0.08333333       0.037
  -0.25000000  0.25000000  0.08333333       0.019
   0.41666667  0.41666667  0.08333333       0.019
  -0.41666667  0.41666667  0.08333333       0.019
   0.08333333  0.08333333  0.25000000       0.019
   0.25000000  0.08333333  0.25000000       0.037
   0.41666667  0.08333333  0.25000000       0.037
  -0.41666667  0.08333333  0.25000000       0.037
  -0.25000000  0.08333333  0.25000000       0.037
  -0.08333333  0.08333333  0.25000000       0.019
   0.25000000  0.25000000  0.25000000       0.019
   0.41666667  0.25000000  0.25000000       0.037
  -0.41666667  0.25000000  0.25000000       0.037
  -0.25000000  0.25000000  0.25000000       0.019
   0.41666667  0.41666667  0.25000000       0.019
  -0.41666667  0.41666667  0.25000000       0.019
   0.08333333  0.08333333  0.41666667       0.019
   0.25000000  0.08333333  0.41666667       0.037
   0.41666667  0.08333333  0.41666667       0.037
  -0.41666667  0.08333333  0.41666667       0.037
  -0.25000000  0.08333333  0.41666667       0.037
  -0.08333333  0.08333333  0.41666667       0.019
   0.25000000  0.25000000  0.41666667       0.019
   0.41666667  0.25000000  0.41666667       0.037
  -0.41666667  0.25000000  0.41666667       0.037
  -0.25000000  0.25000000  0.41666667       0.019
   0.41666667  0.41666667  0.41666667       0.019
  -0.41666667  0.41666667  0.41666667       0.019
 
 position of ions in fractional coordinates (direct lattice) 
   0.00000000  0.00000000  0.00000000
   0.33333333  0.66666667  0.50000000
 
 position of ions in cartesian coordinates  (Angst):
   0.00000000  0.00000000  0.00000000
  -0.00000000  1.41450816  2.00041275
 


--------------------------------------------------------------------------------------------------------


 k-point  1 :   0.0833 0.0833 0.0833  plane waves:     445
 k-point  2 :   0.2500 0.0833 0.0833  plane waves:     450
 k-point  3 :   0.4167 0.0833 0.0833  plane waves:     450
 k-point  4 :  -0.4167 0.0833 0.0833  plane waves:     451
 k-point  5 :  -0.2500 0.0833 0.0833  plane waves:     450
 k-point  6 :  -0.0833 0.0833 0.0833  plane waves:     444
 k-point  7 :   0.2500 0.2500 0.0833  plane waves:     446
 k-point  8 :   0.4167 0.2500 0.0833  plane waves:     453
 k-point  9 :  -0.4167 0.2500 0.0833  plane waves:     449
 k-point 10 :  -0.2500 0.2500 0.0833  plane waves:     446
 k-point 11 :   0.4167 0.4167 0.0833  plane waves:     448
 k-point 12 :  -0.4167 0.4167 0.0833  plane waves:     448
 k-point 13 :   0.0833 0.0833 0.2500  plane waves:     451
 k-point 14 :   0.2500 0.0833 0.2500  plane waves:     450
 k-point 15 :   0.4167 0.0833 0.2500  plane waves:     454
 k-point 16 :  -0.4167 0.0833 0.2500  plane waves:     450
 k-point 17 :  -0.2500 0.0833 0.2500  plane waves:     448
 k-point 18 :  -0.0833 0.0833 0.2500  plane waves:     453
 k-point 19 :   0.2500 0.2500 0.2500  plane waves:     454
 k-point 20 :   0.4167 0.2500 0.2500  plane waves:     454
 k-point 21 :  -0.4167 0.2500 0.2500  plane waves:     447
 k-point 22 :  -0.2500 0.2500 0.2500  plane waves:     447
 k-point 23 :   0.4167 0.4167 0.2500  plane waves:     452
 k-point 24 :  -0.4167 0.4167 0.2500  plane waves:     453
 k-point 25 :   0.0833 0.0833 0.4167  plane waves:     462
 k-point 26 :   0.2500 0.0833 0.4167  plane waves:     448
 k-point 27 :   0.4167 0.0833 0.4167  plane waves:     453
 k-point 28 :  -0.4167 0.0833 0.4167  plane waves:     450
 k-point 29 :  -0.2500 0.0833 0.4167  plane waves:     449
 k-point 30 :  -0.0833 0.0833 0.4167  plane waves:     464
 k-point 31 :   0.2500 0.2500 0.4167  plane waves:     451
 k-point 32 :   0.4167 0.2500 0.4167  plane waves:     452
 k-point 33 :  -0.4167 0.2500 0.4167  plane waves:     450
 k-point 34 :  -0.2500 0.2500 0.4167  plane waves:     447
 k-point 35 :   0.4167 0.4167 0.4167  plane waves:     458
 k-point 36 :  -0.4167 0.4167 0.4167  plane waves:     450

 maximum and minimum number of plane-waves per node :       464      444

 maximum number of plane-waves:       464
 maximum index in each direction: 
   IXMAX=    4   IYMAX=    4   IZMAX=    6
   IXMIN=   -4   IYMIN=   -4   IZMIN=   -7

 NGX is ok and might be reduce to  18
 NGY is ok and might be reduce to  18
 NGZ is ok and might be reduce to  28

 serial   3D FFT for wavefunctions
 parallel 3D FFT for charge:
    minimum data exchange during FFTs selected (reduces bandwidth)


 total amount of memory used by VASP on root node    33569. kBytes
========================================================================

   base      :      30000. kBytes
   nonl-proj :       1083. kBytes
   fftplans  :        669. kBytes
   grid      :       1259. kBytes
   one-center:          6. kBytes
   wavefun   :        552. kBytes
 
     INWAV:  cpu time    0.0000: real time    0.0000
 Broyden mixing: mesh for mixing (old mesh)
   NGX =  9   NGY =  9   NGZ = 13
  (NGX  = 36   NGY  = 36   NGZ  = 56)
  gives a total of   1053 points

 initial charge density was supplied:
 charge density of overlapping atoms calculated
 number of electron       8.0000000 magnetization 
 keeping initial charge density in first step


--------------------------------------------------------------------------------------------------------


 Maximum index for augmentation-charges         3563 (set IRDMAX)


--------------------------------------------------------------------------------------------------------


 First call to EWALD:  gamma=   0.645
 Maximum number of real-space cells 3x 3x 2
 Maximum number of reciprocal cells 3x 3x 4

 FEWALD executed in parallel
    FEWALD:  cpu time    0.0020: real time    0.0010


----------------------------------------- Iteration    1(   1)  ---------------------------------------


    POTLOK:  cpu time    0.0460: real time    0.0242
    SETDIJ:  cpu time    0.0050: real time    0.0027
     EDDAV:  cpu time    1.7637: real time    1.0863
       DOS:  cpu time    0.0020: real time    0.0012
    --------------------------------------------
      LOOP:  cpu time    1.8197: real time    1.1170

 eigenvalue-minimisations  :   592
 total energy-change (2. order) : 0.4948940E+01  (-0.3630816E+03)
 number of electron       8.0000000 magnetization 
 augmentation part        8.0000000 magnetization 

 Free energy of the ion-electron system (eV)
  ---------------------------------------------------
  alpha Z        PSCENC =         6.47443814
  Ewald energy   TEWEN  =      -304.86272823
  -Hartree energ DENC   =        -0.38823032
  -exchange      EXHF   =         0.00000000
  -V(xc)+E(xc)   XCENC  =       -15.70301138
  PAW double counting   =       176.24759923     -141.06103558
  entropy T*S    EENTRO =        -0.00217263
  eigenvalues    EBANDS =        78.11215323
  atomic energy  EATOM  =       206.13192747
  Solvation  Ediel_sol  =         0.00000000
  ---------------------------------------------------
  free energy    TOTEN  =         4.94893992 eV

  energy without entropy =        4.95111255  energy(sigma->0) =        4.95002623


--------------------------------------------------------------------------------------------------------




----------------------------------------- Iteration    1(   2)  ---------------------------------------


     EDDAV:  cpu time    2.0447: real time    1.2688
       DOS:  cpu time    0.0010: real time    0.0009
    --------------------------------------------
      LOOP:  cpu time    2.0487: real time    1.2724

 eigenvalue-minimisations  :   848
 total energy-change (2. order) :-0.1364948E+02  (-0.1305594E+02)
 number of electron       8.0000000 magnetization 
 augmentation part        8.0000000 magnetization 

 Free energy of the ion-electron system (eV)
  ---------------------------------------------------
  alpha Z        PSCENC =         6.47443814
  Ewald energy   TEWEN  =      -304.86272823
  -Hartree energ DENC   =        -0.38823032
  -exchange      EXHF   =         0.00000000
  -V(xc)+E(xc)   XCENC  =       -15.70301138
  PAW double counting   =       176.24759923     -141.06103558
  entropy T*S    EENTRO =        -0.00519937
  eigenvalues    EBANDS =        64.46569770
  atomic energy  EATOM  =       206.13192747
  Solvation  Ediel_sol  =         0.00000000
  ---------------------------------------------------
  free energy    TOTEN  =        -8.70054234 eV

  energy without entropy =       -8.69534297  energy(sigma->0) =       -8.69794266


--------------------------------------------------------------------------------------------------------




----------------------------------------- Iteration    1(   3)  ---------------------------------------


     EDDAV:  cpu time    1.2718: real time    0.7967
       DOS:  cpu time    0.0020: real time    0.0010
    --------------------------------------------
      LOOP:  cpu time    1.2788: real time    0.8000

 eigenvalue-minimisations  :   720
 total energy-change (2. order) :-0.1459535E+00  (-0.1457267E+00)
 number of electron       8.0000000 magnetization 
 augmentation part        8.0000000 magnetization 

 Free energy of the ion-electron system (eV)
  ---------------------------------------------------
  alpha Z        PSCENC =         6.47443814
  Ewald energy   TEWEN  =      -304.86272823
  -Hartree energ DENC   =        -0.38823032
  -exchange      EXHF   =         0.00000000
  -V(xc)+E(xc)   XCENC  =       -15.70301138
  PAW double counting   =       176.24759923     -141.06103558
  entropy T*S    EENTRO =        -0.00572594
  eigenvalues    EBANDS =        64.32027076
  atomic energy  EATOM  =       206.13192747
  Solvation  Ediel_sol  =         0.00000000
  ---------------------------------------------------
  free energy    TOTEN  =        -8.84649585 eV

  energy without entropy =       -8.84076992  energy(sigma->0) =       -8.84363288


--------------------------------------------------------------------------------------------------------




----------------------------------------- Iteration    1(   4)  ---------------------------------------


     EDDAV:  cpu time    1.9097: real time    1.2314
       DOS:  cpu time    0.0020: real time    0.0010
    --------------------------------------------
      LOOP:  cpu time    1.9147: real time    1.2351

 eigenvalue-minimisations  :   912
 total energy-change (2. order) :-0.2285539E-03  (-0.2285089E-03)
 number of electron       8.0000000 magnetization 
 augmentation part        8.0000000 magnetization 

 Free energy of the ion-electron system (eV)
  ---------------------------------------------------
  alpha Z        PSCENC =         6.47443814
  Ewald energy   TEWEN  =      -304.86272823
  -Hartree energ DENC   =        -0.38823032
  -exchange      EXHF   =         0.00000000
  -V(xc)+E(xc)   XCENC  =       -15.70301138
  PAW double counting   =       176.24759923     -141.06103558
  entropy T*S    EENTRO =        -0.00573447
  eigenvalues    EBANDS =        64.32005073
  atomic energy  EATOM  =       206.13192747
  Solvation  Ediel_sol  =         0.00000000
  ---------------------------------------------------
  free energy    TOTEN  =        -8.84672441 eV

  energy without entropy =       -8.84098994  energy(sigma->0) =       -8.84385717


--------------------------------------------------------------------------------------------------------




----------------------------------------- Iteration    1(   5)  ---------------------------------------


     EDDAV:  cpu time    1.2698: real time    0.8110
       DOS:  cpu time    0.0010: real time    0.0009
    CHARGE:  cpu time    0.0240: real time    0.0149
    MIXING:  cpu time    0.0030: real time    0.0015
    --------------------------------------------
      LOOP:  cpu time    1.3038: real time    0.8311

 eigenvalue-minimisations  :   768
 total energy-change (2. order) :-0.1775377E-06  (-0.1769922E-06)
 number of electron       8.0000002 magnetization 
 augmentation part       -0.4630037 magnetization 

 Broyden mixing:
  rms(total) = 0.71242E+00    rms(broyden)= 0.71242E+00
  rms(prec ) = 0.76352E+00
  weight for this iteration     100.00

 Free energy of the ion-electron system (eV)
  ---------------------------------------------------
  alpha Z        PSCENC =         6.47443814
  Ewald energy   TEWEN  =      -304.86272823
  -Hartree energ DENC   =        -0.38823032
  -exchange      EXHF   =         0.00000000
  -V(xc)+E(xc)   XCENC  =       -15.70301138
  PAW double counting   =       176.24759923     -141.06103558
  entropy T*S    EENTRO =        -0.00573447
  eigenvalues    EBANDS =        64.32005056
  atomic energy  EATOM  =       206.13192747
  Solvation  Ediel_sol  =         0.00000000
  ---------------------------------------------------
  free energy    TOTEN  =        -8.84672459 eV

  energy without entropy =       -8.84099011  energy(sigma->0) =       -8.84385735


--------------------------------------------------------------------------------------------------------




----------------------------------------- Iteration    1(   6)  ---------------------------------------


    POTLOK:  cpu time    0.0430: real time    0.0262
    SETDIJ:  cpu time    0.0050: real time    0.0021
     EDDAV:  cpu time    1.1148: real time    0.7290
       DOS:  cpu time    0.0030: real time    0.0012
    CHARGE:  cpu time    0.0180: real time    0.0091
    MIXING:  cpu time    0.0030: real time    0.0015
    --------------------------------------------
      LOOP:  cpu time    1.1898: real time    0.7713

 eigenvalue-minimisations  :   664
 total energy-change (2. order) : 0.4760284E-01  (-0.6082516E-03)
 number of electron       8.0000002 magnetization 
 augmentation part       -0.4664323 magnetization 

 Broyden mixing:
  rms(total) = 0.39986E+00    rms(broyden)= 0.39986E+00
  rms(prec ) = 0.43321E+00
  weight for this iteration     100.00

 eigenvalues of (default mixing * dielectric matrix)
  average eigenvalue GAMMA=   2.2730
  2.2730

 Free energy of the ion-electron system (eV)
  ---------------------------------------------------
  alpha Z        PSCENC =         6.47443814
  Ewald energy   TEWEN  =      -304.86272823
  -Hartree energ DENC   =        -0.40934355
  -exchange      EXHF   =         0.00000000
  -V(xc)+E(xc)   XCENC  =       -15.58016792
  PAW double counting   =       552.06253637     -516.95426624
  entropy T*S    EENTRO =        -0.00567414
  eigenvalues    EBANDS =        64.34415636
  atomic energy  EATOM  =       206.13192747
  Solvation  Ediel_sol  =         0.00000000
  ---------------------------------------------------
  free energy    TOTEN  =        -8.79912174 eV

  energy without entropy =       -8.79344760  energy(sigma->0) =       -8.79628467


--------------------------------------------------------------------------------------------------------




----------------------------------------- Iteration    1(   7)  ---------------------------------------


    POTLOK:  cpu time    0.0340: real time    0.0221
    SETDIJ:  cpu time    0.0100: real time    0.0052
     EDDAV:  cpu time    1.7857: real time    1.1071
       DOS:  cpu time    0.0020: real time    0.0011
    CHARGE:  cpu time    0.0320: real time    0.0192
    MIXING:  cpu time    0.0020: real time    0.0013
    --------------------------------------------
      LOOP:  cpu time    1.8687: real time    1.1587

 eigenvalue-minimisations  :   656
 total energy-change (2. order) : 0.2880604E-01  (-0.1303926E-02)
 number of electron       8.0000002 magnetization 
 augmentation part       -0.4715730 magnetization 

 Broyden mixing:
  rms(total) = 0.21999E-01    rms(broyden)= 0.21999E-01
  rms(prec ) = 0.27260E-01
  weight for this iteration     100.00

 eigenvalues of (default mixing * dielectric matrix)
  average eigenvalue GAMMA=   2.5316
  2.5316  2.5316

 Free energy of the ion-electron system (eV)
  ---------------------------------------------------
  alpha Z        PSCENC =         6.47443814
  Ewald energy   TEWEN  =      -304.86272823
  -Hartree energ DENC   =        -0.50809598
  -exchange      EXHF   =         0.00000000
  -V(xc)+E(xc)   XCENC  =       -15.39360568
  PAW double counting   =      1413.80126469    -1378.81135162
  entropy T*S    EENTRO =        -0.00556958
  eigenvalues    EBANDS =        64.40340509
  atomic energy  EATOM  =       206.13192747
  Solvation  Ediel_sol  =         0.00000000
  ---------------------------------------------------
  free energy    TOTEN  =        -8.77031570 eV

  energy without entropy =       -8.76474612  energy(sigma->0) =       -8.76753091


--------------------------------------------------------------------------------------------------------




----------------------------------------- Iteration    1(   8)  ---------------------------------------


    POTLOK:  cpu time    0.0320: real time    0.0196
    SETDIJ:  cpu time    0.0060: real time    0.0029
     EDDAV:  cpu time    2.7906: real time    1.8032
       DOS:  cpu time    0.0030: real time    0.0013
    CHARGE:  cpu time    0.0290: real time    0.0174
    MIXING:  cpu time    0.0030: real time    0.0014
    --------------------------------------------
      LOOP:  cpu time    2.8696: real time    1.8485

 eigenvalue-minimisations  :   984
 total energy-change (2. order) : 0.2775949E-03  (-0.1227692E-04)
 number of electron       8.0000002 magnetization 
 augmentation part       -0.4719275 magnetization 

 Broyden mixing:
  rms(total) = 0.31781E-02    rms(broyden)= 0.31781E-02
  rms(prec ) = 0.41198E-02
  weight for this iteration     100.00

 eigenvalues of (default mixing * dielectric matrix)
  average eigenvalue GAMMA=   2.0238
  0.9810  2.4217  2.6688

 Free energy of the ion-electron system (eV)
  ---------------------------------------------------
  alpha Z        PSCENC =         6.47443814
  Ewald energy   TEWEN  =      -304.86272823
  -Hartree energ DENC   =        -0.52509077
  -exchange      EXHF   =         0.00000000
  -V(xc)+E(xc)   XCENC  =       -15.37225888
  PAW double counting   =      1376.32380669    -1341.35245299
  entropy T*S    EENTRO =        -0.00556398
  eigenvalues    EBANDS =        64.41788445
  atomic energy  EATOM  =       206.13192747
  Solvation  Ediel_sol  =         0.00000000
  ---------------------------------------------------
  free energy    TOTEN  =        -8.77003810 eV

  energy without entropy =       -8.76447412  energy(sigma->0) =       -8.76725611


--------------------------------------------------------------------------------------------------------




----------------------------------------- Iteration    1(   9)  ---------------------------------------


    POTLOK:  cpu time    0.0360: real time    0.0226
    SETDIJ:  cpu time    0.0060: real time    0.0030
     EDDAV:  cpu time    1.2538: real time    0.7915
       DOS:  cpu time    0.0020: real time    0.0012
    --------------------------------------------
      LOOP:  cpu time    1.3028: real time    0.8210

 eigenvalue-minimisations  :   480
 total energy-change (2. order) : 0.3267888E-05  (-0.3523846E-06)
 number of electron       8.0000002 magnetization 
 augmentation part       -0.4719275 magnetization 

 Free energy of the ion-electron system (eV)
  ---------------------------------------------------
  alpha Z        PSCENC =         6.47443814
  Ewald energy   TEWEN  =      -304.86272823
  -Hartree energ DENC   =        -0.52816076
  -exchange      EXHF   =         0.00000000
  -V(xc)+E(xc)   XCENC  =       -15.36839264
  PAW double counting   =      1382.30148977    -1347.33276248
  entropy T*S    EENTRO =        -0.00556211
  eigenvalues    EBANDS =        64.41971601
  atomic energy  EATOM  =       206.13192747
  Solvation  Ediel_sol  =         0.00000000
  ---------------------------------------------------
  free energy    TOTEN  =        -8.77003484 eV

  energy without entropy =       -8.76447272  energy(sigma->0) =       -8.76725378


--------------------------------------------------------------------------------------------------------




 average (electrostatic) potential at core
  the test charge radii are     0.9892
  (the norm of the test charge is              1.0000)
       1 -74.8735       2 -74.8735
 
 
 
 E-fermi :  15.1242     XC(G=0): -12.5812     alpha+bet :-23.0647


 k-point     1 :       0.0833    0.0833    0.0833
  band No.  band energies     occupation 
      1      -1.9963      2.00000
      2       5.3495      2.00000
      3       8.2712      2.00000
      4      20.7504      0.00000
      5      20.8844      0.00000
      6      27.0181      0.00000
      7      27.1943      0.00000
      8      27.2362      0.00000

 k-point     2 :       0.2500    0.0833    0.0833
  band No.  band energies     occupation 
      1       0.2172      2.00000
      2       7.4331      2.00000
      3      10.2163      2.00000
      4      13.3545      2.00000
      5      17.9097      0.00000
      6      20.1855      0.00000
      7      22.6269      0.00000
      8      25.1065      0.00000

 k-point     3 :       0.4167    0.0833    0.0833
  band No.  band energies     occupation 
      1       4.1171      2.00000
      2       6.6388      2.00000
      3      11.2863      2.00000
      4      13.4632      2.00000
      5      14.4139      2.00000
      6      16.1992      0.00000
      7      17.9444      0.00000
      8      23.8454      0.00000

 k-point     4 :      -0.4167    0.0833    0.0833
  band No.  band energies     occupation 
      1       1.9651      2.00000
      2       8.7676      2.00000
      3       9.9219      2.00000
      4      12.2582      2.00000
      5      16.3576      0.00000
      6      17.6356      0.00000
      7      19.8136      0.00000
      8      24.2575      0.00000

 k-point     5 :      -0.2500    0.0833    0.0833
  band No.  band energies     occupation 
      1      -1.1072      2.00000
      2       6.1918      2.00000
      3       9.0870      2.00000
      4      16.8966      0.00000
      5      19.2209      0.00000
      6      23.5733      0.00000
      7      25.3776      0.00000
      8      26.6040      0.00000

 k-point     6 :      -0.0833    0.0833    0.0833
  band No.  band energies     occupation 
      1      -2.4428      2.00000
      2       4.9255      2.00000
      3       7.8559      2.00000
      4      22.7214      0.00000
      5      24.2219      0.00000
      6      25.8798      0.00000
      7      27.9763      0.00000
      8      28.7266      0.00000

 k-point     7 :       0.2500    0.2500    0.0833
  band No.  band energies     occupation 
      1       3.2629      2.00000
      2       9.7725      2.00000
      3      10.9509      2.00000
      4      11.2531      2.00000
      5      13.7219      2.00000
      6      17.7232      0.00000
      7      18.5167      0.00000
      8      21.2105      0.00000

 k-point     8 :       0.4167    0.2500    0.0833
  band No.  band energies     occupation 
      1       5.3948      2.00000
      2       7.8868      2.00000
      3      10.2908      2.00000
      4      12.6861      2.00000
      5      14.6097      2.00000
      6      15.9154      0.00000
      7      17.7258      0.00000
      8      18.9458      0.00000

 k-point     9 :      -0.4167    0.2500    0.0833
  band No.  band energies     occupation 
      1       1.5303      2.00000
      2       8.6235      2.00000
      3      11.0070      2.00000
      4      12.4432      2.00000
      5      14.5284      2.00000
      6      18.9205      0.00000
      7      20.9173      0.00000
      8      22.4463      0.00000

 k-point    10 :      -0.2500    0.2500    0.0833
  band No.  band energies     occupation 
      1      -0.6645      2.00000
      2       6.6089      2.00000
      3       9.4787      2.00000
      4      14.9130      1.99718
      5      21.2257      0.00000
      6      21.2966      0.00000
      7      23.1207      0.00000
      8      24.9552      0.00000

 k-point    11 :       0.4167    0.4167    0.0833
  band No.  band energies     occupation 
      1       5.7318      2.00000
      2       5.8978      2.00000
      3      12.3279      2.00000
      4      13.0907      2.00000
      5      13.5121      2.00000
      6      15.7881      0.00000
      7      17.0120      0.00000
      8      20.8752      0.00000

 k-point    12 :      -0.4167    0.4167    0.0833
  band No.  band energies     occupation 
      1       2.8305      2.00000
      2       7.8069      2.00000
      3      10.1446      2.00000
      4      12.9208      2.00000
      5      15.1795      0.43452
      6      17.7607      0.00000
      7      19.7331      0.00000
      8      22.4505      0.00000

 k-point    13 :       0.0833    0.0833    0.2500
  band No.  band energies     occupation 
      1      -1.4952      2.00000
      2       2.9460      2.00000
      3      11.5341      2.00000
      4      21.0330      0.00000
      5      21.2911      0.00000
      6      23.7324      0.00000
      7      25.3175      0.00000
      8      25.4353      0.00000

 k-point    14 :       0.2500    0.0833    0.2500
  band No.  band energies     occupation 
      1       0.7113      2.00000
      2       5.0819      2.00000
      3      12.8963      2.00000
      4      14.2618      2.00000
      5      17.4380      0.00000
      6      18.9738      0.00000
      7      22.5401      0.00000
      8      25.2582      0.00000

 k-point    15 :       0.4167    0.0833    0.2500
  band No.  band energies     occupation 
      1       4.5925      2.00000
      2       7.0189      2.00000
      3       9.1314      2.00000
      4      11.4858      2.00000
      5      16.6314      0.00000
      6      18.0229      0.00000
      7      19.9478      0.00000
      8      21.8870      0.00000

 k-point    16 :      -0.4167    0.0833    0.2500
  band No.  band energies     occupation 
      1       2.4529      2.00000
      2       6.7251      2.00000
      3      10.2335      2.00000
      4      14.1447      2.00000
      5      15.4517      0.00000
      6      18.0300      0.00000
      7      21.5547      0.00000
      8      23.1152      0.00000

 k-point    17 :      -0.2500    0.0833    0.2500
  band No.  band energies     occupation 
      1      -0.6088      2.00000
      2       3.8061      2.00000
      3      12.2983      2.00000
      4      17.3343      0.00000
      5      19.5457      0.00000
      6      21.5001      0.00000
      7      23.6461      0.00000
      8      24.8167      0.00000

 k-point    18 :      -0.0833    0.0833    0.2500
  band No.  band energies     occupation 
      1      -1.9403      2.00000
      2       2.5137      2.00000
      3      11.1364      2.00000
      4      22.6570      0.00000
      5      23.6989      0.00000
      6      24.6333      0.00000
      7      26.3528      0.00000
      8      27.9583      0.00000

 k-point    19 :       0.2500    0.2500    0.2500
  band No.  band energies     occupation 
      1       3.7452      2.00000
      2       7.9230      2.00000
      3      11.3888      2.00000
      4      11.4960      2.00000
      5      15.1452      0.76655
      6      15.7675      0.00000
      7      17.7696      0.00000
      8      24.0494      0.00000

 k-point    20 :       0.4167    0.2500    0.2500
  band No.  band energies     occupation 
      1       5.8617      2.00000
      2       8.2420      2.00000
      3      10.0442      2.00000
      4      11.2416      2.00000
      5      12.9753      2.00000
      6      15.2137      0.20562
      7      19.2672      0.00000
      8      21.5339      0.00000

 k-point    21 :      -0.4167    0.2500    0.2500
  band No.  band energies     occupation 
      1       2.0198      2.00000
      2       6.3346      2.00000
      3      12.1783      2.00000
      4      14.2406      2.00000
      5      15.1207      1.03931
      6      17.1550      0.00000
      7      19.2590      0.00000
      8      24.8362      0.00000

 k-point    22 :      -0.2500    0.2500    0.2500
  band No.  band energies     occupation 
      1      -0.1675      2.00000
      2       4.2334      2.00000
      3      12.6192      2.00000
      4      15.4247      0.00002
      5      19.2912      0.00000
      6      21.6466      0.00000
      7      23.3090      0.00000
      8      25.4545      0.00000

 k-point    23 :       0.4167    0.4167    0.2500
  band No.  band energies     occupation 
      1       6.1890      2.00000
      2       6.3481      2.00000
      3      10.4967      2.00000
      4      10.7991      2.00000
      5      14.0467      2.00000
      6      17.5700      0.00000
      7      19.5908      0.00000
      8      20.0681      0.00000

 k-point    24 :      -0.4167    0.4167    0.2500
  band No.  band energies     occupation 
      1       3.3142      2.00000
      2       7.3564      2.00000
      3       8.7998      2.00000
      4      12.6892      2.00000
      5      16.2320      0.00000
      6      20.1541      0.00000
      7      20.5053      0.00000
      8      23.0207      0.00000

 k-point    25 :       0.0833    0.0833    0.4167
  band No.  band energies     occupation 
      1      -0.4975      2.00000
      2       0.9875      2.00000
      3      15.1917      0.33965
      4      19.1011      0.00000
      5      22.0209      0.00000
      6      22.1817      0.00000
      7      23.8059      0.00000
      8      23.8865      0.00000

 k-point    26 :       0.2500    0.0833    0.4167
  band No.  band energies     occupation 
      1       1.6947      2.00000
      2       3.1571      2.00000
      3      14.3316      2.00000
      4      15.6244      0.00000
      5      17.3925      0.00000
      6      19.4209      0.00000
      7      20.8734      0.00000
      8      22.1132      0.00000

 k-point    27 :       0.4167    0.0833    0.4167
  band No.  band energies     occupation 
      1       5.5253      2.00000
      2       6.7882      2.00000
      3       8.4341      2.00000
      4       9.6753      2.00000
      5      18.0275      0.00000
      6      19.2357      0.00000
      7      21.5200      0.00000
      8      23.4951      0.00000

 k-point    28 :      -0.4167    0.0833    0.4167
  band No.  band energies     occupation 
      1       3.4223      2.00000
      2       4.8589      2.00000
      3      11.1484      2.00000
      4      12.5145      2.00000
      5      18.0561      0.00000
      6      19.1283      0.00000
      7      20.5272      0.00000
      8      23.1995      0.00000

 k-point    29 :      -0.2500    0.0833    0.4167
  band No.  band energies     occupation 
      1       0.3833      2.00000
      2       1.8598      2.00000
      3      15.8122      0.00000
      4      18.0782      0.00000
      5      19.3127      0.00000
      6      19.8216      0.00000
      7      21.5905      0.00000
      8      22.4107      0.00000

 k-point    30 :      -0.0833    0.0833    0.4167
  band No.  band energies     occupation 
      1      -0.9398      2.00000
      2       0.5494      2.00000
      3      14.8264      1.99997
      4      18.8512      0.00000
      5      24.0873      0.00000
      6      25.2272      0.00000
      7      25.4537      0.00000
      8      26.6717      0.00000

 k-point    31 :       0.2500    0.2500    0.4167
  band No.  band energies     occupation 
      1       4.7022      2.00000
      2       6.1142      2.00000
      3      12.1777      2.00000
      4      12.2528      2.00000
      5      13.9789      2.00000
      6      14.1071      2.00000
      7      20.7618      0.00000
      8      24.4258      0.00000

 k-point    32 :       0.4167    0.2500    0.4167
  band No.  band energies     occupation 
      1       6.7726      2.00000
      2       7.9828      2.00000
      3       9.6495      2.00000
      4      10.7199      2.00000
      5      12.3729      2.00000
      6      13.5428      2.00000
      7      22.6366      0.00000
      8      24.7396      0.00000

 k-point    33 :      -0.4167    0.2500    0.4167
  band No.  band energies     occupation 
      1       2.9935      2.00000
      2       4.4393      2.00000
      3      13.1439      2.00000
      4      14.3633      2.00000
      5      15.7653      0.00000
      6      16.9392      0.00000
      7      19.5086      0.00000
      8      23.0242      0.00000

 k-point    34 :      -0.2500    0.2500    0.4167
  band No.  band energies     occupation 
      1       0.8218      2.00000
      2       2.2938      2.00000
      3      15.5687      0.00000
      4      16.6278      0.00000
      5      17.8204      0.00000
      6      20.5560      0.00000
      7      22.4901      0.00000
      8      23.7588      0.00000

 k-point    35 :       0.4167    0.4167    0.4167
  band No.  band energies     occupation 
      1       7.0207      2.00000
      2       7.1459      2.00000
      3       8.8808      2.00000
      4       9.0345      2.00000
      5      14.9686      1.97224
      6      16.2859      0.00000
      7      22.8828      0.00000
      8      23.0755      0.00000

 k-point    36 :      -0.4167    0.4167    0.4167
  band No.  band energies     occupation 
      1       4.2732      2.00000
      2       5.6807      2.00000
      3       9.5283      2.00000
      4      10.8943      2.00000
      5      19.5611      0.00000
      6      20.9980      0.00000
      7      22.0906      0.00000
      8      22.2679      0.00000


--------------------------------------------------------------------------------------------------------


 soft charge-density along one line, spin component           1
         0         1         2         3         4         5         6         7         8         9
 total charge-density along one line
 
 pseudopotential strength for first ion, spin component:           1
 17.418  24.296   0.000   0.000  -0.000   0.000   0.000  -0.000
 24.296  33.893   0.000   0.000  -0.000   0.000   0.000  -0.000
  0.000   0.000   4.027  -0.000  -0.000   7.497  -0.000  -0.000
  0.000   0.000  -0.000   4.027  -0.000  -0.000   7.497  -0.000
 -0.000  -0.000  -0.000  -0.000   4.027  -0.000  -0.000   7.497
  0.000   0.000   7.497  -0.000  -0.000  13.968  -0.000  -0.000
  0.000   0.000  -0.000   7.497  -0.000  -0.000  13.968  -0.000
 -0.000  -0.000  -0.000  -0.000   7.497  -0.000  -0.000  13.968
 total augmentation occupancy for first ion, spin component:           1
  8.434  -4.097   0.000   0.000   0.000   0.000   0.000   0.000
 -4.097   2.350   0.000   0.000   0.000   0.000   0.000  -0.000
  0.000   0.000   3.831   0.000   0.000  -1.059   0.000   0.000
  0.000   0.000   0.000   3.829  -0.000   0.000  -1.058   0.000
  0.000   0.000   0.000  -0.000   3.831   0.000  -0.000  -1.059
 -0.000  -0.000  -1.059   0.000   0.000   0.314   0.000   0.000
  0.000   0.000   0.000  -1.058   0.000   0.000   0.314   0.000
  0.000   0.000   0.000  -0.000  -1.059   0.000   0.000   0.314


------------------------ aborting loop because EDIFF is reached ----------------------------------------


    CHARGE:  cpu time    0.0200: real time    0.0129
    FORLOC:  cpu time    0.0010: real time    0.0006
    FORNL :  cpu time    0.0460: real time    0.0263
    STRESS:  cpu time    0.2580: real time    0.1544
    FORCOR:  cpu time    0.0610: real time    0.0370
    FORHAR:  cpu time    0.0140: real time    0.0090
    MIXING:  cpu time    0.0020: real time    0.0010
    OFIELD:  cpu time    0.0000: real time    0.0000

  FORCE on cell =-STRESS in cart. coord.  units (eV):
  Direction    XX          YY          ZZ          XY          YZ          ZX
  --------------------------------------------------------------------------------------
  Alpha Z     6.47444     6.47444     6.47444
  Ewald    -101.69052  -101.69052  -101.48190    -0.00000    -0.00000     0.00000
  Hartree     0.17072     0.17072     0.18674    -0.00000    -0.00000    -0.00000
  E(xc)     -27.93952   -27.93952   -27.96982    -0.00000    -0.00000    -0.00000
  Local      -5.31475    -5.31476    -5.60842    -0.00001    -0.00000    -0.00000
  n-local    75.64092    81.72855    79.43780    -1.73876     0.27598    -0.94081
  augment   -11.91058   -11.91058   -11.90474     0.00001    -0.00000     0.00000
  Kinetic    87.62590    51.18368    68.35427    12.04907     0.17240     0.37645
  Fock        0.00000     0.00000     0.00000     0.00000     0.00000     0.00000
  -------------------------------------------------------------------------------------
  Total       7.87931     7.87931     7.48837     0.00000     0.00000     0.00000
  in kB     606.99647   606.99647   576.88033     0.00000     0.00000     0.00000
  external pressure =      596.96 kB  Pullay stress =        0.00 kB


 VOLUME and BASIS-vectors are now :
 -----------------------------------------------------------------------------
  energy-cutoff  :      450.00
  volume of cell :       20.80
      direct lattice vectors                 reciprocal lattice vectors
     2.450000000  0.000000000  0.000000000     0.408163265  0.235653171  0.000000000
    -1.225000000  2.121762239  0.000000000     0.000000000  0.471306342  0.000000000
     0.000000000  0.000000000  4.000825500     0.000000000  0.000000000  0.249948417

  length of vectors
     2.450000000  2.450000000  4.000825500     0.471306342  0.471306342  0.249948417


 FORCES acting on ions
    electron-ion (+dipol)            ewald-force                    non-local-force                 convergence-correction
 -----------------------------------------------------------------------------------------------
   0.355E-09 -.205E-09 0.909E-14   -.106E-12 0.915E-13 -.450E-14   0.124E-15 -.520E-17 0.000E+00   0.230E-09 -.133E-09 0.276E-14
   -.355E-09 0.205E-09 -.411E-13   0.105E-12 -.909E-13 0.450E-14   -.135E-15 -.260E-17 0.000E+00   -.230E-09 0.133E-09 -.276E-14
 -----------------------------------------------------------------------------------------------
   -.407E-14 -.116E-14 -.320E-13   -.138E-14 0.650E-15 0.000E+00   -.113E-16 -.781E-17 0.000E+00   0.133E-15 0.123E-15 -.124E-17
 
 
 POSITION                                       TOTAL-FORCE (eV/Angst)
 -----------------------------------------------------------------------------------
      0.00000      0.00000      0.00000        -0.000000      0.000000      0.000000
     -0.00000      1.41451      2.00041         0.000000     -0.000000      0.000000
 -----------------------------------------------------------------------------------
    total drift:                               -0.000000     -0.000000     -0.000000


--------------------------------------------------------------------------------------------------------



  FREE ENERGIE OF THE ION-ELECTRON SYSTEM (eV)
  ---------------------------------------------------
  free  energy   TOTEN  =        -8.77003484 eV

  energy  without entropy=       -8.76447272  energy(sigma->0) =       -8.76725378
 


--------------------------------------------------------------------------------------------------------


    POTLOK:  cpu time    0.0530: real time    0.0323


--------------------------------------------------------------------------------------------------------




--------------------------------------------------------------------------------------------------------


    WAVPRE:  cpu time    0.0020: real time    0.0017
 FEWALD executed in parallel
    FEWALD:  cpu time    0.0000: real time    0.0001
    GENKIN:  cpu time    0.0060: real time    0.0060
    ORTHCH:  cpu time    0.1560: real time    0.1035
     LOOP+:  cpu time   16.2925: real time   10.3551


----------------------------------------- Iteration    2(   1)  ---------------------------------------


    POTLOK:  cpu time    0.0660: real time    0.0325
    SETDIJ:  cpu time    0.0080: real time    0.0042
     EDDAV:  cpu time    2.1257: real time    1.2596
       DOS:  cpu time    0.0090: real time    0.0077
    CHARGE:  cpu time    0.0230: real time    0.0124
    MIXING:  cpu time    0.0010: real time    0.0007
    --------------------------------------------
      LOOP:  cpu time    2.2357: real time    1.3188

 eigenvalue-minimisations  :   904
 total energy-change (2. order) :-0.1398297E-02  (-0.5118565E-02)
 number of electron       8.0000001 magnetization 
 augmentation part       -0.4722285 magnetization 

 Broyden mixing:
  rms(total) = 0.14576E-01    rms(broyden)= 0.14576E-01
  rms(prec ) = 0.33961E-01
  weight for this iteration     100.00

 Free energy of the ion-electron system (eV)
  ---------------------------------------------------
  alpha Z        PSCENC =         6.47443814
  Ewald energy   TEWEN  =      -304.85764265
  -Hartree energ DENC   =        -0.52823936
  -exchange      EXHF   =         0.00000000
  -V(xc)+E(xc)   XCENC  =       -15.36861214
  PAW double counting   =      1383.35410857    -1348.38487408
  entropy T*S    EENTRO =        -0.00596923
  eigenvalues    EBANDS =        64.41342687
  atomic energy  EATOM  =       206.13192747
  Solvation  Ediel_sol  =         0.00000000
  ---------------------------------------------------
  free energy    TOTEN  =        -8.77143640 eV

  energy without entropy =       -8.76546717  energy(sigma->0) =       -8.76845179


--------------------------------------------------------------------------------------------------------




----------------------------------------- Iteration    2(   2)  ---------------------------------------


    POTLOK:  cpu time    0.0430: real time    0.0260
    SETDIJ:  cpu time    0.0070: real time    0.0037
     EDDAV:  cpu time    1.1208: real time    0.7397
       DOS:  cpu time    0.0040: real time    0.0041
    CHARGE:  cpu time    0.0240: real time    0.0157
    MIXING:  cpu time    0.0020: real time    0.0014
    --------------------------------------------
      LOOP:  cpu time    1.2018: real time    0.7928

 eigenvalue-minimisations  :   624
 total energy-change (2. order) : 0.4322809E-03  (-0.7561685E-04)
 number of electron       8.0000001 magnetization 
 augmentation part       -0.4722609 magnetization 

 Broyden mixing:
  rms(total) = 0.77699E-02    rms(broyden)= 0.77699E-02
  rms(prec ) = 0.18495E-01
  weight for this iteration     100.00

 eigenvalues of (default mixing * dielectric matrix)
  average eigenvalue GAMMA=   2.0057
  2.0057

 Free energy of the ion-electron system (eV)
  ---------------------------------------------------
  alpha Z        PSCENC =         6.47443814
  Ewald energy   TEWEN  =      -304.85764265
  -Hartree energ DENC   =        -0.52860628
  -exchange      EXHF   =         0.00000000
  -V(xc)+E(xc)   XCENC  =       -15.36869305
  PAW double counting   =      1383.01694659    -1348.04748859
  entropy T*S    EENTRO =        -0.00595142
  eigenvalues    EBANDS =        64.41406566
  atomic energy  EATOM  =       206.13192747
  Solvation  Ediel_sol  =         0.00000000
  ---------------------------------------------------
  free energy    TOTEN  =        -8.77100412 eV

  energy without entropy =       -8.76505270  energy(sigma->0) =       -8.76802841


--------------------------------------------------------------------------------------------------------




----------------------------------------- Iteration    2(   3)  ---------------------------------------


    POTLOK:  cpu time    0.0330: real time    0.0243
    SETDIJ:  cpu time    0.0040: real time    0.0026
     EDDAV:  cpu time    2.0077: real time    1.3363
       DOS:  cpu time    0.0060: real time    0.0041
    CHARGE:  cpu time    0.0320: real time    0.0177
    MIXING:  cpu time    0.0030: real time    0.0014
    --------------------------------------------
      LOOP:  cpu time    2.0887: real time    1.3893

 eigenvalue-minimisations  :   888
 total energy-change (2. order) : 0.1952901E-03  (-0.4657772E-04)
 number of electron       8.0000001 magnetization 
 augmentation part       -0.4722496 magnetization 

 Broyden mixing:
  rms(total) = 0.57176E-03    rms(broyden)= 0.57174E-03
  rms(prec ) = 0.90565E-03
  weight for this iteration     100.00

 eigenvalues of (default mixing * dielectric matrix)
  average eigenvalue GAMMA=   1.6152
  1.0668  2.1636

 Free energy of the ion-electron system (eV)
  ---------------------------------------------------
  alpha Z        PSCENC =         6.47443814
  Ewald energy   TEWEN  =      -304.85764265
  -Hartree energ DENC   =        -0.52927812
  -exchange      EXHF   =         0.00000000
  -V(xc)+E(xc)   XCENC  =       -15.36882771
  PAW double counting   =      1382.02467467    -1347.05510797
  entropy T*S    EENTRO =        -0.00592792
  eigenvalues    EBANDS =        64.41493526
  atomic energy  EATOM  =       206.13192747
  Solvation  Ediel_sol  =         0.00000000
  ---------------------------------------------------
  free energy    TOTEN  =        -8.77080883 eV

  energy without entropy =       -8.76488091  energy(sigma->0) =       -8.76784487


--------------------------------------------------------------------------------------------------------




----------------------------------------- Iteration    2(   4)  ---------------------------------------


    POTLOK:  cpu time    0.0420: real time    0.0251
    SETDIJ:  cpu time    0.0050: real time    0.0026
     EDDAV:  cpu time    0.8819: real time    0.5961
       DOS:  cpu time    0.0020: real time    0.0011
    --------------------------------------------
      LOOP:  cpu time    0.9339: real time    0.6277

 eigenvalue-minimisations  :   448
 total energy-change (2. order) :-0.1272587E-05  (-0.1191110E-05)
 number of electron       8.0000001 magnetization 
 augmentation part       -0.4722496 magnetization 

 Free energy of the ion-electron system (eV)
  ---------------------------------------------------
  alpha Z        PSCENC =         6.47443814
  Ewald energy   TEWEN  =      -304.85764265
  -Hartree energ DENC   =        -0.52911739
  -exchange      EXHF   =         0.00000000
  -V(xc)+E(xc)   XCENC  =       -15.36885864
  PAW double counting   =      1381.95971795    -1346.99017180
  entropy T*S    EENTRO =        -0.00592810
  eigenvalues    EBANDS =        64.41482491
  atomic energy  EATOM  =       206.13192747
  Solvation  Ediel_sol  =         0.00000000
  ---------------------------------------------------
  free energy    TOTEN  =        -8.77081010 eV

  energy without entropy =       -8.76488200  energy(sigma->0) =       -8.76784605


--------------------------------------------------------------------------------------------------------




 average (electrostatic) potential at core
  the test charge radii are     0.9892
  (the norm of the test charge is              1.0000)
       1 -74.8744       2 -74.8744
 
 
 
 E-fermi :  15.1503     XC(G=0): -12.5812     alpha+bet :-23.0647


 k-point     1 :       0.0833    0.0833    0.0833
  band No.  band energies     occupation 
      1      -2.0002      2.00000
      2       5.4297      2.00000
      3       8.4047      2.00000
      4      20.6261      0.00000
      5      20.7311      0.00000
      6      26.9315      0.00000
      7      27.1882      0.00000
      8      27.2081      0.00000

 k-point     2 :       0.2500    0.0833    0.0833
  band No.  band energies     occupation 
      1       0.1996      2.00000
      2       7.4976      2.00000
      3      10.3201      2.00000
      4      13.2767      2.00000
      5      17.8021      0.00000
      6      20.1491      0.00000
      7      22.6445      0.00000
      8      25.0699      0.00000

 k-point     3 :       0.4167    0.0833    0.0833
  band No.  band energies     occupation 
      1       4.0758      2.00000
      2       6.5871      2.00000
      3      11.3169      2.00000
      4      13.5173      2.00000
      5      14.4613      2.00000
      6      16.2095      0.00000
      7      17.9057      0.00000
      8      23.8046      0.00000

 k-point     4 :      -0.4167    0.0833    0.0833
  band No.  band energies     occupation 
      1       1.9368      2.00000
      2       8.7878      2.00000
      3       9.8912      2.00000
      4      12.3533      2.00000
      5      16.3326      0.00000
      6      17.5590      0.00000
      7      19.8499      0.00000
      8      24.2173      0.00000

 k-point     5 :      -0.2500    0.0833    0.0833
  band No.  band energies     occupation 
      1      -1.1166      2.00000
      2       6.2658      2.00000
      3       9.2131      2.00000
      4      16.7841      0.00000
      5      19.0927      0.00000
      6      23.5265      0.00000
      7      25.3393      0.00000
      8      26.5153      0.00000

 k-point     6 :      -0.0833    0.0833    0.0833
  band No.  band energies     occupation 
      1      -2.4439      2.00000
      2       5.0089      2.00000
      3       7.9926      2.00000
      4      22.5724      0.00000
      5      24.0469      0.00000
      6      25.7950      0.00000
      7      28.1685      0.00000
      8      28.5507      0.00000

 k-point     7 :       0.2500    0.2500    0.0833
  band No.  band energies     occupation 
      1       3.2269      2.00000
      2       9.7739      2.00000
      3      10.8851      2.00000
      4      11.2225      2.00000
      5      13.8052      2.00000
      6      17.6881      0.00000
      7      18.5411      0.00000
      8      21.2476      0.00000

 k-point     8 :       0.4167    0.2500    0.0833
  band No.  band energies     occupation 
      1       5.3461      2.00000
      2       7.8277      2.00000
      3      10.2288      2.00000
      4      12.6998      2.00000
      5      14.6631      2.00000
      6      15.9400      0.00000
      7      17.7690      0.00000
      8      18.9859      0.00000

 k-point     9 :      -0.4167    0.2500    0.0833
  band No.  band energies     occupation 
      1       1.5046      2.00000
      2       8.6775      2.00000
      3      11.0297      2.00000
      4      12.4333      2.00000
      5      14.4491      2.00000
      6      18.8947      0.00000
      7      20.9276      0.00000
      8      22.4645      0.00000

 k-point    10 :      -0.2500    0.2500    0.0833
  band No.  band energies     occupation 
      1      -0.6766      2.00000
      2       6.6797      2.00000
      3       9.5996      2.00000
      4      14.8144      2.00000
      5      21.0653      0.00000
      6      21.2672      0.00000
      7      23.0384      0.00000
      8      24.9590      0.00000

 k-point    11 :       0.4167    0.4167    0.0833
  band No.  band energies     occupation 
      1       5.6703      2.00000
      2       5.8600      2.00000
      3      12.3131      2.00000
      4      13.1456      2.00000
      5      13.4614      2.00000
      6      15.8607      0.00000
      7      17.0672      0.00000
      8      20.8570      0.00000

 k-point    12 :      -0.4167    0.4167    0.0833
  band No.  band energies     occupation 
      1       2.7970      2.00000
      2       7.7565      2.00000
      3      10.1778      2.00000
      4      13.0206      2.00000
      5      15.1954      0.52371
      6      17.8167      0.00000
      7      19.5794      0.00000
      8      22.3530      0.00000

 k-point    13 :       0.0833    0.0833    0.2500
  band No.  band energies     occupation 
      1      -1.4927      2.00000
      2       3.0026      2.00000
      3      11.6999      2.00000
      4      20.9425      0.00000
      5      21.1452      0.00000
      6      23.9289      0.00000
      7      25.2522      0.00000
      8      25.3597      0.00000

 k-point    14 :       0.2500    0.0833    0.2500
  band No.  band energies     occupation 
      1       0.7000      2.00000
      2       5.1238      2.00000
      3      12.9182      2.00000
      4      14.2990      2.00000
      5      17.3859      0.00000
      6      18.8746      0.00000
      7      22.4802      0.00000
      8      25.2821      0.00000

 k-point    15 :       0.4167    0.0833    0.2500
  band No.  band energies     occupation 
      1       4.5575      2.00000
      2       6.9787      2.00000
      3       9.1377      2.00000
      4      11.4882      2.00000
      5      16.6173      0.00000
      6      18.0598      0.00000
      7      20.0087      0.00000
      8      21.8506      0.00000

 k-point    16 :      -0.4167    0.0833    0.2500
  band No.  band energies     occupation 
      1       2.4309      2.00000
      2       6.7545      2.00000
      3      10.1695      2.00000
      4      14.1530      2.00000
      5      15.5384      0.00000
      6      17.9397      0.00000
      7      21.5221      0.00000
      8      23.1545      0.00000

 k-point    17 :      -0.2500    0.0833    0.2500
  band No.  band energies     occupation 
      1      -0.6119      2.00000
      2       3.8567      2.00000
      3      12.4530      2.00000
      4      17.2323      0.00000
      5      19.4314      0.00000
      6      21.4407      0.00000
      7      23.6108      0.00000
      8      24.9895      0.00000

 k-point    18 :      -0.0833    0.0833    0.2500
  band No.  band energies     occupation 
      1      -1.9350      2.00000
      2       2.5732      2.00000
      3      11.3061      2.00000
      4      22.6954      0.00000
      5      23.7760      0.00000
      6      24.4643      0.00000
      7      26.2493      0.00000
      8      27.8322      0.00000

 k-point    19 :       0.2500    0.2500    0.2500
  band No.  band energies     occupation 
      1       3.7154      2.00000
      2       7.9425      2.00000
      3      11.3301      2.00000
      4      11.4177      2.00000
      5      15.1809      0.66560
      6      15.7196      0.00000
      7      17.8501      0.00000
      8      24.1442      0.00000

 k-point    20 :       0.4167    0.2500    0.2500
  band No.  band energies     occupation 
      1       5.8193      2.00000
      2       8.1946      2.00000
      3      10.0272      2.00000
      4      11.2004      2.00000
      5      12.9566      2.00000
      6      15.1937      0.53933
      7      19.3770      0.00000
      8      21.6365      0.00000

 k-point    21 :      -0.4167    0.2500    0.2500
  band No.  band energies     occupation 
      1       2.0005      2.00000
      2       6.3677      2.00000
      3      12.1108      2.00000
      4      14.2286      2.00000
      5      15.1577      0.91721
      6      17.1244      0.00000
      7      19.2238      0.00000
      8      24.9310      0.00000

 k-point    22 :      -0.2500    0.2500    0.2500
  band No.  band energies     occupation 
      1      -0.1734      2.00000
      2       4.2811      2.00000
      3      12.7579      2.00000
      4      15.3457      0.00573
      5      19.2448      0.00000
      6      21.4919      0.00000
      7      23.2980      0.00000
      8      25.3519      0.00000

 k-point    23 :       0.4167    0.4167    0.2500
  band No.  band energies     occupation 
      1       6.1344      2.00000
      2       6.3170      2.00000
      3      10.4851      2.00000
      4      10.8191      2.00000
      5      13.9633      2.00000
      6      17.5749      0.00000
      7      19.6913      0.00000
      8      20.1412      0.00000

 k-point    24 :      -0.4167    0.4167    0.2500
  band No.  band energies     occupation 
      1       3.2869      2.00000
      2       7.3672      2.00000
      3       8.7565      2.00000
      4      12.6864      2.00000
      5      16.3547      0.00000
      6      20.0060      0.00000
      7      20.5533      0.00000
      8      22.9814      0.00000

 k-point    25 :       0.0833    0.0833    0.4167
  band No.  band energies     occupation 
      1      -0.4825      2.00000
      2       1.0208      2.00000
      3      15.3959      0.00052
      4      19.3251      0.00000
      5      21.8925      0.00000
      6      22.0830      0.00000
      7      23.6919      0.00000
      8      23.7817      0.00000

 k-point    26 :       0.2500    0.0833    0.4167
  band No.  band energies     occupation 
      1       1.6957      2.00000
      2       3.1762      2.00000
      3      14.2693      2.00000
      4      15.5889      0.00000
      5      17.5144      0.00000
      6      19.3749      0.00000
      7      20.8313      0.00000
      8      22.2524      0.00000

 k-point    27 :       0.4167    0.0833    0.4167
  band No.  band energies     occupation 
      1       5.5029      2.00000
      2       6.7810      2.00000
      3       8.3974      2.00000
      4       9.6539      2.00000
      5      17.9446      0.00000
      6      19.1839      0.00000
      7      21.6377      0.00000
      8      23.6090      0.00000

 k-point    28 :      -0.4167    0.0833    0.4167
  band No.  band energies     occupation 
      1       3.4126      2.00000
      2       4.8670      2.00000
      3      11.0936      2.00000
      4      12.4776      2.00000
[...]

 k-point     2 :       0.2500    0.0833    0.0833
  band No.  band energies     occupation 
      1       0.2045      2.00000
      2       7.4794      2.00000
      3      10.2908      2.00000
      4      13.2984      2.00000
      5      17.8325      0.00000
      6      20.1592      0.00000
      7      22.6394      0.00000
      8      25.0805      0.00000

 k-point     3 :       0.4167    0.0833    0.0833
  band No.  band energies     occupation 
      1       4.0874      2.00000
      2       6.6017      2.00000
      3      11.3082      2.00000
      4      13.5022      2.00000
      5      14.4478      2.00000
      6      16.2071      0.00000
      7      17.9155      0.00000
      8      23.8161      0.00000

 k-point     4 :      -0.4167    0.0833    0.0833
  band No.  band energies     occupation 
      1       1.9447      2.00000
      2       8.7826      2.00000
      3       9.8994      2.00000
      4      12.3262      2.00000
      5      16.3401      0.00000
      6      17.5802      0.00000
      7      19.8392      0.00000
      8      24.2287      0.00000

 k-point     5 :      -0.2500    0.0833    0.0833
  band No.  band energies     occupation 
      1      -1.1140      2.00000
      2       6.2449      2.00000
      3       9.1774      2.00000
      4      16.8158      0.00000
      5      19.1288      0.00000
      6      23.5398      0.00000
      7      25.3501      0.00000
      8      26.5422      0.00000

 k-point     6 :      -0.0833    0.0833    0.0833
  band No.  band energies     occupation 
      1      -2.4436      2.00000
      2       4.9854      2.00000
      3       7.9538      2.00000
      4      22.6145      0.00000
      5      24.0961      0.00000
      6      25.8208      0.00000
      7      28.1141      0.00000
      8      28.6004      0.00000

 k-point     7 :       0.2500    0.2500    0.0833
  band No.  band energies     occupation 
      1       3.2370      2.00000
      2       9.7740      2.00000
      3      10.9037      2.00000
      4      11.2307      2.00000
      5      13.7813      2.00000
      6      17.6977      0.00000
      7      18.5343      0.00000
      8      21.2368      0.00000

 k-point     8 :       0.4167    0.2500    0.0833
  band No.  band energies     occupation 
      1       5.3598      2.00000
      2       7.8444      2.00000
      3      10.2464      2.00000
      4      12.6958      2.00000
      5      14.6481      2.00000
      6      15.9326      0.00000
      7      17.7567      0.00000
      8      18.9743      0.00000

 k-point     9 :      -0.4167    0.2500    0.0833
  band No.  band energies     occupation 
      1       1.5118      2.00000
      2       8.6623      2.00000
      3      11.0243      2.00000
      4      12.4350      2.00000
      5      14.4711      2.00000
      6      18.9019      0.00000
      7      20.9247      0.00000
      8      22.4591      0.00000

 k-point    10 :      -0.2500    0.2500    0.0833
  band No.  band energies     occupation 
      1      -0.6732      2.00000
      2       6.6597      2.00000
      3       9.5654      2.00000
      4      14.8421      1.99998
      5      21.1103      0.00000
      6      21.2756      0.00000
      7      23.0617      0.00000
      8      24.9577      0.00000

 k-point    11 :       0.4167    0.4167    0.0833
  band No.  band energies     occupation 
      1       5.6875      2.00000
      2       5.8707      2.00000
      3      12.3174      2.00000
      4      13.1303      2.00000
      5      13.4755      2.00000
      6      15.8399      0.00000
      7      17.0512      0.00000
      8      20.8621      0.00000

 k-point    12 :      -0.4167    0.4167    0.0833
  band No.  band energies     occupation 
      1       2.8064      2.00000
      2       7.7708      2.00000
      3      10.1683      2.00000
      4      12.9922      2.00000
      5      15.1909      0.50225
      6      17.8007      0.00000
      7      19.6226      0.00000
      8      22.3804      0.00000

 k-point    13 :       0.0833    0.0833    0.2500
  band No.  band energies     occupation 
      1      -1.4934      2.00000
      2       2.9866      2.00000
      3      11.6530      2.00000
      4      20.9688      0.00000
      5      21.1862      0.00000
      6      23.8748      0.00000
      7      25.2687      0.00000
      8      25.3810      0.00000

 k-point    14 :       0.2500    0.0833    0.2500
  band No.  band energies     occupation 
      1       0.7032      2.00000
      2       5.1119      2.00000
      3      12.9139      2.00000
      4      14.2864      2.00000
      5      17.4007      0.00000
      6      18.9023      0.00000
      7      22.4971      0.00000
      8      25.2840      0.00000

 k-point    15 :       0.4167    0.0833    0.2500
  band No.  band energies     occupation 
      1       4.5674      2.00000
      2       6.9900      2.00000
      3       9.1358      2.00000
      4      11.4874      2.00000
      5      16.6228      0.00000
      6      18.0479      0.00000
      7      19.9914      0.00000
      8      21.8605      0.00000

 k-point    16 :      -0.4167    0.0833    0.2500
  band No.  band energies     occupation 
      1       2.4370      2.00000
      2       6.7461      2.00000
      3      10.1875      2.00000
      4      14.1510      2.00000
      5      15.5138      0.00000
      6      17.9647      0.00000
      7      21.5315      0.00000
      8      23.1433      0.00000

 k-point    17 :      -0.2500    0.0833    0.2500
  band No.  band energies     occupation 
      1      -0.6110      2.00000
      2       3.8424      2.00000
      3      12.4093      2.00000
      4      17.2610      0.00000
      5      19.4636      0.00000
      6      21.4577      0.00000
      7      23.6223      0.00000
      8      24.9401      0.00000

 k-point    18 :      -0.0833    0.0833    0.2500
  band No.  band energies     occupation 
      1      -1.9365      2.00000
      2       2.5564      2.00000
      3      11.2581      2.00000
      4      22.6929      0.00000
      5      23.7463      0.00000
      6      24.5118      0.00000
      7      26.2782      0.00000
      8      27.8672      0.00000

 k-point    19 :       0.2500    0.2500    0.2500
  band No.  band energies     occupation 
      1       3.7238      2.00000
      2       7.9369      2.00000
      3      11.3467      2.00000
      4      11.4396      2.00000
      5      15.1711      0.69564
      6      15.7329      0.00000
      7      17.8268      0.00000
      8      24.1173      0.00000

 k-point    20 :       0.4167    0.2500    0.2500
  band No.  band energies     occupation 
      1       5.8312      2.00000
      2       8.2079      2.00000
      3      10.0320      2.00000
      4      11.2120      2.00000
      5      12.9617      2.00000
      6      15.1992      0.43006
      7      19.3458      0.00000
      8      21.6073      0.00000

 k-point    21 :      -0.4167    0.2500    0.2500
  band No.  band energies     occupation 
      1       2.0059      2.00000
      2       6.3583      2.00000
      3      12.1299      2.00000
      4      14.2338      2.00000
      5      15.1455      0.97724
      6      17.1326      0.00000
      7      19.2335      0.00000
      8      24.9044      0.00000

 k-point    22 :      -0.2500    0.2500    0.2500
  band No.  band energies     occupation 
      1      -0.1717      2.00000
      2       4.2676      2.00000
      3      12.7190      2.00000
      4      15.3676      0.00152
      5      19.2579      0.00000
      6      21.5353      0.00000
      7      23.3033      0.00000
      8      25.3807      0.00000

 k-point    23 :       0.4167    0.4167    0.2500
  band No.  band energies     occupation 
      1       6.1497      2.00000
      2       6.3258      2.00000
      3      10.4883      2.00000
      4      10.8135      2.00000
      5      13.9868      2.00000
      6      17.5737      0.00000
      7      19.6627      0.00000
      8      20.1200      0.00000

 k-point    24 :      -0.4167    0.4167    0.2500
  band No.  band energies     occupation 
      1       3.2946      2.00000
      2       7.3642      2.00000
      3       8.7685      2.00000
      4      12.6871      2.00000
      5      16.3199      0.00000
      6      20.0476      0.00000
      7      20.5402      0.00000
      8      22.9920      0.00000

 k-point    25 :       0.0833    0.0833    0.4167
  band No.  band energies     occupation 
      1      -0.4868      2.00000
      2       1.0114      2.00000
      3      15.3382      0.00589
      4      19.2623      0.00000
      5      21.9286      0.00000
      6      22.1105      0.00000
      7      23.7236      0.00000
      8      23.8111      0.00000

 k-point    26 :       0.2500    0.0833    0.4167
  band No.  band energies     occupation 
      1       1.6954      2.00000
      2       3.1708      2.00000
      3      14.2870      2.00000
      4      15.5993      0.00000
      5      17.4799      0.00000
      6      19.3884      0.00000
      7      20.8437      0.00000
      8      22.2111      0.00000

 k-point    27 :       0.4167    0.0833    0.4167
  band No.  band energies     occupation 
      1       5.5092      2.00000
      2       6.7830      2.00000
      3       8.4077      2.00000
      4       9.6599      2.00000
      5      17.9682      0.00000
      6      19.1989      0.00000
      7      21.6039      0.00000
      8      23.5778      0.00000

 k-point    28 :      -0.4167    0.0833    0.4167
  band No.  band energies     occupation 
      1       3.4153      2.00000
      2       4.8647      2.00000
      3      11.1090      2.00000
      4      12.4879      2.00000
      5      18.0562      0.00000
      6      19.1255      0.00000
      7      20.5294      0.00000
      8      23.3247      0.00000

 k-point    29 :      -0.2500    0.0833    0.4167
  band No.  band energies     occupation 
      1       0.3900      2.00000
      2       1.8795      2.00000
      3      15.9367      0.00000
      4      18.0432      0.00000
      5      19.2699      0.00000
      6      19.8699      0.00000
      7      21.5675      0.00000
      8      22.3665      0.00000

 k-point    30 :      -0.0833    0.0833    0.4167
  band No.  band energies     occupation 
      1      -0.9271      2.00000
      2       0.5753      2.00000
      3      14.9773      1.98121
      4      19.0300      0.00000
      5      23.9895      0.00000
      6      25.1409      0.00000
      7      25.3410      0.00000
      8      26.5728      0.00000

 k-point    31 :       0.2500    0.2500    0.4167
  band No.  band energies     occupation 
      1       4.6896      2.00000
      2       6.1141      2.00000
      3      12.1455      2.00000
      4      12.2055      2.00000
      5      13.9525      2.00000
      6      14.0590      2.00000
      7      20.8802      0.00000
      8      24.5809      0.00000

 k-point    32 :       0.4167    0.2500    0.4167
  band No.  band energies     occupation 
      1       6.7510      2.00000
      2       7.9709      2.00000
      3       9.6211      2.00000
      4      10.7014      2.00000
      5      12.3256      2.00000
      6      13.5079      2.00000
      7      22.7516      0.00000
      8      24.8572      0.00000

 k-point    33 :      -0.4167    0.2500    0.4167
  band No.  band energies     occupation 
      1       2.9884      2.00000
      2       4.4471      2.00000
      3      13.0980      2.00000
      4      14.3282      2.00000
      5      15.7256      0.00000
      6      16.9079      0.00000
      7      19.6018      0.00000
      8      23.1789      0.00000

 k-point    34 :      -0.2500    0.2500    0.4167
  band No.  band energies     occupation 
      1       0.8265      2.00000
      2       2.3115      2.00000
      3      15.5848      0.00000
      4      16.6498      0.00000
      5      17.8202      0.00000
      6      20.6997      0.00000
      7      22.3870      0.00000
      8      23.6681      0.00000

 k-point    35 :       0.4167    0.4167    0.4167
  band No.  band energies     occupation 
      1       6.9933      2.00000
      2       7.1327      2.00000
      3       8.8583      2.00000
      4       9.0276      2.00000
      5      14.9128      1.99889
      6      16.2436      0.00000
      7      22.9903      0.00000
      8      23.1899      0.00000

 k-point    36 :      -0.4167    0.4167    0.4167
  band No.  band energies     occupation 
      1       4.2625      2.00000
      2       5.6826      2.00000
      3       9.4952      2.00000
      4      10.8738      2.00000
      5      19.6644      0.00000
      6      20.8995      0.00000
      7      22.1035      0.00000
      8      22.1816      0.00000


--------------------------------------------------------------------------------------------------------


 soft charge-density along one line, spin component           1
         0         1         2         3         4         5         6         7         8         9
 total charge-density along one line
 
 pseudopotential strength for first ion, spin component:           1
 17.418  24.296  -0.000   0.000   0.000  -0.000   0.000   0.000
 24.296  33.893  -0.000   0.000   0.000  -0.000   0.000   0.000
 -0.000  -0.000   4.027  -0.000   0.000   7.497  -0.000   0.000
  0.000   0.000  -0.000   4.027  -0.000  -0.000   7.497  -0.000
  0.000   0.000   0.000  -0.000   4.027   0.000  -0.000   7.497
 -0.000  -0.000   7.497  -0.000   0.000  13.968  -0.000   0.000
  0.000   0.000  -0.000   7.497  -0.000  -0.000  13.968  -0.000
  0.000   0.000   0.000  -0.000   7.497   0.000  -0.000  13.968
 total augmentation occupancy for first ion, spin component:           1
  8.422  -4.091  -0.000   0.000   0.000   0.000   0.000  -0.000
 -4.091   2.349  -0.000   0.000  -0.000   0.000   0.000   0.000
  0.000   0.000   3.814   0.000   0.000  -1.053   0.000   0.000
  0.000   0.000   0.000   3.856   0.000   0.000  -1.066   0.000
  0.000  -0.000  -0.000   0.000   3.814  -0.000   0.000  -1.053
  0.000   0.000  -1.053   0.000  -0.000   0.313   0.000  -0.000
  0.000   0.000   0.000  -1.066   0.000   0.000   0.317  -0.000
 -0.000   0.000   0.000   0.000  -1.053   0.000   0.000   0.313


------------------------ aborting loop because EDIFF is reached ----------------------------------------


    CHARGE:  cpu time    0.0340: real time    0.0207
    FORLOC:  cpu time    0.0020: real time    0.0014
    FORNL :  cpu time    0.0480: real time    0.0266
    STRESS:  cpu time    0.2700: real time    0.1658
    FORCOR:  cpu time    0.0220: real time    0.0215
    FORHAR:  cpu time    0.0010: real time    0.0051
    MIXING:  cpu time    0.0010: real time    0.0010
    OFIELD:  cpu time    0.0000: real time    0.0000

  FORCE on cell =-STRESS in cart. coord.  units (eV):
  Direction    XX          YY          ZZ          XY          YZ          ZX
  --------------------------------------------------------------------------------------
  Alpha Z     6.47444     6.47444     6.47444
  Ewald    -101.97621  -101.97621  -100.90763    -0.00000     0.00000     0.00000
  Hartree     0.16888     0.16888     0.19068    -0.00000    -0.00000    -0.00000
  E(xc)     -27.93448   -27.93448   -27.98002    -0.00000     0.00000     0.00000
  Local      -5.03814    -5.03815    -6.16476    -0.00001    -0.00000    -0.00000
  n-local    75.60819    81.63063    79.60433    -1.73193     0.26969    -0.92624
  augment   -11.90741   -11.90741   -11.92481     0.00001    -0.00000     0.00000
  Kinetic    87.38925    51.28505    68.47398    11.95321     0.19720     0.33927
  Fock        0.00000     0.00000     0.00000     0.00000     0.00000     0.00000
  -------------------------------------------------------------------------------------
  Total       7.74363     7.74363     7.76620     0.00000     0.00000    -0.00000
  in kB     596.54467   596.54467   598.28333     0.00000     0.00000    -0.00000
  external pressure =      597.12 kB  Pullay stress =        0.00 kB


 VOLUME and BASIS-vectors are now :
 -----------------------------------------------------------------------------
  energy-cutoff  :      450.00
  volume of cell :       20.80
      direct lattice vectors                 reciprocal lattice vectors
     2.455547282  0.000000000  0.000000000     0.407241191  0.235120811  0.000000000
    -1.227773641  2.126566326 -0.000000000     0.000000000  0.470241623  0.000000000
    -0.000000000  0.000000000  3.982769534    -0.000000000  0.000000000  0.251081563

  length of vectors
     2.455547282  2.455547282  3.982769534     0.470241623  0.470241623  0.251081563


 FORCES acting on ions
    electron-ion (+dipol)            ewald-force                    non-local-force                 convergence-correction
 -----------------------------------------------------------------------------------------------
   0.222E-09 -.128E-09 0.804E-14   -.103E-12 0.904E-13 -.463E-14   -.807E-16 -.108E-15 0.000E+00   0.186E-10 -.107E-10 -.321E-15
   -.222E-09 0.128E-09 -.425E-13   0.103E-12 -.903E-13 0.463E-14   0.954E-16 0.106E-15 0.000E+00   -.186E-10 0.107E-10 0.311E-15
 -----------------------------------------------------------------------------------------------
   -.996E-14 -.276E-15 -.345E-13   -.511E-15 0.111E-15 0.495E-22   0.147E-16 -.173E-17 0.000E+00   -.581E-16 0.172E-17 -.100E-16
 
 
 POSITION                                       TOTAL-FORCE (eV/Angst)
 -----------------------------------------------------------------------------------
     -0.00000      0.00000     -0.00000         0.000000     -0.000000      0.000000
     -0.00000      1.41771      1.99138        -0.000000      0.000000     -0.000000
 -----------------------------------------------------------------------------------
    total drift:                               -0.000000     -0.000000     -0.000000


--------------------------------------------------------------------------------------------------------



  FREE ENERGIE OF THE ION-ELECTRON SYSTEM (eV)
  ---------------------------------------------------
  free  energy   TOTEN  =        -8.77101722 eV

  energy  without entropy=       -8.76549411  energy(sigma->0) =       -8.76825567
 
 d Force = 0.0000000E+00[ 0.000E+00, 0.000E+00]  d Energy = 0.2071205E-03-0.207E-03
 d Force = 0.0000000E+00[ 0.000E+00, 0.000E+00]  d Ewald  = 0.2189077E-02-0.219E-02


--------------------------------------------------------------------------------------------------------


    POTLOK:  cpu time    0.0070: real time    0.0229


--------------------------------------------------------------------------------------------------------




--------------------------------------------------------------------------------------------------------


  
 reached required accuracy - stopping structural energy minimisation
 writing wavefunctions
     LOOP+:  cpu time    6.1611: real time    3.9573
    4ORBIT:  cpu time    0.0000: real time    0.0000

 total amount of memory used by VASP on root node    33569. kBytes
========================================================================

   base      :      30000. kBytes
   nonl-proj :       1083. kBytes
   fftplans  :        669. kBytes
   grid      :       1259. kBytes
   one-center:          6. kBytes
   wavefun   :        552. kBytes
 
  
  
 General timing and accounting informations for this job:
 ========================================================
  
                  Total CPU time used (sec):       30.153
                            User time (sec):       28.302
                          System time (sec):        1.852
                         Elapsed time (sec):       20.663
  
                   Maximum memory used (kb):       36048.
                   Average memory used (kb):           0.
  
                          Minor page faults:        32682
                          Major page faults:            8
                 Voluntary context switches:          760
