 running on    4 total cores
 distrk:  each k-point on    4 cores,    1 groups
 distr:  one band on    1 cores,    4 groups
 using from now: INCAR     
 vasp.5.4.1 24Jun15 (build Jul 19 2016 16:50:41) complex                        
  
 POSCAR found :  1 types and       2 ions
 LDA part: xc-table for Pade appr. of Perdew
 POSCAR, INCAR and KPOINTS ok, starting setup
 FFT: planning ...
 WAVECAR not read
 entering main loop
       N       E                     dE             d eps       ncg     rms          rms(c)
DAV:   1     0.494893991757E+01    0.49489E+01   -0.36308E+03   592   0.743E+02
DAV:   2    -0.870054234419E+01   -0.13649E+02   -0.13056E+02   848   0.807E+01
DAV:   3    -0.884649585406E+01   -0.14595E+00   -0.14573E+00   720   0.967E+00
DAV:   4    -0.884672440792E+01   -0.22855E-03   -0.22851E-03   912   0.403E-01
DAV:   5    -0.884672458546E+01   -0.17754E-06   -0.17699E-06   768   0.689E-03    0.712E+00
DAV:   6    -0.879912174284E+01    0.47603E-01   -0.60825E-03   664   0.556E-01    0.400E+00
DAV:   7    -0.877031569839E+01    0.28806E-01   -0.13039E-02   656   0.825E-01    0.220E-01
DAV:   8    -0.877003810347E+01    0.27759E-03   -0.12277E-04   984   0.106E-01    0.318E-02
DAV:   9    -0.877003483558E+01    0.32679E-05   -0.35238E-06   480   0.148E-02
   1 F= -.87700348E+01 E0= -.87672538E+01  d E =-.877003E+01
 curvature:   0.00 expect dE= 0.000E+00 dE for cont linesearch  0.000E+00
 trial: gam= 0.00000 g(F)=  0.228E-51 g(S)=  0.246E-02 ort = 0.000E+00 (trialstep = 0.100E+01)
 search vector abs. value=  0.246E-02
 bond charge predicted
       N       E                     dE             d eps       ncg     rms          rms(c)
DAV:   1    -0.877143640026E+01   -0.13983E-02   -0.51186E-02   904   0.141E+00    0.146E-01
DAV:   2    -0.877100411940E+01    0.43228E-03   -0.75617E-04   624   0.241E-01    0.777E-02
DAV:   3    -0.877080882930E+01    0.19529E-03   -0.46578E-04   888   0.131E-01    0.572E-03
DAV:   4    -0.877081010189E+01   -0.12726E-05   -0.11911E-05   448   0.326E-02
   2 F= -.87708101E+01 E0= -.87678461E+01  d E =-.775266E-03
 trial-energy change:   -0.000775  1 .order   -0.000600   -0.002458    0.001258
 step:   0.7187(harm=  0.6614)  dis= 0.00000  next Energy=    -8.770983 (dE=-0.948E-03)
 bond charge predicted
       N       E                     dE             d eps       ncg     rms          rms(c)
DAV:   1    -0.877106912844E+01   -0.26030E-03   -0.40332E-03   912   0.394E-01    0.415E-02
DAV:   2    -0.877103326174E+01    0.35867E-04   -0.60767E-05   624   0.682E-02    0.221E-02
DAV:   3    -0.877101712440E+01    0.16137E-04   -0.38404E-05   768   0.377E-02    0.153E-03
DAV:   4    -0.877101722243E+01   -0.98032E-07   -0.10560E-06   352   0.966E-03
   3 F= -.87710172E+01 E0= -.87682557E+01  d E =-.982387E-03
 curvature:  -0.32 expect dE=-0.263E-05 dE for cont linesearch -0.263E-05
 trial: gam= 0.00000 g(F)=  0.322E-52 g(S)=  0.819E-05 ort =-0.142E-03 (trialstep = 0.944E+00)
 search vector abs. value=  0.819E-05
 reached required accuracy - stopping structural energy minimisation
 writing wavefunctions
