<?xml version="1.0" encoding="ISO-8859-1"?>
<modeling>
 <generator>
  <i name="program" type="string">vasp </i>
  <i name="version" type="string">5.4.1  </i>
  <i name="subversion" type="string">24Jun15 (build Jul 19 2016 16:50:41) complex                          parallel </i>
  <i name="platform" type="string">IFC91_ompi </i>
  <i name="date" type="string">2019 10 10 </i>
  <i name="time" type="string">11:11:16 </i>
 </generator>
 <incar>
  <i type="string" name="SYSTEM"> Si beta-tin</i>
  <i type="string" name="PREC">accurate</i>
  <i type="int" name="IBRION">     2</i>
  <i name="EDIFF">      0.00001000</i>
  <i name="EDIFFG">     -0.01000000</i>
  <i type="int" name="NSW">   100</i>
  <i type="int" name="ISIF">     4</i>
  <i name="ENMAX">    450.00000000</i>
  <i type="int" name="ISMEAR">     0</i>
  <i name="SIGMA">      0.10000000</i>
  <v type="int" name="KPOINT_BSE">    -1     0     0     0</v>
 </incar>
 <kpoints>
  <generation param="Monkhorst-Pack">
   <v type="int" name="divisions">       6        6        6 </v>
   <v name="usershift">      0.00000000       0.00000000       0.00000000 </v>
   <v name="genvec1">      0.16666667       0.00000000       0.00000000 </v>
   <v name="genvec2">      0.00000000       0.16666667       0.00000000 </v>
   <v name="genvec3">      0.00000000       0.00000000       0.16666667 </v>
   <v name="shift">      0.50000000       0.50000000       0.50000000 </v>
  </generation>
  <varray name="kpointlist" >
   <v>       0.08333333       0.08333333       0.08333333 </v>
   <v>       0.25000000       0.08333333       0.08333333 </v>
   <v>       0.41666667       0.08333333       0.08333333 </v>
   <v>      -0.41666667       0.08333333       0.08333333 </v>
   <v>      -0.25000000       0.08333333       0.08333333 </v>
   <v>      -0.08333333       0.08333333       0.08333333 </v>
   <v>       0.25000000       0.25000000       0.08333333 </v>
   <v>       0.41666667       0.25000000       0.08333333 </v>
   <v>      -0.41666667       0.25000000       0.08333333 </v>
   <v>      -0.25000000       0.25000000       0.08333333 </v>
   <v>       0.41666667       0.41666667       0.08333333 </v>
   <v>      -0.41666667       0.41666667       0.08333333 </v>
   <v>       0.08333333       0.08333333       0.25000000 </v>
   <v>       0.25000000       0.08333333       0.25000000 </v>
   <v>       0.41666667       0.08333333       0.25000000 </v>
   <v>      -0.41666667       0.08333333       0.25000000 </v>
   <v>      -0.25000000       0.08333333       0.25000000 </v>
   <v>      -0.08333333       0.08333333       0.25000000 </v>
   <v>       0.25000000       0.25000000       0.25000000 </v>
   <v>       0.41666667       0.25000000       0.25000000 </v>
   <v>      -0.41666667       0.25000000       0.25000000 </v>
   <v>      -0.25000000       0.25000000       0.25000000 </v>
   <v>       0.41666667       0.41666667       0.25000000 </v>
   <v>      -0.41666667       0.41666667       0.25000000 </v>
   <v>       0.08333333       0.08333333       0.41666667 </v>
   <v>       0.25000000       0.08333333       0.41666667 </v>
   <v>       0.41666667       0.08333333       0.41666667 </v>
   <v>      -0.41666667       0.08333333       0.41666667 </v>
   <v>      -0.25000000       0.08333333       0.41666667 </v>
   <v>      -0.08333333       0.08333333       0.41666667 </v>
   <v>       0.25000000       0.25000000       0.41666667 </v>
   <v>       0.41666667       0.25000000       0.41666667 </v>
   <v>      -0.41666667       0.25000000       0.41666667 </v>
   <v>      -0.25000000       0.25000000       0.41666667 </v>
   <v>       0.41666667       0.41666667       0.41666667 </v>
   <v>      -0.41666667       0.41666667       0.41666667 </v>
  </varray>
  <varray name="weights" >
   <v>       0.01851852 </v>
   <v>       0.03703704 </v>
   <v>       0.03703704 </v>
   <v>       0.03703704 </v>
   <v>       0.03703704 </v>
   <v>       0.01851852 </v>
   <v>       0.01851852 </v>
   <v>       0.03703704 </v>
   <v>       0.03703704 </v>
   <v>       0.01851852 </v>
   <v>       0.01851852 </v>
   <v>       0.01851852 </v>
   <v>       0.01851852 </v>
   <v>       0.03703704 </v>
   <v>       0.03703704 </v>
   <v>       0.03703704 </v>
   <v>       0.03703704 </v>
   <v>       0.01851852 </v>
   <v>       0.01851852 </v>
   <v>       0.03703704 </v>
   <v>       0.03703704 </v>
   <v>       0.01851852 </v>
   <v>       0.01851852 </v>
   <v>       0.01851852 </v>
   <v>       0.01851852 </v>
   <v>       0.03703704 </v>
   <v>       0.03703704 </v>
   <v>       0.03703704 </v>
   <v>       0.03703704 </v>
   <v>       0.01851852 </v>
   <v>       0.01851852 </v>
   <v>       0.03703704 </v>
   <v>       0.03703704 </v>
   <v>       0.01851852 </v>
   <v>       0.01851852 </v>
   <v>       0.01851852 </v>
  </varray>
 </kpoints>
 <parameters>
  <separator name="general" >
   <i type="string" name="SYSTEM">Si beta-tin</i>
   <i type="logical" name="LCOMPAT"> F  </i>
  </separator>
  <separator name="electronic" >
   <i type="string" name="PREC">accura</i>
   <i name="ENMAX">    450.00000000</i>
   <i name="ENAUG">    322.06900000</i>
   <i name="EDIFF">      0.00001000</i>
   <i type="int" name="IALGO">    38</i>
   <i type="int" name="IWAVPR">    11</i>
   <i type="int" name="NBANDS">     8</i>
   <i name="NELECT">      8.00000000</i>
   <i type="int" name="TURBO">     0</i>
   <i type="int" name="IRESTART">     0</i>
   <i type="int" name="NREBOOT">     0</i>
   <i type="int" name="NMIN">     0</i>
   <i name="EREF">      0.00000000</i>
   <separator name="electronic smearing" >
    <i type="int" name="ISMEAR">     0</i>
    <i name="SIGMA">      0.10000000</i>
    <i name="KSPACING">      0.50000000</i>
    <i type="logical" name="KGAMMA"> T  </i>
   </separator>
   <separator name="electronic projectors" >
    <i type="logical" name="LREAL"> F  </i>
    <v name="ROPT">      0.00000000</v>
    <i type="int" name="LMAXPAW">  -100</i>
    <i type="int" name="LMAXMIX">     2</i>
    <i type="logical" name="NLSPLINE"> F  </i>
   </separator>
   <separator name="electronic startup" >
    <i type="int" name="ISTART">     0</i>
    <i type="int" name="ICHARG">     2</i>
    <i type="int" name="INIWAV">     1</i>
   </separator>
   <separator name="electronic spin" >
    <i type="int" name="ISPIN">     1</i>
    <i type="logical" name="LNONCOLLINEAR"> F  </i>
    <v name="MAGMOM">      1.00000000      1.00000000</v>
    <i name="NUPDOWN">     -1.00000000</i>
    <i type="logical" name="LSORBIT"> F  </i>
    <v name="SAXIS">      0.00000000      0.00000000      1.00000000</v>
    <i type="logical" name="LSPIRAL"> F  </i>
    <v name="QSPIRAL">      0.00000000      0.00000000      0.00000000</v>
    <i type="logical" name="LZEROZ"> F  </i>
   </separator>
   <separator name="electronic exchange-correlation" >
    <i type="logical" name="LASPH"> F  </i>
    <i type="logical" name="LMETAGGA"> F  </i>
   </separator>
   <separator name="electronic convergence" >
    <i type="int" name="NELM">    60</i>
    <i type="int" name="NELMDL">    -5</i>
    <i type="int" name="NELMIN">     2</i>
    <i name="ENINI">    450.00000000</i>
    <separator name="electronic convergence detail" >
     <i type="logical" name="LDIAG"> T  </i>
     <i type="logical" name="LSUBROT"> F  </i>
     <i name="WEIMIN">      0.00100000</i>
     <i name="EBREAK">      0.00000031</i>
     <i name="DEPER">      0.30000000</i>
     <i type="int" name="NRMM">     4</i>
     <i name="TIME">      0.40000000</i>
    </separator>
   </separator>
   <separator name="electronic mixer" >
    <i name="AMIX">      0.40000000</i>
    <i name="BMIX">      1.00000000</i>
    <i name="AMIN">      0.10000000</i>
    <i name="AMIX_MAG">      1.60000000</i>
    <i name="BMIX_MAG">      1.00000000</i>
    <separator name="electronic mixer details" >
     <i type="int" name="IMIX">     4</i>
     <i type="logical" name="MIXFIRST"> F  </i>
     <i type="int" name="MAXMIX">   -45</i>
     <i name="WC">    100.00000000</i>
     <i type="int" name="INIMIX">     1</i>
     <i type="int" name="MIXPRE">     1</i>
     <i type="int" name="MREMOVE">     5</i>
    </separator>
   </separator>
   <separator name="electronic dipolcorrection" >
    <i type="logical" name="LDIPOL"> F  </i>
    <i type="logical" name="LMONO"> F  </i>
    <i type="int" name="IDIPOL">     0</i>
    <i name="EPSILON">      1.00000000</i>
    <v name="DIPOL">   -100.00000000   -100.00000000   -100.00000000</v>
    <i name="EFIELD">      0.00000000</i>
   </separator>
  </separator>
  <separator name="grids" >
   <i type="int" name="NGX">    18</i>
   <i type="int" name="NGY">    18</i>
   <i type="int" name="NGZ">    28</i>
   <i type="int" name="NGXF">    36</i>
   <i type="int" name="NGYF">    36</i>
   <i type="int" name="NGZF">    56</i>
   <i type="logical" name="ADDGRID"> F  </i>
  </separator>
  <separator name="ionic" >
   <i type="int" name="NSW">   100</i>
   <i type="int" name="IBRION">     2</i>
   <i type="int" name="ISIF">     4</i>
   <i name="PSTRESS">      0.00000000</i>
   <i name="EDIFFG">     -0.01000000</i>
   <i type="int" name="NFREE">     1</i>
   <i name="POTIM">      0.50000000</i>
   <i name="SMASS">     -3.00000000</i>
   <i name="SCALEE">      1.00000000</i>
  </separator>
  <separator name="ionic md" >
   <i name="TEBEG">      0.00010000</i>
   <i name="TEEND">      0.00010000</i>
   <i type="int" name="NBLOCK">     1</i>
   <i type="int" name="KBLOCK">   100</i>
   <i type="int" name="NPACO">   256</i>
   <i name="APACO">     16.00000000</i>
  </separator>
  <separator name="symmetry" >
   <i type="int" name="ISYM">     2</i>
   <i name="SYMPREC">      0.00001000</i>
  </separator>
  <separator name="dos" >
   <i type="logical" name="LORBIT"> F  </i>
   <v name="RWIGS">     -1.00000000</v>
   <i type="int" name="NEDOS">   301</i>
   <i name="EMIN">     10.00000000</i>
   <i name="EMAX">    -10.00000000</i>
   <i name="EFERMI">      0.00000000</i>
  </separator>
  <separator name="writing" >
   <i type="int" name="NWRITE">     2</i>
   <i type="logical" name="LWAVE"> T  </i>
   <i type="logical" name="LCHARG"> T  </i>
   <i type="logical" name="LPARD"> F  </i>
   <i type="logical" name="LVTOT"> F  </i>
   <i type="logical" name="LVHAR"> F  </i>
   <i type="logical" name="LELF"> F  </i>
   <i type="logical" name="LOPTICS"> F  </i>
   <v name="STM">      0.00000000      0.00000000      0.00000000      0.00000000      0.00000000      0.00000000      0.00000000</v>
  </separator>
  <separator name="performance" >
   <i type="int" name="NPAR">     4</i>
   <i type="int" name="NSIM">     4</i>
   <i type="int" name="NBLK">    -1</i>
   <i type="logical" name="LPLANE"> T  </i>
   <i type="logical" name="LSCALAPACK"> F  </i>
   <i type="logical" name="LSCAAWARE"> F  </i>
   <i type="logical" name="LSCALU"> F  </i>
   <i type="logical" name="LASYNC"> F  </i>
   <i type="logical" name="LORBITALREAL"> F  </i>
  </separator>
  <separator name="miscellaneous" >
   <i type="int" name="IDIOT">     3</i>
   <i type="logical" name="LMUSIC"> F  </i>
   <v name="POMASS">     28.08500000</v>
   <v name="DARWINR">      0.00000000</v>
   <v name="DARWINV">      1.00000000</v>
   <i type="logical" name="LCORR"> T  </i>
  </separator>
  <i type="logical" name="GGA_COMPAT"> T  </i>
  <i type="logical" name="LBERRY"> F  </i>
  <i type="int" name="ICORELEVEL">     0</i>
  <i type="logical" name="LDAU"> F  </i>
  <i type="int" name="I_CONSTRAINED_M">     0</i>
  <separator name="electronic exchange-correlation" >
   <i type="string" name="GGA">--</i>
   <i type="int" name="VOSKOWN">     0</i>
   <i type="logical" name="LHFCALC"> F  </i>
   <i type="string" name="PRECFOCK"></i>
   <i type="logical" name="LSYMGRAD"> F  </i>
   <i type="logical" name="LHFONE"> F  </i>
   <i type="logical" name="LRHFCALC"> F  </i>
   <i type="logical" name="LTHOMAS"> F  </i>
   <i type="logical" name="LMODELHF"> F  </i>
   <i name="ENCUT4O">     -1.00000000</i>
   <i type="int" name="EXXOEP">     0</i>
   <i type="int" name="FOURORBIT">     0</i>
   <i name="AEXX">      0.00000000</i>
   <i name="HFALPHA">      0.00000000</i>
   <i name="MCALPHA">      0.00000000</i>
   <i name="ALDAX">      1.00000000</i>
   <i name="AGGAX">      1.00000000</i>
   <i name="ALDAC">      1.00000000</i>
   <i name="AGGAC">      1.00000000</i>
   <i type="int" name="NKREDX">     1</i>
   <i type="int" name="NKREDY">     1</i>
   <i type="int" name="NKREDZ">     1</i>
   <i type="logical" name="SHIFTRED"> F  </i>
   <i type="logical" name="ODDONLY"> F  </i>
   <i type="logical" name="EVENONLY"> F  </i>
   <i type="int" name="LMAXFOCK">     0</i>
   <i type="int" name="NMAXFOCKAE">     0</i>
   <i type="logical" name="LFOCKAEDFT"> F  </i>
   <i name="HFSCREEN">      0.00000000</i>
   <i name="HFSCREENC">      0.00000000</i>
   <i type="int" name="NBANDSGWLOW">     0</i>
  </separator>
  <separator name="vdW DFT" >
   <i type="logical" name="LUSE_VDW"> F  </i>
   <i name="Zab_VDW">     -0.84910000</i>
   <i name="PARAM1">      0.12340000</i>
   <i name="PARAM2">      1.00000000</i>
   <i name="PARAM3">      0.00000000</i>
  </separator>
  <separator name="model GW" >
   <i type="int" name="MODEL_GW">     0</i>
   <i name="MODEL_EPS0">      6.23926835</i>
   <i name="MODEL_ALPHA">      1.00000000</i>
  </separator>
  <separator name="linear response parameters" >
   <i type="logical" name="LEPSILON"> F  </i>
   <i type="logical" name="LRPA"> F  </i>
   <i type="logical" name="LNABLA"> F  </i>
   <i type="logical" name="LVEL"> F  </i>
   <i type="int" name="KINTER">     0</i>
   <i name="CSHIFT">      0.10000000</i>
   <i name="OMEGAMAX">     -1.00000000</i>
   <i name="DEG_THRESHOLD">      0.00200000</i>
  </separator>
  <separator name="orbital magnetization" >
   <i type="logical" name="NUCIND"> F  </i>
   <v name="MAGPOS">      0.00000000      0.00000000      0.00000000</v>
   <i type="logical" name="LNICSALL"> T  </i>
   <i type="logical" name="ORBITALMAG"> F  </i>
   <i type="logical" name="LMAGBLOCH"> F  </i>
   <i type="logical" name="LCHIMAG"> F  </i>
   <i type="logical" name="LGAUGE"> T  </i>
   <i type="int" name="MAGATOM">     0</i>
   <v name="MAGDIPOL">      0.00000000      0.00000000      0.00000000</v>
   <v name="AVECCONST">      0.00000000      0.00000000      0.00000000</v>
  </separator>
  <separator name="response functions" >
   <i type="logical" name="LADDER"> F  </i>
   <i type="logical" name="LFXC"> F  </i>
   <i type="logical" name="LHARTREE"> T  </i>
   <i type="int" name="IBSE">     0</i>
   <v type="int" name="KPOINT">    -1     0     0     0</v>
   <i type="logical" name="LTCTE"> F  </i>
   <i type="logical" name="LTETE"> F  </i>
   <i type="logical" name="LTRIPLET"> F  </i>
   <i type="logical" name="LFXCEPS"> F  </i>
   <i type="logical" name="LFXHEG"> F  </i>
   <i type="int" name="NATURALO">     0</i>
   <i type="logical" name="L2ORDER"> F  </i>
   <i type="logical" name="LUSEW"> F  </i>
   <i name="ENCUTGW">     -2.00000000</i>
   <i name="ENCUTGWSOFT">     -2.00000000</i>
   <i name="ENCUTLF">     -1.00000000</i>
   <i type="int" name="LMAXMP2">    -1</i>
   <i name="SCISSOR">      0.00000000</i>
   <i type="int" name="NOMEGA">     0</i>
   <i type="int" name="NOMEGAR">     0</i>
   <i type="int" name="NBANDSGW">    -1</i>
   <i type="int" name="NBANDSO">    -1</i>
   <i type="int" name="NBANDSV">    -1</i>
   <i type="int" name="NELM">     1</i>
   <i type="int" name="NELMHF">     1</i>
   <i type="int" name="DIM">     3</i>
   <i type="int" name="ANTIRES">     0</i>
   <i name="OMEGAMAX">    -30.00000000</i>
   <i name="OMEGAMIN">    -30.00000000</i>
   <i name="OMEGATL">   -200.00000000</i>
   <i type="int" name="OMEGAGRID">     0</i>
   <i name="CSHIFT">     -0.10000000</i>
   <i type="logical" name="SELFENERGY"> F  </i>
   <i type="logical" name="LSPECTRAL"> F  </i>
   <i type="logical" name="LSPECTRALGW"> F  </i>
   <i type="logical" name="LSINGLES"> F  </i>
   <i type="logical" name="LFERMIGW"> F  </i>
   <i type="logical" name="ODDONLYGW"> F  </i>
   <i type="logical" name="EVENONLYGW"> F  </i>
   <i type="int" name="NKREDLFX">     1</i>
   <i type="int" name="NKREDLFY">     1</i>
   <i type="int" name="NKREDLFZ">     1</i>
   <i type="int" name="MAXMEM">  1800</i>
   <i type="int" name="TELESCOPE">     0</i>
   <i type="int" name="TAUPAR">     1</i>
   <i type="int" name="OMEGAPAR">    -1</i>
   <i name="LAMBDA">      1.00000000</i>
  </separator>
  <separator name="External order field" >
   <i name="OFIELD_KAPPA">      0.00000000</i>
   <v name="OFIELD_K">      0.00000000      0.00000000      0.00000000</v>
   <i name="OFIELD_Q6_NEAR">      0.00000000</i>
   <i name="OFIELD_Q6_FAR">      0.00000000</i>
   <i name="OFIELD_A">      0.00000000</i>
  </separator>
 </parameters>
 <atominfo>
  <atoms>       2 </atoms>
  <types>       1 </types>
  <array name="atoms" >
   <dimension dim="1">ion</dimension>
   <field type="string">element</field>
   <field type="int">atomtype</field>
   <set>
    <rc><c> S</c><c>   1</c></rc>
    <rc><c> S</c><c>   1</c></rc>
   </set>
  </array>
  <array name="atomtypes" >
   <dimension dim="1">type</dimension>
   <field type="int">atomspertype</field>
   <field type="string">element</field>
   <field>mass</field>
   <field>valence</field>
   <field type="string">pseudopotential</field>
   <set>
    <rc><c>   2</c><c> S</c><c>     28.08500000</c><c>      4.00000000</c><c>  PAW_PBE Si 05Jan2001                  </c></rc>
   </set>
  </array>
 </atominfo>
 <structure name="initialpos" >
  <crystal>
   <varray name="basis" >
    <v>       2.45000000       0.00000000       0.00000000 </v>
    <v>      -1.22500000       2.12176224       0.00000000 </v>
    <v>       0.00000000       0.00000000       4.00082550 </v>
   </varray>
   <i name="volume">     20.79756116 </i>
   <varray name="rec_basis" >
    <v>       0.40816327       0.23565317       0.00000000 </v>
    <v>       0.00000000       0.47130634       0.00000000 </v>
    <v>       0.00000000       0.00000000       0.24994842 </v>
   </varray>
  </crystal>
  <varray name="positions" >
   <v>       0.00000000       0.00000000       0.00000000 </v>
   <v>       0.33333333       0.66666667       0.50000000 </v>
  </varray>
 </structure>
 <calculation>
  <scstep>
   <time name="dav">    1.76    1.09</time>
   <time name="total">    1.82    1.12</time>
   <energy>
    <i name="alphaZ">      6.47443814 </i>
    <i name="ewald">   -304.86272823 </i>
    <i name="hartreedc">     -0.38823032 </i>
    <i name="XCdc">    -15.70301138 </i>
    <i name="pawpsdc">    176.24759923 </i>
    <i name="pawaedc">   -141.06103558 </i>
    <i name="eentropy">     -0.00217263 </i>
    <i name="bandstr">     78.11215323 </i>
    <i name="atom">    206.13192747 </i>
    <i name="e_fr_energy">      4.94893992 </i>
    <i name="e_wo_entrp">      4.95111255 </i>
    <i name="e_0_energy">      4.95002623 </i>
   </energy>
  </scstep>
  <scstep>
   <time name="dav">    2.04    1.27</time>
   <time name="total">    2.05    1.27</time>
   <energy>
    <i name="e_fr_energy">     -8.70054234 </i>
    <i name="e_wo_entrp">     -8.69534297 </i>
    <i name="e_0_energy">     -8.69794266 </i>
   </energy>
  </scstep>
  <scstep>
   <time name="dav">    1.27    0.80</time>
   <time name="total">    1.28    0.80</time>
   <energy>
    <i name="e_fr_energy">     -8.84649585 </i>
    <i name="e_wo_entrp">     -8.84076992 </i>
    <i name="e_0_energy">     -8.84363288 </i>
   </energy>
  </scstep>
  <scstep>
   <time name="dav">    1.91    1.23</time>
   <time name="total">    1.91    1.24</time>
   <energy>
    <i name="e_fr_energy">     -8.84672441 </i>
    <i name="e_wo_entrp">     -8.84098994 </i>
    <i name="e_0_energy">     -8.84385717 </i>
   </energy>
  </scstep>
  <scstep>
   <time name="dav">    1.27    0.81</time>
   <time name="total">    1.30    0.83</time>
   <energy>
    <i name="e_fr_energy">     -8.84672459 </i>
    <i name="e_wo_entrp">     -8.84099011 </i>
    <i name="e_0_energy">     -8.84385735 </i>
   </energy>
  </scstep>
  <scstep>
   <time name="dav">    1.11    0.73</time>
   <time name="total">    1.19    0.77</time>
   <energy>
    <i name="e_fr_energy">     -8.79912174 </i>
    <i name="e_wo_entrp">     -8.79344760 </i>
    <i name="e_0_energy">     -8.79628467 </i>
   </energy>
  </scstep>
  <scstep>
   <time name="dav">    1.79    1.11</time>
   <time name="total">    1.87    1.16</time>
   <energy>
    <i name="e_fr_energy">     -8.77031570 </i>
    <i name="e_wo_entrp">     -8.76474612 </i>
    <i name="e_0_energy">     -8.76753091 </i>
   </energy>
  </scstep>
  <scstep>
   <time name="dav">    2.79    1.80</time>
   <time name="total">    2.87    1.85</time>
   <energy>
    <i name="e_fr_energy">     -8.77003810 </i>
    <i name="e_wo_entrp">     -8.76447412 </i>
    <i name="e_0_energy">     -8.76725611 </i>
   </energy>
  </scstep>
  <scstep>
   <time name="dav">    1.25    0.79</time>
   <time name="total">    1.30    0.82</time>
   <energy>
    <i name="alphaZ">      6.47443814 </i>
    <i name="ewald">   -304.86272823 </i>
    <i name="hartreedc">     -0.52816076 </i>
    <i name="XCdc">    -15.36839264 </i>
    <i name="pawpsdc">   1382.30148977 </i>
    <i name="pawaedc">  -1347.33276248 </i>
    <i name="eentropy">     -0.00556211 </i>
    <i name="bandstr">     64.41971601 </i>
    <i name="atom">    206.13192747 </i>
    <i name="e_fr_energy">     -8.77003484 </i>
    <i name="e_wo_entrp">     -8.76447272 </i>
    <i name="e_0_energy">     -8.76725378 </i>
   </energy>
  </scstep>
  <structure>
   <crystal>
    <varray name="basis" >
     <v>       2.45000000       0.00000000       0.00000000 </v>
     <v>      -1.22500000       2.12176224       0.00000000 </v>
     <v>       0.00000000       0.00000000       4.00082550 </v>
    </varray>
    <i name="volume">     20.79756116 </i>
    <varray name="rec_basis" >
     <v>       0.40816327       0.23565317       0.00000000 </v>
     <v>       0.00000000       0.47130634       0.00000000 </v>
     <v>       0.00000000       0.00000000       0.24994842 </v>
    </varray>
   </crystal>
   <varray name="positions" >
    <v>       0.00000000       0.00000000       0.00000000 </v>
    <v>       0.33333333       0.66666667       0.50000000 </v>
   </varray>
  </structure>
  <varray name="forces" >
   <v>      -0.00000000       0.00000000       0.00000000 </v>
   <v>       0.00000000      -0.00000000       0.00000000 </v>
  </varray>
  <varray name="stress" >
   <v>     606.99646610       0.00000000       0.00000000 </v>
   <v>       0.00000000     606.99646610      -0.00000000 </v>
   <v>      -0.00000000       0.00000000     576.88032737 </v>
  </varray>
  <energy>
   <i name="e_fr_energy">     -8.77003484 </i>
   <i name="e_wo_entrp">     -8.76725378 </i>
   <i name="e_0_energy">     -0.00556211 </i>
  </energy>
  <time name="totalsc">   16.29   10.36</time>
 </calculation>
 <calculation>
  <scstep>
   <time name="dav">    2.13    1.26</time>
   <time name="total">    2.24    1.32</time>
   <energy>
    <i name="alphaZ">      6.47443814 </i>
    <i name="ewald">   -304.85764265 </i>
    <i name="hartreedc">     -0.52823936 </i>
    <i name="XCdc">    -15.36861214 </i>
    <i name="pawpsdc">   1383.35410857 </i>
    <i name="pawaedc">  -1348.38487408 </i>
    <i name="eentropy">     -0.00596923 </i>
    <i name="bandstr">     64.41342687 </i>
    <i name="atom">    206.13192747 </i>
    <i name="e_fr_energy">     -8.77143640 </i>
    <i name="e_wo_entrp">     -8.76546717 </i>
    <i name="e_0_energy">     -8.76845179 </i>
   </energy>
  </scstep>
  <scstep>
   <time name="dav">    1.12    0.74</time>
   <time name="total">    1.20    0.79</time>
   <energy>
    <i name="e_fr_energy">     -8.77100412 </i>
    <i name="e_wo_entrp">     -8.76505270 </i>
    <i name="e_0_energy">     -8.76802841 </i>
   </energy>
  </scstep>
  <scstep>
   <time name="dav">    2.01    1.34</time>
   <time name="total">    2.09    1.39</time>
   <energy>
    <i name="e_fr_energy">     -8.77080883 </i>
    <i name="e_wo_entrp">     -8.76488091 </i>
    <i name="e_0_energy">     -8.76784487 </i>
   </energy>
  </scstep>
  <scstep>
   <time name="dav">    0.88    0.60</time>
   <time name="total">    0.93    0.63</time>
   <energy>
    <i name="alphaZ">      6.47443814 </i>
    <i name="ewald">   -304.85764265 </i>
    <i name="hartreedc">     -0.52911739 </i>
    <i name="XCdc">    -15.36885864 </i>
    <i name="pawpsdc">   1381.95971795 </i>
    <i name="pawaedc">  -1346.99017180 </i>
    <i name="eentropy">     -0.00592810 </i>
    <i name="bandstr">     64.41482491 </i>
    <i name="atom">    206.13192747 </i>
    <i name="e_fr_energy">     -8.77081010 </i>
    <i name="e_wo_entrp">     -8.76488200 </i>
    <i name="e_0_energy">     -8.76784605 </i>
   </energy>
  </scstep>
  <structure>
   <crystal>
    <varray name="basis" >
     <v>       2.45772533       0.00000000       0.00000000 </v>
     <v>      -1.22886267       2.12845257      -0.00000000 </v>
     <v>      -0.00000000       0.00000000       3.97571355 </v>
    </varray>
    <i name="volume">     20.79756116 </i>
    <varray name="rec_basis" >
     <v>       0.40688029       0.23491245       0.00000000 </v>
     <v>       0.00000000       0.46982489       0.00000000 </v>
     <v>      -0.00000000       0.00000000       0.25152718 </v>
    </varray>
   </crystal>
   <varray name="positions" >
    <v>      -0.00000000       0.00000000       0.00000000 </v>
    <v>       0.33333333       0.66666667       0.50000000 </v>
   </varray>
  </structure>
  <varray name="forces" >
   <v>      -0.00000000       0.00000000       0.00000000 </v>
   <v>       0.00000000      -0.00000000       0.00000000 </v>
  </varray>
  <varray name="stress" >
   <v>     592.03307435       0.00000000      -0.00000000 </v>
   <v>       0.00000000     592.03307435       0.00000000 </v>
   <v>       0.00000000      -0.00000000     607.45207938 </v>
  </varray>
  <energy>
   <i name="e_fr_energy">     -8.77081010 </i>
   <i name="e_wo_entrp">     -8.76784605 </i>
   <i name="e_0_energy">     -0.00592810 </i>
  </energy>
  <time name="totalsc">    7.02    4.51</time>
 </calculation>
 <calculation>
  <scstep>
   <time name="dav">    1.84    1.19</time>
   <time name="total">    1.90    1.24</time>
   <energy>
    <i name="alphaZ">      6.47443814 </i>
    <i name="ewald">   -304.85983172 </i>
    <i name="hartreedc">     -0.52894291 </i>
    <i name="XCdc">    -15.36886443 </i>
    <i name="pawpsdc">   1381.81664854 </i>
    <i name="pawaedc">  -1346.84711804 </i>
    <i name="eentropy">     -0.00550554 </i>
    <i name="bandstr">     64.41617936 </i>
    <i name="atom">    206.13192747 </i>
    <i name="e_fr_energy">     -8.77106913 </i>
    <i name="e_wo_entrp">     -8.76556359 </i>
    <i name="e_0_energy">     -8.76831636 </i>
   </energy>
  </scstep>
  <scstep>
   <time name="dav">    1.11    0.70</time>
   <time name="total">    1.20    0.76</time>
   <energy>
    <i name="e_fr_energy">     -8.77103326 </i>
    <i name="e_wo_entrp">     -8.76551949 </i>
    <i name="e_0_energy">     -8.76827638 </i>
   </energy>
  </scstep>
  <scstep>
   <time name="dav">    1.55    0.94</time>
   <time name="total">    1.62    0.99</time>
   <energy>
    <i name="e_fr_energy">     -8.77101712 </i>
    <i name="e_wo_entrp">     -8.76549390 </i>
    <i name="e_0_energy">     -8.76825551 </i>
   </energy>
  </scstep>
  <scstep>
   <time name="dav">    0.98    0.64</time>
   <time name="total">    1.03    0.67</time>
   <energy>
    <i name="alphaZ">      6.47443814 </i>
    <i name="ewald">   -304.85983172 </i>
    <i name="hartreedc">     -0.52838197 </i>
    <i name="XCdc">    -15.36883465 </i>
    <i name="pawpsdc">   1381.97012482 </i>
    <i name="pawaedc">  -1347.00071042 </i>
    <i name="eentropy">     -0.00552311 </i>
    <i name="bandstr">     64.41577423 </i>
    <i name="atom">    206.13192747 </i>
    <i name="e_fr_energy">     -8.77101722 </i>
    <i name="e_wo_entrp">     -8.76549411 </i>
    <i name="e_0_energy">     -8.76825567 </i>
   </energy>
  </scstep>
  <structure>
   <crystal>
    <varray name="basis" >
     <v>       2.45554728       0.00000000       0.00000000 </v>
     <v>      -1.22777364       2.12656633      -0.00000000 </v>
     <v>      -0.00000000       0.00000000       3.98276953 </v>
    </varray>
    <i name="volume">     20.79756116 </i>
    <varray name="rec_basis" >
     <v>       0.40724119       0.23512081       0.00000000 </v>
     <v>       0.00000000       0.47024162       0.00000000 </v>
     <v>      -0.00000000       0.00000000       0.25108156 </v>
    </varray>
   </crystal>
   <varray name="positions" >
    <v>      -0.00000000       0.00000000      -0.00000000 </v>
    <v>       0.33333333       0.66666667       0.50000000 </v>
   </varray>
  </structure>
  <varray name="forces" >
   <v>       0.00000000      -0.00000000       0.00000000 </v>
   <v>      -0.00000000       0.00000000      -0.00000000 </v>
  </varray>
  <varray name="stress" >
   <v>     596.54466863       0.00000000      -0.00000000 </v>
   <v>       0.00000000     596.54466863       0.00000000 </v>
   <v>       0.00000000       0.00000000     598.28333008 </v>
  </varray>
  <energy>
   <i name="e_fr_energy">     -8.77101722 </i>
   <i name="e_wo_entrp">     -8.76825567 </i>
   <i name="e_0_energy">     -0.00552311 </i>
  </energy>
  <time name="totalsc">    6.16    3.96</time>
  <eigenvalues>
   <array>
    <dimension dim="1">band</dimension>
    <dimension dim="2">kpoint</dimension>
    <dimension dim="3">spin</dimension>
    <field>eigene</field>
    <field>occ</field>
    <set>
     <set comment="spin 1">
      <set comment="kpoint 1">
       <r>   -1.9991    1.0000 </r>
       <r>    5.4071    1.0000 </r>
       <r>    8.3669    1.0000 </r>
       <r>   20.6612    0.0000 </r>
       <r>   20.7742    0.0000 </r>
       <r>   26.9573    0.0000 </r>
       <r>   27.2021    0.0000 </r>
       <r>   27.2082    0.0000 </r>
      </set>
      <set comment="kpoint 2">
       <r>    0.2045    1.0000 </r>
       <r>    7.4794    1.0000 </r>
       <r>   10.2908    1.0000 </r>
       <r>   13.2984    1.0000 </r>
       <r>   17.8325    0.0000 </r>
       <r>   20.1592    0.0000 </r>
       <r>   22.6394    0.0000 </r>
       <r>   25.0805    0.0000 </r>
      </set>
      <set comment="kpoint 3">
       <r>    4.0874    1.0000 </r>
       <r>    6.6017    1.0000 </r>
       <r>   11.3082    1.0000 </r>
       <r>   13.5022    1.0000 </r>
       <r>   14.4478    1.0000 </r>
       <r>   16.2071    0.0000 </r>
       <r>   17.9155    0.0000 </r>
       <r>   23.8161    0.0000 </r>
      </set>
      <set comment="kpoint 4">
       <r>    1.9447    1.0000 </r>
       <r>    8.7826    1.0000 </r>
       <r>    9.8994    1.0000 </r>
       <r>   12.3262    1.0000 </r>
       <r>   16.3401    0.0000 </r>
       <r>   17.5802    0.0000 </r>
       <r>   19.8392    0.0000 </r>
       <r>   24.2287    0.0000 </r>
      </set>
      <set comment="kpoint 5">
       <r>   -1.1140    1.0000 </r>
       <r>    6.2449    1.0000 </r>
       <r>    9.1774    1.0000 </r>
       <r>   16.8158    0.0000 </r>
       <r>   19.1288    0.0000 </r>
       <r>   23.5398    0.0000 </r>
       <r>   25.3501    0.0000 </r>
       <r>   26.5422    0.0000 </r>
      </set>
      <set comment="kpoint 6">
       <r>   -2.4436    1.0000 </r>
       <r>    4.9854    1.0000 </r>
       <r>    7.9538    1.0000 </r>
       <r>   22.6145    0.0000 </r>
       <r>   24.0961    0.0000 </r>
       <r>   25.8208    0.0000 </r>
       <r>   28.1141    0.0000 </r>
       <r>   28.6004    0.0000 </r>
      </set>
      <set comment="kpoint 7">
       <r>    3.2370    1.0000 </r>
       <r>    9.7740    1.0000 </r>
       <r>   10.9037    1.0000 </r>
       <r>   11.2307    1.0000 </r>
       <r>   13.7813    1.0000 </r>
       <r>   17.6977    0.0000 </r>
       <r>   18.5343    0.0000 </r>
       <r>   21.2368    0.0000 </r>
      </set>
      <set comment="kpoint 8">
       <r>    5.3598    1.0000 </r>
       <r>    7.8444    1.0000 </r>
       <r>   10.2464    1.0000 </r>
       <r>   12.6958    1.0000 </r>
       <r>   14.6481    1.0000 </r>
       <r>   15.9326    0.0000 </r>
       <r>   17.7567    0.0000 </r>
       <r>   18.9743    0.0000 </r>
      </set>
      <set comment="kpoint 9">
       <r>    1.5118    1.0000 </r>
       <r>    8.6623    1.0000 </r>
       <r>   11.0243    1.0000 </r>
       <r>   12.4350    1.0000 </r>
       <r>   14.4711    1.0000 </r>
       <r>   18.9019    0.0000 </r>
       <r>   20.9247    0.0000 </r>
       <r>   22.4591    0.0000 </r>
      </set>
      <set comment="kpoint 10">
       <r>   -0.6732    1.0000 </r>
       <r>    6.6597    1.0000 </r>
       <r>    9.5654    1.0000 </r>
       <r>   14.8421    1.0000 </r>
       <r>   21.1103    0.0000 </r>
       <r>   21.2756    0.0000 </r>
       <r>   23.0617    0.0000 </r>
       <r>   24.9577    0.0000 </r>
      </set>
      <set comment="kpoint 11">
       <r>    5.6875    1.0000 </r>
       <r>    5.8707    1.0000 </r>
       <r>   12.3174    1.0000 </r>
       <r>   13.1303    1.0000 </r>
       <r>   13.4755    1.0000 </r>
       <r>   15.8399    0.0000 </r>
       <r>   17.0512    0.0000 </r>
       <r>   20.8621    0.0000 </r>
      </set>
      <set comment="kpoint 12">
       <r>    2.8064    1.0000 </r>
       <r>    7.7708    1.0000 </r>
       <r>   10.1683    1.0000 </r>
       <r>   12.9922    1.0000 </r>
       <r>   15.1909    0.2511 </r>
       <r>   17.8007    0.0000 </r>
       <r>   19.6226    0.0000 </r>
       <r>   22.3804    0.0000 </r>
      </set>
      <set comment="kpoint 13">
       <r>   -1.4934    1.0000 </r>
       <r>    2.9866    1.0000 </r>
       <r>   11.6530    1.0000 </r>
       <r>   20.9688    0.0000 </r>
       <r>   21.1862    0.0000 </r>
       <r>   23.8748    0.0000 </r>
       <r>   25.2687    0.0000 </r>
       <r>   25.3810    0.0000 </r>
      </set>
      <set comment="kpoint 14">
       <r>    0.7032    1.0000 </r>
       <r>    5.1119    1.0000 </r>
       <r>   12.9139    1.0000 </r>
       <r>   14.2864    1.0000 </r>
       <r>   17.4007    0.0000 </r>
       <r>   18.9023    0.0000 </r>
       <r>   22.4971    0.0000 </r>
       <r>   25.2840    0.0000 </r>
      </set>
      <set comment="kpoint 15">
       <r>    4.5674    1.0000 </r>
       <r>    6.9900    1.0000 </r>
       <r>    9.1358    1.0000 </r>
       <r>   11.4874    1.0000 </r>
       <r>   16.6228    0.0000 </r>
       <r>   18.0479    0.0000 </r>
       <r>   19.9914    0.0000 </r>
       <r>   21.8605    0.0000 </r>
      </set>
      <set comment="kpoint 16">
       <r>    2.4370    1.0000 </r>
       <r>    6.7461    1.0000 </r>
       <r>   10.1875    1.0000 </r>
       <r>   14.1510    1.0000 </r>
       <r>   15.5138    0.0000 </r>
       <r>   17.9647    0.0000 </r>
       <r>   21.5315    0.0000 </r>
       <r>   23.1433    0.0000 </r>
      </set>
      <set comment="kpoint 17">
       <r>   -0.6110    1.0000 </r>
       <r>    3.8424    1.0000 </r>
       <r>   12.4093    1.0000 </r>
       <r>   17.2610    0.0000 </r>
       <r>   19.4636    0.0000 </r>
       <r>   21.4577    0.0000 </r>
       <r>   23.6223    0.0000 </r>
       <r>   24.9401    0.0000 </r>
      </set>
      <set comment="kpoint 18">
       <r>   -1.9365    1.0000 </r>
       <r>    2.5564    1.0000 </r>
       <r>   11.2581    1.0000 </r>
       <r>   22.6929    0.0000 </r>
       <r>   23.7463    0.0000 </r>
       <r>   24.5118    0.0000 </r>
       <r>   26.2782    0.0000 </r>
       <r>   27.8672    0.0000 </r>
      </set>
      <set comment="kpoint 19">
       <r>    3.7238    1.0000 </r>
       <r>    7.9369    1.0000 </r>
       <r>   11.3467    1.0000 </r>
       <r>   11.4396    1.0000 </r>
       <r>   15.1711    0.3478 </r>
       <r>   15.7329    0.0000 </r>
       <r>   17.8268    0.0000 </r>
       <r>   24.1173    0.0000 </r>
      </set>
      <set comment="kpoint 20">
       <r>    5.8312    1.0000 </r>
       <r>    8.2079    1.0000 </r>
       <r>   10.0320    1.0000 </r>
       <r>   11.2120    1.0000 </r>
       <r>   12.9617    1.0000 </r>
       <r>   15.1992    0.2150 </r>
       <r>   19.3458    0.0000 </r>
       <r>   21.6073    0.0000 </r>
      </set>
      <set comment="kpoint 21">
       <r>    2.0059    1.0000 </r>
       <r>    6.3583    1.0000 </r>
       <r>   12.1299    1.0000 </r>
       <r>   14.2338    1.0000 </r>
       <r>   15.1455    0.4886 </r>
       <r>   17.1326    0.0000 </r>
       <r>   19.2335    0.0000 </r>
       <r>   24.9044    0.0000 </r>
      </set>
      <set comment="kpoint 22">
       <r>   -0.1717    1.0000 </r>
       <r>    4.2676    1.0000 </r>
       <r>   12.7190    1.0000 </r>
       <r>   15.3676    0.0008 </r>
       <r>   19.2579    0.0000 </r>
       <r>   21.5353    0.0000 </r>
       <r>   23.3033    0.0000 </r>
       <r>   25.3807    0.0000 </r>
      </set>
      <set comment="kpoint 23">
       <r>    6.1497    1.0000 </r>
       <r>    6.3258    1.0000 </r>
       <r>   10.4883    1.0000 </r>
       <r>   10.8135    1.0000 </r>
       <r>   13.9868    1.0000 </r>
       <r>   17.5737    0.0000 </r>
       <r>   19.6627    0.0000 </r>
       <r>   20.1200    0.0000 </r>
      </set>
      <set comment="kpoint 24">
       <r>    3.2946    1.0000 </r>
       <r>    7.3642    1.0000 </r>
       <r>    8.7685    1.0000 </r>
       <r>   12.6871    1.0000 </r>
       <r>   16.3199    0.0000 </r>
       <r>   20.0476    0.0000 </r>
       <r>   20.5402    0.0000 </r>
       <r>   22.9920    0.0000 </r>
      </set>
      <set comment="kpoint 25">
       <r>   -0.4868    1.0000 </r>
       <r>    1.0114    1.0000 </r>
       <r>   15.3382    0.0029 </r>
       <r>   19.2623    0.0000 </r>
       <r>   21.9286    0.0000 </r>
       <r>   22.1105    0.0000 </r>
       <r>   23.7236    0.0000 </r>
       <r>   23.8111    0.0000 </r>
      </set>
      <set comment="kpoint 26">
       <r>    1.6954    1.0000 </r>
       <r>    3.1708    1.0000 </r>
       <r>   14.2870    1.0000 </r>
       <r>   15.5993    0.0000 </r>
       <r>   17.4799    0.0000 </r>
       <r>   19.3884    0.0000 </r>
       <r>   20.8437    0.0000 </r>
       <r>   22.2111    0.0000 </r>
      </set>
      <set comment="kpoint 27">
       <r>    5.5092    1.0000 </r>
       <r>    6.7830    1.0000 </r>
       <r>    8.4077    1.0000 </r>
       <r>    9.6599    1.0000 </r>
       <r>   17.9682    0.0000 </r>
       <r>   19.1989    0.0000 </r>
       <r>   21.6039    0.0000 </r>
       <r>   23.5778    0.0000 </r>
      </set>
      <set comment="kpoint 28">
       <r>    3.4153    1.0000 </r>
       <r>    4.8647    1.0000 </r>
       <r>   11.1090    1.0000 </r>
       <r>   12.4879    1.0000 </r>
       <r>   18.0562    0.0000 </r>
       <r>   19.1255    0.0000 </r>
       <r>   20.5294    0.0000 </r>
       <r>   23.3247    0.0000 </r>
      </set>
      <set comment="kpoint 29">
       <r>    0.3900    1.0000 </r>
       <r>    1.8795    1.0000 </r>
       <r>   15.9367    0.0000 </r>
       <r>   18.0432    0.0000 </r>
       <r>   19.2699    0.0000 </r>
       <r>   19.8699    0.0000 </r>
       <r>   21.5675    0.0000 </r>
       <r>   22.3665    0.0000 </r>
      </set>
      <set comment="kpoint 30">
       <r>   -0.9271    1.0000 </r>
       <r>    0.5753    1.0000 </r>
       <r>   14.9773    0.9906 </r>
       <r>   19.0300    0.0000 </r>
       <r>   23.9895    0.0000 </r>
       <r>   25.1409    0.0000 </r>
       <r>   25.3410    0.0000 </r>
       <r>   26.5728    0.0000 </r>
      </set>
      <set comment="kpoint 31">
       <r>    4.6896    1.0000 </r>
       <r>    6.1141    1.0000 </r>
       <r>   12.1455    1.0000 </r>
       <r>   12.2055    1.0000 </r>
       <r>   13.9525    1.0000 </r>
       <r>   14.0590    1.0000 </r>
       <r>   20.8802    0.0000 </r>
       <r>   24.5809    0.0000 </r>
      </set>
      <set comment="kpoint 32">
       <r>    6.7510    1.0000 </r>
       <r>    7.9709    1.0000 </r>
       <r>    9.6211    1.0000 </r>
       <r>   10.7014    1.0000 </r>
       <r>   12.3256    1.0000 </r>
       <r>   13.5079    1.0000 </r>
       <r>   22.7516    0.0000 </r>
       <r>   24.8572    0.0000 </r>
      </set>
      <set comment="kpoint 33">
       <r>    2.9884    1.0000 </r>
       <r>    4.4471    1.0000 </r>
       <r>   13.0980    1.0000 </r>
       <r>   14.3282    1.0000 </r>
       <r>   15.7256    0.0000 </r>
       <r>   16.9079    0.0000 </r>
       <r>   19.6018    0.0000 </r>
       <r>   23.1789    0.0000 </r>
      </set>
      <set comment="kpoint 34">
       <r>    0.8265    1.0000 </r>
       <r>    2.3115    1.0000 </r>
       <r>   15.5848    0.0000 </r>
       <r>   16.6498    0.0000 </r>
       <r>   17.8202    0.0000 </r>
       <r>   20.6997    0.0000 </r>
       <r>   22.3870    0.0000 </r>
       <r>   23.6681    0.0000 </r>
      </set>
      <set comment="kpoint 35">
       <r>    6.9933    1.0000 </r>
       <r>    7.1327    1.0000 </r>
       <r>    8.8583    1.0000 </r>
       <r>    9.0276    1.0000 </r>
       <r>   14.9128    0.9994 </r>
       <r>   16.2436    0.0000 </r>
       <r>   22.9903    0.0000 </r>
       <r>   23.1899    0.0000 </r>
      </set>
      <set comment="kpoint 36">
       <r>    4.2625    1.0000 </r>
       <r>    5.6826    1.0000 </r>
       <r>    9.4952    1.0000 </r>
       <r>   10.8738    1.0000 </r>
       <r>   19.6644    0.0000 </r>
       <r>   20.8995    0.0000 </r>
       <r>   22.1035    0.0000 </r>
       <r>   22.1816    0.0000 </r>
      </set>
     </set>
    </set>
   </array>
  </eigenvalues>
  <separator name="orbital magnetization" >
   <v name="MAGDIPOLOUT">      0.00000000      0.00000000      0.00000000</v>
  </separator>
  <dos>
   <i name="efermi">     15.14343812 </i>
   <total>
    <array>
     <dimension dim="1">gridpoints</dimension>
     <dimension dim="2">spin</dimension>
     <field>energy</field>
     <field>total</field>
     <field>integrated</field>
     <set>
      <set comment="spin 1">
       <r>    -3.9958     0.0000     0.0000 </r>
       <r>    -3.8819     0.0000     0.0000 </r>
       <r>    -3.7681     0.0000     0.0000 </r>
       <r>    -3.6543     0.0000     0.0000 </r>
       <r>    -3.5404     0.0000     0.0000 </r>
       <r>    -3.4266     0.0000     0.0000 </r>
       <r>    -3.3128     0.0000     0.0000 </r>
       <r>    -3.1990     0.0000     0.0000 </r>
       <r>    -3.0851     0.0000     0.0000 </r>
       <r>    -2.9713     0.0000     0.0000 </r>
       <r>    -2.8575     0.0000     0.0000 </r>
       <r>    -2.7437     0.0000     0.0000 </r>
       <r>    -2.6298     0.0014     0.0002 </r>
       <r>    -2.5160     0.0484     0.0057 </r>
       <r>    -2.4022     0.1848     0.0267 </r>
       <r>    -2.2883     0.0863     0.0365 </r>
       <r>    -2.1745     0.0068     0.0373 </r>
       <r>    -2.0607     0.0731     0.0456 </r>
       <r>    -1.9469     0.3189     0.0819 </r>
       <r>    -1.8330     0.2301     0.1081 </r>
       <r>    -1.7192     0.0263     0.1111 </r>
       <r>    -1.6054     0.0186     0.1132 </r>
       <r>    -1.4915     0.1477     0.1300 </r>
       <r>    -1.3777     0.1428     0.1463 </r>
       <r>    -1.2639     0.0274     0.1494 </r>
       <r>    -1.1501     0.1877     0.1708 </r>
       <r>    -1.0362     0.3837     0.2144 </r>
       <r>    -0.9224     0.2376     0.2415 </r>
       <r>    -0.8086     0.1517     0.2587 </r>
       <r>    -0.6948     0.2056     0.2821 </r>
       <r>    -0.5809     0.5555     0.3454 </r>
       <r>    -0.4671     0.4037     0.3913 </r>
       <r>    -0.3533     0.1332     0.4065 </r>
       <r>    -0.2394     0.0630     0.4137 </r>
       <r>    -0.1256     0.1867     0.4349 </r>
       <r>    -0.0118     0.0806     0.4441 </r>
       <r>     0.1020     0.0511     0.4499 </r>
       <r>     0.2159     0.3235     0.4867 </r>
       <r>     0.3297     0.3826     0.5303 </r>
       <r>     0.4435     0.4114     0.5771 </r>
       <r>     0.5573     0.2731     0.6082 </r>
       <r>     0.6712     0.3763     0.6510 </r>
       <r>     0.7850     0.4729     0.7049 </r>
       <r>     0.8988     0.2818     0.7369 </r>
       <r>     1.0127     0.1972     0.7594 </r>
       <r>     1.1265     0.1449     0.7759 </r>
       <r>     1.2403     0.0167     0.7778 </r>
       <r>     1.3541     0.0085     0.7787 </r>
       <r>     1.4680     0.1661     0.7976 </r>
       <r>     1.5818     0.4065     0.8439 </r>
       <r>     1.6956     0.3961     0.8890 </r>
       <r>     1.8095     0.4142     0.9362 </r>
       <r>     1.9233     0.7128     1.0173 </r>
       <r>     2.0371     0.8645     1.1157 </r>
       <r>     2.1509     0.2746     1.1470 </r>
       <r>     2.2648     0.0981     1.1581 </r>
       <r>     2.3786     0.3170     1.1942 </r>
       <r>     2.4924     0.4883     1.2498 </r>
       <r>     2.6062     0.3257     1.2869 </r>
       <r>     2.7201     0.1158     1.3000 </r>
       <r>     2.8339     0.1935     1.3221 </r>
       <r>     2.9477     0.3708     1.3643 </r>
       <r>     3.0616     0.6015     1.4327 </r>
       <r>     3.1754     0.5187     1.4918 </r>
       <r>     3.2892     0.6319     1.5637 </r>
       <r>     3.4030     0.5105     1.6218 </r>
       <r>     3.5169     0.3451     1.6611 </r>
       <r>     3.6307     0.0796     1.6702 </r>
       <r>     3.7445     0.2236     1.6956 </r>
       <r>     3.8584     0.4455     1.7463 </r>
       <r>     3.9722     0.2881     1.7791 </r>
       <r>     4.0860     0.3118     1.8146 </r>
       <r>     4.1998     0.4069     1.8609 </r>
       <r>     4.3137     0.4298     1.9099 </r>
       <r>     4.4275     0.4042     1.9559 </r>
       <r>     4.5413     0.5661     2.0203 </r>
       <r>     4.6551     0.5045     2.0777 </r>
       <r>     4.7690     0.3070     2.1127 </r>
       <r>     4.8828     0.4009     2.1583 </r>
       <r>     4.9966     0.4328     2.2076 </r>
       <r>     5.1105     0.4363     2.2572 </r>
       <r>     5.2243     0.3263     2.2944 </r>
       <r>     5.3381     0.3223     2.3311 </r>
       <r>     5.4519     0.6592     2.4061 </r>
       <r>     5.5658     0.5494     2.4686 </r>
       <r>     5.6796     0.4247     2.5170 </r>
       <r>     5.7934     0.5357     2.5779 </r>
       <r>     5.9073     0.5892     2.6450 </r>
       <r>     6.0211     0.2248     2.6706 </r>
       <r>     6.1349     0.3421     2.7095 </r>
       <r>     6.2487     0.6623     2.7849 </r>
       <r>     6.3626     0.7991     2.8759 </r>
       <r>     6.4764     0.4294     2.9248 </r>
       <r>     6.5902     0.3648     2.9663 </r>
       <r>     6.7040     0.9175     3.0707 </r>
       <r>     6.8179     1.2431     3.2122 </r>
       <r>     6.9317     0.5916     3.2796 </r>
       <r>     7.0455     0.6173     3.3498 </r>
       <r>     7.1594     0.3829     3.3934 </r>
       <r>     7.2732     0.1485     3.4103 </r>
       <r>     7.3870     0.2403     3.4377 </r>
       <r>     7.5008     0.4536     3.4893 </r>
       <r>     7.6147     0.2432     3.5170 </r>
       <r>     7.7285     0.1366     3.5325 </r>
       <r>     7.8423     0.5399     3.5940 </r>
       <r>     7.9562     0.9108     3.6977 </r>
       <r>     8.0700     0.6413     3.7707 </r>
       <r>     8.1838     0.3018     3.8050 </r>
       <r>     8.2976     0.4370     3.8548 </r>
       <r>     8.4115     0.5520     3.9176 </r>
       <r>     8.5253     0.3805     3.9609 </r>
       <r>     8.6391     0.2846     3.9933 </r>
       <r>     8.7529     0.6952     4.0724 </r>
       <r>     8.8668     0.7428     4.1570 </r>
       <r>     8.9806     0.3252     4.1940 </r>
       <r>     9.0944     0.4518     4.2454 </r>
       <r>     9.2083     0.7810     4.3343 </r>
       <r>     9.3221     0.3029     4.3688 </r>
       <r>     9.4359     0.0931     4.3794 </r>
       <r>     9.5497     0.4492     4.4306 </r>
       <r>     9.6636     0.9232     4.5356 </r>
       <r>     9.7774     0.6562     4.6103 </r>
       <r>     9.8912     0.4640     4.6631 </r>
       <r>    10.0051     0.5477     4.7255 </r>
       <r>    10.1189     0.6024     4.7941 </r>
       <r>    10.2327     1.0121     4.9093 </r>
       <r>    10.3465     0.9289     5.0150 </r>
       <r>    10.4604     0.3005     5.0492 </r>
       <r>    10.5742     0.2057     5.0726 </r>
       <r>    10.6880     0.3029     5.1071 </r>
       <r>    10.8018     0.5269     5.1670 </r>
       <r>    10.9157     0.5969     5.2350 </r>
       <r>    11.0295     0.6296     5.3067 </r>
       <r>    11.1433     0.8181     5.3998 </r>
       <r>    11.2572     1.0952     5.5244 </r>
       <r>    11.3710     1.0612     5.6452 </r>
       <r>    11.4848     0.7344     5.7288 </r>
       <r>    11.5986     0.4602     5.7812 </r>
       <r>    11.7125     0.2296     5.8074 </r>
       <r>    11.8263     0.0633     5.8146 </r>
       <r>    11.9401     0.0053     5.8152 </r>
       <r>    12.0540     0.1262     5.8295 </r>
       <r>    12.1678     0.6508     5.9036 </r>
       <r>    12.2816     0.9357     6.0101 </r>
       <r>    12.3954     1.4800     6.1786 </r>
       <r>    12.5093     1.2879     6.3252 </r>
       <r>    12.6231     0.5623     6.3892 </r>
       <r>    12.7369     0.7498     6.4745 </r>
       <r>    12.8507     0.5303     6.5349 </r>
       <r>    12.9646     0.8242     6.6287 </r>
       <r>    13.0784     0.9142     6.7328 </r>
       <r>    13.1922     0.6417     6.8058 </r>
       <r>    13.3061     0.4355     6.8554 </r>
       <r>    13.4199     0.4857     6.9107 </r>
       <r>    13.5337     0.9227     7.0157 </r>
       <r>    13.6475     0.4913     7.0716 </r>
       <r>    13.7614     0.1492     7.0886 </r>
       <r>    13.8752     0.2326     7.1151 </r>
       <r>    13.9890     0.4181     7.1627 </r>
       <r>    14.1028     0.6029     7.2313 </r>
       <r>    14.2167     0.9623     7.3408 </r>
       <r>    14.3305     1.5338     7.5154 </r>
       <r>    14.4443     1.1706     7.6487 </r>
       <r>    14.5582     0.7649     7.7357 </r>
       <r>    14.6720     0.4561     7.7876 </r>
       <r>    14.7858     0.3041     7.8223 </r>
       <r>    14.8996     0.3753     7.8650 </r>
       <r>    15.0135     0.4378     7.9148 </r>
       <r>    15.1273     0.5993     7.9830 </r>
       <r>    15.2411     1.1227     8.1108 </r>
       <r>    15.3550     0.6542     8.1853 </r>
       <r>    15.4688     0.4973     8.2419 </r>
       <r>    15.5826     0.8127     8.3344 </r>
       <r>    15.6964     0.8915     8.4359 </r>
       <r>    15.8103     0.7660     8.5231 </r>
       <r>    15.9241     0.8182     8.6162 </r>
       <r>    16.0379     0.6799     8.6936 </r>
       <r>    16.1517     0.2653     8.7238 </r>
       <r>    16.2656     0.7105     8.8047 </r>
       <r>    16.3794     0.7982     8.8955 </r>
       <r>    16.4932     0.2807     8.9275 </r>
       <r>    16.6071     0.3439     8.9667 </r>
       <r>    16.7209     0.5744     9.0320 </r>
       <r>    16.8347     0.5339     9.0928 </r>
       <r>    16.9485     0.6348     9.1651 </r>
       <r>    17.0624     0.4562     9.2170 </r>
       <r>    17.1762     0.5846     9.2835 </r>
       <r>    17.2900     0.5731     9.3488 </r>
       <r>    17.4039     0.6109     9.4183 </r>
       <r>    17.5177     0.8493     9.5150 </r>
       <r>    17.6315     0.8647     9.6134 </r>
       <r>    17.7453     0.8965     9.7155 </r>
       <r>    17.8592     1.5310     9.8897 </r>
       <r>    17.9730     1.7789    10.0922 </r>
       <r>    18.0868     1.8002    10.2971 </r>
       <r>    18.2006     0.6109    10.3667 </r>
       <r>    18.3145     0.0325    10.3704 </r>
       <r>    18.4283     0.0217    10.3729 </r>
       <r>    18.5421     0.1553    10.3905 </r>
       <r>    18.6560     0.1347    10.4059 </r>
       <r>    18.7698     0.0546    10.4121 </r>
       <r>    18.8836     0.5472    10.4744 </r>
       <r>    18.9974     1.1568    10.6060 </r>
       <r>    19.1113     1.1251    10.7341 </r>
       <r>    19.2251     1.7228    10.9302 </r>
       <r>    19.3389     1.8176    11.1371 </r>
       <r>    19.4528     1.2073    11.2745 </r>
       <r>    19.5666     0.7912    11.3646 </r>
       <r>    19.6804     0.9440    11.4721 </r>
       <r>    19.7942     0.6476    11.5458 </r>
       <r>    19.9081     0.8487    11.6424 </r>
       <r>    20.0219     0.7944    11.7328 </r>
       <r>    20.1357     0.7792    11.8215 </r>
       <r>    20.2495     0.5149    11.8801 </r>
       <r>    20.3634     0.0839    11.8897 </r>
       <r>    20.4772     0.2055    11.9131 </r>
       <r>    20.5910     0.6364    11.9855 </r>
       <r>    20.7049     0.6074    12.0546 </r>
       <r>    20.8187     0.8667    12.1533 </r>
       <r>    20.9325     1.4081    12.3136 </r>
       <r>    21.0463     0.8088    12.4056 </r>
       <r>    21.1602     0.4393    12.4556 </r>
       <r>    21.2740     0.5797    12.5216 </r>
       <r>    21.3878     0.4036    12.5676 </r>
       <r>    21.5017     0.8998    12.6700 </r>
       <r>    21.6155     1.7069    12.8643 </r>
       <r>    21.7293     0.8262    12.9583 </r>
       <r>    21.8431     0.3395    12.9970 </r>
       <r>    21.9570     0.5207    13.0562 </r>
       <r>    22.0708     0.3810    13.0996 </r>
       <r>    22.1846     0.7411    13.1840 </r>
       <r>    22.2984     0.7655    13.2711 </r>
       <r>    22.4123     1.0454    13.3901 </r>
       <r>    22.5261     1.1710    13.5234 </r>
       <r>    22.6399     0.9116    13.6272 </r>
       <r>    22.7538     0.8999    13.7296 </r>
       <r>    22.8676     0.4149    13.7768 </r>
       <r>    22.9814     0.3487    13.8165 </r>
       <r>    23.0952     0.7556    13.9025 </r>
       <r>    23.2091     1.1030    14.0281 </r>
       <r>    23.3229     0.8949    14.1299 </r>
       <r>    23.4367     0.5038    14.1873 </r>
       <r>    23.5506     0.6934    14.2662 </r>
       <r>    23.6644     1.2419    14.4076 </r>
       <r>    23.7782     1.0922    14.5319 </r>
       <r>    23.8920     0.9381    14.6387 </r>
       <r>    24.0059     0.4765    14.6929 </r>
       <r>    24.1197     0.4962    14.7494 </r>
       <r>    24.2335     0.5674    14.8140 </r>
       <r>    24.3473     0.3054    14.8488 </r>
       <r>    24.4612     0.1187    14.8623 </r>
       <r>    24.5750     0.3254    14.8993 </r>
       <r>    24.6888     0.2178    14.9241 </r>
       <r>    24.8027     0.2297    14.9502 </r>
       <r>    24.9165     1.0144    15.0657 </r>
       <r>    25.0303     1.0803    15.1887 </r>
       <r>    25.1441     0.6968    15.2680 </r>
       <r>    25.2580     0.7323    15.3513 </r>
       <r>    25.3718     1.3123    15.5007 </r>
       <r>    25.4856     0.7357    15.5845 </r>
       <r>    25.5994     0.0709    15.5925 </r>
       <r>    25.7133     0.0214    15.5950 </r>
       <r>    25.8271     0.1533    15.6124 </r>
       <r>    25.9409     0.1367    15.6280 </r>
       <r>    26.0548     0.0147    15.6296 </r>
       <r>    26.1686     0.0196    15.6319 </r>
       <r>    26.2824     0.1509    15.6490 </r>
       <r>    26.3962     0.1541    15.6666 </r>
       <r>    26.5101     0.2728    15.6976 </r>
       <r>    26.6239     0.5469    15.7599 </r>
       <r>    26.7377     0.1524    15.7772 </r>
       <r>    26.8516     0.0266    15.7803 </r>
       <r>    26.9654     0.1558    15.7980 </r>
       <r>    27.0792     0.1584    15.8160 </r>
       <r>    27.1930     0.2703    15.8468 </r>
       <r>    27.3069     0.3207    15.8833 </r>
       <r>    27.4207     0.0483    15.8888 </r>
       <r>    27.5345     0.0008    15.8889 </r>
       <r>    27.6483     0.0003    15.8889 </r>
       <r>    27.7622     0.0220    15.8914 </r>
       <r>    27.8760     0.1565    15.9093 </r>
       <r>    27.9898     0.1458    15.9259 </r>
       <r>    28.1037     0.1442    15.9423 </r>
       <r>    28.2175     0.1585    15.9603 </r>
       <r>    28.3313     0.0230    15.9629 </r>
       <r>    28.4451     0.0049    15.9635 </r>
       <r>    28.5590     0.0862    15.9733 </r>
       <r>    28.6728     0.1848    15.9943 </r>
       <r>    28.7866     0.0484    15.9998 </r>
       <r>    28.9005     0.0014    16.0000 </r>
       <r>    29.0143     0.0000    16.0000 </r>
       <r>    29.1281     0.0000    16.0000 </r>
       <r>    29.2419     0.0000    16.0000 </r>
       <r>    29.3558     0.0000    16.0000 </r>
       <r>    29.4696     0.0000    16.0000 </r>
       <r>    29.5834     0.0000    16.0000 </r>
       <r>    29.6972     0.0000    16.0000 </r>
       <r>    29.8111     0.0000    16.0000 </r>
       <r>    29.9249     0.0000    16.0000 </r>
       <r>    30.0387     0.0000    16.0000 </r>
       <r>    30.1526     0.0000    16.0000 </r>
      </set>
     </set>
    </array>
   </total>
  </dos>
 </calculation>
 <structure name="finalpos" >
  <crystal>
   <varray name="basis" >
    <v>       2.45554728       0.00000000       0.00000000 </v>
    <v>      -1.22777364       2.12656633      -0.00000000 </v>
    <v>      -0.00000000       0.00000000       3.98276953 </v>
   </varray>
   <i name="volume">     20.79756116 </i>
   <varray name="rec_basis" >
    <v>       0.40724119       0.23512081       0.00000000 </v>
    <v>       0.00000000       0.47024162       0.00000000 </v>
    <v>      -0.00000000       0.00000000       0.25108156 </v>
   </varray>
  </crystal>
  <varray name="positions" >
   <v>      -0.00000000       0.00000000      -0.00000000 </v>
   <v>       0.33333333       0.66666667       0.50000000 </v>
  </varray>
 </structure>
</modeling>
