Si beta-tin                             
   2.52000000000000     
     1.004162    0.000000    0.000000
    -0.502081    0.869629    0.000000
     0.000000    0.000000    1.619483
    S
     2
Direct
  0.000000  0.000000  0.000000
  0.333333  0.666667  0.500000
 
   36   36   56
 -4.0066     -3.6768     -2.7228     -1.2463     0.59663      2.6163      4.6168      6.4238      7.9074      8.9939    
  9.6681      9.9667      9.9658      9.7668      9.4797      9.2020      8.9799      8.8369      8.7875      8.8369    
  8.9799      9.2020      9.4797      9.7668      9.9658      9.9667      9.6681      8.9939      7.9074      6.4238    
  4.6168      2.6163     0.59663     -1.2463     -2.7228     -3.6768     -3.6768     -3.6768     -3.0333     -1.8156    
 -.15398      1.7767      3.7817      5.6750      7.3043      8.5687      9.4257      9.8877      10.013      9.8917    
  9.6310      9.3380      9.0842      8.8990      8.8014      8.8014      8.8990      9.0842      9.3380      9.6310    
  9.8917      10.013      9.8877      9.4257      8.5687      7.3043      5.6750      3.7817      1.7767     -.15399    
 -1.8156     -3.0333     -2.7228     -3.0367     -2.7228     -1.8156     -.41422      1.3300      3.2346      5.1126    
  6.7989      8.1715      9.1629      9.7612      10.004      9.9655      9.7452      9.4495      9.1695      8.9462    
  8.8027      8.7532      8.8027      8.9462      9.1695      9.4495      9.7452      9.9655      10.004      9.7612    
  9.1629      8.1715      6.7989      5.1125      3.2346      1.3300     -.41422     -1.8156     -1.2463     -1.8250    
 -1.8250     -1.2463     -.15398      1.3300      3.0441      4.8110      6.4629      7.8647      8.9292      9.6220    
  9.9589      9.9971      9.8227      9.5363      9.2362      8.9797      8.7934      8.6954      8.6954      8.7934    
  8.9797      9.2362      9.5363      9.8227      9.9971      9.9589      9.6220      8.9292      7.8647      6.4629    
  4.8110      3.0441      1.3300     -.15399     0.59663     -.17115     -.43747     -.17115     0.59663      1.7767    
  3.2346      4.8110      6.3451      7.6978      8.7686      9.5051      9.9030      10.001      9.8691      9.5988    
  9.2860      9.0016      8.7765      8.6325      8.5829      8.6325      8.7765      9.0016      9.2860      9.5988    
  9.8691      10.001      9.9030      9.5051      8.7687      7.6978      6.3451      4.8110      3.2346      1.7767    
  2.6163      1.7515      1.2910      1.2910      1.7515      2.6163      3.7817      5.1125      6.4628      7.6978    
  8.7115      9.4388      9.8587      9.9918      9.8928      9.6397      9.3212      9.0145      8.7560      8.5695    
  8.4718      8.4718      8.5695      8.7560      9.0145      9.3212      9.6397      9.8928      9.9918      9.8587    
  9.4388      8.7115      7.6978      6.4629      5.1125      3.7817      4.6168      3.7494      3.1804      2.9822    
  3.1804      3.7494      4.6168      5.6750      6.7989      7.8647      8.7686      9.4388      9.8420      9.9837    
  9.9027      9.6633      9.3441      9.0213      8.7355      8.5117      8.3691      8.3201      8.3691      8.5117    
  8.7356      9.0213      9.3441      9.6633      9.9027      9.9837      9.8420      9.4388      8.7687      7.8647    
  6.7989      5.6750      6.4238      5.6371      5.0456      4.7282      4.7282      5.0456      5.6371      6.4238    
  7.3043      8.1715      8.9292      9.5051      9.8587      9.9837      9.9052      9.6739      9.3569      9.0245    
  8.7184      8.4637      8.2813      8.1862      8.1862      8.2813      8.4637      8.7184      9.0245      9.3569    
  9.6739      9.9052      9.9837      9.8587      9.5051      8.9292      8.1715      7.3043      7.9074      7.2628    
  6.7226      6.3634      6.2375      6.3634      6.7226      7.2628      7.9073      8.5687      9.1629      9.6220    
  9.9030      9.9918      9.9027      9.6739      9.3610      9.0256      8.7071      8.4295      8.2142      8.0778    
  8.0311      8.0778      8.2142      8.4295      8.7071      9.0256      9.3610      9.6739      9.9027      9.9918    
  9.9030      9.6220      9.1629      8.5687      8.9939      8.5254      8.0897      7.7539      7.5712      7.5712    
  7.7539      8.0897      8.5254      8.9939      9.4257      9.7612      9.9589      10.001      9.8928      9.6633    
  9.3569      9.0256      8.7031      8.4117      8.1721      8.0016      7.9130      7.9130      8.0016      8.1721    
  8.4117      8.7031      9.0256      9.3569      9.6633      9.8928      10.001      9.9589      9.7612      9.4257    
  9.6681      9.3819      9.0786      8.8117      8.6293      8.5645      8.6293      8.8117      9.0786      9.3820    
  9.6681      9.8877      10.004      9.9971      9.8691      9.6397      9.3441      9.0245      8.7071      8.4117    
  8.1577      7.9623      7.8391      7.7971      7.8391      7.9623      8.1577      8.4117      8.7071      9.0245    
  9.3441      9.6397      9.8691      9.9971      10.004      9.8877      9.9667      9.8443      9.6765      9.5016    
  9.3582      9.2778      9.2778      9.3582      9.5016      9.6765      9.8443      9.9667      10.013      9.9655    
  9.8227      9.5988      9.3212      9.0213      8.7184      8.4295      8.1721      7.9623      7.8140      7.7372    
  7.7372      7.8140      7.9623      8.1721      8.4295      8.7184      9.0213      9.3212      9.5988      9.8227    
  9.9655      10.013      9.9658      9.9703      9.9198      9.8379      9.7524      9.6889      9.6656      9.6889    
  9.7524      9.8379      9.9198      9.9703      9.9658      9.8917      9.7452      9.5363      9.2860      9.0145    
  8.7355      8.4637      8.2142      8.0016      7.8391      7.7372      7.7024      7.7372      7.8391      8.0016    
  8.2142      8.4637      8.7356      9.0145      9.2860      9.5363      9.7452      9.8917      9.7668      9.8498    
  9.8827      9.8767      9.8487      9.8168      9.7966      9.7966      9.8168      9.8487      9.8767      9.8827    
  9.8498      9.7668      9.6310      9.4495      9.2362      9.0015      8.7560      8.5117      8.2813      8.0778    
  7.9130      7.7971      7.7372      7.7372      7.7971      7.9130      8.0778      8.2813      8.5117      8.7560    
  9.0016      9.2362      9.4495      9.6310      9.4797      9.5896      9.6634      9.7032      9.7166      9.7147    
  9.7082      9.7050      9.7082      9.7147      9.7166      9.7032      9.6634      9.5896      9.4797      9.3380    
  9.1695      8.9797      8.7765      8.5695      8.3691      8.1862      8.0311      7.9130      7.8391      7.8140    
  7.8391      7.9130      8.0311      8.1862      8.3691      8.5695      8.7765      8.9797      9.1695      9.3380    
  9.2020      9.2969      9.3683      9.4174      9.4462      9.4594      9.4634      9.4638      9.4638      9.4634    
  9.4594      9.4462      9.4174      9.3683      9.2969      9.2020      9.0842      8.9462      8.7934      8.6325    
  8.4718      8.3201      8.1862      8.0778      8.0016      7.9623      7.9623      8.0016      8.0778      8.1862    
  8.3201      8.4718      8.6325      8.7934      8.9462      9.0842      8.9799      9.0433      9.0886      9.1175    
  9.1331      9.1393      9.1401      9.1389      9.1382      9.1389      9.1401      9.1393      9.1331      9.1175    
  9.0886      9.0433      8.9799      8.8990      8.8027      8.6954      8.5829      8.4718      8.3691      8.2813    
  8.2142      8.1721      8.1577      8.1721      8.2142      8.2813      8.3691      8.4718      8.5829      8.6954    
  8.8027      8.8990      8.8369      8.8581      8.8655      8.8611      8.8483      8.8311      8.8139      8.8001    
  8.7925      8.7925      8.8001      8.8139      8.8311      8.8483      8.8611      8.8655      8.8581      8.8369    
  8.8014      8.7532      8.6954      8.6325      8.5695      8.5117      8.4637      8.4295      8.4117      8.4117    
  8.4295      8.4637      8.5117      8.5695      8.6325      8.6954      8.7532      8.8014      8.7875      8.7606    
  8.7219      8.6746      8.6228      8.5714      8.5254      8.4891      8.4658      8.4579      8.4658      8.4891    
  8.5254      8.5714      8.6228      8.6746      8.7219      8.7606      8.7875      8.8014      8.8027      8.7934    
  8.7765      8.7560      8.7355      8.7184      8.7071      8.7031      8.7071      8.7184      8.7355      8.7560    
  8.7765      8.7934      8.8027      8.8014      8.8369      8.7606      8.6725      8.5766      8.4784      8.3839    
  8.2995      8.2306      8.1820      8.1569      8.1569      8.1820      8.2306      8.2995      8.3839      8.4784    
  8.5766      8.6725      8.7606      8.8369      8.8990      8.9462      8.9797      9.0015      9.0145      9.0213    
  9.0245      9.0256      9.0256      9.0245      9.0213      9.0145      9.0016      8.9797      8.9462      8.8990    
  8.9799      8.8581      8.7219      8.5766      8.4287      8.2858      8.1556      8.0457      7.9623      7.9102    
  7.8925      7.9102      7.9623      8.0457      8.1556      8.2858      8.4287      8.5766      8.7219      8.8581    
  8.9799      9.0842      9.1695      9.2362      9.2860      9.3212      9.3441      9.3569      9.3610      9.3569    
  9.3441      9.3212      9.2860      9.2362      9.1695      9.0842      9.2020      9.0433      8.8655      8.6746    
  8.4784      8.2858      8.1063      7.9493      7.8232      7.7351      7.6897      7.6897      7.7351      7.8232    
  7.9493      8.1063      8.2858      8.4784      8.6746      8.8655      9.0433      9.2020      9.3380      9.4495    
  9.5363      9.5988      9.6397      9.6633      9.6739      9.6739      9.6633      9.6397      9.5988      9.5363    
  9.4495      9.3380      9.4797      9.2969      9.0886      8.8611      8.6228      8.3839      8.1556      7.9493    
  7.7757      7.6442      7.5622      7.5344      7.5622      7.6442      7.7757      7.9493      8.1556      8.3839    
  8.6228      8.8611      9.0886      9.2969      9.4797      9.6310      9.7452      9.8227      9.8691      9.8928    
  9.9027      9.9052      9.9027      9.8928      9.8691      9.8227      9.7452      9.6310      9.7668      9.5896    
  9.3683      9.1175      8.8483      8.5714      8.2995      8.0457      7.8232      7.6442      7.5188      7.4541    
  7.4541      7.5188      7.6442      7.8232      8.0457      8.2995      8.5714      8.8483      9.1175      9.3683    
  9.5896      9.7668      9.8917      9.9655      9.9971      10.001      9.9918      9.9837      9.9837      9.9918    
  10.001      9.9971      9.9655      9.8917      9.9658      9.8498      9.6634      9.4174      9.1331      8.8311    
  8.5254      8.2306      7.9623      7.7351      7.5622      7.4541      7.4173      7.4541      7.5622      7.7351    
  7.9623      8.2306      8.5254      8.8311      9.1331      9.4174      9.6634      9.8498      9.9658      10.013    
  10.004      9.9589      9.9030      9.8587      9.8420      9.8587      9.9030      9.9589      10.004      10.013    
  9.9667      9.9703      9.8827      9.7031      9.4462      9.1393      8.8139      8.4891      8.1820      7.9102    
  7.6897      7.5344      7.4541      7.4541      7.5344      7.6897      7.9102      8.1820      8.4891      8.8139    
  9.1393      9.4462      9.7032      9.8827      9.9703      9.9667      9.8877      9.7612      9.6220      9.5051    
  9.4388      9.4388      9.5051      9.6220      9.7612      9.8877      9.6681      9.8443      9.9198      9.8767    
  9.7166      9.4594      9.1401      8.8001      8.4658      8.1569      7.8925      7.6897      7.5622      7.5188    
  7.5622      7.6897      7.8925      8.1569      8.4658      8.8001      9.1401      9.4594      9.7166      9.8767    
  9.9198      9.8443      9.6681      9.4257      9.1629      8.9292      8.7686      8.7115      8.7686      8.9292    
  9.1629      9.4257      8.9939      9.3819      9.6765      9.8379      9.8487      9.7147      9.4634      9.1389    
  8.7925      8.4579      8.1569      7.9102      7.7351      7.6442      7.6442      7.7351      7.9102      8.1569    
  8.4579      8.7925      9.1389      9.4634      9.7147      9.8487      9.8379      9.6765      9.3820      8.9939    
  8.5687      8.1715      7.8647      7.6978      7.6978      7.8647      8.1715      8.5687      7.9074      8.5254    
  9.0786      9.5016      9.7524      9.8168      9.7082      9.4638      9.1382      8.7925      8.4658      8.1820    
  7.9623      7.8232      7.7757      7.8232      7.9623      8.1820      8.4658      8.7925      9.1382      9.4638    
  9.7082      9.8168      9.7524      9.5016      9.0786      8.5254      7.9073      7.3043      6.7989      6.4628    
  6.3451      6.4629      6.7989      7.3043      6.4238      7.2628      8.0897      8.8117      9.3582      9.6889    
  9.7966      9.7050      9.4638      9.1389      8.8001      8.4891      8.2306      8.0457      7.9493      7.9493    
  8.0457      8.2306      8.4891      8.8001      9.1389      9.4638      9.7050      9.7966      9.6889      9.3582    
  8.8117      8.0897      7.2628      6.4238      5.6750      5.1125      4.8110      4.8110      5.1126      5.6750    
  4.6168      5.6371      6.7226      7.7539      8.6293      9.2778      9.6656      9.7966      9.7082      9.4634    
  9.1401      8.8139      8.5254      8.2995      8.1556      8.1063      8.1556      8.2995      8.5254      8.8139    
  9.1401      9.4634      9.7082      9.7966      9.6656      9.2778      8.6293      7.7539      6.7226      5.6371    
  4.6168      3.7817      3.2346      3.0441      3.2346      3.7817      2.6163      3.7494      5.0456      6.3634    
  7.5712      8.5645      9.2778      9.6889      9.8168      9.7147      9.4594      9.1393      8.8311      8.5714    
  8.3839      8.2858      8.2858      8.3839      8.5714      8.8311      9.1393      9.4594      9.7147      9.8168    
  9.6889      9.2778      8.5645      7.5712      6.3634      5.0456      3.7494      2.6163      1.7767      1.3300    
  1.3300      1.7767     0.59663      1.7515      3.1804      4.7282      6.2375      7.5712      8.6293      9.3582    
  9.7524      9.8487      9.7166      9.4462      9.1331      8.8483      8.6228      8.4784      8.4287      8.4784    
  8.6228      8.8483      9.1331      9.4462      9.7166      9.8487      9.7524      9.3582      8.6293      7.5712    
  6.2375      4.7282      3.1804      1.7515     0.59663     -.15398     -.41422     -.15398     -1.2463     -.17115    
  1.2910      2.9822      4.7282      6.3634      7.7539      8.8117      9.5016      9.8379      9.8767      9.7031    
  9.4174      9.1175      8.8611      8.6746      8.5766      8.5766      8.6746      8.8611      9.1175      9.4174    
  9.7032      9.8767      9.8379      9.5016      8.8117      7.7539      6.3634      4.7282      2.9822      1.2910    
 -.17115     -1.2463     -1.8156     -1.8156     -2.7228     -1.8250     -.43748      1.2910      3.1804      5.0456    
  6.7226      8.0897      9.0786      9.6765      9.9198      9.8827      9.6634      9.3683      9.0886      8.8655    
  8.7219      8.6725      8.7219      8.8655      9.0886      9.3683      9.6634      9.8827      9.9198      9.6765    
  9.0786      8.0897      6.7226      5.0456      3.1804      1.2910     -.43747     -1.8250     -2.7228     -3.0333    
 -3.6768     -3.0367     -1.8250     -.17115      1.7515      3.7494      5.6371      7.2628      8.5254      9.3819    
  9.8443      9.9703      9.8498      9.5896      9.2969      9.0433      8.8581      8.7606      8.7606      8.8581    
  9.0433      9.2969      9.5896      9.8498      9.9703      9.8443      9.3819      8.5254      7.2628      5.6371    
  3.7494      1.7515     -.17115     -1.8250     -3.0367     -3.6768     -3.6371     -3.3144     -2.3810     -.93717    
 0.86365      2.8353      4.7858      6.5446      7.9847      9.0345      9.6799      9.9574      9.9425      9.7355    
  9.4452      9.1666      8.9440      8.8008      8.7513      8.8008      8.9440      9.1666      9.4452      9.7355    
  9.9425      9.9574      9.6799      9.0345      7.9847      6.5446      4.7858      2.8353     0.86365     -.93717    
 -2.3810     -3.3144     -3.3144     -3.3144     -2.6850     -1.4943     0.12941      2.0145      3.9703      5.8143    
  7.3978      8.6224      9.4470      9.8844      9.9925      9.8607      9.5947      9.3001      9.0457      8.8602    
  8.7625      8.7625      8.8602      9.0457      9.3001      9.5947      9.8607      9.9925      9.8844      9.4470    
  8.6224      7.3978      5.8143      3.9703      2.0145     0.12941     -1.4943     -2.6850     -2.3810     -2.6879    
 -2.3810     -1.4943     -.12521      1.5777      3.4356      5.2652      6.9051      8.2363      9.1929      9.7639    
  9.9866      9.9355      9.7080      9.4095      9.1288      8.9052      8.7615      8.7120      8.7615      8.9052    
  9.1288      9.4095      9.7080      9.9355      9.9866      9.7639      9.1929      8.2363      6.9051      5.2652    
  3.4356      1.5777     -.12522     -1.4943     -.93717     -1.5025     -1.5025     -.93717     0.12941      1.5777    
  3.2494      4.9706      6.5773      7.9376      8.9661      9.6299      9.9451      9.9685      9.7852      9.4947    
  9.1936      8.9367      8.7502      8.6522      8.6522      8.7502      8.9367      9.1936      9.4947      9.7852    
  9.9685      9.9451      9.6299      8.9661      7.9376      6.5773      4.9706      3.2494      1.5777     0.12941    
 0.86365     0.11452     -.14539     0.11452     0.86365      2.0145      3.4356      4.9706      6.4624      7.7749    
  8.8101      9.5170      9.8920      9.9735      9.8316      9.5561      9.2418      8.9569      8.7317      8.5876    
  8.5381      8.5876      8.7317      8.9569      9.2418      9.5561      9.8316      9.9735      9.8920      9.5170    
  8.8101      7.7749      6.4624      4.9706      3.4356      2.0145      2.8353      1.9926      1.5438      1.5438    
  1.9926      2.8353      3.9703      5.2652      6.5773      7.7749      8.7545      9.4527      9.8495      9.9657    
  9.8556      9.5964      9.2757      8.9685      8.7100      8.5235      8.4258      8.4258      8.5235      8.7100    
  8.9685      9.2757      9.5964      9.8556      9.9657      9.8495      9.4527      8.7545      7.7749      6.5773    
  5.2652      3.9703      4.7858      3.9421      3.3884      3.1955      3.3884      3.9421      4.7858      5.8143    
  6.9051      7.9376      8.8101      9.4527      9.8335      9.9582      9.8657      9.6197      9.2978      8.9744    
  8.6886      8.4648      8.3223      8.2734      8.3223      8.4648      8.6886      8.9744      9.2978      9.6197    
  9.8657      9.9582      9.8335      9.4527      8.8101      7.9376      6.9051      5.8143      6.5446      5.7813    
  5.2069      4.8985      4.8985      5.2069      5.7813      6.5446      7.3978      8.2363      8.9661      9.5170    
  9.8495      9.9582      9.8683      9.6301      9.3101      8.9769      8.6708      8.4162      8.2340      8.1391    
  8.1391      8.2340      8.4162      8.6708      8.9769      9.3101      9.6301      9.8683      9.9582      9.8495    
  9.5170      8.9661      8.2363      7.3978      7.9847      7.3617      6.8388      6.4908      6.3687      6.4908    
  6.8388      7.3617      7.9847      8.6224      9.1929      9.6299      9.8920      9.9657      9.8657      9.6301    
  9.3140      8.9777      8.6591      8.3817      8.1666      8.0305      7.9839      8.0305      8.1666      8.3817    
  8.6591      8.9777      9.3140      9.6301      9.8657      9.9657      9.8920      9.6299      9.1929      8.6224    
  9.0345      8.5848      8.1651      7.8411      7.6647      7.6647      7.8411      8.1651      8.5848      9.0345    
  9.4470      9.7639      9.9451      9.9735      9.8556      9.6197      9.3101      8.9777      8.6550      8.3637    
  8.1244      7.9543      7.8659      7.8659      7.9543      8.1244      8.3637      8.6550      8.9777      9.3101    
  9.6197      9.8556      9.9735      9.9451      9.7639      9.4470      9.6799      9.4090      9.1196      8.8640    
  8.6889      8.6267      8.6889      8.8640      9.1196      9.4090      9.6799      9.8844      9.9866      9.9685    
  9.8316      9.5964      9.2978      8.9769      8.6591      8.3637      8.1100      7.9150      7.7921      7.7502    
  7.7921      7.9150      8.1100      8.3637      8.6591      8.9769      9.2978      9.5964      9.8316      9.9685    
  9.9866      9.8844      9.9574      9.8468      9.6905      9.5255      9.3895      9.3130      9.3130      9.3895    
  9.5255      9.6905      9.8468      9.9574      9.9925      9.9355      9.7852      9.5561      9.2757      8.9744    
  8.6708      8.3817      8.1244      7.9150      7.7670      7.6904      7.6904      7.7670      7.9150      8.1244    
  8.3817      8.6708      8.9744      9.2757      9.5561      9.7852      9.9355      9.9925      9.9425      9.9557    
  9.9140      9.8404      9.7615      9.7024      9.6806      9.7024      9.7615      9.8404      9.9140      9.9557    
  9.9425      9.8607      9.7080      9.4947      9.2418      8.9685      8.6886      8.4162      8.1666      7.9543    
  7.7921      7.6904      7.6558      7.6904      7.7921      7.9543      8.1666      8.4162      8.6886      8.9685    
  9.2418      9.4947      9.7080      9.8607      9.7355      9.8245      9.8640      9.8644      9.8420      9.8143    
  9.7963      9.7963      9.8143      9.8420      9.8644      9.8640      9.8245      9.7355      9.5947      9.4095    
  9.1936      8.9569      8.7100      8.4648      8.2340      8.0305      7.8659      7.7502      7.6904      7.6904    
  7.7502      7.8659      8.0305      8.2340      8.4648      8.7100      8.9569      9.1936      9.4095      9.5947    
  9.4452      9.5591      9.6375      9.6820      9.7000      9.7017      9.6976      9.6953      9.6976      9.7017    
  9.7000      9.6820      9.6375      9.5591      9.4451      9.3001      9.1288      8.9367      8.7317      8.5235    
  8.3223      8.1391      7.9839      7.8659      7.7921      7.7670      7.7921      7.8659      7.9839      8.1391    
  8.3223      8.5235      8.7317      8.9367      9.1288      9.3001      9.1666      9.2648      9.3396      9.3922    
  9.4245      9.4408      9.4471      9.4486      9.4486      9.4471      9.4408      9.4245      9.3922      9.3396    
  9.2648      9.1666      9.0457      8.9052      8.7502      8.5876      8.4258      8.2734      8.1391      8.0305    
  7.9543      7.9150      7.9150      7.9543      8.0305      8.1391      8.2734      8.4258      8.5876      8.7502    
  8.9052      9.0457      8.9440      9.0105      9.0591      9.0913      9.1100      9.1188      9.1216      9.1218    
  9.1215      9.1218      9.1216      9.1188      9.1100      9.0913      9.0591      9.0105      8.9440      8.8602    
  8.7615      8.6522      8.5381      8.4258      8.3223      8.2340      8.1666      8.1244      8.1100      8.1244    
  8.1666      8.2340      8.3223      8.4258      8.5381      8.6522      8.7615      8.8602      8.8008      8.8250    
  8.8356      8.8345      8.8247      8.8104      8.7953      8.7832      8.7764      8.7764      8.7832      8.7953    
  8.8104      8.8247      8.8345      8.8356      8.8250      8.8008      8.7625      8.7120      8.6522      8.5876    
  8.5235      8.4648      8.4162      8.3817      8.3637      8.3637      8.3817      8.4162      8.4648      8.5235    
  8.5876      8.6522      8.7120      8.7625      8.7513      8.7274      8.6919      8.6478      8.5991      8.5506    
  8.5071      8.4726      8.4506      8.4430      8.4506      8.4726      8.5071      8.5507      8.5991      8.6478    
  8.6919      8.7274      8.7513      8.7625      8.7615      8.7502      8.7317      8.7100      8.6886      8.6708    
  8.6591      8.6550      8.6591      8.6708      8.6886      8.7100      8.7317      8.7502      8.7615      8.7625    
  8.8008      8.7274      8.6424      8.5497      8.4547      8.3633      8.2815      8.2148      8.1677      8.1433    
  8.1433      8.1677      8.2148      8.2815      8.3633      8.4547      8.5497      8.6424      8.7274      8.8008    
  8.8602      8.9052      8.9367      8.9569      8.9685      8.9744      8.9769      8.9777      8.9777      8.9769    
  8.9744      8.9685      8.9569      8.9367      8.9052      8.8602      8.9440      8.8250      8.6919      8.5497    
  8.4050      8.2652      8.1379      8.0303      7.9487      7.8977      7.8804      7.8977      7.9487      8.0303    
  8.1379      8.2652      8.4050      8.5497      8.6919      8.8250      8.9440      9.0457      9.1288      9.1936    
  9.2418      9.2757      9.2978      9.3101      9.3140      9.3101      9.2978      9.2757      9.2418      9.1936    
  9.1288      9.0457      9.1666      9.0105      8.8356      8.6478      8.4547      8.2652      8.0886      7.9342    
  7.8102      7.7234      7.6788      7.6788      7.7234      7.8102      7.9342      8.0886      8.2652      8.4547    
  8.6478      8.8356      9.0105      9.1666      9.3001      9.4095      9.4947      9.5561      9.5964      9.6197    
  9.6301      9.6301      9.6197      9.5964      9.5561      9.4947      9.4095      9.3001      9.4452      9.2648    
  9.0591      8.8345      8.5991      8.3633      8.1379      7.9342      7.7628      7.6330      7.5521      7.5246    
  7.5521      7.6330      7.7628      7.9342      8.1379      8.3633      8.5991      8.8345      9.0591      9.2648    
  9.4451      9.5947      9.7080      9.7852      9.8316      9.8556      9.8657      9.8683      9.8657      9.8556    
  9.8316      9.7852      9.7080      9.5947      9.7355      9.5591      9.3396      9.0913      8.8247      8.5507    
  8.2815      8.0303      7.8102      7.6330      7.5089      7.4449      7.4449      7.5089      7.6330      7.8102    
  8.0303      8.2815      8.5507      8.8247      9.0913      9.3396      9.5591      9.7355      9.8607      9.9355    
  9.9685      9.9735      9.9657      9.9582      9.9582      9.9657      9.9735      9.9685      9.9355      9.8607    
  9.9425      9.8245      9.6375      9.3922      9.1100      8.8104      8.5071      8.2148      7.9487      7.7234    
  7.5521      7.4449      7.4085      7.4449      7.5521      7.7234      7.9487      8.2148      8.5071      8.8104    
  9.1100      9.3922      9.6375      9.8245      9.9425      9.9925      9.9866      9.9451      9.8920      9.8495    
  9.8335      9.8495      9.8920      9.9451      9.9866      9.9925      9.9574      9.9557      9.8640      9.6820    
  9.4245      9.1188      8.7953      8.4726      8.1677      7.8977      7.6788      7.5246      7.4449      7.4449    
  7.5246      7.6788      7.8977      8.1677      8.4726      8.7953      9.1188      9.4245      9.6820      9.8640    
  9.9557      9.9574      9.8844      9.7639      9.6299      9.5170      9.4527      9.4527      9.5170      9.6299    
  9.7639      9.8844      9.6799      9.8468      9.9140      9.8644      9.7000      9.4408      9.1216      8.7832    
  8.4506      8.1433      7.8804      7.6788      7.5521      7.5089      7.5521      7.6788      7.8804      8.1433    
  8.4506      8.7832      9.1216      9.4408      9.7000      9.8644      9.9140      9.8468      9.6799      9.4470    
  9.1929      8.9661      8.8101      8.7545      8.8101      8.9661      9.1929      9.4470      9.0345      9.4090    
  9.6905      9.8404      9.8420      9.7017      9.4471      9.1218      8.7764      8.4430      8.1433      7.8977    
  7.7234      7.6330      7.6330      7.7234      7.8977      8.1433      8.4430      8.7764      9.1218      9.4471    
  9.7017      9.8420      9.8404      9.6905      9.4090      9.0345      8.6224      8.2363      7.9376      7.7749    
  7.7749      7.9376      8.2363      8.6224      7.9847      8.5848      9.1196      9.5255      9.7615      9.8143    
  9.6976      9.4486      9.1215      8.7764      8.4506      8.1677      7.9487      7.8102      7.7628      7.8102    
  7.9487      8.1677      8.4506      8.7764      9.1215      9.4486      9.6976      9.8143      9.7615      9.5255    
  9.1196      8.5848      7.9847      7.3978      6.9051      6.5773      6.4624      6.5773      6.9051      7.3978    
  6.5446      7.3617      8.1651      8.8640      9.3895      9.7024      9.7963      9.6953      9.4486      9.1218    
  8.7832      8.4726      8.2148      8.0303      7.9342      7.9342      8.0303      8.2148      8.4726      8.7832    
  9.1218      9.4486      9.6953      9.7963      9.7024      9.3895      8.8640      8.1651      7.3617      6.5446    
  5.8143      5.2652      4.9706      4.9706      5.2652      5.8143      4.7858      5.7813      6.8388      7.8411    
  8.6889      9.3130      9.6806      9.7963      9.6976      9.4471      9.1216      8.7953      8.5071      8.2815    
  8.1379      8.0886      8.1379      8.2815      8.5071      8.7953      9.1216      9.4471      9.6976      9.7963    
  9.6806      9.3130      8.6889      7.8411      6.8388      5.7813      4.7858      3.9703      3.4356      3.2494    
  3.4356      3.9703      2.8353      3.9421      5.2069      6.4908      7.6647      8.6267      9.3130      9.7024    
  9.8143      9.7017      9.4408      9.1188      8.8104      8.5507      8.3633      8.2652      8.2652      8.3633    
  8.5506      8.8104      9.1188      9.4408      9.7017      9.8143      9.7024      9.3130      8.6267      7.6647    
  6.4908      5.2069      3.9421      2.8353      2.0145      1.5777      1.5777      2.0145     0.86365      1.9926    