Si beta-tin                             
   2.52000000000000     
     1.004162    0.000000    0.000000
    -0.502081    0.869629    0.000000
     0.000000    0.000000    1.619483
    S
     2
Direct
 -0.000000  0.000000  0.000000
  0.333333  0.666667  0.500000
 
   36   36   56
 -.40062417823E+01 -.36740866956E+01 -.27136119683E+01 -.12286730692E+01 0.62180693749E+00
 0.26454157354E+01 0.46441149858E+01 0.64427465751E+01 0.79115808143E+01 0.89785417256E+01
 0.96305853892E+01 0.99066319974E+01 0.98852323283E+01 0.96694499444E+01 0.93706559273E+01
 0.90852295422E+01 0.88574095266E+01 0.87108268973E+01 0.86602879245E+01 0.87108267111E+01
 0.88574092804E+01 0.90852294156E+01 0.93706560463E+01 0.96694502937E+01 0.98852327311E+01
 0.99066321788E+01 0.96305850965E+01 0.89785408514E+01 0.79115794638E+01 0.64427450414E+01
 0.46441136411E+01 0.26454148832E+01 0.62180669137E+00 -.12286728259E+01 -.27136115219E+01
 -.36740863681E+01 -.36740863681E+01 -.36740860111E+01 -.30264163906E+01 -.18017323460E+01
 -.13283732986E+00 0.18027509121E+01 0.38080389274E+01 0.56953576603E+01 0.73122773313E+01
 0.85589511049E+01 0.93945270621E+01 0.98338396170E+01 0.99373961474E+01 0.97975260498E+01
 0.95226777319E+01 0.92204708384E+01 0.89599721595E+01 0.87701615917E+01 0.86702910398E+01
 0.86702908505E+01 0.87701611084E+01 0.89599715996E+01 0.92204704577E+01 0.95226777106E+01
 0.97975264087E+01 0.99373967261E+01 0.98338401239E+01 0.93945271744E+01 0.85589505789E+01
 0.73122760823E+01 0.56953557840E+01 0.38080366638E+01 0.18027485707E+01 -.13283944851E+00
 -.18017340055E+01 -.30264174381E+01 -.27136115219E+01 -.30292717768E+01 -.27136101057E+01
 -.18017314464E+01 -.39461696641E+00 0.13540597989E+01 0.32595112937E+01 0.51329430360E+01
 0.68086745552E+01 0.81651963743E+01 0.91363373553E+01 0.97122568256E+01 0.99325584186E+01
 0.98744447930E+01 0.96381765860E+01 0.93314327119E+01 0.90439263094E+01 0.88151811310E+01
 0.86682643994E+01 0.86176504679E+01 0.86682640274E+01 0.88151805295E+01 0.90439257174E+01
 0.93314323871E+01 0.96381767158E+01 0.98744454220E+01 0.99325594142E+01 0.97122578943E+01
 0.91363381082E+01 0.81651964272E+01 0.68086736368E+01 0.51329410760E+01 0.32595084653E+01
 0.13540565008E+01 -.39462018553E+00 -.18017340055E+01 -.12286728259E+01 -.18097472766E+01
 -.18097464542E+01 -.12286705669E+01 -.13283631378E+00 0.13540597652E+01 0.30684605758E+01
 0.48310906871E+01 0.64733582878E+01 0.78603196255E+01 0.89055989627E+01 0.95766043128E+01
 0.98912619487E+01 0.99088288985E+01 0.97171487797E+01 0.94180549996E+01 0.91096074832E+01
 0.88468804495E+01 0.86562540204E+01 0.85561727446E+01 0.85561726305E+01 0.86562537144E+01
 0.88468800586E+01 0.91096071741E+01 0.94180549701E+01 0.97171492062E+01 0.99088298657E+01
 0.98912633842E+01 0.95766059561E+01 0.89056003945E+01 0.78603203659E+01 0.64733579415E+01
 0.48310890918E+01 0.30684578981E+01 0.13540565008E+01 -.13283944851E+00 0.62180669137E+00
 -.14735537018E+00 -.41429521935E+00 -.14735411459E+00 0.62180879122E+00 0.18027508386E+01
 0.32595101956E+01 0.48310897838E+01 0.63557469420E+01 0.76941427343E+01 0.87466166967E+01
 0.94619679012E+01 0.98378409893E+01 0.99145984754E+01 0.97648896717E+01 0.94806652800E+01
 0.91586165966E+01 0.88673843971E+01 0.86374135678E+01 0.84903251293E+01 0.84397465304E+01
 0.84903251401E+01 0.86374135566E+01 0.88673843416E+01 0.91586165429E+01 0.94806653716E+01
 0.97648901182E+01 0.99145994618E+01 0.98378425604E+01 0.94619698786E+01 0.87466186798E+01
 0.76941442036E+01 0.63557474374E+01 0.48310890918E+01 0.32595084653E+01 0.18027485707E+01
 0.26454148832E+01 0.17815100515E+01 0.13211504194E+01 0.13211507383E+01 0.17815108356E+01
 0.26454156891E+01 0.38080369698E+01 0.51329405083E+01 0.64733564353E+01 0.76941420328E+01
 0.86899839687E+01 0.93967297717E+01 0.97950107444E+01 0.99072285011E+01 0.97897351994E+01
 0.95218778311E+01 0.91932441038E+01 0.88793909237E+01 0.86154392474E+01 0.84252018121E+01
 0.83256715762E+01 0.83256716893E+01 0.84252020723E+01 0.86154394657E+01 0.88793909222E+01
 0.91932438440E+01 0.95218774775E+01 0.97897350782E+01 0.99072289637E+01 0.97950119950E+01
 0.93967317417E+01 0.86899863031E+01 0.76941442036E+01 0.64733579415E+01 0.51329410760E+01
 0.38080366638E+01 0.46441136411E+01 0.37808661471E+01 0.32139275590E+01 0.30163581020E+01
 0.32139273980E+01 0.37808656518E+01 0.46441125741E+01 0.56953540066E+01 0.68086712416E+01
 0.78603177089E+01 0.87466162861E+01 0.93967301199E+01 0.97788089132E+01 0.98998127577E+01
 0.98003327426E+01 0.95458769378E+01 0.92158857987E+01 0.88856237053E+01 0.85940002793E+01
 0.83659171999E+01 0.82208231264E+01 0.81710518371E+01 0.82208234470E+01 0.83659176022E+01
 0.85940004103E+01 0.88856232877E+01 0.92158847955E+01 0.95458756118E+01 0.98003315783E+01
 0.98998122774E+01 0.97788094668E+01 0.93967317417E+01 0.87466186798E+01 0.78603203659E+01
 0.68086736368E+01 0.56953557840E+01 0.64427450414E+01 0.56637192374E+01 0.50769118911E+01
 0.47617545886E+01 0.47617541807E+01 0.50769106769E+01 0.56637172708E+01 0.64427424800E+01
 0.73122732355E+01 0.81651937477E+01 0.89055983924E+01 0.94619689755E+01 0.97950123748E+01
 0.98998137990E+01 0.98030826768E+01 0.95566737836E+01 0.92285226458E+01 0.88884013249E+01
 0.85762774694E+01 0.83170741500E+01 0.81316602423E+01 0.80350387394E+01 0.80350389535E+01
 0.81316607339E+01 0.83170745355E+01 0.85762773080E+01 0.88884003262E+01 0.92285208208E+01
 0.95566714751E+01 0.98030804569E+01 0.98998122774E+01 0.97950119950E+01 0.94619698786E+01
 0.89056003945E+01 0.81651964272E+01 0.73122760823E+01 0.79115794638E+01 0.72778788383E+01
 0.67453194683E+01 0.63906072669E+01 0.62661641724E+01 0.63906060375E+01 0.67453172529E+01
 0.72778760808E+01 0.79115767277E+01 0.85589484368E+01 0.91363370206E+01 0.95766061653E+01
 0.98378440279E+01 0.99072313736E+01 0.98003344141E+01 0.95566741541E+01 0.92325549357E+01
 0.88893682446E+01 0.85646658243E+01 0.82823726803E+01 0.80637126495E+01 0.79253895446E+01
 0.78780620579E+01 0.79253899924E+01 0.80637132942E+01 0.82823731111E+01 0.85646656213E+01
 0.88893671354E+01 0.92325529062E+01 0.95566714751E+01 0.98003315783E+01 0.99072289637E+01
 0.98378425604E+01 0.95766059561E+01 0.91363381082E+01 0.85589505789E+01 0.89785408514E+01
 0.85233404877E+01 0.80977091855E+01 0.77686653858E+01 0.75894262106E+01 0.75894255258E+01
 0.77686635562E+01 0.80977068110E+01 0.85233383464E+01 0.89785396506E+01 0.93945273352E+01
 0.97122594413E+01 0.98912659678E+01 0.99146024936E+01 0.97897379237E+01 0.95458777699E+01
 0.92285220351E+01 0.88893674153E+01 0.85606309661E+01 0.82643713612E+01 0.80211903095E+01
 0.78484823720E+01 0.77588300837E+01 0.77588303166E+01 0.78484830112E+01 0.80211911793E+01
 0.82643721840E+01 0.85606314021E+01 0.88893671354E+01 0.92285208208E+01 0.95458756118E+01
 0.97897350782E+01 0.99145994618E+01 0.98912633842E+01 0.97122578943E+01 0.93945271744E+01
 0.96305850965E+01 0.93588405654E+01 0.90673395073E+01 0.88091909282E+01 0.86321000713E+01
 0.85691297946E+01 0.86320990641E+01 0.88091894263E+01 0.90673383194E+01 0.93588404547E+01
 0.96305864599E+01 0.98338428235E+01 0.99325628279E+01 0.99088331267E+01 0.97648924388E+01
 0.95218784184E+01 0.92158843782E+01 0.88883989576E+01 0.85646638830E+01 0.82643705942E+01
 0.80067188994E+01 0.78088513470E+01 0.76843197806E+01 0.76418120527E+01 0.76843200586E+01
 0.78088520079E+01 0.80067200474E+01 0.82643721840E+01 0.85646656213E+01 0.88884003262E+01
 0.92158847955E+01 0.95218774775E+01 0.97648901182E+01 0.99088298657E+01 0.99325594142E+01
 0.98338401239E+01 0.99066321788E+01 0.97987241420E+01 0.96434830523E+01 0.94785549918E+01
 0.93421402770E+01 0.92652559737E+01 0.92652557699E+01 0.93421398922E+01 0.94785549861E+01
 0.96434840182E+01 0.97987263661E+01 0.99066354292E+01 0.99374002730E+01 0.98744482907E+01
 0.97171505547E+01 0.94806648247E+01 0.91932416372E+01 0.88856201588E+01 0.85762741877E+01
 0.82823707564E+01 0.80211899103E+01 0.78088516626E+01 0.76589746779E+01 0.75814386873E+01
 0.75814385859E+01 0.76589745662E+01 0.78088520079E+01 0.80211911793E+01 0.82823731111E+01
 0.85762773080E+01 0.88856232877E+01 0.91932438440E+01 0.94806653716E+01 0.97171492062E+01
 0.98744454220E+01 0.99373967261E+01 0.98852327311E+01 0.99030746323E+01 0.98648565843E+01
 0.97934355819E+01 0.97158153547E+01 0.96572399288E+01 0.96355679883E+01 0.96572404134E+01
 0.97158164748E+01 0.97934374989E+01 0.98648592677E+01 0.99030777169E+01 0.98852355302E+01
 0.97975281071E+01 0.96381766726E+01 0.94180530008E+01 0.91586130462E+01 0.88793867763E+01
 0.85939966692E+01 0.83170720432E+01 0.80637123806E+01 0.78484834013E+01 0.76843210354E+01
 0.75814393379E+01 0.75463920603E+01 0.75814385859E+01 0.76843200586E+01 0.78484830112E+01
 0.80637132942E+01 0.83170745355E+01 0.85940004103E+01 0.88793909222E+01 0.91586165429E+01
 0.94180549701E+01 0.96381767158E+01 0.97975264087E+01 0.96694502937E+01 0.97639373281E+01
 0.98079850230E+01 0.98120018766E+01 0.97920943001E+01 0.97659953681E+01 0.97486790994E+01
 0.97486797050E+01 0.97659970761E+01 0.97920967902E+01 0.98120046425E+01 0.98079874362E+01
 0.97639387531E+01 0.96694502425E+01 0.95226759986E+01 0.93314292326E+01 0.91096031880E+01
 0.88673803871E+01 0.86154364171E+01 0.83659160750E+01 0.81316608822E+01 0.79253914538E+01
 0.77588323339E+01 0.76418137382E+01 0.75814393379E+01 0.75814386873E+01 0.76418120527E+01
 0.77588303166E+01 0.79253899924E+01 0.81316607339E+01 0.83659176022E+01 0.86154394657E+01
 0.88673843416E+01 0.91096071741E+01 0.93314323871E+01 0.95226777106E+01 0.93706560463E+01
 0.94896245303E+01 0.95727341912E+01 0.96213620274E+01 0.96425513727E+01 0.96465607353E+01
 0.96438105491E+01 0.96419592668E+01 0.96438119801E+01 0.96465630737E+01 0.96425537498E+01
 0.96213635230E+01 0.95727341390E+01 0.94896227304E+01 0.93706528196E+01 0.92204665321E+01
 0.90439219963E+01 0.88468773564E+01 0.86374123865E+01 0.84252025412E+01 0.82208252748E+01
 0.80350415844E+01 0.78780648178E+01 0.77588323339E+01 0.76843210354E+01 0.76589746779E+01
 0.76843197806E+01 0.77588300837E+01 0.78780620579E+01 0.80350389535E+01 0.82208234470E+01
 0.84252020723E+01 0.86374135566E+01 0.88468800586E+01 0.90439257174E+01 0.92204704577E+01
 0.90852294156E+01 0.91877344447E+01 0.92666405221E+01 0.93229872718E+01 0.93584977386E+01
 0.93773803464E+01 0.93853980872E+01 0.93878439889E+01 0.93878445708E+01 0.93853995034E+01
 0.93773817558E+01 0.93584981643E+01 0.93229860432E+01 0.92666375912E+01 0.91877304418E+01
 0.90852254249E+01 0.89599687553E+01 0.88151796046E+01 0.86562548708E+01 0.84903279301E+01
 0.83256752852E+01 0.81710553687E+01 0.80350415844E+01 0.79253914538E+01 0.78484834013E+01
 0.78088516626E+01 0.78088513470E+01 0.78484823720E+01 0.79253895446E+01 0.80350387394E+01
 0.81710518371E+01 0.83256716893E+01 0.84903251401E+01 0.86562537144E+01 0.88151805295E+01
 0.89599715996E+01 0.88574092804E+01 0.89273798764E+01 0.89794459702E+01 0.90148643521E+01
 0.90363729782E+01 0.90475754982E+01 0.90522258670E+01 0.90535084014E+01 0.90536567763E+01
 0.90535086716E+01 0.90522259574E+01 0.90475747665E+01 0.90363709785E+01 0.90148611585E+01
 0.89794422680E+01 0.89273767602E+01 0.88574078374E+01 0.87701619700E+01 0.86682670919E+01
 0.85561770866E+01 0.84397511746E+01 0.83256752852E+01 0.82208252748E+01 0.81316608822E+01
 0.80637123806E+01 0.80211899103E+01 0.80067188994E+01 0.80211903095E+01 0.80637126495E+01
 0.81316602423E+01 0.82208231264E+01 0.83256715762E+01 0.84397465304E+01 0.85561726305E+01
 0.86682640274E+01 0.87701611084E+01 0.87108267111E+01 0.87376111928E+01 0.87507874112E+01
 0.87521649092E+01 0.87448291505E+01 0.87325724980E+01 0.87192692555E+01 0.87083113984E+01
 0.87021807898E+01 0.87021804939E+01 0.87083104566E+01 0.87192675760E+01 0.87325701166E+01
 0.87448263876E+01 0.87521624038E+01 0.87507859759E+01 0.87376115251E+01 0.87108290790E+01
 0.86702949021E+01 0.86176552742E+01 0.85561770866E+01 0.84903279301E+01 0.84252025412E+01
 0.83659160750E+01 0.83170720432E+01 0.82823707564E+01 0.82643705942E+01 0.82643713612E+01
 0.82823726803E+01 0.83170741500E+01 0.83659171999E+01 0.84252018121E+01 0.84903251293E+01
 0.85561727446E+01 0.86176504679E+01 0.86702908505E+01 0.86602879245E+01 0.86377435529E+01
 0.86038594100E+01 0.85614303457E+01 0.85144536008E+01 0.84675598907E+01 0.84253944799E+01
 0.83920676545E+01 0.83707487230E+01 0.83634181851E+01 0.83707475995E+01 0.83920656912E+01
 0.84253921951E+01 0.84675579384E+01 0.85144526279E+01 0.85614308262E+01 0.86038614933E+01
 0.86377469747E+01 0.86602920246E+01 0.86702949021E+01 0.86682670919E+01 0.86562548708E+01
 0.86374123865E+01 0.86154364171E+01 0.85939966692E+01 0.85762741877E+01 0.85646638830E+01
 0.85606309661E+01 0.85646658243E+01 0.85762774694E+01 0.85940002793E+01 0.86154392474E+01
 0.86374135678E+01 0.86562540204E+01 0.86682643994E+01 0.86702910398E+01 0.87108268973E+01
 0.86377435434E+01 0.85532304064E+01 0.84612525049E+01 0.83670367550E+01 0.82764958044E+01
 0.81955826887E+01 0.81296956019E+01 0.80832138515E+01 0.80591917968E+01 0.80591912346E+01
 0.80832124238E+01 0.81296939862E+01 0.81955817218E+01 0.82764961616E+01 0.83670386889E+01
 0.84612557383E+01 0.85532342122E+01 0.86377469747E+01 0.87108290790E+01 0.87701619700E+01
 0.88151796046E+01 0.88468773564E+01 0.88673803871E+01 0.88793867763E+01 0.88856201588E+01
 0.88883989576E+01 0.88893674153E+01 0.88893682446E+01 0.88884013249E+01 0.88856237053E+01
 0.88793909237E+01 0.88673843971E+01 0.88468804495E+01 0.88151811310E+01 0.87701615917E+01
 0.88574095266E+01 0.87376111303E+01 0.86038592496E+01 0.84612524178E+01 0.83163331599E+01
 0.81765117013E+01 0.80493934592E+01 0.79421185543E+01 0.78607950298E+01 0.78100680816E+01
 0.77928316435E+01 0.78100675649E+01 0.78607944526E+01 0.79421186000E+01 0.80493946848E+01
 0.81765142248E+01 0.83163365311E+01 0.84612557383E+01 0.86038614933E+01 0.87376115251E+01
 0.88574078374E+01 0.89599687553E+01 0.90439219963E+01 0.91096031880E+01 0.91586130462E+01
 0.91932416372E+01 0.92158843782E+01 0.92285220351E+01 0.92325549357E+01 0.92285226458E+01
 0.92158857987E+01 0.91932441038E+01 0.91586165966E+01 0.91096074832E+01 0.90439263094E+01
 0.89599721595E+01 0.90852295422E+01 0.89273796884E+01 0.87507870990E+01 0.85614301138E+01
 0.83670366546E+01 0.81765116756E+01 0.79992464434E+01 0.78443979999E+01 0.77202092032E+01
 0.76334182646E+01 0.75887899033E+01 0.75887899613E+01 0.76334185647E+01 0.77202100341E+01
 0.78443995933E+01 0.79992487423E+01 0.81765142248E+01 0.83670386889E+01 0.85614308262E+01
 0.87507859759E+01 0.89273767602E+01 0.90852254249E+01 0.92204665321E+01 0.93314292326E+01
 0.94180530008E+01 0.94806648247E+01 0.95218784184E+01 0.95458777699E+01 0.95566741541E+01
 0.95566737836E+01 0.95458769378E+01 0.95218778311E+01 0.94806652800E+01 0.94180549996E+01
 0.93314327119E+01 0.92204708384E+01 0.93706559273E+01 0.91877340917E+01 0.89794455480E+01
 0.87521646173E+01 0.85144534759E+01 0.82764957593E+01 0.80493934371E+01 0.78443980060E+01
 0.76721260673E+01 0.75418024946E+01 0.74605794212E+01 0.74329879436E+01 0.74605799943E+01
 0.75418035948E+01 0.76721275548E+01 0.78443995933E+01 0.80493946848E+01 0.82764961616E+01
 0.85144526279E+01 0.87521624038E+01 0.89794422680E+01 0.91877304418E+01 0.93706528196E+01
 0.95226759986E+01 0.96381766726E+01 0.97171505547E+01 0.97648924388E+01 0.97897379237E+01
 0.98003344141E+01 0.98030826768E+01 0.98003327426E+01 0.97897351994E+01 0.97648896717E+01
 0.97171487797E+01 0.96381765860E+01 0.95226777319E+01 0.96694499444E+01 0.94896240737E+01
 0.92666400922E+01 0.90148641274E+01 0.87448291238E+01 0.84675599050E+01 0.81955826584E+01
 0.79421185496E+01 0.77202092909E+01 0.75418025937E+01 0.74168505300E+01 0.73525044444E+01
 0.73525047563E+01 0.74168513480E+01 0.75418035948E+01 0.77202100341E+01 0.79421186000E+01
 0.81955817218E+01 0.84675579384E+01 0.87448263876E+01 0.90148611585E+01 0.92666375912E+01
 0.94896227304E+01 0.96694502425E+01 0.97975281071E+01 0.98744482907E+01 0.99088331267E+01
 0.99146024936E+01 0.99072313736E+01 0.98998137990E+01 0.98998127577E+01 0.99072285011E+01
 0.99145984754E+01 0.99088288985E+01 0.98744447930E+01 0.97975260498E+01 0.98852323283E+01
 0.97639369469E+01 0.95727339169E+01 0.93229872552E+01 0.90363731703E+01 0.87325726565E+01
 0.84253944552E+01 0.81296955229E+01 0.78607951216E+01 0.76334185285E+01 0.74605796199E+01
 0.73525044421E+01 0.73157298942E+01 0.73525047563E+01 0.74605799943E+01 0.76334185647E+01
 0.78607944526E+01 0.81296939862E+01 0.84253921951E+01 0.87325701166E+01 0.90363709785E+01
 0.93229860432E+01 0.95727341390E+01 0.97639387531E+01 0.98852355302E+01 0.99374002730E+01
 0.99325628279E+01 0.98912659678E+01 0.98378440279E+01 0.97950123748E+01 0.97788089132E+01
 0.97950107444E+01 0.98378409893E+01 0.98912619487E+01 0.99325584186E+01 0.99373961474E+01
 0.99066319974E+01 0.99030745660E+01 0.98079850817E+01 0.96213623277E+01 0.93584982154E+01
 0.90475758443E+01 0.87192692337E+01 0.83920674141E+01 0.80832138023E+01 0.78100684117E+01
 0.75887903250E+01 0.74329880219E+01 0.73525044421E+01 0.73525044444E+01 0.74329879436E+01
 0.75887899613E+01 0.78100675649E+01 0.80832124238E+01 0.83920656912E+01 0.87192675760E+01
 0.90475747665E+01 0.93584981643E+01 0.96213635230E+01 0.98079874362E+01 0.99030777169E+01
 0.99066354292E+01 0.98338428235E+01 0.97122594413E+01 0.95766061653E+01 0.94619689755E+01
 0.93967301199E+01 0.93967297717E+01 0.94619679012E+01 0.95766043128E+01 0.97122568256E+01
 0.98338396170E+01 0.96305853892E+01 0.97987245758E+01 0.98648570815E+01 0.98120025147E+01
 0.96425521052E+01 0.93773808525E+01 0.90522258233E+01 0.87083109161E+01 0.83707483691E+01
 0.80591920374E+01 0.77928322927E+01 0.75887903250E+01 0.74605796199E+01 0.74168505300E+01
 0.74605794212E+01 0.75887899033E+01 0.77928316435E+01 0.80591912346E+01 0.83707475995E+01
 0.87083104566E+01 0.90522259574E+01 0.93773817558E+01 0.96425537498E+01 0.98120046425E+01
 0.98648592677E+01 0.97987263661E+01 0.96305864599E+01 0.93945273352E+01 0.91363370206E+01
 0.89055983924E+01 0.87466162861E+01 0.86899839687E+01 0.87466166967E+01 0.89055989627E+01
 0.91363373553E+01 0.93945270621E+01 0.89785417256E+01 0.93588415095E+01 0.96434839298E+01
 0.97934364437E+01 0.97920951521E+01 0.96465613047E+01 0.93853979891E+01 0.90535076441E+01
 0.87021800071E+01 0.83634181482E+01 0.80591920374E+01 0.78100684117E+01 0.76334185285E+01
 0.75418025937E+01 0.75418024946E+01 0.76334182646E+01 0.78100680816E+01 0.80591917968E+01
 0.83634181851E+01 0.87021804939E+01 0.90535086716E+01 0.93853995034E+01 0.96465630737E+01
 0.97920967902E+01 0.97934374989E+01 0.96434840182E+01 0.93588404547E+01 0.89785396506E+01
 0.85589484368E+01 0.81651937477E+01 0.78603177089E+01 0.76941420328E+01 0.76941427343E+01
 0.78603196255E+01 0.81651963743E+01 0.85589511049E+01 0.79115808143E+01 0.85233417137E+01
 0.90673404950E+01 0.94785558140E+01 0.97158161030E+01 0.97659958685E+01 0.96438103896E+01
 0.93878430135E+01 0.90536555427E+01 0.87021800071E+01 0.83707483691E+01 0.80832138023E+01
 0.78607951216E+01 0.77202092909E+01 0.76721260673E+01 0.77202092032E+01 0.78607950298E+01
 0.80832138515E+01 0.83707487230E+01 0.87021807898E+01 0.90536567763E+01 0.93878445708E+01
 0.96438119801E+01 0.97659970761E+01 0.97158164748E+01 0.94785549861E+01 0.90673383194E+01
 0.85233383464E+01 0.79115767277E+01 0.73122732355E+01 0.68086712416E+01 0.64733564353E+01
 0.63557469420E+01 0.64733582878E+01 0.68086745552E+01 0.73122773313E+01 0.64427465751E+01
 0.72778799179E+01 0.80977098361E+01 0.88091913360E+01 0.93421406607E+01 0.96572402440E+01
 0.97486789327E+01 0.96419582482E+01 0.93878430135E+01 0.90535076441E+01 0.87083109161E+01
 0.83920674141E+01 0.81296955229E+01 0.79421185496E+01 0.78443980060E+01 0.78443979999E+01
 0.79421185543E+01 0.81296956019E+01 0.83920676545E+01 0.87083113984E+01 0.90535084014E+01
 0.93878439889E+01 0.96419592668E+01 0.97486797050E+01 0.96572404134E+01 0.93421398922E+01
 0.88091894263E+01 0.80977068110E+01 0.72778760808E+01 0.64427424800E+01 0.56953540066E+01
 0.51329405083E+01 0.48310897838E+01 0.48310906871E+01 0.51329430360E+01 0.56953576603E+01
 0.46441149858E+01 0.56637196821E+01 0.67453192831E+01 0.77686649852E+01 0.86320998584E+01
 0.92652560484E+01 0.96355679475E+01 0.97486789327E+01 0.96438103896E+01 0.93853979891E+01
 0.90522258233E+01 0.87192692337E+01 0.84253944552E+01 0.81955826584E+01 0.80493934371E+01
 0.79992464434E+01 0.80493934592E+01 0.81955826887E+01 0.84253944799E+01 0.87192692555E+01
 0.90522258670E+01 0.93853980872E+01 0.96438105491E+01 0.97486790994E+01 0.96355679883E+01
 0.92652557699E+01 0.86320990641E+01 0.77686635562E+01 0.67453172529E+01 0.56637172708E+01
 0.46441125741E+01 0.38080369698E+01 0.32595101956E+01 0.30684605758E+01 0.32595112937E+01
 0.38080389274E+01 0.26454157354E+01 0.37808656019E+01 0.50769105015E+01 0.63906057718E+01
 0.75894252640E+01 0.85691296548E+01 0.92652560484E+01 0.96572402440E+01 0.97659958685E+01
 0.96465613047E+01 0.93773808525E+01 0.90475758443E+01 0.87325726565E+01 0.84675599050E+01
 0.82764957593E+01 0.81765116756E+01 0.81765117013E+01 0.82764958044E+01 0.84675598907E+01
 0.87325724980E+01 0.90475754982E+01 0.93773803464E+01 0.96465607353E+01 0.97659953681E+01
 0.96572399288E+01 0.92652559737E+01 0.85691297946E+01 0.75894255258E+01 0.63906060375E+01
 0.50769106769E+01 0.37808656518E+01 0.26454156891E+01 0.18027508386E+01 0.13540597652E+01
 0.13540597989E+01 0.18027509121E+01 0.62180693749E+00 0.17815084633E+01 0.32139249000E+01
 0.47617519431E+01 0.62661624979E+01 0.75894252640E+01 0.86320998584E+01 0.93421406607E+01
 0.97158161030E+01 0.97920951521E+01 0.96425521052E+01 0.93584982154E+01 0.90363731703E+01
 0.87448291238E+01 0.85144534759E+01 0.83670366546E+01 0.83163331599E+01 0.83670367550E+01
 0.85144536008E+01 0.87448291505E+01 0.90363729782E+01 0.93584977386E+01 0.96425513727E+01
 0.97920943001E+01 0.97158153547E+01 0.93421402770E+01 0.86321000713E+01 0.75894262106E+01
 0.62661641724E+01 0.47617541807E+01 0.32139273980E+01 0.17815108356E+01 0.62180879122E+00
 -.13283631378E+00 -.39461696641E+00 -.13283732986E+00 -.12286730692E+01 -.14735768583E+00
 0.13211468198E+01 0.30163545525E+01 0.47617519431E+01 0.63906057718E+01 0.77686649852E+01
 0.88091913360E+01 0.94785558140E+01 0.97934364437E+01 0.98120025147E+01 0.96213623277E+01
 0.93229872552E+01 0.90148641274E+01 0.87521646173E+01 0.85614301138E+01 0.84612524178E+01
 0.84612525049E+01 0.85614303457E+01 0.87521649092E+01 0.90148643521E+01 0.93229872718E+01
 0.96213620274E+01 0.98120018766E+01 0.97934355819E+01 0.94785549918E+01 0.88091909282E+01
 0.77686653858E+01 0.63906072669E+01 0.47617545886E+01 0.30163581020E+01 0.13211507383E+01
 -.14735411459E+00 -.12286705669E+01 -.18017314464E+01 -.18017323460E+01 -.27136119683E+01
 -.18097497093E+01 -.41429907765E+00 0.13211468198E+01 0.32139249000E+01 0.50769105015E+01
 0.67453192831E+01 0.80977098361E+01 0.90673404950E+01 0.96434839298E+01 0.98648570815E+01
 0.98079850817E+01 0.95727339169E+01 0.92666400922E+01 0.89794455480E+01 0.87507870990E+01
 0.86038592496E+01 0.85532304064E+01 0.86038594100E+01 0.87507874112E+01 0.89794459702E+01
 0.92666405221E+01 0.95727341912E+01 0.98079850230E+01 0.98648565843E+01 0.96434830523E+01
 0.90673395073E+01 0.80977091855E+01 0.67453194683E+01 0.50769118911E+01 0.32139275590E+01
 0.13211504194E+01 -.41429521935E+00 -.18097464542E+01 -.27136101057E+01 -.30264163906E+01
 -.36740866956E+01 -.30292736167E+01 -.18097497093E+01 -.14735768583E+00 0.17815084633E+01
 0.37808656019E+01 0.56637196821E+01 0.72778799179E+01 0.85233417137E+01 0.93588415095E+01
 0.97987245758E+01 0.99030745660E+01 0.97639369469E+01 0.94896240737E+01 0.91877340917E+01
 0.89273796884E+01 0.87376111303E+01 0.86377435434E+01 0.86377435529E+01 0.87376111928E+01
 0.89273798764E+01 0.91877344447E+01 0.94896245303E+01 0.97639373281E+01 0.99030746323E+01
 0.97987241420E+01 0.93588405654E+01 0.85233404877E+01 0.72778788383E+01 0.56637192374E+01
 0.37808661471E+01 0.17815100515E+01 -.14735537018E+00 -.18097472766E+01 -.30292717768E+01
 -.36740860111E+01 -.36420027486E+01 -.33167892262E+01 -.23766317132E+01 -.92383955716E+00
 0.88524579758E+00 0.28616489447E+01 0.48111939819E+01 0.65624244663E+01 0.79886123657E+01
 0.90196679160E+01 0.96434740658E+01 0.98989702390E+01 0.98640483050E+01 0.96406595112E+01
 0.93388034824E+01 0.90525154635E+01 0.88242580627E+01 0.86774805345E+01 0.86268875439E+01
 0.86774803557E+01 0.88242578276E+01 0.90525153466E+01 0.93388036052E+01 0.96406598576E+01
 0.98640487017E+01 0.98989704171E+01 0.96434737791E+01 0.90196670601E+01 0.79886110440E+01
 0.65624229659E+01 0.48111926667E+01 0.28616481113E+01 0.88524555684E+00 -.92383931942E+00
 -.23766312770E+01 -.33167889060E+01 -.33167889060E+01 -.33167885595E+01 -.26829725816E+01
 -.14849220807E+01 0.14671050201E+00 0.20375262502E+01 0.39942855533E+01 0.58331705630E+01
 0.74051204189E+01 0.86127514670E+01 0.94166100558E+01 0.98319418612E+01 0.99188848432E+01
 0.97688493953E+01 0.94890212454E+01 0.91853507985E+01 0.89242684767E+01 0.87341831405E+01
 0.86342084108E+01 0.86342082306E+01 0.87341826810E+01 0.89242679456E+01 0.91853504392E+01
 0.94890212290E+01 0.97688497395E+01 0.99188853920E+01 0.98319423336E+01 0.94166101414E+01
 0.86127509332E+01 0.74051191862E+01 0.58331687263E+01 0.39942833455E+01 0.20375239712E+01
 0.14670844238E+00 -.14849236927E+01 -.26829735987E+01 -.23766312770E+01 -.26853804120E+01
 -.23766298994E+01 -.14849212032E+01 -.10955452152E+00 0.15985118587E+01 0.34579825718E+01
 0.52838693841E+01 0.69140477967E+01 0.82298291905E+01 0.91668671317E+01 0.97161365513E+01
 0.99172036967E+01 0.98465987888E+01 0.96034843647E+01 0.92941941784E+01 0.90059692487E+01
 0.87768848935E+01 0.86298321755E+01 0.85791839305E+01 0.86298318200E+01 0.87768843181E+01
 0.90059686813E+01 0.92941938648E+01 0.96034844842E+01 0.98465993844E+01 0.99172046418E+01
 0.97161375646E+01 0.91668678395E+01 0.82298292223E+01 0.69140468900E+01 0.52838674702E+01
 0.34579798173E+01 0.15985086495E+01 -.10955765309E+00 -.14849236927E+01 -.92383931942E+00
 -.14916890976E+01 -.14916882957E+01 -.92383711673E+00 0.14671149857E+00 0.15985118315E+01
 0.32711301117E+01 0.49888936989E+01 0.65867754777E+01 0.79328594933E+01 0.89429296361E+01
 0.95855837796E+01 0.98790575049E+01 0.98822201908E+01 0.96820302650E+01 0.93791190604E+01
 0.90697137477E+01 0.88066008562E+01 0.86158317728E+01 0.85157129294E+01 0.85157128184E+01
 0.86158314747E+01 0.88066004737E+01 0.90697134417E+01 0.93791190228E+01 0.96820306680E+01
 0.98822211185E+01 0.98790588891E+01 0.95855853686E+01 0.89429310227E+01 0.79328602101E+01
 0.65867751386E+01 0.49888921442E+01 0.32711275022E+01 0.15985086495E+01 0.14670844238E+00
 0.88524555684E+00 0.13443550699E+00 -.12618910662E+00 0.13443673781E+00 0.88524761495E+00
 0.20375261933E+01 0.34579815112E+01 0.49888928190E+01 0.64719362341E+01 0.77708529481E+01
 0.87883573044E+01 0.94747458661E+01 0.98283011886E+01 0.98892985672E+01 0.97297498988E+01
 0.94405879694E+01 0.91171140588E+01 0.88254604782E+01 0.85953627513E+01 0.84482673355E+01
 0.83976978674E+01 0.84482673421E+01 0.85953627328E+01 0.88254604138E+01 0.91171139951E+01
 0.94405880484E+01 0.97297503275E+01 0.98892995280E+01 0.98283027258E+01 0.94747478048E+01
 0.87883592511E+01 0.77708543924E+01 0.64719367239E+01 0.49888921442E+01 0.34579798173E+01
 0.20375239712E+01 0.28616481113E+01 0.20195458888E+01 0.15706603162E+01 0.15706606338E+01
 0.20195466706E+01 0.28616489180E+01 0.39942836601E+01 0.52838669211E+01 0.65867736603E+01
 0.77708522539E+01 0.87332517609E+01 0.94115336810E+01 0.97872483227E+01 0.98830004114E+01
 0.97547680179E+01 0.94810962237E+01 0.91504709273E+01 0.88361585465E+01 0.85721061238E+01
 0.83819188607E+01 0.82824491147E+01 0.82824492250E+01 0.83819191138E+01 0.85721063344E+01
 0.88361585407E+01 0.91504706684E+01 0.94810958749E+01 0.97547679013E+01 0.98830008728E+01
 0.97872495622E+01 0.94115356290E+01 0.87332540651E+01 0.77708543924E+01 0.65867751386E+01
 0.52838674702E+01 0.39942833455E+01 0.48111926667E+01 0.39712720339E+01 0.34193778214E+01
 0.32270060383E+01 0.34193776770E+01 0.39712715707E+01 0.48111916442E+01 0.58331670006E+01
 0.69140445471E+01 0.79328575984E+01 0.87883568886E+01 0.94115340198E+01 0.97716700174E+01
 0.98761841218E+01 0.97655506862E+01 0.95047069285E+01 0.91721954700E+01 0.88414137098E+01
 0.85497070855E+01 0.83217410598E+01 0.81767895023E+01 0.81270779273E+01 0.81767898232E+01
 0.83217414653E+01 0.85497072260E+01 0.88414133106E+01 0.91721944941E+01 0.95047056351E+01
 0.97655495533E+01 0.98761836638E+01 0.97716705776E+01 0.94115356290E+01 0.87883592511E+01
 0.79328602101E+01 0.69140468900E+01 0.58331687263E+01 0.65624229659E+01 0.58063888517E+01
 0.52364241843E+01 0.49301750441E+01 0.49301746486E+01 0.52364230055E+01 0.58063869390E+01
 0.65624204692E+01 0.74051164052E+01 0.82298265989E+01 0.89429290574E+01 0.94747469127E+01
 0.97872499259E+01 0.98761851462E+01 0.97683765710E+01 0.95153357298E+01 0.91843014821E+01
 0.88435408512E+01 0.85313208360E+01 0.82722875520E+01 0.80871077765E+01 0.79906406780E+01
 0.79906408927E+01 0.80871082718E+01 0.82722879486E+01 0.85313206979E+01 0.88435398905E+01
 0.91842997080E+01 0.95153334785E+01 0.97683744048E+01 0.98761836638E+01 0.97872495622E+01
 0.94747478048E+01 0.89429310227E+01 0.82298292223E+01 0.74051191862E+01 0.79886110440E+01
 0.73760537078E+01 0.68604696341E+01 0.65167637095E+01 0.63961339515E+01 0.65167625007E+01
 0.68604674576E+01 0.73760510027E+01 0.79886083657E+01 0.86127488438E+01 0.91668667882E+01
 0.95855855883E+01 0.98283041736E+01 0.98830032353E+01 0.97655523235E+01 0.95153360876E+01
 0.91881621503E+01 0.88441827507E+01 0.85193206802E+01 0.82372107273E+01 0.80188585668E+01
 0.78807946967E+01 0.78335664160E+01 0.78807951358E+01 0.80188592008E+01 0.82372111561E+01
 0.85193204935E+01 0.88441816810E+01 0.91881601805E+01 0.95153334785E+01 0.97655495533E+01
 0.98830008728E+01 0.98283027258E+01 0.95855853686E+01 0.91668678395E+01 0.86127509332E+01
 0.90196670601E+01 0.85827508317E+01 0.81728987628E+01 0.78554761089E+01 0.76824041049E+01
 0.76824034264E+01 0.78554742975E+01 0.81728964160E+01 0.85827487231E+01 0.90196658895E+01