   2   2   0   0
  0.1131581E+02  0.2520000E-09  0.2520000E-09  0.4115135E-09  0.5000000E-15
  1.000000000000000E-004
  CAR 
 Si beta-tin                             
     27.97623803     -4.38188672  301     13.77085878      1.00000000
     -4.382  0.0000E+00  0.0000E+00
     -4.274  0.0000E+00  0.0000E+00
     -4.166  0.0000E+00  0.0000E+00
     -4.058  0.0000E+00  0.0000E+00
     -3.950  0.0000E+00  0.0000E+00
     -3.843  0.0000E+00  0.0000E+00
     -3.735  0.0000E+00  0.0000E+00
     -3.627  0.0000E+00  0.0000E+00
     -3.519  0.0000E+00  0.0000E+00
     -3.411  0.2618E-14  0.2824E-15
     -3.303  0.4994E-10  0.5387E-11
     -3.195  0.9926E-07  0.1071E-07
     -3.088  0.2146E-04  0.2326E-05
     -2.980  0.5479E-03  0.6143E-04
     -2.872  0.1870E-02  0.2631E-03
     -2.764  0.9301E-03  0.3634E-03
     -2.656  0.1004E-03  0.3743E-03
     -2.548  0.8433E-03  0.4652E-03
     -2.440  0.3216E-02  0.8122E-03
     -2.333  0.2420E-02  0.1073E-02
     -2.225  0.3481E-03  0.1111E-02
     -2.117  0.2233E-03  0.1135E-02
     -2.009  0.1502E-02  0.1297E-02
     -1.901  0.1497E-02  0.1458E-02
     -1.793  0.3945E-03  0.1501E-02
     -1.685  0.2174E-02  0.1735E-02
     -1.578  0.3794E-02  0.2145E-02
     -1.470  0.2293E-02  0.2392E-02
     -1.362  0.1781E-02  0.2584E-02
     -1.254  0.2474E-02  0.2851E-02
     -1.146  0.5579E-02  0.3453E-02
     -1.038  0.4048E-02  0.3889E-02
     -0.930  0.1575E-02  0.4059E-02
     -0.822  0.8007E-03  0.4145E-02
     -0.715  0.1898E-02  0.4350E-02
     -0.607  0.8444E-03  0.4441E-02
     -0.499  0.7728E-03  0.4525E-02
     -0.391  0.3525E-02  0.4905E-02
     -0.283  0.3623E-02  0.5296E-02
     -0.175  0.4078E-02  0.5735E-02
     -0.067  0.2853E-02  0.6043E-02
      0.040  0.4308E-02  0.6508E-02
      0.148  0.4959E-02  0.7043E-02
      0.256  0.2836E-02  0.7349E-02
      0.364  0.1844E-02  0.7547E-02
      0.472  0.1763E-02  0.7738E-02
      0.580  0.3638E-03  0.7777E-02
      0.688  0.1896E-03  0.7797E-02
      0.795  0.2165E-02  0.8031E-02
      0.903  0.4002E-02  0.8463E-02
      1.011  0.3796E-02  0.8872E-02
      1.119  0.4256E-02  0.9331E-02
      1.227  0.7815E-02  0.1017E-01
      1.335  0.9298E-02  0.1118E-01
      1.443  0.2698E-02  0.1147E-01
      1.550  0.8450E-03  0.1156E-01
      1.658  0.3522E-02  0.1194E-01
      1.766  0.4912E-02  0.1247E-01
      1.874  0.2939E-02  0.1279E-01
      1.982  0.2049E-02  0.1301E-01
      2.090  0.2191E-02  0.1324E-01
      2.198  0.3136E-02  0.1358E-01
      2.305  0.5968E-02  0.1422E-01
      2.413  0.5887E-02  0.1486E-01
      2.521  0.7220E-02  0.1564E-01
      2.629  0.5259E-02  0.1621E-01
      2.737  0.3623E-02  0.1660E-01
      2.845  0.1076E-02  0.1671E-01
      2.953  0.2008E-02  0.1693E-01
      3.060  0.3340E-02  0.1729E-01
      3.168  0.4334E-02  0.1776E-01
      3.276  0.4260E-02  0.1822E-01
      3.384  0.3369E-02  0.1858E-01
      3.492  0.3789E-02  0.1899E-01
      3.600  0.4458E-02  0.1947E-01
      3.708  0.6650E-02  0.2019E-01
      3.816  0.5445E-02  0.2077E-01
      3.923  0.2898E-02  0.2109E-01
      4.031  0.3372E-02  0.2145E-01
      4.139  0.3881E-02  0.2187E-01
      4.247  0.4068E-02  0.2231E-01
      4.355  0.5081E-02  0.2286E-01
      4.463  0.4322E-02  0.2332E-01
      4.571  0.5395E-02  0.2390E-01
      4.678  0.7245E-02  0.2469E-01
      4.786  0.5256E-02  0.2525E-01
      4.894  0.4631E-02  0.2575E-01
      5.002  0.5052E-02  0.2630E-01
      5.110  0.3725E-02  0.2670E-01
      5.218  0.3911E-02  0.2712E-01
      5.326  0.3393E-02  0.2749E-01
      5.433  0.6263E-02  0.2816E-01
      5.541  0.8016E-02  0.2903E-01
      5.649  0.4580E-02  0.2952E-01
      5.757  0.6443E-02  0.3022E-01
      5.865  0.1151E-01  0.3146E-01
      5.973  0.1022E-01  0.3256E-01
      6.081  0.6614E-02  0.3327E-01
      6.188  0.3830E-02  0.3369E-01
      6.296  0.2016E-02  0.3390E-01
      6.404  0.1846E-02  0.3410E-01
      6.512  0.3047E-02  0.3443E-01
      6.620  0.4923E-02  0.3496E-01
      6.728  0.2628E-02  0.3525E-01
      6.836  0.4487E-02  0.3573E-01
      6.943  0.6305E-02  0.3641E-01
      7.051  0.7804E-02  0.3725E-01
      7.159  0.5608E-02  0.3786E-01
      7.267  0.6343E-02  0.3854E-01
      7.375  0.6779E-02  0.3927E-01
      7.483  0.2932E-02  0.3959E-01
      7.591  0.1957E-02  0.3980E-01
      7.698  0.6028E-02  0.4045E-01
      7.806  0.6890E-02  0.4119E-01
      7.914  0.5692E-02  0.4181E-01
      8.022  0.6174E-02  0.4247E-01
      8.130  0.5635E-02  0.4308E-01
      8.238  0.4486E-02  0.4356E-01
      8.346  0.2730E-02  0.4386E-01
      8.454  0.4915E-02  0.4439E-01
      8.561  0.8906E-02  0.4535E-01
      8.669  0.5465E-02  0.4594E-01
      8.777  0.4819E-02  0.4646E-01
      8.885  0.5226E-02  0.4702E-01
      8.993  0.6221E-02  0.4769E-01
      9.101  0.9272E-02  0.4869E-01
      9.209  0.7403E-02  0.4949E-01
      9.316  0.7658E-02  0.5032E-01
      9.424  0.3589E-02  0.5070E-01
      9.532  0.1407E-02  0.5086E-01
      9.640  0.4738E-02  0.5137E-01
      9.748  0.6185E-02  0.5203E-01
      9.856  0.5893E-02  0.5267E-01
      9.964  0.1087E-01  0.5384E-01
     10.071  0.1180E-01  0.5512E-01
     10.179  0.9218E-02  0.5611E-01
     10.287  0.9096E-02  0.5709E-01
     10.395  0.5372E-02  0.5767E-01
     10.503  0.1577E-02  0.5784E-01
     10.611  0.1913E-02  0.5805E-01
     10.719  0.9212E-03  0.5815E-01
     10.826  0.1594E-02  0.5832E-01
     10.934  0.8670E-02  0.5925E-01
     11.042  0.1199E-01  0.6055E-01
     11.150  0.1134E-01  0.6177E-01
     11.258  0.9454E-02  0.6279E-01
     11.366  0.8254E-02  0.6368E-01
     11.474  0.7097E-02  0.6445E-01
     11.581  0.6356E-02  0.6513E-01
     11.689  0.7771E-02  0.6597E-01
     11.797  0.9807E-02  0.6703E-01
     11.905  0.1125E-01  0.6824E-01
     12.013  0.5594E-02  0.6884E-01
     12.121  0.4360E-02  0.6931E-01
     12.229  0.8540E-02  0.7023E-01
     12.336  0.5873E-02  0.7087E-01
     12.444  0.2393E-02  0.7113E-01
     12.552  0.3197E-02  0.7147E-01
     12.660  0.5101E-02  0.7202E-01
     12.768  0.3473E-02  0.7240E-01
     12.876  0.8368E-02  0.7330E-01
     12.984  0.1391E-01  0.7480E-01
     13.092  0.1373E-01  0.7628E-01
     13.199  0.5529E-02  0.7688E-01
     13.307  0.6701E-02  0.7760E-01
     13.415  0.7266E-02  0.7838E-01
     13.523  0.3680E-02  0.7878E-01
     13.631  0.1809E-02  0.7897E-01
     13.739  0.6305E-02  0.7965E-01
     13.847  0.1108E-01  0.8085E-01
     13.954  0.7608E-02  0.8167E-01
     14.062  0.2811E-02  0.8197E-01
     14.170  0.6474E-02  0.8267E-01
     14.278  0.1381E-01  0.8416E-01
     14.386  0.8822E-02  0.8511E-01
     14.494  0.4299E-02  0.8558E-01
     14.602  0.5499E-02  0.8617E-01
     14.709  0.5557E-02  0.8677E-01
     14.817  0.5743E-02  0.8739E-01
     14.925  0.6011E-02  0.8804E-01
     15.033  0.7863E-02  0.8888E-01
     15.141  0.6428E-02  0.8958E-01
     15.249  0.8546E-02  0.9050E-01
     15.357  0.9560E-02  0.9153E-01
     15.464  0.7822E-02  0.9237E-01
     15.572  0.5056E-02  0.9292E-01
     15.680  0.3572E-02  0.9331E-01
     15.788  0.3235E-02  0.9365E-01
     15.896  0.2481E-02  0.9392E-01
     16.004  0.1155E-01  0.9517E-01
     16.112  0.1699E-01  0.9700E-01
     16.219  0.1533E-01  0.9865E-01
     16.327  0.1339E-01  0.1001E+00
     16.435  0.1393E-01  0.1016E+00
     16.543  0.1155E-01  0.1028E+00
     16.651  0.5445E-02  0.1034E+00
     16.759  0.2316E-02  0.1037E+00
     16.867  0.6030E-03  0.1037E+00
     16.974  0.2025E-02  0.1040E+00
     17.082  0.3600E-02  0.1044E+00
     17.190  0.3838E-02  0.1048E+00
     17.298  0.3962E-02  0.1052E+00
     17.406  0.9137E-02  0.1062E+00
     17.514  0.1287E-01  0.1076E+00
     17.622  0.1580E-01  0.1093E+00
     17.729  0.1899E-01  0.1113E+00
     17.837  0.1756E-01  0.1132E+00
     17.945  0.1158E-01  0.1145E+00
     18.053  0.4703E-02  0.1150E+00
     18.161  0.5497E-02  0.1156E+00
     18.269  0.9660E-02  0.1166E+00
     18.377  0.9408E-02  0.1176E+00
     18.485  0.5035E-02  0.1182E+00
     18.592  0.5235E-02  0.1187E+00
     18.700  0.2678E-02  0.1190E+00
     18.808  0.4294E-02  0.1195E+00
     18.916  0.3969E-02  0.1199E+00
     19.024  0.5147E-02  0.1205E+00
     19.132  0.1168E-01  0.1217E+00
     19.240  0.1648E-01  0.1235E+00
     19.347  0.9999E-02  0.1246E+00
     19.455  0.4224E-02  0.1250E+00
     19.563  0.2068E-02  0.1253E+00
     19.671  0.6756E-02  0.1260E+00
     19.779  0.1457E-01  0.1276E+00
     19.887  0.1347E-01  0.1290E+00
     19.995  0.6520E-02  0.1297E+00
     20.102  0.5801E-02  0.1303E+00
     20.210  0.4227E-02  0.1308E+00
     20.318  0.5215E-02  0.1314E+00
     20.426  0.1080E-01  0.1325E+00
     20.534  0.1024E-01  0.1336E+00
     20.642  0.8204E-02  0.1345E+00
     20.750  0.1028E-01  0.1356E+00
     20.857  0.8956E-02  0.1366E+00
     20.965  0.1002E-01  0.1377E+00
     21.073  0.5841E-02  0.1383E+00
     21.181  0.1867E-02  0.1385E+00
     21.289  0.1873E-02  0.1387E+00
     21.397  0.8450E-02  0.1396E+00
     21.505  0.1029E-01  0.1407E+00
     21.612  0.1027E-01  0.1418E+00
     21.720  0.1001E-01  0.1429E+00
     21.828  0.1241E-01  0.1443E+00
     21.936  0.1102E-01  0.1454E+00
     22.044  0.1005E-01  0.1465E+00
     22.152  0.6934E-02  0.1473E+00
     22.260  0.3377E-02  0.1476E+00
     22.367  0.5606E-02  0.1482E+00
     22.475  0.3849E-02  0.1487E+00
     22.583  0.2182E-02  0.1489E+00
     22.691  0.2985E-02  0.1492E+00
     22.799  0.3965E-02  0.1496E+00
     22.907  0.5811E-02  0.1503E+00
     23.015  0.8118E-02  0.1511E+00
     23.123  0.8686E-02  0.1521E+00
     23.230  0.9014E-02  0.1531E+00
     23.338  0.8186E-02  0.1539E+00
     23.446  0.9451E-02  0.1550E+00
     23.554  0.7164E-02  0.1557E+00
     23.662  0.1773E-02  0.1559E+00
     23.770  0.8948E-04  0.1559E+00
     23.878  0.5126E-03  0.1560E+00
     23.985  0.1854E-02  0.1562E+00
     24.093  0.9767E-03  0.1563E+00
     24.201  0.7136E-04  0.1563E+00
     24.309  0.7958E-05  0.1563E+00
     24.417  0.3773E-03  0.1563E+00
     24.525  0.2879E-02  0.1566E+00
     24.633  0.5184E-02  0.1572E+00
     24.740  0.4274E-02  0.1577E+00
     24.848  0.1248E-02  0.1578E+00
     24.956  0.1632E-02  0.1580E+00
     25.064  0.1518E-02  0.1581E+00
     25.172  0.1429E-02  0.1583E+00
     25.280  0.2337E-02  0.1585E+00
     25.388  0.3267E-02  0.1589E+00
     25.495  0.2780E-02  0.1592E+00
     25.603  0.5212E-03  0.1593E+00
     25.711  0.1556E-04  0.1593E+00
     25.819  0.5843E-07  0.1593E+00
     25.927  0.2475E-10  0.1593E+00
     26.035  0.2955E-08  0.1593E+00
     26.143  0.1922E-05  0.1593E+00
     26.250  0.1413E-03  0.1593E+00
     26.358  0.1356E-02  0.1594E+00
     26.466  0.2607E-02  0.1597E+00
     26.574  0.2184E-02  0.1599E+00
     26.682  0.5556E-03  0.1600E+00
     26.790  0.2148E-04  0.1600E+00
     26.898  0.9926E-07  0.1600E+00
     27.005  0.4994E-10  0.1600E+00
     27.113  0.2618E-14  0.1600E+00
     27.221  0.0000E+00  0.1600E+00
     27.329  0.0000E+00  0.1600E+00
     27.437  0.0000E+00  0.1600E+00
     27.545  0.0000E+00  0.1600E+00
     27.653  0.0000E+00  0.1600E+00
     27.761  0.0000E+00  0.1600E+00
     27.868  0.0000E+00  0.1600E+00
     27.976  0.0000E+00  0.1600E+00
