    2    2  100    1
  0.1131581E+02  0.2520000E-09  0.2520000E-09  0.4115135E-09  0.5000000E-15
  1.000000000000000E-004
  CAR 
 Si beta-tin                             
      8     36      8
 
  0.8333333E-01  0.8333333E-01  0.8333333E-01  0.1851852E-01
    1       -2.491888   1.000000
    2        4.606303   1.000000
    3        7.402334   1.000000
    4       18.887254   0.000000
    5       19.010745   0.000000
    6       24.948439   0.000000
    7       25.190372   0.000000
    8       25.349890   0.000000
 
  0.2500000E+00  0.8333333E-01  0.8333333E-01  0.3703704E-01
    1       -0.411505   1.000000
    2        6.580278   1.000000
    3        9.273724   1.000000
    4       11.882818   1.000000
    5       16.269992   0.000000
    6       18.494695   0.000000
    7       20.868485   0.000000
    8       23.139088   0.000000
 
  0.4166667E+00  0.8333333E-01  0.8333333E-01  0.3703704E-01
    1        3.259759   1.000000
    2        5.676387   1.000000
    3       10.170700   1.000000
    4       12.229152   1.000000
    5       13.241476   1.000000
    6       14.896991   0.000000
    7       16.008873   0.000000
    8       21.950922   0.000000
 
 -0.4166667E+00  0.8333333E-01  0.8333333E-01  0.3703704E-01
    1        1.233788   1.000000
    2        7.857463   1.000000
    3        8.772321   1.000000
    4       11.060949   1.000000
    5       15.012147   0.000000
    6       15.964178   0.000000
    7       18.103962   0.000000
    8       22.337400   0.000000
 
 -0.2500000E+00  0.8333333E-01  0.8333333E-01  0.3703704E-01
    1       -1.656654   1.000000
    2        5.403018   1.000000
    3        8.179232   1.000000
    4       15.255520   0.000000
    5       17.454153   0.000000
    6       21.721312   0.000000
    7       23.485983   0.000000
    8       24.665932   0.000000
 
 -0.8333333E-01  0.8333333E-01  0.8333333E-01  0.1851852E-01
    1       -2.911063   1.000000
    2        4.205634   1.000000
    3        7.008644   1.000000
    4       20.734011   0.000000
    5       22.083180   0.000000
    6       23.949418   0.000000
    7       26.373004   0.000000
    8       26.505414   0.000000
 
  0.2500000E+00  0.2500000E+00  0.8333333E-01  0.1851852E-01
    1        2.457277   1.000000
    2        8.798231   1.000000
    3        9.825133   1.000000
    4       10.000165   1.000000
    5       12.338916   1.000000
    6       16.167602   0.000000
    7       16.949613   0.000000
    8       19.429201   0.000000
 
  0.4166667E+00  0.2500000E+00  0.8333333E-01  0.3703704E-01
    1        4.466987   1.000000
    2        6.852829   1.000000
    3        9.185233   1.000000
    4       11.444325   1.000000
    5       13.337205   1.000000
    6       14.499439   0.000000
    7       16.055650   0.000000
    8       17.394472   0.000000
 
 -0.4166667E+00  0.2500000E+00  0.8333333E-01  0.3703704E-01
    1        0.824439   1.000000
    2        7.717012   1.000000
    3       10.000093   1.000000
    4       11.096149   1.000000
    5       12.991501   1.000000
    6       17.313359   0.000000
    7       19.195056   0.000000
    8       20.649584   0.000000
 
 -0.2500000E+00  0.2500000E+00  0.8333333E-01  0.1851852E-01
    1       -1.240596   1.000000
    2        5.798078   1.000000
    3        8.556239   1.000000
    4       13.369054   1.000000
    5       19.234341   0.000000
    6       19.726570   0.000000
    7       21.380492   0.000000
    8       22.716315   0.000000
 
  0.4166667E+00  0.4166667E+00  0.8333333E-01  0.1851852E-01
    1        4.707631   1.000000
    2        5.046995   1.000000
    3       11.188979   1.000000
    4       11.935492   1.000000
    5       12.172256   1.000000
    6       14.575676   0.000000
    7       15.149750   0.000000
    8       19.189665   0.000000
 
 -0.4166667E+00  0.4166667E+00  0.8333333E-01  0.1851852E-01
    1        2.048815   1.000000
    2        6.809616   1.000000
    3        9.075042   1.000000
    4       11.717921   1.000000
    5       13.902209   0.031614
    6       16.401999   0.000000
    7       17.807022   0.000000
    8       20.303416   0.000000
 
  0.8333333E-01  0.8333333E-01  0.2500000E+00  0.1851852E-01
    1       -2.009204   1.000000
    2        2.275866   1.000000
    3       10.568127   1.000000
    4       19.298487   0.000000
    5       19.326135   0.000000
    6       22.285654   0.000000
    7       23.174186   0.000000
    8       23.490532   0.000000
 
  0.2500000E+00  0.8333333E-01  0.2500000E+00  0.3703704E-01
    1        0.065440   1.000000
    2        4.293284   1.000000
    3       11.784097   1.000000
    4       12.863704   1.000000
    5       16.005369   0.000000
    6       17.101387   0.000000
    7       20.698172   0.000000
    8       23.377689   0.000000
 
  0.4166667E+00  0.8333333E-01  0.2500000E+00  0.3703704E-01
    1        3.722890   1.000000
    2        6.077499   1.000000
    3        8.029862   1.000000
    4       10.316612   1.000000
    5       15.285578   0.000000
    6       16.435243   0.000000
    7       18.284646   0.000000
    8       20.074240   0.000000
 
 -0.4166667E+00  0.8333333E-01  0.2500000E+00  0.3703704E-01
    1        1.705729   1.000000
    2        5.858848   1.000000
    3        9.026526   1.000000
    4       12.838597   1.000000
    5       14.262280   0.000000
    6       16.236588   0.000000
    7       19.782937   0.000000
    8       21.361330   0.000000
 
 -0.2500000E+00  0.8333333E-01  0.2500000E+00  0.3703704E-01
    1       -1.176239   1.000000
    2        3.087273   1.000000
    3       11.301568   1.000000
    4       15.686443   0.000000
    5       17.816126   0.000000
    6       19.684545   0.000000
    7       21.816129   0.000000
    8       23.071614   0.000000
 
 -0.8333333E-01  0.8333333E-01  0.2500000E+00  0.1851852E-01
    1       -2.427220   1.000000
    2        1.868330   1.000000
    3       10.189154   1.000000
    4       20.947289   0.000000
    5       21.990369   0.000000
    6       22.489119   0.000000
    7       24.552811   0.000000
    8       25.417951   0.000000
 
  0.2500000E+00  0.2500000E+00  0.2500000E+00  0.1851852E-01
    1        2.924925   1.000000
    2        7.004106   1.000000
    3       10.122343   1.000000
    4       10.257726   1.000000
    5       13.884136   0.054579
    6       14.187676   0.000000
    7       16.205677   0.000000
    8       22.066827   0.000000
 
  0.4166667E+00  0.2500000E+00  0.2500000E+00  0.3703704E-01
    1        4.923619   1.000000
    2        7.234035   1.000000
    3        8.991668   1.000000
    4        9.967202   1.000000
    5       11.618925   1.000000
    6       13.794685   0.368078
    7       17.674966   0.000000
    8       19.859251   0.000000
 
 -0.4166667E+00  0.2500000E+00  0.2500000E+00  0.3703704E-01
    1        1.297721   1.000000
    2        5.481751   1.000000
    3       10.908342   1.000000
    4       13.025906   1.000000
    5       13.723234   0.749690
    6       15.483233   0.000000
    7       17.579757   0.000000
    8       22.946495   0.000000
 
 -0.2500000E+00  0.2500000E+00  0.2500000E+00  0.1851852E-01
    1       -0.761310   1.000000
    2        3.490836   1.000000
    3       11.616713   1.000000
    4       13.858782   0.106856
    5       17.716887   0.000000
    6       19.646130   0.000000
    7       21.564638   0.000000
    8       23.357872   0.000000
 
  0.4166667E+00  0.4166667E+00  0.2500000E+00  0.1851852E-01
    1        5.160536   1.000000
    2        5.489924   1.000000
    3        9.322221   1.000000
    4        9.722595   1.000000
    5       12.601677   1.000000
    6       16.109403   0.000000
    7       17.826851   0.000000
    8       18.550594   0.000000
 
 -0.4166667E+00  0.4166667E+00  0.2500000E+00  0.1851852E-01
    1        2.517716   1.000000
    2        6.488457   1.000000
    3        7.626349   1.000000
    4       11.449000   1.000000
    5       14.989306   0.000000
    6       18.219245   0.000000
    7       19.124910   0.000000
    8       20.827865   0.000000
 
  0.8333333E-01  0.8333333E-01  0.4166667E+00  0.1851852E-01
    1       -1.047807   1.000000
    2        0.384442   1.000000
    3       14.108016   0.000001
    4       17.864282   0.000000
    5       20.082659   0.000000
    6       20.472193   0.000000
    7       21.618035   0.000000
    8       21.898618   0.000000
 
  0.2500000E+00  0.8333333E-01  0.4166667E+00  0.3703704E-01
    1        1.015142   1.000000
    2        2.429084   1.000000
    3       12.963203   1.000000
    4       14.205644   0.000000
    5       16.136549   0.000000
    6       17.677907   0.000000
    7       19.113378   0.000000
    8       20.414457   0.000000
 
  0.4166667E+00  0.8333333E-01  0.4166667E+00  0.3703704E-01
    1        4.636413   1.000000
    2        5.906489   1.000000
    3        7.296820   1.000000
    4        8.546517   1.000000
    5       16.422229   0.000000
    6       17.597028   0.000000
    7       19.867095   0.000000
    8       21.804078   0.000000
 
 -0.4166667E+00  0.8333333E-01  0.4166667E+00  0.3703704E-01
    1        2.644595   1.000000
    2        4.038733   1.000000
    3        9.913845   1.000000
    4       11.242003   1.000000
    5       16.624988   0.000000
    6       17.489672   0.000000
    7       18.763958   0.000000
    8       21.554567   0.000000
 
 -0.2500000E+00  0.8333333E-01  0.4166667E+00  0.3703704E-01
    1       -0.219442   1.000000
    2        1.205790   1.000000
    3       14.702963   0.000000
    4       16.472992   0.000000
    5       17.763010   0.000000
    6       18.300837   0.000000
    7       19.738172   0.000000
    8       20.406007   0.000000
 
 -0.8333333E-01  0.8333333E-01  0.4166667E+00  0.1851852E-01
    1       -1.463564   1.000000
    2       -0.027879   1.000000
    3       13.758129   0.571435
    4       17.643411   0.000000
    5       22.064493   0.000000
    6       23.240956   0.000000
    7       23.300304   0.000000
    8       24.514178   0.000000
 
  0.2500000E+00  0.2500000E+00  0.4166667E+00  0.1851852E-01
    1        3.854197   1.000000
    2        5.229494   1.000000
    3       10.921092   1.000000
    4       11.050504   1.000000
    5       12.537812   1.000000
    6       12.625312   1.000000
    7       19.185909   0.000000
    8       22.688960   0.000000
 
  0.4166667E+00  0.2500000E+00  0.4166667E+00  0.3703704E-01
    1        5.820186   1.000000
    2        7.042532   1.000000
    3        8.480595   1.000000
    4        9.605094   1.000000
    5       10.936260   1.000000
    6       12.139353   1.000000
    7       20.943891   0.000000
    8       22.895162   0.000000
 
 -0.4166667E+00  0.2500000E+00  0.4166667E+00  0.3703704E-01
    1        2.239721   1.000000
    2        3.640554   1.000000
    3       11.822207   1.000000
    4       13.043508   1.000000
    5       14.268963   0.000000
    6       15.400573   0.000000
    7       17.917133   0.000000
    8       21.405745   0.000000
 
 -0.2500000E+00  0.2500000E+00  0.4166667E+00  0.1851852E-01
    1        0.193159   1.000000
    2        1.614746   1.000000
    3       14.301172   0.000000
    4       15.168133   0.000000
    5       16.335865   0.000000
    6       19.194850   0.000000
    7       20.470590   0.000000
    8       21.708604   0.000000
 
  0.4166667E+00  0.4166667E+00  0.4166667E+00  0.1851852E-01
    1        6.016933   1.000000
    2        6.289582   1.000000
    3        7.689893   1.000000
    4        7.973044   1.000000
    5       13.481191   0.999979
    6       14.762324   0.000000
    7       21.069311   0.000000
    8       21.510388   0.000000
 
 -0.4166667E+00  0.4166667E+00  0.4166667E+00  0.1851852E-01
    1        3.449084   1.000000
    2        4.822862   1.000000
    3        8.368522   1.000000
    4        9.702672   1.000000
    5       18.245933   0.000000
    6       19.044878   0.000000
    7       20.285799   0.000000
    8       20.588843   0.000000
