       N       E                     dE             d eps       ncg     rms          rms(c)
DAV:   1     0.496347819314E+01    0.49635E+01   -0.35475E+03   592   0.738E+02
DAV:   2    -0.919485577250E+01   -0.14158E+02   -0.13572E+02   816   0.775E+01
DAV:   3    -0.937295047145E+01   -0.17809E+00   -0.17429E+00   720   0.102E+01
DAV:   4    -0.937339785559E+01   -0.44738E-03   -0.44735E-03   928   0.479E-01
DAV:   5    -0.937339804861E+01   -0.19302E-06   -0.19198E-06   752   0.567E-03    0.604E+00
DAV:   6    -0.933446678098E+01    0.38931E-01   -0.66610E-03   704   0.553E-01    0.338E+00
DAV:   7    -0.931111668454E+01    0.23350E-01   -0.13744E-02   736   0.802E-01    0.194E-01
DAV:   8    -0.931088985915E+01    0.22683E-03   -0.12207E-04   920   0.102E-01    0.212E-02
DAV:   9    -0.931088830115E+01    0.15580E-05   -0.27504E-06   488   0.130E-02
   1 F= -.93108883E+01 E0= -.93091607E+01  d E =-.931089E+01
       N       E                     dE             d eps       ncg     rms          rms(c)
DAV:   1    -0.931299767928E+01   -0.21078E-02   -0.83795E-02   904   0.182E+00    0.182E-01
DAV:   2    -0.931230712403E+01    0.69056E-03   -0.13047E-03   656   0.315E-01    0.986E-02
DAV:   3    -0.931197838424E+01    0.32874E-03   -0.78347E-04   872   0.167E-01    0.736E-03
DAV:   4    -0.931198075206E+01   -0.23678E-05   -0.22467E-05   584   0.431E-02
   2 F= -.93119808E+01 E0= -.93091677E+01  d E =-.109245E-02
