 vasp.5.4.1 24Jun15 (build Jul 19 2016 16:50:41) complex                        
  
 executed on           IFC91_ompi date 2019.10.10  11:12:02
 running on    4 total cores
 distrk:  each k-point on    4 cores,    1 groups
 distr:  one band on NCORES_PER_BAND=   1 cores,    4 groups


--------------------------------------------------------------------------------------------------------


 INCAR:
 POTCAR:    PAW_PBE Si 05Jan2001                  
 POTCAR:    PAW_PBE Si 05Jan2001                  
   VRHFIN = Si: s2p2                                                            
   LEXCH  = PE                                                                  
   EATOM  =   103.0669 eV,    7.5752 Ry                                         
                                                                                
   TITEL  = PAW_PBE Si 05Jan2001                                                
   LULTRA =        F    use ultrasoft PP ?                                      
   IUNSCR =        1    unscreen: 0-lin 1-nonlin 2-no                           
   RPACOR =    1.500    partial core radius                                     
   POMASS =   28.085; ZVAL   =    4.000    mass and valenz                      
   RCORE  =    1.900    outmost cutoff radius                                   
   RWIGS  =    2.480; RWIGS  =    1.312    wigner-seitz radius (au A)           
   ENMAX  =  245.345; ENMIN  =  184.009 eV                                      
   ICORE  =        2    local potential                                         
   LCOR   =        T    correct aug charges                                     
   LPAW   =        T    paw PP                                                  
   EAUG   =  322.069                                                            
   DEXC   =    0.000                                                            
   RMAX   =    1.950    core radius for proj-oper                               
   RAUG   =    1.300    factor for augmentation sphere                          
   RDEP   =    1.993    radius for radial grids                                 
   RDEPT  =    1.837    core radius for aug-charge                              
                                                                                
   Atomic configuration                                                         
    6 entries                                                                   
     n  l   j            E        occ.                                          
     1  0  0.50     -1785.8828   2.0000                                         
     2  0  0.50      -139.4969   2.0000                                         
     2  1  1.50       -95.5546   6.0000                                         
     3  0  0.50       -10.8127   2.0000                                         
     3  1  0.50        -4.0811   2.0000                                         
     3  2  1.50        -4.0817   0.0000                                         
   Description                                                                  
     l       E           TYP  RCUT    TYP  RCUT                                 
     0    -10.8127223     23  1.900                                             
     0     -7.6451159     23  1.900                                             
     1     -4.0811372     23  1.900                                             
     1      2.4879257     23  1.900                                             
     2     -4.0817478      7  1.900                                             
  local pseudopotential read in
  partial core-charges read in
  partial kinetic energy density read in
  atomic valenz-charges read in
  non local Contribution for L=           0  read in
    real space projection operators read in
  non local Contribution for L=           0  read in
    real space projection operators read in
  non local Contribution for L=           1  read in
    real space projection operators read in
  non local Contribution for L=           1  read in
    real space projection operators read in
    PAW grid and wavefunctions read in
 
   number of l-projection  operators is LMAX  =           4
   number of lm-projection operators is LMMAX =           8
 
  PAW_PBE Si 05Jan2001                  :
 energy of atom  1       EATOM= -103.0669
 kinetic energy error for atom=    0.0009 (will be added to EATOM!!)
 
 
 POSCAR: Si HCP                                  
  positions in direct lattice
  No initial velocities read in
 exchange correlation table for  LEXCH =        8
   RHO(1)=    0.500       N(1)  =     2000
   RHO(2)=  100.500       N(2)  =     4000
 


--------------------------------------------------------------------------------------------------------


 ion  position               nearest neighbor table
   1  0.000  0.000  0.000-   2 2.52   2 2.52   2 2.52   2 2.52   2 2.52   2 2.52
   2  0.333  0.667  0.500-   1 2.52   1 2.52   1 2.52   1 2.52   1 2.52   1 2.52
 
  LATTYP: Found a hexagonal cell.
 ALAT       =     2.5200000000
 C/A-ratio  =     1.6329900000
  
  Lattice vectors:
  
 A1 = (   2.5200000000,   0.0000000000,   0.0000000000)
 A2 = (  -1.2600000000,   2.1823840175,   0.0000000000)
 A3 = (   0.0000000000,   0.0000000000,   4.1151348000)


Analysis of symmetry for initial positions (statically):
=====================================================================
 Subroutine PRICEL returns:
 Original cell was already a primitive cell.
 

 Routine SETGRP: Setting up the symmetry group for a 
 hexagonal supercell.


 Subroutine GETGRP returns: Found 24 space group operations
 (whereof 12 operations were pure point group operations)
 out of a pool of 24 trial point group operations.


The static configuration has the point symmetry D_3h.
 The point group associated with its full space group is D_6h.


Analysis of symmetry for dynamics (positions and initial velocities):
=====================================================================
 Subroutine PRICEL returns:
 Original cell was already a primitive cell.
 

 Routine SETGRP: Setting up the symmetry group for a 
 hexagonal supercell.


 Subroutine GETGRP returns: Found 24 space group operations
 (whereof 12 operations were pure point group operations)
 out of a pool of 24 trial point group operations.


The dynamic configuration has the point symmetry D_3h.
 The point group associated with its full space group is D_6h.


 Subroutine INISYM returns: Found 24 space group operations
 (whereof 12 operations are pure point group operations),
 and found     1 'primitive' translations

 
 
 KPOINTS: K-Points                                

Automatic generation of k-mesh.
Space group operators:
 irot       det(A)        alpha          n_x          n_y          n_z        tau_x        tau_y        tau_z
    1     1.000000     0.000000     1.000000     0.000000     0.000000     0.000000     0.000000     0.000000
    2    -1.000000    60.000000     0.000000     0.000000    -1.000000     0.000000     0.000000     0.000000
    3     1.000000   120.000000     0.000000     0.000000    -1.000000     0.000000     0.000000     0.000000
    4    -1.000000   180.000000     0.000000     0.000000     1.000000     0.000000     0.000000     0.000000
    5     1.000000   120.000000     0.000000     0.000000     1.000000     0.000000     0.000000     0.000000
    6    -1.000000    60.000000     0.000000     0.000000     1.000000     0.000000     0.000000     0.000000
    7    -1.000000   180.000000     1.000000     0.000000     0.000000     0.000000     0.000000     0.000000
    8     1.000000   180.000000     0.866025    -0.500000     0.000000     0.000000     0.000000     0.000000
    9    -1.000000   180.000000     0.500000    -0.866025     0.000000     0.000000     0.000000     0.000000
   10     1.000000   180.000000     0.000000     1.000000     0.000000     0.000000     0.000000     0.000000
   11    -1.000000   180.000000    -0.500000    -0.866025     0.000000     0.000000     0.000000     0.000000
   12     1.000000   180.000000     0.866025     0.500000     0.000000     0.000000     0.000000     0.000000
   13    -1.000000     0.000000     1.000000     0.000000     0.000000     0.333333     0.666667     0.500000
   14     1.000000    60.000000     0.000000     0.000000    -1.000000     0.333333     0.666667     0.500000
   15    -1.000000   120.000000     0.000000     0.000000    -1.000000     0.333333     0.666667     0.500000
   16     1.000000   180.000000     0.000000     0.000000     1.000000     0.333333     0.666667     0.500000
   17    -1.000000   120.000000     0.000000     0.000000     1.000000     0.333333     0.666667     0.500000
   18     1.000000    60.000000     0.000000     0.000000     1.000000     0.333333     0.666667     0.500000
   19     1.000000   180.000000     1.000000     0.000000     0.000000     0.333333     0.666667     0.500000
   20    -1.000000   180.000000     0.866025    -0.500000     0.000000     0.333333     0.666667     0.500000
   21     1.000000   180.000000     0.500000    -0.866025     0.000000     0.333333     0.666667     0.500000
   22    -1.000000   180.000000     0.000000     1.000000     0.000000     0.333333     0.666667     0.500000
   23     1.000000   180.000000    -0.500000    -0.866025     0.000000     0.333333     0.666667     0.500000
   24    -1.000000   180.000000     0.866025     0.500000     0.000000     0.333333     0.666667     0.500000
 
 Subroutine IBZKPT returns following result:
 ===========================================
 
 Found     36 irreducible k-points:
 
 Following reciprocal coordinates:
            Coordinates               Weight
  0.083333  0.083333  0.083333     96.000000
  0.250000  0.083333  0.083333    192.000000
  0.416667  0.083333  0.083333    192.000000
 -0.416667  0.083333  0.083333    192.000000
 -0.250000  0.083333  0.083333    192.000000
 -0.083333  0.083333  0.083333     96.000000
  0.250000  0.250000  0.083333     96.000000
  0.416667  0.250000  0.083333    192.000000
 -0.416667  0.250000  0.083333    192.000000
 -0.250000  0.250000  0.083333     96.000000
  0.416667  0.416667  0.083333     96.000000
 -0.416667  0.416667  0.083333     96.000000
  0.083333  0.083333  0.250000     96.000000
  0.250000  0.083333  0.250000    192.000000
  0.416667  0.083333  0.250000    192.000000
 -0.416667  0.083333  0.250000    192.000000
 -0.250000  0.083333  0.250000    192.000000
 -0.083333  0.083333  0.250000     96.000000
  0.250000  0.250000  0.250000     96.000000
  0.416667  0.250000  0.250000    192.000000
 -0.416667  0.250000  0.250000    192.000000
 -0.250000  0.250000  0.250000     96.000000
  0.416667  0.416667  0.250000     96.000000
 -0.416667  0.416667  0.250000     96.000000
  0.083333  0.083333  0.416667     96.000000
  0.250000  0.083333  0.416667    192.000000
  0.416667  0.083333  0.416667    192.000000
 -0.416667  0.083333  0.416667    192.000000
 -0.250000  0.083333  0.416667    192.000000
 -0.083333  0.083333  0.416667     96.000000
  0.250000  0.250000  0.416667     96.000000
  0.416667  0.250000  0.416667    192.000000
 -0.416667  0.250000  0.416667    192.000000
 -0.250000  0.250000  0.416667     96.000000
  0.416667  0.416667  0.416667     96.000000
 -0.416667  0.416667  0.416667     96.000000
 
 Following cartesian coordinates:
            Coordinates               Weight
  0.083333  0.144338  0.051031     96.000000
  0.250000  0.240563  0.051031    192.000000
  0.416667  0.336788  0.051031    192.000000
 -0.416667 -0.144338  0.051031    192.000000
 -0.250000 -0.048113  0.051031    192.000000
 -0.083333  0.048113  0.051031     96.000000
  0.250000  0.433013  0.051031     96.000000
  0.416667  0.529238  0.051031    192.000000
 -0.416667  0.048113  0.051031    192.000000
 -0.250000  0.144338  0.051031     96.000000
  0.416667  0.721688  0.051031     96.000000
 -0.416667  0.240563  0.051031     96.000000
  0.083333  0.144338  0.153093     96.000000
  0.250000  0.240563  0.153093    192.000000
  0.416667  0.336788  0.153093    192.000000
 -0.416667 -0.144338  0.153093    192.000000
 -0.250000 -0.048113  0.153093    192.000000
 -0.083333  0.048113  0.153093     96.000000
  0.250000  0.433013  0.153093     96.000000
  0.416667  0.529238  0.153093    192.000000
 -0.416667  0.048113  0.153093    192.000000
 -0.250000  0.144338  0.153093     96.000000
  0.416667  0.721688  0.153093     96.000000
 -0.416667  0.240563  0.153093     96.000000
  0.083333  0.144338  0.255156     96.000000
  0.250000  0.240563  0.255156    192.000000
  0.416667  0.336788  0.255156    192.000000
 -0.416667 -0.144338  0.255156    192.000000
 -0.250000 -0.048113  0.255156    192.000000
 -0.083333  0.048113  0.255156     96.000000
  0.250000  0.433013  0.255156     96.000000
  0.416667  0.529238  0.255156    192.000000
 -0.416667  0.048113  0.255156    192.000000
 -0.250000  0.144338  0.255156     96.000000
  0.416667  0.721688  0.255156     96.000000
 -0.416667  0.240563  0.255156     96.000000
 


--------------------------------------------------------------------------------------------------------




 Dimension of arrays:
   k-points           NKPTS =     36   k-points in BZ     NKDIM =     36   number of bands    NBANDS=      8
   number of dos      NEDOS =    301   number of ions     NIONS =      2
   non local maximal  LDIM  =      4   non local SUM 2l+1 LMDIM =      8
   total plane-waves  NPLWV =   9072
   max r-space proj   IRMAX =      1   max aug-charges    IRDMAX=  13600
   dimension x,y,z NGX =    18 NGY =   18 NGZ =   28
   dimension x,y,z NGXF=    36 NGYF=   36 NGZF=   56
   support grid    NGXF=    36 NGYF=   36 NGZF=   56
   ions per type =               2
 NGX,Y,Z   is equivalent  to a cutoff of  11.87, 11.87, 11.31 a.u.
 NGXF,Y,Z  is equivalent  to a cutoff of  23.75, 23.75, 22.62 a.u.


 I would recommend the setting:
   dimension x,y,z NGX =    17 NGY =   17 NGZ =   28
 SYSTEM =  Si beta-tin                             
 POSCAR =  Si HCP                                  

 Startparameter for this run:
   NWRITE =      2    write-flag & timer
   PREC   = accura    normal or accurate (medium, high low for compatibility)
   ISTART =      0    job   : 0-new  1-cont  2-samecut
   ICHARG =      2    charge: 1-file 2-atom 10-const
   ISPIN  =      1    spin polarized calculation?
   LNONCOLLINEAR =      F non collinear calculations
   LSORBIT =      F    spin-orbit coupling
   INIWAV =      1    electr: 0-lowe 1-rand  2-diag
   LASPH  =      F    aspherical Exc in radial PAW
   METAGGA=      F    non-selfconsistent MetaGGA calc.

 Electronic Relaxation 1
   ENCUT  =  450.0 eV  33.07 Ry    5.75 a.u.   4.36  4.36  7.12*2*pi/ulx,y,z
   ENINI  =  450.0     initial cutoff
   ENAUG  =  322.1 eV  augmentation charge cutoff
   NELM   =     60;   NELMIN=  2; NELMDL= -5     # of ELM steps 
   EDIFF  = 0.1E-04   stopping-criterion for ELM
   LREAL  =      F    real-space projection
   NLSPLINE    = F    spline interpolate recip. space projectors
   LCOMPAT=      F    compatible to vasp.4.4
   GGA_COMPAT  = T    GGA compatible to vasp.4.4-vasp.4.6
   LMAXPAW     = -100 max onsite density
   LMAXMIX     =    2 max onsite mixed and CHGCAR
   VOSKOWN=      0    Vosko Wilk Nusair interpolation
   ROPT   =    0.00000
 Ionic relaxation
   EDIFFG = -.1E-01   stopping-criterion for IOM
   NSW    =    100    number of steps for IOM
   NBLOCK =      1;   KBLOCK =    100    inner block; outer block 
   IBRION =      2    ionic relax: 0-MD 1-quasi-New 2-CG
   NFREE  =      1    steps in history (QN), initial steepest desc. (CG)
   ISIF   =      4    stress and relaxation
   IWAVPR =     11    prediction:  0-non 1-charg 2-wave 3-comb
   ISYM   =      2    0-nonsym 1-usesym 2-fastsym
   LCORR  =      T    Harris-Foulkes like correction to forces

   POTIM  = 0.5000    time-step for ionic-motion
   TEIN   =    0.0    initial temperature
   TEBEG  =    0.0;   TEEND  =   0.0 temperature during run
   SMASS  =  -3.00    Nose mass-parameter (am)
   estimated Nose-frequenzy (Omega)   =  0.10E-29 period in steps =****** mass=  -0.145E-27a.u.
   SCALEE = 1.0000    scale energy and forces
   NPACO  =    256;   APACO  = 16.0  distance and # of slots for P.C.
   PSTRESS=    0.0 pullay stress

  Mass of Ions in am
   POMASS =  28.09
  Ionic Valenz
   ZVAL   =   4.00
  Atomic Wigner-Seitz radii
   RWIGS  =  -1.00
  virtual crystal weights 
   VCA    =   1.00
   NELECT =       8.0000    total number of electrons
   NUPDOWN=      -1.0000    fix difference up-down

 DOS related values:
   EMIN   =  10.00;   EMAX   =-10.00  energy-range for DOS
   EFERMI =   0.00
   ISMEAR =     0;   SIGMA  =   0.10  broadening in eV -4-tet -1-fermi 0-gaus

 Electronic relaxation 2 (details)
   IALGO  =     38    algorithm
   LDIAG  =      T    sub-space diagonalisation (order eigenvalues)
   LSUBROT=      F    optimize rotation matrix (better conditioning)
   TURBO    =      0    0=normal 1=particle mesh
   IRESTART =      0    0=no restart 2=restart with 2 vectors
   NREBOOT  =      0    no. of reboots
   NMIN     =      0    reboot dimension
   EREF     =   0.00    reference energy to select bands
   IMIX   =      4    mixing-type and parameters
     AMIX     =   0.40;   BMIX     =  1.00
     AMIX_MAG =   1.60;   BMIX_MAG =  1.00
     AMIN     =   0.10
     WC   =   100.;   INIMIX=   1;  MIXPRE=   1;  MAXMIX= -45

 Intra band minimization:
   WEIMIN = 0.0010     energy-eigenvalue tresh-hold
   EBREAK =  0.31E-06  absolut break condition
   DEPER  =   0.30     relativ break condition  

   TIME   =   0.40     timestep for ELM

  volume/ion in A,a.u.               =      11.32        76.36
  Fermi-wavevector in a.u.,A,eV,Ry     =   1.157532  2.187418 18.230170  1.339880
  Thomas-Fermi vector in A             =   2.294142
 
 Write flags
   LWAVE  =      T    write WAVECAR
   LCHARG =      T    write CHGCAR
   LVTOT  =      F    write LOCPOT, total local potential
   LVHAR  =      F    write LOCPOT, Hartree potential only
   LELF   =      F    write electronic localiz. function (ELF)
   LORBIT =      0    0 simple, 1 ext, 2 COOP (PROOUT)


 Dipole corrections
   LMONO  =      F    monopole corrections only (constant potential shift)
   LDIPOL =      F    correct potential (dipole corrections)
   IDIPOL =      0    1-x, 2-y, 3-z, 4-all directions 
   EPSILON=  1.0000000 bulk dielectric constant

 Exchange correlation treatment:
   GGA     =    --    GGA type
   LEXCH   =     8    internal setting for exchange type
   VOSKOWN=      0    Vosko Wilk Nusair interpolation
   LHFCALC =     F    Hartree Fock is set to
   LHFONE  =     F    Hartree Fock one center treatment
   AEXX    =    0.0000 exact exchange contribution

 Linear response parameters
   LEPSILON=     F    determine dielectric tensor
   LRPA    =     F    only Hartree local field effects (RPA)
   LNABLA  =     F    use nabla operator in PAW spheres
   LVEL    =     F    velocity operator in full k-point grid
   LINTERFAST=   F  fast interpolation
   KINTER  =     0    interpolate to denser k-point grid
   CSHIFT  =0.1000    complex shift for real part using Kramers Kronig
   OMEGAMAX=  -1.0    maximum frequency
   DEG_THRESHOLD= 0.2000000E-02 threshold for treating states as degnerate
   RTIME   =    0.100 relaxation time in fs

 Orbital magnetization related:
   ORBITALMAG=     F  switch on orbital magnetization
   LCHIMAG   =     F  perturbation theory with respect to B field
   DQ        =  0.001000  dq finite difference perturbation B field



--------------------------------------------------------------------------------------------------------


 conjugate gradient relaxation of ions
 charge density and potential will be updated during run
 non-spin polarized calculation
 Variant of blocked Davidson
 Davidson routine will perform the subspace rotation
 perform sub-space diagonalisation
    after iterative eigenvector-optimisation
 modified Broyden-mixing scheme, WC =      100.0
 initial mixing is a Kerker type mixing with AMIX =  0.4000 and BMIX =      1.0000
 Hartree-type preconditioning will be used
 using additional bands            4
 reciprocal scheme for non local part
 use partial core corrections
 calculate Harris-corrections to forces 
   (improved forces if not selfconsistent)
 use gradient corrections 
 use of overlap-Matrix (Vanderbilt PP)
 Gauss-broadening in eV      SIGMA  =   0.10


--------------------------------------------------------------------------------------------------------


  energy-cutoff  :      450.00
  volume of cell :       22.63
      direct lattice vectors                 reciprocal lattice vectors
     2.520000000  0.000000000  0.000000000     0.396825397  0.229107250  0.000000000
    -1.260000000  2.182384018  0.000000000     0.000000000  0.458214499  0.000000000
     0.000000000  0.000000000  4.115134800     0.000000000  0.000000000  0.243005405

  length of vectors
     2.520000000  2.520000000  4.115134800     0.458214499  0.458214499  0.243005405


 
 k-points in units of 2pi/SCALE and weight: K-Points                                
   0.08333333  0.14433757  0.05103114       0.019
   0.25000000  0.24056261  0.05103114       0.037
   0.41666667  0.33678766  0.05103114       0.037
  -0.41666667 -0.14433757  0.05103114       0.037
  -0.25000000 -0.04811252  0.05103114       0.037
  -0.08333333  0.04811252  0.05103114       0.019
   0.25000000  0.43301270  0.05103114       0.019
   0.41666667  0.52923775  0.05103114       0.037
  -0.41666667  0.04811252  0.05103114       0.037
  -0.25000000  0.14433757  0.05103114       0.019
   0.41666667  0.72168784  0.05103114       0.019
  -0.41666667  0.24056261  0.05103114       0.019
   0.08333333  0.14433757  0.15309341       0.019
   0.25000000  0.24056261  0.15309341       0.037
   0.41666667  0.33678766  0.15309341       0.037
  -0.41666667 -0.14433757  0.15309341       0.037
  -0.25000000 -0.04811252  0.15309341       0.037
  -0.08333333  0.04811252  0.15309341       0.019
   0.25000000  0.43301270  0.15309341       0.019
   0.41666667  0.52923775  0.15309341       0.037
  -0.41666667  0.04811252  0.15309341       0.037
  -0.25000000  0.14433757  0.15309341       0.019
   0.41666667  0.72168784  0.15309341       0.019
  -0.41666667  0.24056261  0.15309341       0.019
   0.08333333  0.14433757  0.25515568       0.019
   0.25000000  0.24056261  0.25515568       0.037
   0.41666667  0.33678766  0.25515568       0.037
  -0.41666667 -0.14433757  0.25515568       0.037
  -0.25000000 -0.04811252  0.25515568       0.037
  -0.08333333  0.04811252  0.25515568       0.019
   0.25000000  0.43301270  0.25515568       0.019
   0.41666667  0.52923775  0.25515568       0.037
  -0.41666667  0.04811252  0.25515568       0.037
  -0.25000000  0.14433757  0.25515568       0.019
   0.41666667  0.72168784  0.25515568       0.019
  -0.41666667  0.24056261  0.25515568       0.019
 
 k-points in reciprocal lattice and weights: K-Points                                
   0.08333333  0.08333333  0.08333333       0.019
   0.25000000  0.08333333  0.08333333       0.037
   0.41666667  0.08333333  0.08333333       0.037
  -0.41666667  0.08333333  0.08333333       0.037
  -0.25000000  0.08333333  0.08333333       0.037
  -0.08333333  0.08333333  0.08333333       0.019
   0.25000000  0.25000000  0.08333333       0.019
   0.41666667  0.25000000  0.08333333       0.037
  -0.41666667  0.25000000  0.08333333       0.037
  -0.25000000  0.25000000  0.08333333       0.019
   0.41666667  0.41666667  0.08333333       0.019
  -0.41666667  0.41666667  0.08333333       0.019
   0.08333333  0.08333333  0.25000000       0.019
   0.25000000  0.08333333  0.25000000       0.037
   0.41666667  0.08333333  0.25000000       0.037
  -0.41666667  0.08333333  0.25000000       0.037
  -0.25000000  0.08333333  0.25000000       0.037
  -0.08333333  0.08333333  0.25000000       0.019
   0.25000000  0.25000000  0.25000000       0.019
   0.41666667  0.25000000  0.25000000       0.037
  -0.41666667  0.25000000  0.25000000       0.037
  -0.25000000  0.25000000  0.25000000       0.019
   0.41666667  0.41666667  0.25000000       0.019
  -0.41666667  0.41666667  0.25000000       0.019
   0.08333333  0.08333333  0.41666667       0.019
   0.25000000  0.08333333  0.41666667       0.037
   0.41666667  0.08333333  0.41666667       0.037
  -0.41666667  0.08333333  0.41666667       0.037
  -0.25000000  0.08333333  0.41666667       0.037
  -0.08333333  0.08333333  0.41666667       0.019
   0.25000000  0.25000000  0.41666667       0.019
   0.41666667  0.25000000  0.41666667       0.037
  -0.41666667  0.25000000  0.41666667       0.037
  -0.25000000  0.25000000  0.41666667       0.019
   0.41666667  0.41666667  0.41666667       0.019
  -0.41666667  0.41666667  0.41666667       0.019
 
 position of ions in fractional coordinates (direct lattice) 
   0.00000000  0.00000000  0.00000000
   0.33333333  0.66666667  0.50000000
 
 position of ions in cartesian coordinates  (Angst):
   0.00000000  0.00000000  0.00000000
  -0.00000000  1.45492268  2.05756740
 


--------------------------------------------------------------------------------------------------------


 k-point  1 :   0.0833 0.0833 0.0833  plane waves:     499
 k-point  2 :   0.2500 0.0833 0.0833  plane waves:     488
 k-point  3 :   0.4167 0.0833 0.0833  plane waves:     486
 k-point  4 :  -0.4167 0.0833 0.0833  plane waves:     485
 k-point  5 :  -0.2500 0.0833 0.0833  plane waves:     492
 k-point  6 :  -0.0833 0.0833 0.0833  plane waves:     510
 k-point  7 :   0.2500 0.2500 0.0833  plane waves:     493
 k-point  8 :   0.4167 0.2500 0.0833  plane waves:     487
 k-point  9 :  -0.4167 0.2500 0.0833  plane waves:     492
 k-point 10 :  -0.2500 0.2500 0.0833  plane waves:     489
 k-point 11 :   0.4167 0.4167 0.0833  plane waves:     483
 k-point 12 :  -0.4167 0.4167 0.0833  plane waves:     483
 k-point 13 :   0.0833 0.0833 0.2500  plane waves:     502
 k-point 14 :   0.2500 0.0833 0.2500  plane waves:     493
 k-point 15 :   0.4167 0.0833 0.2500  plane waves:     488
 k-point 16 :  -0.4167 0.0833 0.2500  plane waves:     487
 k-point 17 :  -0.2500 0.0833 0.2500  plane waves:     491
 k-point 18 :  -0.0833 0.0833 0.2500  plane waves:     501
 k-point 19 :   0.2500 0.2500 0.2500  plane waves:     491
 k-point 20 :   0.4167 0.2500 0.2500  plane waves:     488
 k-point 21 :  -0.4167 0.2500 0.2500  plane waves:     491
 k-point 22 :  -0.2500 0.2500 0.2500  plane waves:     490
 k-point 23 :   0.4167 0.4167 0.2500  plane waves:     491
 k-point 24 :  -0.4167 0.4167 0.2500  plane waves:     481
 k-point 25 :   0.0833 0.0833 0.4167  plane waves:     495
 k-point 26 :   0.2500 0.0833 0.4167  plane waves:     491
 k-point 27 :   0.4167 0.0833 0.4167  plane waves:     490
 k-point 28 :  -0.4167 0.0833 0.4167  plane waves:     491
 k-point 29 :  -0.2500 0.0833 0.4167  plane waves:     491
 k-point 30 :  -0.0833 0.0833 0.4167  plane waves:     497
 k-point 31 :   0.2500 0.2500 0.4167  plane waves:     490
 k-point 32 :   0.4167 0.2500 0.4167  plane waves:     488
 k-point 33 :  -0.4167 0.2500 0.4167  plane waves:     493
 k-point 34 :  -0.2500 0.2500 0.4167  plane waves:     496
 k-point 35 :   0.4167 0.4167 0.4167  plane waves:     490
 k-point 36 :  -0.4167 0.4167 0.4167  plane waves:     492

 maximum and minimum number of plane-waves per node :       510      481

 maximum number of plane-waves:       510
 maximum index in each direction: 
   IXMAX=    4   IYMAX=    4   IZMAX=    7
   IXMIN=   -4   IYMIN=   -4   IZMIN=   -7

 NGX is ok and might be reduce to  18
 NGY is ok and might be reduce to  18
 WARNING: aliasing errors must be expected set NGZ to  30 to avoid them
 aliasing errors are usually negligible using standard VASP settings
 and one can safely disregard these warnings

 serial   3D FFT for wavefunctions
 parallel 3D FFT for charge:
    minimum data exchange during FFTs selected (reduces bandwidth)


 total amount of memory used by VASP on root node    33738. kBytes
========================================================================

   base      :      30000. kBytes
   nonl-proj :       1196. kBytes
   fftplans  :        669. kBytes
   grid      :       1259. kBytes
   one-center:          6. kBytes
   wavefun   :        608. kBytes
 
     INWAV:  cpu time    0.0000: real time    0.0000
 Broyden mixing: mesh for mixing (old mesh)
   NGX =  9   NGY =  9   NGZ = 15
  (NGX  = 36   NGY  = 36   NGZ  = 56)
  gives a total of   1215 points

 initial charge density was supplied:
 charge density of overlapping atoms calculated
 number of electron       8.0000000 magnetization 
 keeping initial charge density in first step


--------------------------------------------------------------------------------------------------------


 Maximum index for augmentation-charges         3239 (set IRDMAX)


--------------------------------------------------------------------------------------------------------


 First call to EWALD:  gamma=   0.627
 Maximum number of real-space cells 3x 3x 2
 Maximum number of reciprocal cells 3x 3x 4

 FEWALD executed in parallel
    FEWALD:  cpu time    0.0020: real time    0.0010


----------------------------------------- Iteration    1(   1)  ---------------------------------------


    POTLOK:  cpu time    0.0280: real time    0.0183
    SETDIJ:  cpu time    0.0030: real time    0.0027
     EDDAV:  cpu time    1.3768: real time    0.8428
       DOS:  cpu time    0.0020: real time    0.0009
    --------------------------------------------
      LOOP:  cpu time    1.4128: real time    0.8672

 eigenvalue-minimisations  :   592
 total energy-change (2. order) : 0.4963478E+01  (-0.3547527E+03)
 number of electron       8.0000000 magnetization 
 augmentation part        8.0000000 magnetization 

 Free energy of the ion-electron system (eV)
  ---------------------------------------------------
  alpha Z        PSCENC =         5.94974999
  Ewald energy   TEWEN  =      -296.39431912
  -Hartree energ DENC   =        -0.49615912
  -exchange      EXHF   =         0.00000000
  -V(xc)+E(xc)   XCENC  =       -16.21807080
  PAW double counting   =       176.24759923     -141.06103558
  entropy T*S    EENTRO =        -0.00115418
  eigenvalues    EBANDS =        70.80494029
  atomic energy  EATOM  =       206.13192747
  Solvation  Ediel_sol  =         0.00000000
  ---------------------------------------------------
  free energy    TOTEN  =         4.96347819 eV

  energy without entropy =        4.96463237  energy(sigma->0) =        4.96405528


--------------------------------------------------------------------------------------------------------




----------------------------------------- Iteration    1(   2)  ---------------------------------------


     EDDAV:  cpu time    1.5428: real time    0.9573
       DOS:  cpu time    0.0020: real time    0.0008
    --------------------------------------------
      LOOP:  cpu time    1.5468: real time    0.9606

 eigenvalue-minimisations  :   816
 total energy-change (2. order) :-0.1415833E+02  (-0.1357171E+02)
 number of electron       8.0000000 magnetization 
 augmentation part        8.0000000 magnetization 

 Free energy of the ion-electron system (eV)
  ---------------------------------------------------
  alpha Z        PSCENC =         5.94974999
  Ewald energy   TEWEN  =      -296.39431912
  -Hartree energ DENC   =        -0.49615912
  -exchange      EXHF   =         0.00000000
  -V(xc)+E(xc)   XCENC  =       -16.21807080
  PAW double counting   =       176.24759923     -141.06103558
  entropy T*S    EENTRO =        -0.00615146
  eigenvalues    EBANDS =        56.65160361
  atomic energy  EATOM  =       206.13192747
  Solvation  Ediel_sol  =         0.00000000
  ---------------------------------------------------
  free energy    TOTEN  =        -9.19485577 eV

  energy without entropy =       -9.18870432  energy(sigma->0) =       -9.19178004


--------------------------------------------------------------------------------------------------------




----------------------------------------- Iteration    1(   3)  ---------------------------------------


     EDDAV:  cpu time    1.5548: real time    1.0319
       DOS:  cpu time    0.0020: real time    0.0009
    --------------------------------------------
      LOOP:  cpu time    1.7927: real time    1.1925

 eigenvalue-minimisations  :   720
 total energy-change (2. order) :-0.1780947E+00  (-0.1742904E+00)
 number of electron       8.0000000 magnetization 
 augmentation part        8.0000000 magnetization 

 Free energy of the ion-electron system (eV)
  ---------------------------------------------------
  alpha Z        PSCENC =         5.94974999
  Ewald energy   TEWEN  =      -296.39431912
  -Hartree energ DENC   =        -0.49615912
  -exchange      EXHF   =         0.00000000
  -V(xc)+E(xc)   XCENC  =       -16.21807080
  PAW double counting   =       176.24759923     -141.06103558
  entropy T*S    EENTRO =        -0.00379241
  eigenvalues    EBANDS =        56.47114986
  atomic energy  EATOM  =       206.13192747
  Solvation  Ediel_sol  =         0.00000000
  ---------------------------------------------------
  free energy    TOTEN  =        -9.37295047 eV

  energy without entropy =       -9.36915806  energy(sigma->0) =       -9.37105427


--------------------------------------------------------------------------------------------------------




----------------------------------------- Iteration    1(   4)  ---------------------------------------


     EDDAV:  cpu time    2.0747: real time    1.2840
       DOS:  cpu time    0.0100: real time    0.0051
    --------------------------------------------
      LOOP:  cpu time    2.0877: real time    1.2916

 eigenvalue-minimisations  :   928
 total energy-change (2. order) :-0.4473841E-03  (-0.4473535E-03)
 number of electron       8.0000000 magnetization 
 augmentation part        8.0000000 magnetization 

 Free energy of the ion-electron system (eV)
  ---------------------------------------------------
  alpha Z        PSCENC =         5.94974999
  Ewald energy   TEWEN  =      -296.39431912
  -Hartree energ DENC   =        -0.49615912
  -exchange      EXHF   =         0.00000000
  -V(xc)+E(xc)   XCENC  =       -16.21807080
  PAW double counting   =       176.24759923     -141.06103558
  entropy T*S    EENTRO =        -0.00377928
  eigenvalues    EBANDS =        56.47068934
  atomic energy  EATOM  =       206.13192747
  Solvation  Ediel_sol  =         0.00000000
  ---------------------------------------------------
  free energy    TOTEN  =        -9.37339786 eV

  energy without entropy =       -9.36961858  energy(sigma->0) =       -9.37150822


--------------------------------------------------------------------------------------------------------




----------------------------------------- Iteration    1(   5)  ---------------------------------------


     EDDAV:  cpu time    1.5268: real time    0.9619
       DOS:  cpu time    0.0020: real time    0.0008
    CHARGE:  cpu time    0.0320: real time    0.0205
    MIXING:  cpu time    0.0010: real time    0.0006
    --------------------------------------------
      LOOP:  cpu time    1.5648: real time    0.9869

 eigenvalue-minimisations  :   752
 total energy-change (2. order) :-0.1930233E-06  (-0.1919787E-06)
 number of electron       7.9999998 magnetization 
 augmentation part       -0.4643906 magnetization 

 Broyden mixing:
  rms(total) = 0.60431E+00    rms(broyden)= 0.60431E+00
  rms(prec ) = 0.65622E+00
  weight for this iteration     100.00

 Free energy of the ion-electron system (eV)
  ---------------------------------------------------
  alpha Z        PSCENC =         5.94974999
  Ewald energy   TEWEN  =      -296.39431912
  -Hartree energ DENC   =        -0.49615912
  -exchange      EXHF   =         0.00000000
  -V(xc)+E(xc)   XCENC  =       -16.21807080
  PAW double counting   =       176.24759923     -141.06103558
  entropy T*S    EENTRO =        -0.00377928
  eigenvalues    EBANDS =        56.47068915
  atomic energy  EATOM  =       206.13192747
  Solvation  Ediel_sol  =         0.00000000
  ---------------------------------------------------
  free energy    TOTEN  =        -9.37339805 eV

  energy without entropy =       -9.36961877  energy(sigma->0) =       -9.37150841


--------------------------------------------------------------------------------------------------------




----------------------------------------- Iteration    1(   6)  ---------------------------------------


    POTLOK:  cpu time    0.0290: real time    0.0190
    SETDIJ:  cpu time    0.0070: real time    0.0058
     EDDAV:  cpu time    1.9267: real time    1.1811
       DOS:  cpu time    0.0020: real time    0.0011
    CHARGE:  cpu time    0.0300: real time    0.0202
    MIXING:  cpu time    0.0030: real time    0.0013
    --------------------------------------------
      LOOP:  cpu time    2.0007: real time    1.2311

 eigenvalue-minimisations  :   704
 total energy-change (2. order) : 0.3893127E-01  (-0.6660965E-03)
 number of electron       7.9999998 magnetization 
 augmentation part       -0.4680785 magnetization 

 Broyden mixing:
  rms(total) = 0.33777E+00    rms(broyden)= 0.33777E+00
  rms(prec ) = 0.37150E+00
  weight for this iteration     100.00

 eigenvalues of (default mixing * dielectric matrix)
  average eigenvalue GAMMA=   2.2602
  2.2602

 Free energy of the ion-electron system (eV)
  ---------------------------------------------------
  alpha Z        PSCENC =         5.94974999
  Ewald energy   TEWEN  =      -296.39431912
  -Hartree energ DENC   =        -0.47067706
  -exchange      EXHF   =         0.00000000
  -V(xc)+E(xc)   XCENC  =       -16.12007005
  PAW double counting   =       476.19874546     -441.06344343
  entropy T*S    EENTRO =        -0.00364520
  eigenvalues    EBANDS =        56.43726515
  atomic energy  EATOM  =       206.13192747
  Solvation  Ediel_sol  =         0.00000000
  ---------------------------------------------------
  free energy    TOTEN  =        -9.33446678 eV

  energy without entropy =       -9.33082158  energy(sigma->0) =       -9.33264418


--------------------------------------------------------------------------------------------------------




----------------------------------------- Iteration    1(   7)  ---------------------------------------


    POTLOK:  cpu time    0.0330: real time    0.0233
    SETDIJ:  cpu time    0.0040: real time    0.0017
     EDDAV:  cpu time    1.5328: real time    0.9493
       DOS:  cpu time    0.0030: real time    0.0011
    CHARGE:  cpu time    0.0240: real time    0.0164
    MIXING:  cpu time    0.0020: real time    0.0016
    --------------------------------------------
      LOOP:  cpu time    1.6018: real time    0.9962

 eigenvalue-minimisations  :   736
 total energy-change (2. order) : 0.2335010E-01  (-0.1374437E-02)
 number of electron       7.9999998 magnetization 
 augmentation part       -0.4734927 magnetization 

 Broyden mixing:
  rms(total) = 0.19417E-01    rms(broyden)= 0.19417E-01
  rms(prec ) = 0.24371E-01
  weight for this iteration     100.00

 eigenvalues of (default mixing * dielectric matrix)
  average eigenvalue GAMMA=   2.5127
  2.5127  2.5127

 Free energy of the ion-electron system (eV)
  ---------------------------------------------------
  alpha Z        PSCENC =         5.94974999
  Ewald energy   TEWEN  =      -296.39431912
  -Hartree energ DENC   =        -0.49885135
  -exchange      EXHF   =         0.00000000
  -V(xc)+E(xc)   XCENC  =       -15.97043213
  PAW double counting   =      1123.69304406    -1088.63699495
  entropy T*S    EENTRO =        -0.00346855
  eigenvalues    EBANDS =        56.41822789
  atomic energy  EATOM  =       206.13192747
  Solvation  Ediel_sol  =         0.00000000
  ---------------------------------------------------
  free energy    TOTEN  =        -9.31111668 eV

  energy without entropy =       -9.30764814  energy(sigma->0) =       -9.30938241


--------------------------------------------------------------------------------------------------------




----------------------------------------- Iteration    1(   8)  ---------------------------------------


    POTLOK:  cpu time    0.0250: real time    0.0147
    SETDIJ:  cpu time    0.0140: real time    0.0095
     EDDAV:  cpu time    2.2337: real time    1.3929
       DOS:  cpu time    0.0020: real time    0.0010
    CHARGE:  cpu time    0.0120: real time    0.0080
    MIXING:  cpu time    0.0020: real time    0.0008
    --------------------------------------------
      LOOP:  cpu time    2.2936: real time    1.4298

 eigenvalue-minimisations  :   920
 total energy-change (2. order) : 0.2268254E-03  (-0.1220687E-04)
 number of electron       7.9999998 magnetization 
 augmentation part       -0.4738686 magnetization 

 Broyden mixing:
  rms(total) = 0.21203E-02    rms(broyden)= 0.21203E-02
  rms(prec ) = 0.30278E-02
  weight for this iteration     100.00

 eigenvalues of (default mixing * dielectric matrix)
  average eigenvalue GAMMA=   2.0234
  0.9728  2.4183  2.6791

 Free energy of the ion-electron system (eV)
  ---------------------------------------------------
  alpha Z        PSCENC =         5.94974999
  Ewald energy   TEWEN  =      -296.39431912
  -Hartree energ DENC   =        -0.51076922
  -exchange      EXHF   =         0.00000000
  -V(xc)+E(xc)   XCENC  =       -15.95206368
  PAW double counting   =      1093.83141114    -1058.79243424
  entropy T*S    EENTRO =        -0.00345758
  eigenvalues    EBANDS =        56.42906538
  atomic energy  EATOM  =       206.13192747
  Solvation  Ediel_sol  =         0.00000000
  ---------------------------------------------------
  free energy    TOTEN  =        -9.31088986 eV

  energy without entropy =       -9.30743228  energy(sigma->0) =       -9.30916107


--------------------------------------------------------------------------------------------------------




----------------------------------------- Iteration    1(   9)  ---------------------------------------


    POTLOK:  cpu time    0.0360: real time    0.0220
    SETDIJ:  cpu time    0.0040: real time    0.0021
     EDDAV:  cpu time    1.1498: real time    0.7134
       DOS:  cpu time    0.0120: real time    0.0086
    --------------------------------------------
      LOOP:  cpu time    1.2068: real time    0.7487

 eigenvalue-minimisations  :   488
 total energy-change (2. order) : 0.1557998E-05  (-0.2750429E-06)
 number of electron       7.9999998 magnetization 
 augmentation part       -0.4738686 magnetization 

 Free energy of the ion-electron system (eV)
  ---------------------------------------------------
  alpha Z        PSCENC =         5.94974999
  Ewald energy   TEWEN  =      -296.39431912
  -Hartree energ DENC   =        -0.51252369
  -exchange      EXHF   =         0.00000000
  -V(xc)+E(xc)   XCENC  =       -15.94916085
  PAW double counting   =      1095.46239635    -1060.42540163
  entropy T*S    EENTRO =        -0.00345521
  eigenvalues    EBANDS =        56.42989839
  atomic energy  EATOM  =       206.13192747
  Solvation  Ediel_sol  =         0.00000000
  ---------------------------------------------------
  free energy    TOTEN  =        -9.31088830 eV

  energy without entropy =       -9.30743310  energy(sigma->0) =       -9.30916070


--------------------------------------------------------------------------------------------------------




 average (electrostatic) potential at core
  the test charge radii are     0.9892
  (the norm of the test charge is              1.0000)
       1 -76.2755       2 -76.2755
 
 
 
 E-fermi :  13.7349     XC(G=0): -12.2166     alpha+bet :-21.1956


 k-point     1 :       0.0833    0.0833    0.0833
  band No.  band energies     occupation 
      1      -2.4870      2.00000
      2       4.5013      2.00000
      3       7.2390      2.00000
      4      19.0820      0.00000
      5      19.1688      0.00000
      6      25.0411      0.00000
      7      25.2034      0.00000
      8      25.3870      0.00000

 k-point     2 :       0.2500    0.0833    0.0833
  band No.  band energies     occupation 
      1      -0.3892      2.00000
      2       6.4949      2.00000
      3       9.1408      2.00000
      4      11.9885      2.00000
      5      16.4129      0.00000
      6      18.5265      0.00000
      7      20.8415      0.00000
      8      23.1668      0.00000

 k-point     3 :       0.4167    0.0833    0.0833
  band No.  band energies     occupation 
      1       3.3132      2.00000
      2       5.7416      2.00000
      3      10.1281      2.00000
      4      12.1563      2.00000
      5      13.1760      2.00000
      6      14.8980      0.00000
      7      16.0534      0.00000
      8      21.9866      0.00000

 k-point     4 :      -0.4167    0.0833    0.0833
  band No.  band energies     occupation 
      1       1.2697      2.00000
      2       7.8270      2.00000
      3       8.8180      2.00000
      4      10.9388      2.00000
      5      15.0438      0.00000
      6      16.0655      0.00000
      7      18.0489      0.00000
      8      22.3720      0.00000

 k-point     5 :      -0.2500    0.0833    0.0833
  band No.  band energies     occupation 
      1      -1.6447      2.00000
      2       5.3060      2.00000
      3       8.0241      2.00000
      4      15.4007      0.00000
      5      17.6165      0.00000
      6      21.7703      0.00000
      7      23.5197      0.00000
      8      24.6312      0.00000

 k-point     6 :      -0.0833    0.0833    0.0833
  band No.  band energies     occupation 
      1      -2.9097      2.00000
      2       4.0966      2.00000
      3       6.8417      2.00000
      4      20.9268      0.00000
      5      22.3034      0.00000
      6      24.0580      0.00000
      7      26.1157      0.00000
      8      26.7399      0.00000

 k-point     7 :       0.2500    0.2500    0.0833
  band No.  band energies     occupation 
      1       2.5032      2.00000
      2       8.7970      2.00000
      3       9.9067      2.00000
      4      10.0470      2.00000
      5      12.2307      2.00000
      6      16.2093      0.00000
      7      16.9030      0.00000
      8      19.3538      0.00000

 k-point     8 :       0.4167    0.2500    0.0833
  band No.  band energies     occupation 
      1       4.5301      2.00000
      2       6.9287      2.00000
      3       9.2656      2.00000
      4      11.4228      2.00000
      5      13.2688      2.00000
      6      14.4673      0.00000
      7      15.9927      0.00000
      8      17.3408      0.00000

 k-point     9 :      -0.4167    0.2500    0.0833
  band No.  band energies     occupation 
      1       0.8570      2.00000
      2       7.6443      2.00000
      3       9.9741      2.00000
      4      11.1040      2.00000
      5      13.1028      2.00000
      6      17.3365      0.00000
      7      19.1768      0.00000
      8      20.6195      0.00000

 k-point    10 :      -0.2500    0.2500    0.0833
  band No.  band energies     occupation 
      1      -1.2252      2.00000
      2       5.7049      2.00000
      3       8.4065      2.00000
      4      13.4967      1.99924
      5      19.4327      0.00000
      6      19.7549      0.00000
      7      21.5011      0.00000
      8      22.7127      0.00000

 k-point    11 :       0.4167    0.4167    0.0833
  band No.  band energies     occupation 
      1       4.7869      2.00000
      2       5.0943      2.00000
      3      11.2012      2.00000
      4      11.8580      2.00000
      5      12.2501      2.00000
      6      14.4945      0.00000
      7      15.0703      0.00000
      8      19.1979      0.00000

 k-point    12 :      -0.4167    0.4167    0.0833
  band No.  band energies     occupation 
      1       2.0916      2.00000
      2       6.8762      2.00000
      3       9.0272      2.00000
      4      11.5959      2.00000
      5      13.8745      0.04836
      6      16.3291      0.00000
      7      17.9960      0.00000
      8      20.4413      0.00000

 k-point    13 :       0.0833    0.0833    0.2500
  band No.  band energies     occupation 
      1      -2.0123      2.00000
      2       2.2038      2.00000
      3      10.3607      2.00000
      4      19.4427      0.00000
      5      19.4847      0.00000
      6      22.0271      0.00000
      7      23.2587      0.00000
      8      23.5795      0.00000

 k-point    14 :       0.2500    0.0833    0.2500
  band No.  band energies     occupation 
      1       0.0798      2.00000
      2       4.2395      2.00000
      3      11.7669      2.00000
      4      12.8081      2.00000
      5      16.0678      0.00000
      6      17.2289      0.00000
      7      20.7730      0.00000
      8      23.2497      0.00000

 k-point    15 :       0.4167    0.0833    0.2500
  band No.  band energies     occupation 
      1       3.7683      2.00000
      2       6.1295      2.00000
      3       8.0195      2.00000
      4      10.3108      2.00000
      5      15.3170      0.00000
      6      16.3869      0.00000
      7      18.1932      0.00000
      8      20.1147      0.00000

 k-point    16 :      -0.4167    0.0833    0.2500
  band No.  band energies     occupation 
      1       1.7338      2.00000
      2       5.8202      2.00000
      3       9.1093      2.00000
      4      12.8239      2.00000
      5      14.1465      0.00000
      6      16.3603      0.00000
      7      19.8209      0.00000
      8      21.2956      0.00000

 k-point    17 :      -0.2500    0.0833    0.2500
  band No.  band energies     occupation 
      1      -1.1723      2.00000
      2       3.0226      2.00000
      3      11.1058      2.00000
      4      15.8195      0.00000
      5      17.9627      0.00000
      6      19.7608      0.00000
      7      21.8785      0.00000
      8      22.8205      0.00000

 k-point    18 :      -0.0833    0.0833    0.2500
  band No.  band energies     occupation 
      1      -2.4338      2.00000
      2       1.7926      2.00000
      3       9.9772      2.00000
      4      20.9442      0.00000
      5      21.8522      0.00000
      6      22.7018      0.00000
      7      24.6771      0.00000
      8      25.5739      0.00000

 k-point    19 :       0.2500    0.2500    0.2500
  band No.  band energies     occupation 
      1       2.9630      2.00000
      2       6.9774      2.00000
      3      10.2276      2.00000
      4      10.3304      2.00000
      5      13.8364      0.15114
      6      14.2464      0.00000
      7      16.0998      0.00000
      8      21.9502      0.00000

 k-point    20 :       0.4167    0.2500    0.2500
  band No.  band energies     occupation 
      1       4.9787      2.00000
      2       7.2962      2.00000
      3       9.0055      2.00000
      4      10.0294      2.00000
      5      11.6368      2.00000
      6      13.8150      0.25767
      7      17.5362      0.00000
      8      19.7314      0.00000

 k-point    21 :      -0.4167    0.2500    0.2500
  band No.  band energies     occupation 
      1       1.3224      2.00000
      2       5.4389      2.00000
      3      10.9997      2.00000
      4      13.0406      2.00000
      5      13.6747      1.60540
      6      15.5182      0.00000
      7      17.6199      0.00000
      8      22.8224      0.00000

 k-point    22 :      -0.2500    0.2500    0.2500
  band No.  band energies     occupation 
      1      -0.7538      2.00000
      2       3.4298      2.00000
      3      11.4367      2.00000
      4      13.9661      0.00108
      5      17.7734      0.00000
      6      19.8371      0.00000
      7      21.5933      0.00000
      8      23.4796      0.00000

 k-point    23 :       0.4167    0.4167    0.2500
  band No.  band energies     occupation 
      1       5.2313      2.00000
      2       5.5287      2.00000
      3       9.3358      2.00000
      4       9.6944      2.00000
      5      12.7104      2.00000
      6      16.1086      0.00000
      7      17.6947      0.00000
      8      18.4524      0.00000

 k-point    24 :      -0.4167    0.4167    0.2500
  band No.  band energies     occupation 
      1       2.5526      2.00000
      2       6.4705      2.00000
      3       7.6845      2.00000
      4      11.4504      2.00000
      5      14.8323      0.00000
      6      18.4010      0.00000
      7      19.0515      0.00000
      8      20.9040      0.00000

 k-point    25 :       0.0833    0.0833    0.4167
  band No.  band energies     occupation 
      1      -1.0666      2.00000
      2       0.3424      2.00000
      3      13.8505      0.10207
      4      17.5816      0.00000
      5      20.2496      0.00000
      6      20.5931      0.00000
      7      21.7627      0.00000
      8      22.0241      0.00000

 k-point    26 :       0.2500    0.0833    0.4167
  band No.  band energies     occupation 
      1       1.0139      2.00000
      2       2.4048      2.00000
      3      13.0471      2.00000
      4      14.2488      0.00000
      5      15.9710      0.00000
      6      17.7571      0.00000
      7      19.1774      0.00000
      8      20.2070      0.00000

 k-point    27 :       0.4167    0.0833    0.4167
  band No.  band energies     occupation 
      1       4.6658      2.00000
      2       5.9147      2.00000
      3       7.3435      2.00000
      4       8.5718      2.00000
      5      16.5344      0.00000
      6      17.6667      0.00000
      7      19.7027      0.00000
      8      21.6317      0.00000

 k-point    28 :      -0.4167    0.0833    0.4167
  band No.  band energies     occupation 
      1       2.6570      2.00000
      2       4.0283      2.00000
      3       9.9833      2.00000
      4      11.2880      2.00000
      5      16.6525      0.00000
      6      17.4686      0.00000
      7      18.7598      0.00000
      8      21.3208      0.00000

 k-point    29 :      -0.2500    0.0833    0.4167
  band No.  band energies     occupation 
      1      -0.2312      2.00000
      2       1.1709      2.00000
      3      14.4792      0.00000
      4      16.5480      0.00000
      5      17.8464      0.00000
      6      18.2288      0.00000
      7      19.7332      0.00000
      8      20.4920      0.00000

 k-point    30 :      -0.0833    0.0833    0.4167
  band No.  band energies     occupation 
      1      -1.4860      2.00000
      2      -0.0736      2.00000
      3      13.4937      1.99935
      4      17.3294      0.00000
      5      22.2388      0.00000
      6      23.3940      0.00000
      7      23.4976      0.00000
      8      24.6875      0.00000

 k-point    31 :       0.2500    0.2500    0.4167
  band No.  band energies     occupation 
      1       3.8767      2.00000
      2       5.2293      2.00000
      3      11.0105      2.00000
      4      11.1052      2.00000
      5      12.6220      2.00000
      6      12.6654      2.00000
      7      18.9759      0.00000
      8      22.4206      0.00000

 k-point    32 :       0.4167    0.2500    0.4167
  band No.  band energies     occupation 
      1       5.8594      2.00000
      2       7.0623      2.00000
      3       8.5333      2.00000
      4       9.6374      2.00000
      5      11.0167      2.00000
      6      12.1956      2.00000
      7      20.7432      0.00000
      8      22.6896      0.00000

 k-point    33 :      -0.4167    0.2500    0.4167
  band No.  band energies     occupation 
      1       2.2487      2.00000
      2       3.6267      2.00000
      3      11.9052      2.00000
      4      13.1038      2.00000
      5      14.3511      0.00000
      6      15.4533      0.00000
      7      17.7413      0.00000
      8      21.1305      0.00000

 k-point    34 :      -0.2500    0.2500    0.4167
  band No.  band energies     occupation 
      1       0.1849      2.00000
      2       1.5834      2.00000
      3      14.2945      0.00000
      4      15.1115      0.00000
      5      16.3358      0.00000
      6      18.9348      0.00000
      7      20.6468      0.00000
      8      21.8621      0.00000

 k-point    35 :       0.4167    0.4167    0.4167
  band No.  band energies     occupation 
      1       6.0682      2.00000
      2       6.3116      2.00000
      3       7.7300      2.00000
      4       7.9818      2.00000
      5      13.5789      1.97262
      6      14.8352      0.00000
      7      20.8761      0.00000
      8      21.3102      0.00000

 k-point    36 :      -0.4167    0.4167    0.4167
  band No.  band energies     occupation 
      1       3.4683      2.00000
      2       4.8194      2.00000
      3       8.4262      2.00000
      4       9.7374      2.00000
      5      18.0543      0.00000
      6      19.2120      0.00000
      7      20.4308      0.00000
      8      20.5847      0.00000


--------------------------------------------------------------------------------------------------------


 soft charge-density along one line, spin component           1
         0         1         2         3         4         5         6         7         8         9
 total charge-density along one line
 
 pseudopotential strength for first ion, spin component:           1
 17.569  24.507   0.000   0.000  -0.000   0.000   0.000  -0.000
 24.507  34.189   0.000   0.000  -0.000   0.000   0.000  -0.000
  0.000   0.000   4.045  -0.000   0.000   7.532  -0.000   0.000
  0.000   0.000  -0.000   4.045   0.000  -0.000   7.532   0.000
 -0.000  -0.000   0.000   0.000   4.045   0.000   0.000   7.532
  0.000   0.000   7.532  -0.000   0.000  14.036  -0.000   0.000
  0.000   0.000  -0.000   7.532   0.000  -0.000  14.036   0.000
 -0.000  -0.000   0.000   0.000   7.532   0.000   0.000  14.036
 total augmentation occupancy for first ion, spin component:           1
  7.273  -3.415   0.000   0.000   0.000   0.000   0.000  -0.000
 -3.415   1.985  -0.000   0.000   0.000   0.000   0.000   0.000
  0.000   0.000   3.354  -0.000   0.000  -0.893   0.000   0.000
  0.000   0.000   0.000   3.354  -0.000   0.000  -0.894   0.000
  0.000   0.000   0.000   0.000   3.354   0.000   0.000  -0.893
  0.000  -0.000  -0.893  -0.000   0.000   0.258   0.000   0.000
  0.000   0.000   0.000  -0.894   0.000   0.000   0.257   0.000
  0.000  -0.000   0.000  -0.000  -0.893   0.000  -0.000   0.258


------------------------ aborting loop because EDIFF is reached ----------------------------------------


    CHARGE:  cpu time    0.0210: real time    0.0134
    FORLOC:  cpu time    0.0000: real time    0.0005
    FORNL :  cpu time    0.0370: real time    0.0208
    STRESS:  cpu time    0.2580: real time    0.1532
    FORCOR:  cpu time    0.0410: real time    0.0246
    FORHAR:  cpu time    0.0040: real time    0.0036
    MIXING:  cpu time    0.0030: real time    0.0015
    OFIELD:  cpu time    0.0000: real time    0.0000

  FORCE on cell =-STRESS in cart. coord.  units (eV):
  Direction    XX          YY          ZZ          XY          YZ          ZX
  --------------------------------------------------------------------------------------
  Alpha Z     5.94975     5.94975     5.94975
  Ewald     -98.86579   -98.86579   -98.66295    -0.00000    -0.00000     0.00000
  Hartree     0.16590     0.16590     0.18072    -0.00000    -0.00000    -0.00000
  E(xc)     -27.19286   -27.19286   -27.22159    -0.00000     0.00000    -0.00000
  Local      -6.22182    -6.22183    -6.52032    -0.00001     0.00000     0.00000
  n-local    74.94000    80.16717    78.24130    -1.53204     0.23537    -0.87612
  augment   -12.00198   -12.00198   -11.99578     0.00001     0.00000     0.00000
  Kinetic    83.22544    48.57316    64.79953    11.55928     0.08867     0.20167
  Fock        0.00000     0.00000     0.00000     0.00000     0.00000     0.00000
  -------------------------------------------------------------------------------------
  Total       5.28609     5.28609     4.77066     0.00000     0.00000     0.00000
  in kB     374.22179   374.22179   337.73294     0.00000     0.00000     0.00000
  external pressure =      362.06 kB  Pullay stress =        0.00 kB


 VOLUME and BASIS-vectors are now :
 -----------------------------------------------------------------------------
  energy-cutoff  :      450.00
  volume of cell :       22.63
      direct lattice vectors                 reciprocal lattice vectors
     2.520000000  0.000000000  0.000000000     0.396825397  0.229107250  0.000000000
    -1.260000000  2.182384018  0.000000000     0.000000000  0.458214499  0.000000000
     0.000000000  0.000000000  4.115134800     0.000000000  0.000000000  0.243005405

  length of vectors
     2.520000000  2.520000000  4.115134800     0.458214499  0.458214499  0.243005405


 FORCES acting on ions
    electron-ion (+dipol)            ewald-force                    non-local-force                 convergence-correction
 -----------------------------------------------------------------------------------------------
   -.433E-08 0.250E-08 0.691E-14   -.101E-12 0.797E-13 -.473E-14   -.625E-16 0.347E-17 0.000E+00   0.549E-09 -.317E-09 0.318E-14
   0.433E-08 -.250E-08 -.356E-13   0.100E-12 -.796E-13 0.473E-14   0.590E-16 -.347E-17 0.000E+00   -.549E-09 0.317E-09 -.315E-14
 -----------------------------------------------------------------------------------------------
   -.663E-14 -.173E-14 -.287E-13   -.924E-15 0.132E-15 0.000E+00   -.347E-17 0.000E+00 0.000E+00   -.438E-16 0.169E-16 0.331E-16
 
 
 POSITION                                       TOTAL-FORCE (eV/Angst)
 -----------------------------------------------------------------------------------
      0.00000      0.00000      0.00000        -0.000000      0.000000      0.000000
     -0.00000      1.45492      2.05757         0.000000     -0.000000      0.000000
 -----------------------------------------------------------------------------------
    total drift:                               -0.000000     -0.000000     -0.000000


--------------------------------------------------------------------------------------------------------



  FREE ENERGIE OF THE ION-ELECTRON SYSTEM (eV)
  ---------------------------------------------------
  free  energy   TOTEN  =        -9.31088830 eV

  energy  without entropy=       -9.30743310  energy(sigma->0) =       -9.30916070
 


--------------------------------------------------------------------------------------------------------


    POTLOK:  cpu time    0.0460: real time    0.0272


--------------------------------------------------------------------------------------------------------




--------------------------------------------------------------------------------------------------------


    WAVPRE:  cpu time    0.0020: real time    0.0019
 FEWALD executed in parallel
    FEWALD:  cpu time    0.0000: real time    0.0001
    GENKIN:  cpu time    0.0050: real time    0.0067
    ORTHCH:  cpu time    0.1590: real time    0.1114
     LOOP+:  cpu time   16.3065: real time   10.2281


----------------------------------------- Iteration    2(   1)  ---------------------------------------


    POTLOK:  cpu time    0.0270: real time    0.0185
    SETDIJ:  cpu time    0.0060: real time    0.0029
     EDDAV:  cpu time    2.1767: real time    1.3653
       DOS:  cpu time    0.0020: real time    0.0008
    CHARGE:  cpu time    0.0180: real time    0.0107
    MIXING:  cpu time    0.0010: real time    0.0006
    --------------------------------------------
      LOOP:  cpu time    2.2337: real time    1.4003

 eigenvalue-minimisations  :   904
 total energy-change (2. order) :-0.2107820E-02  (-0.8379513E-02)
 number of electron       7.9999999 magnetization 
 augmentation part       -0.4742088 magnetization 

 Broyden mixing:
  rms(total) = 0.18211E-01    rms(broyden)= 0.18211E-01
  rms(prec ) = 0.42536E-01
  weight for this iteration     100.00

 Free energy of the ion-electron system (eV)
  ---------------------------------------------------
  alpha Z        PSCENC =         5.94974999
  Ewald energy   TEWEN  =      -296.38627630
  -Hartree energ DENC   =        -0.51259836
  -exchange      EXHF   =         0.00000000
  -V(xc)+E(xc)   XCENC  =       -15.94944179
  PAW double counting   =      1096.46472269    -1061.42714755
  entropy T*S    EENTRO =        -0.00565257
  eigenvalues    EBANDS =        56.42171873
  atomic energy  EATOM  =       206.13192747
  Solvation  Ediel_sol  =         0.00000000
  ---------------------------------------------------
  free energy    TOTEN  =        -9.31299768 eV

  energy without entropy =       -9.30734511  energy(sigma->0) =       -9.31017140


--------------------------------------------------------------------------------------------------------




----------------------------------------- Iteration    2(   2)  ---------------------------------------


    POTLOK:  cpu time    0.0350: real time    0.0200
    SETDIJ:  cpu time    0.0140: real time    0.0083
     EDDAV:  cpu time    1.4038: real time    0.9024
       DOS:  cpu time    0.0030: real time    0.0012
    CHARGE:  cpu time    0.0270: real time    0.0173
    MIXING:  cpu time    0.0030: real time    0.0012
    --------------------------------------------
      LOOP:  cpu time    1.4958: real time    0.9589

 eigenvalue-minimisations  :   656
 total energy-change (2. order) : 0.6905553E-03  (-0.1304684E-03)
 number of electron       7.9999999 magnetization 
 augmentation part       -0.4742566 magnetization 

 Broyden mixing:
  rms(total) = 0.98559E-02    rms(broyden)= 0.98559E-02
  rms(prec ) = 0.23502E-01
  weight for this iteration     100.00

 eigenvalues of (default mixing * dielectric matrix)
  average eigenvalue GAMMA=   2.0214
  2.0214

 Free energy of the ion-electron system (eV)
  ---------------------------------------------------
  alpha Z        PSCENC =         5.94974999
  Ewald energy   TEWEN  =      -296.38627630
  -Hartree energ DENC   =        -0.51312860
  -exchange      EXHF   =         0.00000000
  -V(xc)+E(xc)   XCENC  =       -15.94948187
  PAW double counting   =      1096.34682223    -1061.30924991
  entropy T*S    EENTRO =        -0.00564015
  eigenvalues    EBANDS =        56.42297000
  atomic energy  EATOM  =       206.13192747
  Solvation  Ediel_sol  =         0.00000000
  ---------------------------------------------------
  free energy    TOTEN  =        -9.31230712 eV

  energy without entropy =       -9.30666697  energy(sigma->0) =       -9.30948705


--------------------------------------------------------------------------------------------------------




----------------------------------------- Iteration    2(   3)  ---------------------------------------


    POTLOK:  cpu time    0.0270: real time    0.0168
    SETDIJ:  cpu time    0.0100: real time    0.0070
     EDDAV:  cpu time    2.0817: real time    1.2622
       DOS:  cpu time    0.0020: real time    0.0007
    CHARGE:  cpu time    0.0200: real time    0.0109
    MIXING:  cpu time    0.0110: real time    0.0076
    --------------------------------------------
      LOOP:  cpu time    2.1567: real time    1.3078

 eigenvalue-minimisations  :   872
 total energy-change (2. order) : 0.3287398E-03  (-0.7834706E-04)
 number of electron       7.9999999 magnetization 
 augmentation part       -0.4742324 magnetization 

 Broyden mixing:
  rms(total) = 0.73632E-03    rms(broyden)= 0.73631E-03
  rms(prec ) = 0.11626E-02
  weight for this iteration     100.00

 eigenvalues of (default mixing * dielectric matrix)
  average eigenvalue GAMMA=   1.6231
  1.0544  2.1919

 Free energy of the ion-electron system (eV)
  ---------------------------------------------------
  alpha Z        PSCENC =         5.94974999
  Ewald energy   TEWEN  =      -296.38627630
  -Hartree energ DENC   =        -0.51438867
  -exchange      EXHF   =         0.00000000
  -V(xc)+E(xc)   XCENC  =       -15.94955567
  PAW double counting   =      1095.53350998    -1060.49614444
  entropy T*S    EENTRO =        -0.00562592
  eigenvalues    EBANDS =        56.42482517
  atomic energy  EATOM  =       206.13192747
  Solvation  Ediel_sol  =         0.00000000
  ---------------------------------------------------
  free energy    TOTEN  =        -9.31197838 eV

  energy without entropy =       -9.30635246  energy(sigma->0) =       -9.30916542


--------------------------------------------------------------------------------------------------------




----------------------------------------- Iteration    2(   4)  ---------------------------------------


    POTLOK:  cpu time    0.0300: real time    0.0176
    SETDIJ:  cpu time    0.0170: real time    0.0093
     EDDAV:  cpu time    1.2118: real time    0.7300
       DOS:  cpu time    0.0020: real time    0.0009
    --------------------------------------------
      LOOP:  cpu time    1.2638: real time    0.7603

 eigenvalue-minimisations  :   584
 total energy-change (2. order) :-0.2367827E-05  (-0.2246703E-05)
 number of electron       7.9999999 magnetization 
 augmentation part       -0.4742324 magnetization 

 Free energy of the ion-electron system (eV)
  ---------------------------------------------------
  alpha Z        PSCENC =         5.94974999
  Ewald energy   TEWEN  =      -296.38627630
  -Hartree energ DENC   =        -0.51419141
  -exchange      EXHF   =         0.00000000
  -V(xc)+E(xc)   XCENC  =       -15.94958961
  PAW double counting   =      1095.54237196    -1060.50501430
  entropy T*S    EENTRO =        -0.00562603
  eigenvalues    EBANDS =        56.42466748
  atomic energy  EATOM  =       206.13192747
  Solvation  Ediel_sol  =         0.00000000
  ---------------------------------------------------
  free energy    TOTEN  =        -9.31198075 eV

  energy without entropy =       -9.30635472  energy(sigma->0) =       -9.30916774


--------------------------------------------------------------------------------------------------------




 average (electrostatic) potential at core
  the test charge radii are     0.9892
  (the norm of the test charge is              1.0000)
       1 -76.2758       2 -76.2758
 
 
 
 E-fermi :  13.7709     XC(G=0): -12.2167     alpha+bet :-21.1956


 k-point     1 :       0.0833    0.0833    0.0833
  band No.  band energies     occupation 
      1      -2.4919      2.00000
      2       4.6063      2.00000
      3       7.4023      2.00000
      4      18.8873      0.00000
      5      19.0107      0.00000
      6      24.9484      0.00000
      7      25.1904      0.00000
      8      25.3499      0.00000

 k-point     2 :       0.2500    0.0833    0.0833
  band No.  band energies     occupation 
      1      -0.4115      2.00000
      2       6.5803      2.00000
      3       9.2737      2.00000
      4      11.8828      2.00000
      5      16.2700      0.00000
      6      18.4947      0.00000
      7      20.8685      0.00000
      8      23.1391      0.00000

 k-point     3 :       0.4167    0.0833    0.0833
  band No.  band energies     occupation 
      1       3.2598      2.00000
      2       5.6764      2.00000
      3      10.1707      2.00000
      4      12.2292      2.00000
      5      13.2415      2.00000
      6      14.8970      0.00000
      7      16.0089      0.00000
      8      21.9509      0.00000

 k-point     4 :      -0.4167    0.0833    0.0833
  band No.  band energies     occupation 
      1       1.2338      2.00000
      2       7.8575      2.00000
      3       8.7723      2.00000
      4      11.0609      2.00000
      5      15.0121      0.00000
      6      15.9642      0.00000
      7      18.1040      0.00000
      8      22.3374      0.00000

 k-point     5 :      -0.2500    0.0833    0.0833
  band No.  band energies     occupation 
      1      -1.6567      2.00000
      2       5.4030      2.00000
      3       8.1792      2.00000
      4      15.2555      0.00000
      5      17.4542      0.00000
      6      21.7213      0.00000
      7      23.4860      0.00000
      8      24.6659      0.00000

 k-point     6 :      -0.0833    0.0833    0.0833
  band No.  band energies     occupation 
      1      -2.9111      2.00000
      2       4.2056      2.00000
      3       7.0086      2.00000
      4      20.7340      0.00000
      5      22.0832      0.00000
      6      23.9494      0.00000
      7      26.3730      0.00000
      8      26.5054      0.00000

 k-point     7 :       0.2500    0.2500    0.0833
  band No.  band energies     occupation 
      1       2.4573      2.00000
      2       8.7982      2.00000
      3       9.8251      2.00000
      4      10.0002      2.00000
      5      12.3389      2.00000
      6      16.1676      0.00000
      7      16.9496      0.00000
      8      19.4292      0.00000

 k-point     8 :       0.4167    0.2500    0.0833
  band No.  band energies     occupation 
      1       4.4670      2.00000
      2       6.8528      2.00000
      3       9.1852      2.00000
      4      11.4443      2.00000
      5      13.3372      2.00000
      6      14.4994      0.00000
      7      16.0557      0.00000
      8      17.3945      0.00000

 k-point     9 :      -0.4167    0.2500    0.0833
  band No.  band energies     occupation 
      1       0.8244      2.00000
      2       7.7170      2.00000
      3      10.0001      2.00000
      4      11.0961      2.00000
      5      12.9915      2.00000
      6      17.3134      0.00000
      7      19.1951      0.00000
      8      20.6496      0.00000

 k-point    10 :      -0.2500    0.2500    0.0833
  band No.  band energies     occupation 
      1      -1.2406      2.00000
      2       5.7981      2.00000
      3       8.5562      2.00000
      4      13.3691      2.00000
      5      19.2343      0.00000
      6      19.7266      0.00000
      7      21.3805      0.00000
      8      22.7163      0.00000

 k-point    11 :       0.4167    0.4167    0.0833
  band No.  band energies     occupation 
      1       4.7076      2.00000
      2       5.0470      2.00000
      3      11.1890      2.00000
      4      11.9355      2.00000
      5      12.1723      2.00000
      6      14.5757      0.00000
      7      15.1498      0.00000
      8      19.1897      0.00000

 k-point    12 :      -0.4167    0.4167    0.0833
  band No.  band energies     occupation 
      1       2.0488      2.00000
      2       6.8096      2.00000
      3       9.0750      2.00000
      4      11.7179      2.00000
      5      13.9022      0.06323
      6      16.4020      0.00000
      7      17.8070      0.00000
      8      20.3034      0.00000

 k-point    13 :       0.0833    0.0833    0.2500
  band No.  band energies     occupation 
      1      -2.0092      2.00000
      2       2.2759      2.00000
      3      10.5681      2.00000
      4      19.2985      0.00000
      5      19.3261      0.00000
      6      22.2857      0.00000
      7      23.1742      0.00000
      8      23.4905      0.00000

 k-point    14 :       0.2500    0.0833    0.2500
  band No.  band energies     occupation 
      1       0.0654      2.00000
      2       4.2933      2.00000
      3      11.7841      2.00000
      4      12.8637      2.00000
      5      16.0054      0.00000
      6      17.1014      0.00000
      7      20.6982      0.00000
      8      23.3777      0.00000

 k-point    15 :       0.4167    0.0833    0.2500
  band No.  band energies     occupation 
      1       3.7229      2.00000
      2       6.0775      2.00000
      3       8.0299      2.00000
      4      10.3166      2.00000
      5      15.2856      0.00000
      6      16.4352      0.00000
      7      18.2846      0.00000
      8      20.0742      0.00000

 k-point    16 :      -0.4167    0.0833    0.2500
  band No.  band energies     occupation 
      1       1.7057      2.00000
      2       5.8588      2.00000
      3       9.0265      2.00000
      4      12.8386      2.00000
      5      14.2623      0.00000
      6      16.2366      0.00000
      7      19.7829      0.00000
      8      21.3613      0.00000

 k-point    17 :      -0.2500    0.0833    0.2500
  band No.  band energies     occupation 
      1      -1.1762      2.00000
      2       3.0873      2.00000
      3      11.3016      2.00000
      4      15.6864      0.00000
      5      17.8161      0.00000
      6      19.6845      0.00000
      7      21.8161      0.00000
      8      23.0716      0.00000

 k-point    18 :      -0.0833    0.0833    0.2500
  band No.  band energies     occupation 
      1      -2.4272      2.00000
      2       1.8683      2.00000
      3      10.1892      2.00000
      4      20.9473      0.00000
      5      21.9904      0.00000
      6      22.4891      0.00000
      7      24.5528      0.00000
      8      25.4180      0.00000

 k-point    19 :       0.2500    0.2500    0.2500
  band No.  band energies     occupation 
      1       2.9249      2.00000
      2       7.0041      2.00000
      3      10.1223      2.00000
      4      10.2577      2.00000
      5      13.8841      0.10916
      6      14.1877      0.00000
      7      16.2057      0.00000
      8      22.0668      0.00000

 k-point    20 :       0.4167    0.2500    0.2500
  band No.  band energies     occupation 
      1       4.9236      2.00000
      2       7.2340      2.00000
      3       8.9917      2.00000
      4       9.9672      2.00000
      5      11.6189      2.00000
      6      13.7947      0.73616
      7      17.6750      0.00000
      8      19.8593      0.00000

 k-point    21 :      -0.4167    0.2500    0.2500
  band No.  band energies     occupation 
      1       1.2977      2.00000
      2       5.4818      2.00000
      3      10.9083      2.00000
      4      13.0259      2.00000
      5      13.7232      1.49938
      6      15.4832      0.00000
      7      17.5798      0.00000
      8      22.9465      0.00000

 k-point    22 :      -0.2500    0.2500    0.2500
  band No.  band energies     occupation 
      1      -0.7613      2.00000
      2       3.4908      2.00000
      3      11.6167      2.00000
      4      13.8588      0.21371
      5      17.7169      0.00000
      6      19.6461      0.00000
      7      21.5646      0.00000
      8      23.3579      0.00000

 k-point    23 :       0.4167    0.4167    0.2500
  band No.  band energies     occupation 
      1       5.1605      2.00000
      2       5.4899      2.00000
      3       9.3222      2.00000
      4       9.7226      2.00000
      5      12.6017      2.00000
      6      16.1094      0.00000
      7      17.8269      0.00000
      8      18.5506      0.00000

 k-point    24 :      -0.4167    0.4167    0.2500
  band No.  band energies     occupation 
      1       2.5177      2.00000
      2       6.4885      2.00000
      3       7.6263      2.00000
      4      11.4490      2.00000
      5      14.9893      0.00000
      6      18.2192      0.00000
      7      19.1249      0.00000
      8      20.8279      0.00000

 k-point    25 :       0.0833    0.0833    0.4167
  band No.  band energies     occupation 
      1      -1.0478      2.00000
      2       0.3844      2.00000
      3      14.1080      0.00000
      4      17.8643      0.00000
      5      20.0827      0.00000
      6      20.4722      0.00000
      7      21.6180      0.00000
      8      21.8986      0.00000

 k-point    26 :       0.2500    0.0833    0.4167
  band No.  band energies     occupation 
      1       1.0151      2.00000
      2       2.4291      2.00000
      3      12.9632      2.00000
      4      14.2056      0.00000
      5      16.1365      0.00000
      6      17.6779      0.00000
      7      19.1134      0.00000
      8      20.4145      0.00000

 k-point    27 :       0.4167    0.0833    0.4167
  band No.  band energies     occupation 
      1       4.6364      2.00000
      2       5.9065      2.00000
      3       7.2968      2.00000
      4       8.5465      2.00000
      5      16.4222      0.00000
      6      17.5970      0.00000
      7      19.8671      0.00000
      8      21.8041      0.00000

 k-point    28 :      -0.4167    0.0833    0.4167
  band No.  band energies     occupation 
      1       2.6446      2.00000
      2       4.0387      2.00000
      3       9.9138      2.00000
      4      11.2420      2.00000
      5      16.6250      0.00000
      6      17.4897      0.00000
      7      18.7640      0.00000
      8      21.5546      0.00000

 k-point    29 :      -0.2500    0.0833    0.4167
  band No.  band energies     occupation 
      1      -0.2194      2.00000
      2       1.2058      2.00000
      3      14.7030      0.00000
      4      16.4730      0.00000
      5      17.7630      0.00000
      6      18.3008      0.00000
      7      19.7382      0.00000
      8      20.4060      0.00000

 k-point    30 :      -0.0833    0.0833    0.4167
  band No.  band energies     occupation 
      1      -1.4636      2.00000
      2      -0.0279      2.00000
      3      13.7581      1.14287
      4      17.6434      0.00000
      5      22.0645      0.00000
      6      23.2410      0.00000
      7      23.3003      0.00000
      8      24.5142      0.00000

 k-point    31 :       0.2500    0.2500    0.4167
  band No.  band energies     occupation 
      1       3.8542      2.00000
      2       5.2295      2.00000
      3      10.9211      2.00000
      4      11.0505      2.00000
      5      12.5378      2.00000
      6      12.6253      2.00000
      7      19.1859      0.00000
      8      22.6890      0.00000

 k-point    32 :       0.4167    0.2500    0.4167
  band No.  band energies     occupation 
      1       5.8202      2.00000
      2       7.0425      2.00000
      3       8.4806      2.00000
      4       9.6051      2.00000
      5      10.9363      2.00000
      6      12.1394      2.00000
      7      20.9439      0.00000
      8      22.8952      0.00000

 k-point    33 :      -0.4167    0.2500    0.4167
  band No.  band energies     occupation 
      1       2.2397      2.00000
      2       3.6406      2.00000
      3      11.8222      2.00000
      4      13.0435      2.00000
      5      14.2690      0.00000
      6      15.4006      0.00000
      7      17.9171      0.00000
      8      21.4057      0.00000

 k-point    34 :      -0.2500    0.2500    0.4167
  band No.  band energies     occupation 
      1       0.1932      2.00000
      2       1.6147      2.00000
      3      14.3012      0.00000
      4      15.1681      0.00000
      5      16.3359      0.00000
      6      19.1948      0.00000
      7      20.4706      0.00000
      8      21.7086      0.00000

 k-point    35 :       0.4167    0.4167    0.4167
  band No.  band energies     occupation 
      1       6.0169      2.00000
      2       6.2896      2.00000
      3       7.6899      2.00000
      4       7.9730      2.00000
      5      13.4812      1.99996
      6      14.7623      0.00000
      7      21.0693      0.00000
      8      21.5104      0.00000

 k-point    36 :      -0.4167    0.4167    0.4167
  band No.  band energies     occupation 
      1       3.4491      2.00000
      2       4.8229      2.00000
      3       8.3685      2.00000
      4       9.7027      2.00000
      5      18.2459      0.00000
      6      19.0449      0.00000
      7      20.2858      0.00000
      8      20.5888      0.00000


--------------------------------------------------------------------------------------------------------


 soft charge-density along one line, spin component           1
         0         1         2         3         4         5         6         7         8         9
 total charge-density along one line
 
 pseudopotential strength for first ion, spin component:           1
 17.569  24.507  -0.000   0.000   0.000  -0.000   0.000   0.000
 24.507  34.189  -0.000   0.000   0.000  -0.000   0.000   0.000
 -0.000  -0.000   4.045  -0.000   0.000   7.532  -0.000   0.000
  0.000   0.000  -0.000   4.045   0.000  -0.000   7.532   0.000
  0.000   0.000   0.000   0.000   4.045   0.000   0.000   7.532
 -0.000  -0.000   7.532  -0.000   0.000  14.035  -0.000   0.000
  0.000   0.000  -0.000   7.532   0.000  -0.000  14.036   0.000
  0.000   0.000   0.000   0.000   7.532   0.000   0.000  14.035
 total augmentation occupancy for first ion, spin component:           1
  7.265  -3.412   0.000   0.000  -0.000   0.000   0.000   0.000
 -3.412   1.985   0.000   0.000   0.000   0.000   0.000  -0.000
 -0.000   0.000   3.334   0.000   0.000  -0.888   0.000  -0.000
  0.000   0.000   0.000   3.388  -0.000   0.000  -0.903  -0.000
 -0.000   0.000   0.000  -0.000   3.334  -0.000   0.000  -0.888
  0.000   0.000  -0.888  -0.000  -0.000   0.256   0.000   0.000
  0.000   0.000   0.000  -0.903   0.000   0.000   0.260   0.000
  0.000  -0.000   0.000   0.000  -0.888  -0.000  -0.000   0.256


------------------------ aborting loop because EDIFF is reached ----------------------------------------


    CHARGE:  cpu time    0.0250: real time    0.0149
    FORLOC:  cpu time    0.0010: real time    0.0005
    FORNL :  cpu time    0.0360: real time    0.0214
    STRESS:  cpu time    0.2770: real time    0.1698
    FORCOR:  cpu time    0.0270: real time    0.0210
    FORHAR:  cpu time    0.0040: real time    0.0032
    MIXING:  cpu time    0.0000: real time    0.0005
    OFIELD:  cpu time    0.0000: real time    0.0000

  FORCE on cell =-STRESS in cart. coord.  units (eV):
  Direction    XX          YY          ZZ          XY          YZ          ZX
  --------------------------------------------------------------------------------------
  Alpha Z     5.94975     5.94975     5.94975
  Ewald     -99.36962   -99.36962   -97.64725    -0.00000    -0.00000    -0.00000
  Hartree     0.15771     0.15771     0.19851    -0.00000    -0.00000    -0.00000
  E(xc)     -27.18601   -27.18601   -27.23735    -0.00000    -0.00000    -0.00000
  Local      -5.73035    -5.73036    -7.52215    -0.00001     0.00000    -0.00000
  n-local    74.89746    80.00943    78.52456    -1.49525     0.22673    -0.85351
  augment   -11.99818   -11.99818   -12.02447     0.00001     0.00000     0.00000
  Kinetic    82.89620    48.80074    64.88769    11.28685     0.19720     0.22312
  Fock        0.00000     0.00000     0.00000     0.00000     0.00000     0.00000
  -------------------------------------------------------------------------------------
  Total       5.12522     5.12522     5.12931     0.00000     0.00000    -0.00000
  in kB     362.83337   362.83337   363.12287     0.00000     0.00000    -0.00000
  external pressure =      362.93 kB  Pullay stress =        0.00 kB


 VOLUME and BASIS-vectors are now :
 -----------------------------------------------------------------------------
  energy-cutoff  :      450.00
  volume of cell :       22.63
      direct lattice vectors                 reciprocal lattice vectors
     2.530487076  0.000000000  0.000000000     0.395180837  0.228157762  0.000000000
    -1.265243538  2.191466092  0.000000000     0.000000000  0.456315525  0.000000000
     0.000000000  0.000000000  4.081096843     0.000000000  0.000000000  0.245032166

  length of vectors
     2.530487076  2.530487076  4.081096843     0.456315525  0.456315525  0.245032166


 FORCES acting on ions
    electron-ion (+dipol)            ewald-force                    non-local-force                 convergence-correction
 -----------------------------------------------------------------------------------------------
   -.394E-08 0.227E-08 0.640E-14   -.110E-12 0.894E-13 -.430E-14   0.152E-15 -.520E-16 0.000E+00   0.194E-09 -.112E-09 0.137E-15
   0.394E-08 -.227E-08 -.344E-13   0.109E-12 -.887E-13 0.430E-14   -.177E-15 0.572E-16 0.000E+00   -.194E-09 0.112E-09 -.124E-15
 -----------------------------------------------------------------------------------------------
   -.436E-14 -.320E-14 -.280E-13   -.122E-14 0.651E-15 0.000E+00   -.252E-16 0.520E-17 0.000E+00   0.719E-16 0.694E-16 0.126E-16
 
 
 POSITION                                       TOTAL-FORCE (eV/Angst)
 -----------------------------------------------------------------------------------
     -0.00000      0.00000      0.00000        -0.000000      0.000000      0.000000
     -0.00000      1.46098      2.04055         0.000000      0.000000      0.000000
 -----------------------------------------------------------------------------------
    total drift:                               -0.000000     -0.000000     -0.000000


--------------------------------------------------------------------------------------------------------



  FREE ENERGIE OF THE ION-ELECTRON SYSTEM (eV)
  ---------------------------------------------------
  free  energy   TOTEN  =        -9.31198075 eV

  energy  without entropy=       -9.30635472  energy(sigma->0) =       -9.30916774
 
 d Force = 0.0000000E+00[ 0.000E+00, 0.000E+00]  d Energy = 0.1092451E-02-0.109E-02
 d Force = 0.0000000E+00[ 0.000E+00, 0.000E+00]  d Ewald  =-0.8042821E-02 0.804E-02


--------------------------------------------------------------------------------------------------------


    POTLOK:  cpu time    0.0140: real time    0.0135


--------------------------------------------------------------------------------------------------------


 Steepest descent step on ions:
 trial-energy change:   -0.001092  1 .order   -0.002119   -0.004272    0.000034
  (g-gl).g = 0.427E-02      g.g   = 0.427E-02  gl.gl    = 0.000E+00
 g(Force)  = 0.271E-50   g(Stress)= 0.427E-02 ortho     = 0.000E+00
 gamma     =   0.00000
 trial     =   1.00000
 opt step  =   0.68175  (harmonic =   0.99213) maximal distance =0.00000000
 next E    =    -9.312019   (d E  =  -0.00113)


--------------------------------------------------------------------------------------------------------


  
 reached required accuracy - stopping structural energy minimisation
 writing wavefunctions
     LOOP+:  cpu time    7.5609: real time    4.7198
    4ORBIT:  cpu time    0.0000: real time    0.0000

 total amount of memory used by VASP on root node    33738. kBytes
========================================================================

   base      :      30000. kBytes
   nonl-proj :       1196. kBytes
   fftplans  :        669. kBytes
   grid      :       1259. kBytes
   one-center:          6. kBytes
   wavefun   :        608. kBytes
 
  
  
 General timing and accounting informations for this job:
 ========================================================
  
                  Total CPU time used (sec):       24.636
                            User time (sec):       22.368
                          System time (sec):        2.269
                         Elapsed time (sec):       16.615
  
                   Maximum memory used (kb):       36212.
                   Average memory used (kb):           0.
  
                          Minor page faults:        23155
                          Major page faults:            8
                 Voluntary context switches:          486
