 running on    4 total cores
 distrk:  each k-point on    4 cores,    1 groups
 distr:  one band on    1 cores,    4 groups
 using from now: INCAR     
 vasp.5.4.1 24Jun15 (build Jul 19 2016 16:50:41) complex                        
  
 POSCAR found :  1 types and       2 ions
 LDA part: xc-table for Pade appr. of Perdew
 POSCAR, INCAR and KPOINTS ok, starting setup
 WARNING: small aliasing (wrap around) errors must be expected
 FFT: planning ...
 WAVECAR not read
 entering main loop
       N       E                     dE             d eps       ncg     rms          rms(c)
DAV:   1     0.496347819314E+01    0.49635E+01   -0.35475E+03   592   0.738E+02
DAV:   2    -0.919485577250E+01   -0.14158E+02   -0.13572E+02   816   0.775E+01
DAV:   3    -0.937295047145E+01   -0.17809E+00   -0.17429E+00   720   0.102E+01
DAV:   4    -0.937339785559E+01   -0.44738E-03   -0.44735E-03   928   0.479E-01
DAV:   5    -0.937339804861E+01   -0.19302E-06   -0.19198E-06   752   0.567E-03    0.604E+00
DAV:   6    -0.933446678098E+01    0.38931E-01   -0.66610E-03   704   0.553E-01    0.338E+00
DAV:   7    -0.931111668454E+01    0.23350E-01   -0.13744E-02   736   0.802E-01    0.194E-01
DAV:   8    -0.931088985915E+01    0.22683E-03   -0.12207E-04   920   0.102E-01    0.212E-02
DAV:   9    -0.931088830115E+01    0.15580E-05   -0.27504E-06   488   0.130E-02
   1 F= -.93108883E+01 E0= -.93091607E+01  d E =-.931089E+01
 curvature:   0.00 expect dE= 0.000E+00 dE for cont linesearch  0.000E+00
 trial: gam= 0.00000 g(F)=  0.271E-50 g(S)=  0.427E-02 ort = 0.000E+00 (trialstep = 0.100E+01)
 search vector abs. value=  0.427E-02
 bond charge predicted
       N       E                     dE             d eps       ncg     rms          rms(c)
DAV:   1    -0.931299767928E+01   -0.21078E-02   -0.83795E-02   904   0.182E+00    0.182E-01
DAV:   2    -0.931230712403E+01    0.69056E-03   -0.13047E-03   656   0.315E-01    0.986E-02
DAV:   3    -0.931197838424E+01    0.32874E-03   -0.78347E-04   872   0.167E-01    0.736E-03
DAV:   4    -0.931198075206E+01   -0.23678E-05   -0.22467E-05   584   0.431E-02
   2 F= -.93119808E+01 E0= -.93091677E+01  d E =-.109245E-02
 trial-energy change:   -0.001092  1 .order   -0.002119   -0.004272    0.000034
 step:   0.6817(harm=  0.9921)  dis= 0.00000  next Energy=    -9.312019 (dE=-0.113E-02)
 reached required accuracy - stopping structural energy minimisation
 writing wavefunctions
