<?xml version="1.0" encoding="ISO-8859-1"?>
<modeling>
 <generator>
  <i name="program" type="string">vasp </i>
  <i name="version" type="string">5.4.1  </i>
  <i name="subversion" type="string">24Jun15 (build Jul 19 2016 16:50:41) complex                          parallel </i>
  <i name="platform" type="string">IFC91_ompi </i>
  <i name="date" type="string">2019 10 10 </i>
  <i name="time" type="string">11:12:02 </i>
 </generator>
 <incar>
  <i type="string" name="SYSTEM"> Si beta-tin</i>
  <i type="string" name="PREC">accurate</i>
  <i type="int" name="IBRION">     2</i>
  <i name="EDIFF">      0.00001000</i>
  <i name="EDIFFG">     -0.01000000</i>
  <i type="int" name="NSW">   100</i>
  <i type="int" name="ISIF">     4</i>
  <i name="ENMAX">    450.00000000</i>
  <i type="int" name="ISMEAR">     0</i>
  <i name="SIGMA">      0.10000000</i>
  <v type="int" name="KPOINT_BSE">    -1     0     0     0</v>
 </incar>
 <kpoints>
  <generation param="Monkhorst-Pack">
   <v type="int" name="divisions">       6        6        6 </v>
   <v name="usershift">      0.00000000       0.00000000       0.00000000 </v>
   <v name="genvec1">      0.16666667      -0.00000000       0.00000000 </v>
   <v name="genvec2">      0.00000000       0.16666667       0.00000000 </v>
   <v name="genvec3">      0.00000000       0.00000000       0.16666667 </v>
   <v name="shift">      0.50000000       0.50000000       0.50000000 </v>
  </generation>
  <varray name="kpointlist" >
   <v>       0.08333333       0.08333333       0.08333333 </v>
   <v>       0.25000000       0.08333333       0.08333333 </v>
   <v>       0.41666667       0.08333333       0.08333333 </v>
   <v>      -0.41666667       0.08333333       0.08333333 </v>
   <v>      -0.25000000       0.08333333       0.08333333 </v>
   <v>      -0.08333333       0.08333333       0.08333333 </v>
   <v>       0.25000000       0.25000000       0.08333333 </v>
   <v>       0.41666667       0.25000000       0.08333333 </v>
   <v>      -0.41666667       0.25000000       0.08333333 </v>
   <v>      -0.25000000       0.25000000       0.08333333 </v>
   <v>       0.41666667       0.41666667       0.08333333 </v>
   <v>      -0.41666667       0.41666667       0.08333333 </v>
   <v>       0.08333333       0.08333333       0.25000000 </v>
   <v>       0.25000000       0.08333333       0.25000000 </v>
   <v>       0.41666667       0.08333333       0.25000000 </v>
   <v>      -0.41666667       0.08333333       0.25000000 </v>
   <v>      -0.25000000       0.08333333       0.25000000 </v>
   <v>      -0.08333333       0.08333333       0.25000000 </v>
   <v>       0.25000000       0.25000000       0.25000000 </v>
   <v>       0.41666667       0.25000000       0.25000000 </v>
   <v>      -0.41666667       0.25000000       0.25000000 </v>
   <v>      -0.25000000       0.25000000       0.25000000 </v>
   <v>       0.41666667       0.41666667       0.25000000 </v>
   <v>      -0.41666667       0.41666667       0.25000000 </v>
   <v>       0.08333333       0.08333333       0.41666667 </v>
   <v>       0.25000000       0.08333333       0.41666667 </v>
   <v>       0.41666667       0.08333333       0.41666667 </v>
   <v>      -0.41666667       0.08333333       0.41666667 </v>
   <v>      -0.25000000       0.08333333       0.41666667 </v>
   <v>      -0.08333333       0.08333333       0.41666667 </v>
   <v>       0.25000000       0.25000000       0.41666667 </v>
   <v>       0.41666667       0.25000000       0.41666667 </v>
   <v>      -0.41666667       0.25000000       0.41666667 </v>
   <v>      -0.25000000       0.25000000       0.41666667 </v>
   <v>       0.41666667       0.41666667       0.41666667 </v>
   <v>      -0.41666667       0.41666667       0.41666667 </v>
  </varray>
  <varray name="weights" >
   <v>       0.01851852 </v>
   <v>       0.03703704 </v>
   <v>       0.03703704 </v>
   <v>       0.03703704 </v>
   <v>       0.03703704 </v>
   <v>       0.01851852 </v>
   <v>       0.01851852 </v>
   <v>       0.03703704 </v>
   <v>       0.03703704 </v>
   <v>       0.01851852 </v>
   <v>       0.01851852 </v>
   <v>       0.01851852 </v>
   <v>       0.01851852 </v>
   <v>       0.03703704 </v>
   <v>       0.03703704 </v>
   <v>       0.03703704 </v>
   <v>       0.03703704 </v>
   <v>       0.01851852 </v>
   <v>       0.01851852 </v>
   <v>       0.03703704 </v>
   <v>       0.03703704 </v>
   <v>       0.01851852 </v>
   <v>       0.01851852 </v>
   <v>       0.01851852 </v>
   <v>       0.01851852 </v>
   <v>       0.03703704 </v>
   <v>       0.03703704 </v>
   <v>       0.03703704 </v>
   <v>       0.03703704 </v>
   <v>       0.01851852 </v>
   <v>       0.01851852 </v>
   <v>       0.03703704 </v>
   <v>       0.03703704 </v>
   <v>       0.01851852 </v>
   <v>       0.01851852 </v>
   <v>       0.01851852 </v>
  </varray>
 </kpoints>
 <parameters>
  <separator name="general" >
   <i type="string" name="SYSTEM">Si beta-tin</i>
   <i type="logical" name="LCOMPAT"> F  </i>
  </separator>
  <separator name="electronic" >
   <i type="string" name="PREC">accura</i>
   <i name="ENMAX">    450.00000000</i>
   <i name="ENAUG">    322.06900000</i>
   <i name="EDIFF">      0.00001000</i>
   <i type="int" name="IALGO">    38</i>
   <i type="int" name="IWAVPR">    11</i>
   <i type="int" name="NBANDS">     8</i>
   <i name="NELECT">      8.00000000</i>
   <i type="int" name="TURBO">     0</i>
   <i type="int" name="IRESTART">     0</i>
   <i type="int" name="NREBOOT">     0</i>
   <i type="int" name="NMIN">     0</i>
   <i name="EREF">      0.00000000</i>
   <separator name="electronic smearing" >
    <i type="int" name="ISMEAR">     0</i>
    <i name="SIGMA">      0.10000000</i>
    <i name="KSPACING">      0.50000000</i>
    <i type="logical" name="KGAMMA"> T  </i>
   </separator>
   <separator name="electronic projectors" >
    <i type="logical" name="LREAL"> F  </i>
    <v name="ROPT">      0.00000000</v>
    <i type="int" name="LMAXPAW">  -100</i>
    <i type="int" name="LMAXMIX">     2</i>
    <i type="logical" name="NLSPLINE"> F  </i>
   </separator>
   <separator name="electronic startup" >
    <i type="int" name="ISTART">     0</i>
    <i type="int" name="ICHARG">     2</i>
    <i type="int" name="INIWAV">     1</i>
   </separator>
   <separator name="electronic spin" >
    <i type="int" name="ISPIN">     1</i>
    <i type="logical" name="LNONCOLLINEAR"> F  </i>
    <v name="MAGMOM">      1.00000000      1.00000000</v>
    <i name="NUPDOWN">     -1.00000000</i>
    <i type="logical" name="LSORBIT"> F  </i>
    <v name="SAXIS">      0.00000000      0.00000000      1.00000000</v>
    <i type="logical" name="LSPIRAL"> F  </i>
    <v name="QSPIRAL">      0.00000000      0.00000000      0.00000000</v>
    <i type="logical" name="LZEROZ"> F  </i>
   </separator>
   <separator name="electronic exchange-correlation" >
    <i type="logical" name="LASPH"> F  </i>
    <i type="logical" name="LMETAGGA"> F  </i>
   </separator>
   <separator name="electronic convergence" >
    <i type="int" name="NELM">    60</i>
    <i type="int" name="NELMDL">    -5</i>
    <i type="int" name="NELMIN">     2</i>
    <i name="ENINI">    450.00000000</i>
    <separator name="electronic convergence detail" >
     <i type="logical" name="LDIAG"> T  </i>
     <i type="logical" name="LSUBROT"> F  </i>
     <i name="WEIMIN">      0.00100000</i>
     <i name="EBREAK">      0.00000031</i>
     <i name="DEPER">      0.30000000</i>
     <i type="int" name="NRMM">     4</i>
     <i name="TIME">      0.40000000</i>
    </separator>
   </separator>
   <separator name="electronic mixer" >
    <i name="AMIX">      0.40000000</i>
    <i name="BMIX">      1.00000000</i>
    <i name="AMIN">      0.10000000</i>
    <i name="AMIX_MAG">      1.60000000</i>
    <i name="BMIX_MAG">      1.00000000</i>
    <separator name="electronic mixer details" >
     <i type="int" name="IMIX">     4</i>
     <i type="logical" name="MIXFIRST"> F  </i>
     <i type="int" name="MAXMIX">   -45</i>
     <i name="WC">    100.00000000</i>
     <i type="int" name="INIMIX">     1</i>
     <i type="int" name="MIXPRE">     1</i>
     <i type="int" name="MREMOVE">     5</i>
    </separator>
   </separator>
   <separator name="electronic dipolcorrection" >
    <i type="logical" name="LDIPOL"> F  </i>
    <i type="logical" name="LMONO"> F  </i>
    <i type="int" name="IDIPOL">     0</i>
    <i name="EPSILON">      1.00000000</i>
    <v name="DIPOL">   -100.00000000   -100.00000000   -100.00000000</v>
    <i name="EFIELD">      0.00000000</i>
   </separator>
  </separator>
  <separator name="grids" >
   <i type="int" name="NGX">    18</i>
   <i type="int" name="NGY">    18</i>
   <i type="int" name="NGZ">    28</i>
   <i type="int" name="NGXF">    36</i>
   <i type="int" name="NGYF">    36</i>
   <i type="int" name="NGZF">    56</i>
   <i type="logical" name="ADDGRID"> F  </i>
  </separator>
  <separator name="ionic" >
   <i type="int" name="NSW">   100</i>
   <i type="int" name="IBRION">     2</i>
   <i type="int" name="ISIF">     4</i>
   <i name="PSTRESS">      0.00000000</i>
   <i name="EDIFFG">     -0.01000000</i>
   <i type="int" name="NFREE">     1</i>
   <i name="POTIM">      0.50000000</i>
   <i name="SMASS">     -3.00000000</i>
   <i name="SCALEE">      1.00000000</i>
  </separator>
  <separator name="ionic md" >
   <i name="TEBEG">      0.00010000</i>
   <i name="TEEND">      0.00010000</i>
   <i type="int" name="NBLOCK">     1</i>
   <i type="int" name="KBLOCK">   100</i>
   <i type="int" name="NPACO">   256</i>
   <i name="APACO">     16.00000000</i>
  </separator>
  <separator name="symmetry" >
   <i type="int" name="ISYM">     2</i>
   <i name="SYMPREC">      0.00001000</i>
  </separator>
  <separator name="dos" >
   <i type="logical" name="LORBIT"> F  </i>
   <v name="RWIGS">     -1.00000000</v>
   <i type="int" name="NEDOS">   301</i>
   <i name="EMIN">     10.00000000</i>
   <i name="EMAX">    -10.00000000</i>
   <i name="EFERMI">      0.00000000</i>
  </separator>
  <separator name="writing" >
   <i type="int" name="NWRITE">     2</i>
   <i type="logical" name="LWAVE"> T  </i>
   <i type="logical" name="LCHARG"> T  </i>
   <i type="logical" name="LPARD"> F  </i>
   <i type="logical" name="LVTOT"> F  </i>
   <i type="logical" name="LVHAR"> F  </i>
   <i type="logical" name="LELF"> F  </i>
   <i type="logical" name="LOPTICS"> F  </i>
   <v name="STM">      0.00000000      0.00000000      0.00000000      0.00000000      0.00000000      0.00000000      0.00000000</v>
  </separator>
  <separator name="performance" >
   <i type="int" name="NPAR">     4</i>
   <i type="int" name="NSIM">     4</i>
   <i type="int" name="NBLK">    -1</i>
   <i type="logical" name="LPLANE"> T  </i>
   <i type="logical" name="LSCALAPACK"> F  </i>
   <i type="logical" name="LSCAAWARE"> F  </i>
   <i type="logical" name="LSCALU"> F  </i>
   <i type="logical" name="LASYNC"> F  </i>
   <i type="logical" name="LORBITALREAL"> F  </i>
  </separator>
  <separator name="miscellaneous" >
   <i type="int" name="IDIOT">     3</i>
   <i type="logical" name="LMUSIC"> F  </i>
   <v name="POMASS">     28.08500000</v>
   <v name="DARWINR">      0.00000000</v>
   <v name="DARWINV">      1.00000000</v>
   <i type="logical" name="LCORR"> T  </i>
  </separator>
  <i type="logical" name="GGA_COMPAT"> T  </i>
  <i type="logical" name="LBERRY"> F  </i>
  <i type="int" name="ICORELEVEL">     0</i>
  <i type="logical" name="LDAU"> F  </i>
  <i type="int" name="I_CONSTRAINED_M">     0</i>
  <separator name="electronic exchange-correlation" >
   <i type="string" name="GGA">--</i>
   <i type="int" name="VOSKOWN">     0</i>
   <i type="logical" name="LHFCALC"> F  </i>
   <i type="string" name="PRECFOCK"></i>
   <i type="logical" name="LSYMGRAD"> F  </i>
   <i type="logical" name="LHFONE"> F  </i>
   <i type="logical" name="LRHFCALC"> F  </i>
   <i type="logical" name="LTHOMAS"> F  </i>
   <i type="logical" name="LMODELHF"> F  </i>
   <i name="ENCUT4O">     -1.00000000</i>
   <i type="int" name="EXXOEP">     0</i>
   <i type="int" name="FOURORBIT">     0</i>
   <i name="AEXX">      0.00000000</i>
   <i name="HFALPHA">      0.00000000</i>
   <i name="MCALPHA">      0.00000000</i>
   <i name="ALDAX">      1.00000000</i>
   <i name="AGGAX">      1.00000000</i>
   <i name="ALDAC">      1.00000000</i>
   <i name="AGGAC">      1.00000000</i>
   <i type="int" name="NKREDX">     1</i>
   <i type="int" name="NKREDY">     1</i>
   <i type="int" name="NKREDZ">     1</i>
   <i type="logical" name="SHIFTRED"> F  </i>
   <i type="logical" name="ODDONLY"> F  </i>
   <i type="logical" name="EVENONLY"> F  </i>
   <i type="int" name="LMAXFOCK">     0</i>
   <i type="int" name="NMAXFOCKAE">     0</i>
   <i type="logical" name="LFOCKAEDFT"> F  </i>
   <i name="HFSCREEN">      0.00000000</i>
   <i name="HFSCREENC">      0.00000000</i>
   <i type="int" name="NBANDSGWLOW">     0</i>
  </separator>
  <separator name="vdW DFT" >
   <i type="logical" name="LUSE_VDW"> F  </i>
   <i name="Zab_VDW">     -0.84910000</i>
   <i name="PARAM1">      0.12340000</i>
   <i name="PARAM2">      1.00000000</i>
   <i name="PARAM3">      0.00000000</i>
  </separator>
  <separator name="model GW" >
   <i type="int" name="MODEL_GW">     0</i>
   <i name="MODEL_EPS0">      6.78948814</i>
   <i name="MODEL_ALPHA">      1.00000000</i>
  </separator>
  <separator name="linear response parameters" >
   <i type="logical" name="LEPSILON"> F  </i>
   <i type="logical" name="LRPA"> F  </i>
   <i type="logical" name="LNABLA"> F  </i>
   <i type="logical" name="LVEL"> F  </i>
   <i type="int" name="KINTER">     0</i>
   <i name="CSHIFT">      0.10000000</i>
   <i name="OMEGAMAX">     -1.00000000</i>
   <i name="DEG_THRESHOLD">      0.00200000</i>
  </separator>
  <separator name="orbital magnetization" >
   <i type="logical" name="NUCIND"> F  </i>
   <v name="MAGPOS">      0.00000000      0.00000000      0.00000000</v>
   <i type="logical" name="LNICSALL"> T  </i>
   <i type="logical" name="ORBITALMAG"> F  </i>
   <i type="logical" name="LMAGBLOCH"> F  </i>
   <i type="logical" name="LCHIMAG"> F  </i>
   <i type="logical" name="LGAUGE"> T  </i>
   <i type="int" name="MAGATOM">     0</i>
   <v name="MAGDIPOL">      0.00000000      0.00000000      0.00000000</v>
   <v name="AVECCONST">      0.00000000      0.00000000      0.00000000</v>
  </separator>
  <separator name="response functions" >
   <i type="logical" name="LADDER"> F  </i>
   <i type="logical" name="LFXC"> F  </i>
   <i type="logical" name="LHARTREE"> T  </i>
   <i type="int" name="IBSE">     0</i>
   <v type="int" name="KPOINT">    -1     0     0     0</v>
   <i type="logical" name="LTCTE"> F  </i>
   <i type="logical" name="LTETE"> F  </i>
   <i type="logical" name="LTRIPLET"> F  </i>
   <i type="logical" name="LFXCEPS"> F  </i>
   <i type="logical" name="LFXHEG"> F  </i>
   <i type="int" name="NATURALO">     0</i>
   <i type="logical" name="L2ORDER"> F  </i>
   <i type="logical" name="LUSEW"> F  </i>
   <i name="ENCUTGW">     -2.00000000</i>
   <i name="ENCUTGWSOFT">     -2.00000000</i>
   <i name="ENCUTLF">     -1.00000000</i>
   <i type="int" name="LMAXMP2">    -1</i>
   <i name="SCISSOR">      0.00000000</i>
   <i type="int" name="NOMEGA">     0</i>
   <i type="int" name="NOMEGAR">     0</i>
   <i type="int" name="NBANDSGW">    -1</i>
   <i type="int" name="NBANDSO">    -1</i>
   <i type="int" name="NBANDSV">    -1</i>
   <i type="int" name="NELM">     1</i>
   <i type="int" name="NELMHF">     1</i>
   <i type="int" name="DIM">     3</i>
   <i type="int" name="ANTIRES">     0</i>
   <i name="OMEGAMAX">    -30.00000000</i>
   <i name="OMEGAMIN">    -30.00000000</i>
   <i name="OMEGATL">   -200.00000000</i>
   <i type="int" name="OMEGAGRID">     0</i>
   <i name="CSHIFT">     -0.10000000</i>
   <i type="logical" name="SELFENERGY"> F  </i>
   <i type="logical" name="LSPECTRAL"> F  </i>
   <i type="logical" name="LSPECTRALGW"> F  </i>
   <i type="logical" name="LSINGLES"> F  </i>
   <i type="logical" name="LFERMIGW"> F  </i>
   <i type="logical" name="ODDONLYGW"> F  </i>
   <i type="logical" name="EVENONLYGW"> F  </i>
   <i type="int" name="NKREDLFX">     1</i>
   <i type="int" name="NKREDLFY">     1</i>
   <i type="int" name="NKREDLFZ">     1</i>
   <i type="int" name="MAXMEM">  1800</i>
   <i type="int" name="TELESCOPE">     0</i>
   <i type="int" name="TAUPAR">     1</i>
   <i type="int" name="OMEGAPAR">    -1</i>
   <i name="LAMBDA">      1.00000000</i>
  </separator>
  <separator name="External order field" >
   <i name="OFIELD_KAPPA">      0.00000000</i>
   <v name="OFIELD_K">      0.00000000      0.00000000      0.00000000</v>
   <i name="OFIELD_Q6_NEAR">      0.00000000</i>
   <i name="OFIELD_Q6_FAR">      0.00000000</i>
   <i name="OFIELD_A">      0.00000000</i>
  </separator>
 </parameters>
 <atominfo>
  <atoms>       2 </atoms>
  <types>       1 </types>
  <array name="atoms" >
   <dimension dim="1">ion</dimension>
   <field type="string">element</field>
   <field type="int">atomtype</field>
   <set>
    <rc><c> S</c><c>   1</c></rc>
    <rc><c> S</c><c>   1</c></rc>
   </set>
  </array>
  <array name="atomtypes" >
   <dimension dim="1">type</dimension>
   <field type="int">atomspertype</field>
   <field type="string">element</field>
   <field>mass</field>
   <field>valence</field>
   <field type="string">pseudopotential</field>
   <set>
    <rc><c>   2</c><c> S</c><c>     28.08500000</c><c>      4.00000000</c><c>  PAW_PBE Si 05Jan2001                  </c></rc>
   </set>
  </array>
 </atominfo>
 <structure name="initialpos" >
  <crystal>
   <varray name="basis" >
    <v>       2.52000000       0.00000000       0.00000000 </v>
    <v>      -1.26000000       2.18238402       0.00000000 </v>
    <v>       0.00000000       0.00000000       4.11513480 </v>
   </varray>
   <i name="volume">     22.63162713 </i>
   <varray name="rec_basis" >
    <v>       0.39682540       0.22910725       0.00000000 </v>
    <v>       0.00000000       0.45821450       0.00000000 </v>
    <v>       0.00000000       0.00000000       0.24300541 </v>
   </varray>
  </crystal>
  <varray name="positions" >
   <v>       0.00000000       0.00000000       0.00000000 </v>
   <v>       0.33333333       0.66666667       0.50000000 </v>
  </varray>
 </structure>
 <calculation>
  <scstep>
   <time name="dav">    1.38    0.84</time>
   <time name="total">    1.41    0.87</time>
   <energy>
    <i name="alphaZ">      5.94974999 </i>
    <i name="ewald">   -296.39431912 </i>
    <i name="hartreedc">     -0.49615912 </i>
    <i name="XCdc">    -16.21807080 </i>
    <i name="pawpsdc">    176.24759923 </i>
    <i name="pawaedc">   -141.06103558 </i>
    <i name="eentropy">     -0.00115418 </i>
    <i name="bandstr">     70.80494029 </i>
    <i name="atom">    206.13192747 </i>
    <i name="e_fr_energy">      4.96347819 </i>
    <i name="e_wo_entrp">      4.96463237 </i>
    <i name="e_0_energy">      4.96405528 </i>
   </energy>
  </scstep>
  <scstep>
   <time name="dav">    1.54    0.96</time>
   <time name="total">    1.55    0.96</time>
   <energy>
    <i name="e_fr_energy">     -9.19485577 </i>
    <i name="e_wo_entrp">     -9.18870432 </i>
    <i name="e_0_energy">     -9.19178004 </i>
   </energy>
  </scstep>
  <scstep>
   <time name="dav">    1.55    1.03</time>
   <time name="total">    1.79    1.19</time>
   <energy>
    <i name="e_fr_energy">     -9.37295047 </i>
    <i name="e_wo_entrp">     -9.36915806 </i>
    <i name="e_0_energy">     -9.37105427 </i>
   </energy>
  </scstep>
  <scstep>
   <time name="dav">    2.07    1.28</time>
   <time name="total">    2.09    1.29</time>
   <energy>
    <i name="e_fr_energy">     -9.37339786 </i>
    <i name="e_wo_entrp">     -9.36961858 </i>
    <i name="e_0_energy">     -9.37150822 </i>
   </energy>
  </scstep>
  <scstep>
   <time name="dav">    1.53    0.96</time>
   <time name="total">    1.56    0.99</time>
   <energy>
    <i name="e_fr_energy">     -9.37339805 </i>
    <i name="e_wo_entrp">     -9.36961877 </i>
    <i name="e_0_energy">     -9.37150841 </i>
   </energy>
  </scstep>
  <scstep>
   <time name="dav">    1.93    1.18</time>
   <time name="total">    2.00    1.23</time>
   <energy>
    <i name="e_fr_energy">     -9.33446678 </i>
    <i name="e_wo_entrp">     -9.33082158 </i>
    <i name="e_0_energy">     -9.33264418 </i>
   </energy>
  </scstep>
  <scstep>
   <time name="dav">    1.53    0.95</time>
   <time name="total">    1.60    1.00</time>
   <energy>
    <i name="e_fr_energy">     -9.31111668 </i>
    <i name="e_wo_entrp">     -9.30764814 </i>
    <i name="e_0_energy">     -9.30938241 </i>
   </energy>
  </scstep>
  <scstep>
   <time name="dav">    2.23    1.39</time>
   <time name="total">    2.29    1.43</time>
   <energy>
    <i name="e_fr_energy">     -9.31088986 </i>
    <i name="e_wo_entrp">     -9.30743228 </i>
    <i name="e_0_energy">     -9.30916107 </i>
   </energy>
  </scstep>
  <scstep>
   <time name="dav">    1.15    0.71</time>
   <time name="total">    1.21    0.75</time>
   <energy>
    <i name="alphaZ">      5.94974999 </i>
    <i name="ewald">   -296.39431912 </i>
    <i name="hartreedc">     -0.51252369 </i>
    <i name="XCdc">    -15.94916085 </i>
    <i name="pawpsdc">   1095.46239635 </i>
    <i name="pawaedc">  -1060.42540163 </i>
    <i name="eentropy">     -0.00345521 </i>
    <i name="bandstr">     56.42989839 </i>
    <i name="atom">    206.13192747 </i>
    <i name="e_fr_energy">     -9.31088830 </i>
    <i name="e_wo_entrp">     -9.30743310 </i>
    <i name="e_0_energy">     -9.30916070 </i>
   </energy>
  </scstep>
  <structure>
   <crystal>
    <varray name="basis" >
     <v>       2.52000000       0.00000000       0.00000000 </v>
     <v>      -1.26000000       2.18238402       0.00000000 </v>
     <v>       0.00000000       0.00000000       4.11513480 </v>
    </varray>
    <i name="volume">     22.63162713 </i>
    <varray name="rec_basis" >
     <v>       0.39682540       0.22910725       0.00000000 </v>
     <v>       0.00000000       0.45821450       0.00000000 </v>
     <v>       0.00000000       0.00000000       0.24300541 </v>
    </varray>
   </crystal>
   <varray name="positions" >
    <v>       0.00000000       0.00000000       0.00000000 </v>
    <v>       0.33333333       0.66666667       0.50000000 </v>
   </varray>
  </structure>
  <varray name="forces" >
   <v>      -0.00000000       0.00000000       0.00000000 </v>
   <v>       0.00000000      -0.00000000       0.00000000 </v>
  </varray>
  <varray name="stress" >
   <v>     374.22178776       0.00000000       0.00000000 </v>
   <v>       0.00000000     374.22178776       0.00000000 </v>
   <v>       0.00000000       0.00000000     337.73293925 </v>
  </varray>
  <energy>
   <i name="e_fr_energy">     -9.31088830 </i>
   <i name="e_wo_entrp">     -9.30916070 </i>
   <i name="e_0_energy">     -0.00345521 </i>
  </energy>
  <time name="totalsc">   16.31   10.23</time>
 </calculation>
 <calculation>
  <scstep>
   <time name="dav">    2.18    1.37</time>
   <time name="total">    2.23    1.40</time>
   <energy>
    <i name="alphaZ">      5.94974999 </i>
    <i name="ewald">   -296.38627630 </i>
    <i name="hartreedc">     -0.51259836 </i>
    <i name="XCdc">    -15.94944179 </i>
    <i name="pawpsdc">   1096.46472269 </i>
    <i name="pawaedc">  -1061.42714755 </i>
    <i name="eentropy">     -0.00565257 </i>
    <i name="bandstr">     56.42171873 </i>
    <i name="atom">    206.13192747 </i>
    <i name="e_fr_energy">     -9.31299768 </i>
    <i name="e_wo_entrp">     -9.30734511 </i>
    <i name="e_0_energy">     -9.31017140 </i>
   </energy>
  </scstep>
  <scstep>
   <time name="dav">    1.40    0.90</time>
   <time name="total">    1.50    0.96</time>
   <energy>
    <i name="e_fr_energy">     -9.31230712 </i>
    <i name="e_wo_entrp">     -9.30666697 </i>
    <i name="e_0_energy">     -9.30948705 </i>
   </energy>
  </scstep>
  <scstep>
   <time name="dav">    2.08    1.26</time>
   <time name="total">    2.16    1.31</time>
   <energy>
    <i name="e_fr_energy">     -9.31197838 </i>
    <i name="e_wo_entrp">     -9.30635246 </i>
    <i name="e_0_energy">     -9.30916542 </i>
   </energy>
  </scstep>
  <scstep>
   <time name="dav">    1.21    0.73</time>
   <time name="total">    1.26    0.76</time>
   <energy>
    <i name="alphaZ">      5.94974999 </i>
    <i name="ewald">   -296.38627630 </i>
    <i name="hartreedc">     -0.51419141 </i>
    <i name="XCdc">    -15.94958961 </i>
    <i name="pawpsdc">   1095.54237196 </i>
    <i name="pawaedc">  -1060.50501430 </i>
    <i name="eentropy">     -0.00562603 </i>
    <i name="bandstr">     56.42466748 </i>
    <i name="atom">    206.13192747 </i>
    <i name="e_fr_energy">     -9.31198075 </i>
    <i name="e_wo_entrp">     -9.30635472 </i>
    <i name="e_0_energy">     -9.30916774 </i>
   </energy>
  </scstep>
  <structure>
   <crystal>
    <varray name="basis" >
     <v>       2.53048708       0.00000000       0.00000000 </v>
     <v>      -1.26524354       2.19146609       0.00000000 </v>
     <v>       0.00000000       0.00000000       4.08109684 </v>
    </varray>
    <i name="volume">     22.63162713 </i>
    <varray name="rec_basis" >
     <v>       0.39518084       0.22815776       0.00000000 </v>
     <v>       0.00000000       0.45631552       0.00000000 </v>
     <v>       0.00000000       0.00000000       0.24503217 </v>
    </varray>
   </crystal>
   <varray name="positions" >
    <v>      -0.00000000       0.00000000       0.00000000 </v>
    <v>       0.33333333       0.66666667       0.50000000 </v>
   </varray>
  </structure>
  <varray name="forces" >
   <v>      -0.00000000       0.00000000       0.00000000 </v>
   <v>       0.00000000       0.00000000       0.00000000 </v>
  </varray>
  <varray name="stress" >
   <v>     362.83337171       0.00000000      -0.00000000 </v>
   <v>       0.00000000     362.83337171       0.00000000 </v>
   <v>       0.00000000       0.00000000     363.12286856 </v>
  </varray>
  <energy>
   <i name="e_fr_energy">     -9.31198075 </i>
   <i name="e_wo_entrp">     -9.30916774 </i>
   <i name="e_0_energy">     -0.00562603 </i>
  </energy>
  <time name="totalsc">    7.56    4.72</time>
  <eigenvalues>
   <array>
    <dimension dim="1">band</dimension>
    <dimension dim="2">kpoint</dimension>
    <dimension dim="3">spin</dimension>
    <field>eigene</field>
    <field>occ</field>
    <set>
     <set comment="spin 1">
      <set comment="kpoint 1">
       <r>   -2.4919    1.0000 </r>
       <r>    4.6063    1.0000 </r>
       <r>    7.4023    1.0000 </r>
       <r>   18.8873    0.0000 </r>
       <r>   19.0107    0.0000 </r>
       <r>   24.9484    0.0000 </r>
       <r>   25.1904    0.0000 </r>
       <r>   25.3499    0.0000 </r>
      </set>
      <set comment="kpoint 2">
       <r>   -0.4115    1.0000 </r>
       <r>    6.5803    1.0000 </r>
       <r>    9.2737    1.0000 </r>
       <r>   11.8828    1.0000 </r>
       <r>   16.2700    0.0000 </r>
       <r>   18.4947    0.0000 </r>
       <r>   20.8685    0.0000 </r>
       <r>   23.1391    0.0000 </r>
      </set>
      <set comment="kpoint 3">
       <r>    3.2598    1.0000 </r>
       <r>    5.6764    1.0000 </r>
       <r>   10.1707    1.0000 </r>
       <r>   12.2292    1.0000 </r>
       <r>   13.2415    1.0000 </r>
       <r>   14.8970    0.0000 </r>
       <r>   16.0089    0.0000 </r>
       <r>   21.9509    0.0000 </r>
      </set>
      <set comment="kpoint 4">
       <r>    1.2338    1.0000 </r>
       <r>    7.8575    1.0000 </r>
       <r>    8.7723    1.0000 </r>
       <r>   11.0609    1.0000 </r>
       <r>   15.0121    0.0000 </r>
       <r>   15.9642    0.0000 </r>
       <r>   18.1040    0.0000 </r>
       <r>   22.3374    0.0000 </r>
      </set>
      <set comment="kpoint 5">
       <r>   -1.6567    1.0000 </r>
       <r>    5.4030    1.0000 </r>
       <r>    8.1792    1.0000 </r>
       <r>   15.2555    0.0000 </r>
       <r>   17.4542    0.0000 </r>
       <r>   21.7213    0.0000 </r>
       <r>   23.4860    0.0000 </r>
       <r>   24.6659    0.0000 </r>
      </set>
      <set comment="kpoint 6">
       <r>   -2.9111    1.0000 </r>
       <r>    4.2056    1.0000 </r>
       <r>    7.0086    1.0000 </r>
       <r>   20.7340    0.0000 </r>
       <r>   22.0832    0.0000 </r>
       <r>   23.9494    0.0000 </r>
       <r>   26.3730    0.0000 </r>
       <r>   26.5054    0.0000 </r>
      </set>
      <set comment="kpoint 7">
       <r>    2.4573    1.0000 </r>
       <r>    8.7982    1.0000 </r>
       <r>    9.8251    1.0000 </r>
       <r>   10.0002    1.0000 </r>
       <r>   12.3389    1.0000 </r>
       <r>   16.1676    0.0000 </r>
       <r>   16.9496    0.0000 </r>
       <r>   19.4292    0.0000 </r>
      </set>
      <set comment="kpoint 8">
       <r>    4.4670    1.0000 </r>
       <r>    6.8528    1.0000 </r>
       <r>    9.1852    1.0000 </r>
       <r>   11.4443    1.0000 </r>
       <r>   13.3372    1.0000 </r>
       <r>   14.4994    0.0000 </r>
       <r>   16.0557    0.0000 </r>
       <r>   17.3945    0.0000 </r>
      </set>
      <set comment="kpoint 9">
       <r>    0.8244    1.0000 </r>
       <r>    7.7170    1.0000 </r>
       <r>   10.0001    1.0000 </r>
       <r>   11.0961    1.0000 </r>
       <r>   12.9915    1.0000 </r>
       <r>   17.3134    0.0000 </r>
       <r>   19.1951    0.0000 </r>
       <r>   20.6496    0.0000 </r>
      </set>
      <set comment="kpoint 10">
       <r>   -1.2406    1.0000 </r>
       <r>    5.7981    1.0000 </r>
       <r>    8.5562    1.0000 </r>
       <r>   13.3691    1.0000 </r>
       <r>   19.2343    0.0000 </r>
       <r>   19.7266    0.0000 </r>
       <r>   21.3805    0.0000 </r>
       <r>   22.7163    0.0000 </r>
      </set>
      <set comment="kpoint 11">
       <r>    4.7076    1.0000 </r>
       <r>    5.0470    1.0000 </r>
       <r>   11.1890    1.0000 </r>
       <r>   11.9355    1.0000 </r>
       <r>   12.1723    1.0000 </r>
       <r>   14.5757    0.0000 </r>
       <r>   15.1498    0.0000 </r>
       <r>   19.1897    0.0000 </r>
      </set>
      <set comment="kpoint 12">
       <r>    2.0488    1.0000 </r>
       <r>    6.8096    1.0000 </r>
       <r>    9.0750    1.0000 </r>
       <r>   11.7179    1.0000 </r>
       <r>   13.9022    0.0316 </r>
       <r>   16.4020    0.0000 </r>
       <r>   17.8070    0.0000 </r>
       <r>   20.3034    0.0000 </r>
      </set>
      <set comment="kpoint 13">
       <r>   -2.0092    1.0000 </r>
       <r>    2.2759    1.0000 </r>
       <r>   10.5681    1.0000 </r>
       <r>   19.2985    0.0000 </r>
       <r>   19.3261    0.0000 </r>
       <r>   22.2857    0.0000 </r>
       <r>   23.1742    0.0000 </r>
       <r>   23.4905    0.0000 </r>
      </set>
      <set comment="kpoint 14">
       <r>    0.0654    1.0000 </r>
       <r>    4.2933    1.0000 </r>
       <r>   11.7841    1.0000 </r>
       <r>   12.8637    1.0000 </r>
       <r>   16.0054    0.0000 </r>
       <r>   17.1014    0.0000 </r>
       <r>   20.6982    0.0000 </r>
       <r>   23.3777    0.0000 </r>
      </set>
      <set comment="kpoint 15">
       <r>    3.7229    1.0000 </r>
       <r>    6.0775    1.0000 </r>
       <r>    8.0299    1.0000 </r>
       <r>   10.3166    1.0000 </r>
       <r>   15.2856    0.0000 </r>
       <r>   16.4352    0.0000 </r>
       <r>   18.2846    0.0000 </r>
       <r>   20.0742    0.0000 </r>
      </set>
      <set comment="kpoint 16">
       <r>    1.7057    1.0000 </r>
       <r>    5.8588    1.0000 </r>
       <r>    9.0265    1.0000 </r>
       <r>   12.8386    1.0000 </r>
       <r>   14.2623    0.0000 </r>
       <r>   16.2366    0.0000 </r>
       <r>   19.7829    0.0000 </r>
       <r>   21.3613    0.0000 </r>
      </set>
      <set comment="kpoint 17">
       <r>   -1.1762    1.0000 </r>
       <r>    3.0873    1.0000 </r>
       <r>   11.3016    1.0000 </r>
       <r>   15.6864    0.0000 </r>
       <r>   17.8161    0.0000 </r>
       <r>   19.6845    0.0000 </r>
       <r>   21.8161    0.0000 </r>
       <r>   23.0716    0.0000 </r>
      </set>
      <set comment="kpoint 18">
       <r>   -2.4272    1.0000 </r>
       <r>    1.8683    1.0000 </r>
       <r>   10.1892    1.0000 </r>
       <r>   20.9473    0.0000 </r>
       <r>   21.9904    0.0000 </r>
       <r>   22.4891    0.0000 </r>
       <r>   24.5528    0.0000 </r>
       <r>   25.4180    0.0000 </r>
      </set>
      <set comment="kpoint 19">
       <r>    2.9249    1.0000 </r>
       <r>    7.0041    1.0000 </r>
       <r>   10.1223    1.0000 </r>
       <r>   10.2577    1.0000 </r>
       <r>   13.8841    0.0546 </r>
       <r>   14.1877    0.0000 </r>
       <r>   16.2057    0.0000 </r>
       <r>   22.0668    0.0000 </r>
      </set>
      <set comment="kpoint 20">
       <r>    4.9236    1.0000 </r>
       <r>    7.2340    1.0000 </r>
       <r>    8.9917    1.0000 </r>
       <r>    9.9672    1.0000 </r>
       <r>   11.6189    1.0000 </r>
       <r>   13.7947    0.3681 </r>
       <r>   17.6750    0.0000 </r>
       <r>   19.8593    0.0000 </r>
      </set>
      <set comment="kpoint 21">
       <r>    1.2977    1.0000 </r>
       <r>    5.4818    1.0000 </r>
       <r>   10.9083    1.0000 </r>
       <r>   13.0259    1.0000 </r>
       <r>   13.7232    0.7497 </r>
       <r>   15.4832    0.0000 </r>
       <r>   17.5798    0.0000 </r>
       <r>   22.9465    0.0000 </r>
      </set>
      <set comment="kpoint 22">
       <r>   -0.7613    1.0000 </r>
       <r>    3.4908    1.0000 </r>
       <r>   11.6167    1.0000 </r>
       <r>   13.8588    0.1069 </r>
       <r>   17.7169    0.0000 </r>
       <r>   19.6461    0.0000 </r>
       <r>   21.5646    0.0000 </r>
       <r>   23.3579    0.0000 </r>
      </set>
      <set comment="kpoint 23">
       <r>    5.1605    1.0000 </r>
       <r>    5.4899    1.0000 </r>
       <r>    9.3222    1.0000 </r>
       <r>    9.7226    1.0000 </r>
       <r>   12.6017    1.0000 </r>
       <r>   16.1094    0.0000 </r>
       <r>   17.8269    0.0000 </r>
       <r>   18.5506    0.0000 </r>
      </set>
      <set comment="kpoint 24">
       <r>    2.5177    1.0000 </r>
       <r>    6.4885    1.0000 </r>
       <r>    7.6263    1.0000 </r>
       <r>   11.4490    1.0000 </r>
       <r>   14.9893    0.0000 </r>
       <r>   18.2192    0.0000 </r>
       <r>   19.1249    0.0000 </r>
       <r>   20.8279    0.0000 </r>
      </set>
      <set comment="kpoint 25">
       <r>   -1.0478    1.0000 </r>
       <r>    0.3844    1.0000 </r>
       <r>   14.1080    0.0000 </r>
       <r>   17.8643    0.0000 </r>
       <r>   20.0827    0.0000 </r>
       <r>   20.4722    0.0000 </r>
       <r>   21.6180    0.0000 </r>
       <r>   21.8986    0.0000 </r>
      </set>
      <set comment="kpoint 26">
       <r>    1.0151    1.0000 </r>
       <r>    2.4291    1.0000 </r>
       <r>   12.9632    1.0000 </r>
       <r>   14.2056    0.0000 </r>
       <r>   16.1365    0.0000 </r>
       <r>   17.6779    0.0000 </r>
       <r>   19.1134    0.0000 </r>
       <r>   20.4145    0.0000 </r>
      </set>
      <set comment="kpoint 27">
       <r>    4.6364    1.0000 </r>
       <r>    5.9065    1.0000 </r>
       <r>    7.2968    1.0000 </r>
       <r>    8.5465    1.0000 </r>
       <r>   16.4222    0.0000 </r>
       <r>   17.5970    0.0000 </r>
       <r>   19.8671    0.0000 </r>
       <r>   21.8041    0.0000 </r>
      </set>
      <set comment="kpoint 28">
       <r>    2.6446    1.0000 </r>
       <r>    4.0387    1.0000 </r>
       <r>    9.9138    1.0000 </r>
       <r>   11.2420    1.0000 </r>
       <r>   16.6250    0.0000 </r>
       <r>   17.4897    0.0000 </r>
       <r>   18.7640    0.0000 </r>
       <r>   21.5546    0.0000 </r>
      </set>
      <set comment="kpoint 29">
       <r>   -0.2194    1.0000 </r>
       <r>    1.2058    1.0000 </r>
       <r>   14.7030    0.0000 </r>
       <r>   16.4730    0.0000 </r>
       <r>   17.7630    0.0000 </r>
       <r>   18.3008    0.0000 </r>
       <r>   19.7382    0.0000 </r>
       <r>   20.4060    0.0000 </r>
      </set>
      <set comment="kpoint 30">
       <r>   -1.4636    1.0000 </r>
       <r>   -0.0279    1.0000 </r>
       <r>   13.7581    0.5714 </r>
       <r>   17.6434    0.0000 </r>
       <r>   22.0645    0.0000 </r>
       <r>   23.2410    0.0000 </r>
       <r>   23.3003    0.0000 </r>
       <r>   24.5142    0.0000 </r>
      </set>
      <set comment="kpoint 31">
       <r>    3.8542    1.0000 </r>
       <r>    5.2295    1.0000 </r>
       <r>   10.9211    1.0000 </r>
       <r>   11.0505    1.0000 </r>
       <r>   12.5378    1.0000 </r>
       <r>   12.6253    1.0000 </r>
       <r>   19.1859    0.0000 </r>
       <r>   22.6890    0.0000 </r>
      </set>
      <set comment="kpoint 32">
       <r>    5.8202    1.0000 </r>
       <r>    7.0425    1.0000 </r>
       <r>    8.4806    1.0000 </r>
       <r>    9.6051    1.0000 </r>
       <r>   10.9363    1.0000 </r>
       <r>   12.1394    1.0000 </r>
       <r>   20.9439    0.0000 </r>
       <r>   22.8952    0.0000 </r>
      </set>
      <set comment="kpoint 33">
       <r>    2.2397    1.0000 </r>
       <r>    3.6406    1.0000 </r>
       <r>   11.8222    1.0000 </r>
       <r>   13.0435    1.0000 </r>
       <r>   14.2690    0.0000 </r>
       <r>   15.4006    0.0000 </r>
       <r>   17.9171    0.0000 </r>
       <r>   21.4057    0.0000 </r>
      </set>
      <set comment="kpoint 34">
       <r>    0.1932    1.0000 </r>
       <r>    1.6147    1.0000 </r>
       <r>   14.3012    0.0000 </r>
       <r>   15.1681    0.0000 </r>
       <r>   16.3359    0.0000 </r>
       <r>   19.1948    0.0000 </r>
       <r>   20.4706    0.0000 </r>
       <r>   21.7086    0.0000 </r>
      </set>
      <set comment="kpoint 35">
       <r>    6.0169    1.0000 </r>
       <r>    6.2896    1.0000 </r>
       <r>    7.6899    1.0000 </r>
       <r>    7.9730    1.0000 </r>
       <r>   13.4812    1.0000 </r>
       <r>   14.7623    0.0000 </r>
       <r>   21.0693    0.0000 </r>
       <r>   21.5104    0.0000 </r>
      </set>
      <set comment="kpoint 36">
       <r>    3.4491    1.0000 </r>
       <r>    4.8229    1.0000 </r>
       <r>    8.3685    1.0000 </r>
       <r>    9.7027    1.0000 </r>
       <r>   18.2459    0.0000 </r>
       <r>   19.0449    0.0000 </r>
       <r>   20.2858    0.0000 </r>
       <r>   20.5888    0.0000 </r>
      </set>
     </set>
    </set>
   </array>
  </eigenvalues>
  <separator name="orbital magnetization" >
   <v name="MAGDIPOLOUT">      0.00000000      0.00000000      0.00000000</v>
  </separator>
  <dos>
   <i name="efermi">     13.77085878 </i>
   <total>
    <array>
     <dimension dim="1">gridpoints</dimension>
     <dimension dim="2">spin</dimension>
     <field>energy</field>
     <field>total</field>
     <field>integrated</field>
     <set>
      <set comment="spin 1">
       <r>    -4.3819     0.0000     0.0000 </r>
       <r>    -4.2740     0.0000     0.0000 </r>
       <r>    -4.1662     0.0000     0.0000 </r>
       <r>    -4.0583     0.0000     0.0000 </r>
       <r>    -3.9504     0.0000     0.0000 </r>
       <r>    -3.8426     0.0000     0.0000 </r>
       <r>    -3.7347     0.0000     0.0000 </r>
       <r>    -3.6269     0.0000     0.0000 </r>
       <r>    -3.5190     0.0000     0.0000 </r>
       <r>    -3.4111     0.0000     0.0000 </r>
       <r>    -3.3033     0.0000     0.0000 </r>
       <r>    -3.1954     0.0000     0.0000 </r>
       <r>    -3.0876     0.0021     0.0002 </r>
       <r>    -2.9797     0.0548     0.0061 </r>
       <r>    -2.8718     0.1870     0.0263 </r>
       <r>    -2.7640     0.0930     0.0363 </r>
       <r>    -2.6561     0.0100     0.0374 </r>
       <r>    -2.5483     0.0843     0.0465 </r>
       <r>    -2.4404     0.3216     0.0812 </r>
       <r>    -2.3325     0.2420     0.1073 </r>
       <r>    -2.2247     0.0348     0.1111 </r>
       <r>    -2.1168     0.0223     0.1135 </r>
       <r>    -2.0090     0.1502     0.1297 </r>
       <r>    -1.9011     0.1497     0.1458 </r>
       <r>    -1.7932     0.0395     0.1501 </r>
       <r>    -1.6854     0.2174     0.1735 </r>
       <r>    -1.5775     0.3794     0.2145 </r>
       <r>    -1.4697     0.2293     0.2392 </r>
       <r>    -1.3618     0.1781     0.2584 </r>
       <r>    -1.2539     0.2474     0.2851 </r>
       <r>    -1.1461     0.5579     0.3453 </r>
       <r>    -1.0382     0.4048     0.3889 </r>
       <r>    -0.9304     0.1575     0.4059 </r>
       <r>    -0.8225     0.0801     0.4145 </r>
       <r>    -0.7146     0.1898     0.4350 </r>
       <r>    -0.6068     0.0844     0.4441 </r>
       <r>    -0.4989     0.0773     0.4525 </r>
       <r>    -0.3911     0.3525     0.4905 </r>
       <r>    -0.2832     0.3623     0.5296 </r>
       <r>    -0.1753     0.4078     0.5735 </r>
       <r>    -0.0675     0.2853     0.6043 </r>
       <r>     0.0404     0.4308     0.6508 </r>
       <r>     0.1483     0.4959     0.7043 </r>
       <r>     0.2561     0.2836     0.7349 </r>
       <r>     0.3640     0.1844     0.7547 </r>
       <r>     0.4718     0.1763     0.7738 </r>
       <r>     0.5797     0.0364     0.7777 </r>
       <r>     0.6876     0.0190     0.7797 </r>
       <r>     0.7954     0.2165     0.8031 </r>
       <r>     0.9033     0.4002     0.8463 </r>
       <r>     1.0111     0.3796     0.8872 </r>
       <r>     1.1190     0.4256     0.9331 </r>
       <r>     1.2269     0.7815     1.0174 </r>
       <r>     1.3347     0.9298     1.1177 </r>
       <r>     1.4426     0.2698     1.1468 </r>
       <r>     1.5504     0.0845     1.1559 </r>
       <r>     1.6583     0.3522     1.1939 </r>
       <r>     1.7662     0.4912     1.2469 </r>
       <r>     1.8740     0.2939     1.2786 </r>
       <r>     1.9819     0.2049     1.3007 </r>
       <r>     2.0897     0.2191     1.3243 </r>
       <r>     2.1976     0.3136     1.3581 </r>
       <r>     2.3055     0.5968     1.4225 </r>
       <r>     2.4133     0.5887     1.4860 </r>
       <r>     2.5212     0.7220     1.5639 </r>
       <r>     2.6290     0.5259     1.6206 </r>
       <r>     2.7369     0.3623     1.6597 </r>
       <r>     2.8448     0.1076     1.6713 </r>
       <r>     2.9526     0.2008     1.6929 </r>
       <r>     3.0605     0.3340     1.7290 </r>
       <r>     3.1683     0.4334     1.7757 </r>
       <r>     3.2762     0.4260     1.8217 </r>
       <r>     3.3841     0.3369     1.8580 </r>
       <r>     3.4919     0.3789     1.8989 </r>
       <r>     3.5998     0.4458     1.9470 </r>
       <r>     3.7076     0.6650     2.0187 </r>
       <r>     3.8155     0.5445     2.0774 </r>
       <r>     3.9234     0.2898     2.1087 </r>
       <r>     4.0312     0.3372     2.1450 </r>
       <r>     4.1391     0.3881     2.1869 </r>
       <r>     4.2469     0.4068     2.2308 </r>
       <r>     4.3548     0.5081     2.2856 </r>
       <r>     4.4627     0.4322     2.3322 </r>
       <r>     4.5705     0.5395     2.3904 </r>
       <r>     4.6784     0.7245     2.4686 </r>
       <r>     4.7862     0.5256     2.5253 </r>
       <r>     4.8941     0.4631     2.5752 </r>
       <r>     5.0020     0.5052     2.6297 </r>
       <r>     5.1098     0.3725     2.6699 </r>
       <r>     5.2177     0.3911     2.7120 </r>
       <r>     5.3256     0.3393     2.7486 </r>
       <r>     5.4334     0.6263     2.8162 </r>
       <r>     5.5413     0.8016     2.9027 </r>
       <r>     5.6491     0.4580     2.9521 </r>
       <r>     5.7570     0.6443     3.0216 </r>
       <r>     5.8649     1.1511     3.1457 </r>
       <r>     5.9727     1.0219     3.2559 </r>
       <r>     6.0806     0.6614     3.3273 </r>
       <r>     6.1884     0.3830     3.3686 </r>
       <r>     6.2963     0.2016     3.3903 </r>
       <r>     6.4042     0.1846     3.4102 </r>
       <r>     6.5120     0.3047     3.4431 </r>
       <r>     6.6199     0.4923     3.4962 </r>
       <r>     6.7277     0.2628     3.5246 </r>
       <r>     6.8356     0.4487     3.5730 </r>
       <r>     6.9435     0.6305     3.6410 </r>
       <r>     7.0513     0.7804     3.7251 </r>
       <r>     7.1592     0.5608     3.7856 </r>
       <r>     7.2670     0.6343     3.8540 </r>
       <r>     7.3749     0.6779     3.9272 </r>
       <r>     7.4828     0.2932     3.9588 </r>
       <r>     7.5906     0.1957     3.9799 </r>
       <r>     7.6985     0.6028     4.0449 </r>
       <r>     7.8063     0.6890     4.1192 </r>
       <r>     7.9142     0.5692     4.1806 </r>
       <r>     8.0221     0.6174     4.2472 </r>
       <r>     8.1299     0.5635     4.3080 </r>
       <r>     8.2378     0.4486     4.3564 </r>
       <r>     8.3456     0.2730     4.3858 </r>
       <r>     8.4535     0.4915     4.4388 </r>
       <r>     8.5614     0.8906     4.5349 </r>
       <r>     8.6692     0.5465     4.5938 </r>
       <r>     8.7771     0.4819     4.6458 </r>
       <r>     8.8849     0.5226     4.7022 </r>
       <r>     8.9928     0.6221     4.7693 </r>
       <r>     9.1007     0.9272     4.8693 </r>
       <r>     9.2085     0.7403     4.9491 </r>
       <r>     9.3164     0.7658     5.0317 </r>
       <r>     9.4242     0.3589     5.0704 </r>
       <r>     9.5321     0.1407     5.0856 </r>
       <r>     9.6400     0.4738     5.1367 </r>
       <r>     9.7478     0.6185     5.2034 </r>
       <r>     9.8557     0.5893     5.2670 </r>
       <r>     9.9635     1.0872     5.3843 </r>
       <r>    10.0714     1.1801     5.5116 </r>
       <r>    10.1793     0.9218     5.6110 </r>
       <r>    10.2871     0.9096     5.7091 </r>
       <r>    10.3950     0.5372     5.7670 </r>
       <r>    10.5029     0.1577     5.7840 </r>
       <r>    10.6107     0.1913     5.8047 </r>
       <r>    10.7186     0.0921     5.8146 </r>
       <r>    10.8264     0.1594     5.8318 </r>
       <r>    10.9343     0.8670     5.9253 </r>
       <r>    11.0422     1.1992     6.0547 </r>
       <r>    11.1500     1.1340     6.1770 </r>
       <r>    11.2579     0.9454     6.2790 </r>
       <r>    11.3657     0.8254     6.3680 </r>
       <r>    11.4736     0.7097     6.4445 </r>
       <r>    11.5815     0.6356     6.5131 </r>
       <r>    11.6893     0.7771     6.5969 </r>
       <r>    11.7972     0.9807     6.7027 </r>
       <r>    11.9050     1.1247     6.8240 </r>
       <r>    12.0129     0.5594     6.8843 </r>
       <r>    12.1208     0.4360     6.9314 </r>
       <r>    12.2286     0.8540     7.0235 </r>
       <r>    12.3365     0.5873     7.0868 </r>
       <r>    12.4443     0.2393     7.1126 </r>
       <r>    12.5522     0.3197     7.1471 </r>
       <r>    12.6601     0.5101     7.2021 </r>
       <r>    12.7679     0.3473     7.2396 </r>
       <r>    12.8758     0.8368     7.3298 </r>
       <r>    12.9836     1.3908     7.4799 </r>
       <r>    13.0915     1.3731     7.6280 </r>
       <r>    13.1994     0.5529     7.6876 </r>
       <r>    13.3072     0.6701     7.7599 </r>
       <r>    13.4151     0.7266     7.8382 </r>
       <r>    13.5229     0.3680     7.8779 </r>
       <r>    13.6308     0.1809     7.8974 </r>
       <r>    13.7387     0.6305     7.9655 </r>
       <r>    13.8465     1.1079     8.0850 </r>
       <r>    13.9544     0.7608     8.1670 </r>
       <r>    14.0622     0.2811     8.1973 </r>
       <r>    14.1701     0.6474     8.2672 </r>
       <r>    14.2780     1.3808     8.4161 </r>
       <r>    14.3858     0.8822     8.5112 </r>
       <r>    14.4937     0.4299     8.5576 </r>
       <r>    14.6015     0.5499     8.6169 </r>
       <r>    14.7094     0.5557     8.6769 </r>
       <r>    14.8173     0.5743     8.7388 </r>
       <r>    14.9251     0.6011     8.8036 </r>
       <r>    15.0330     0.7863     8.8885 </r>
       <r>    15.1408     0.6428     8.9578 </r>
       <r>    15.2487     0.8546     9.0500 </r>
       <r>    15.3566     0.9560     9.1531 </r>
       <r>    15.4644     0.7822     9.2374 </r>
       <r>    15.5723     0.5056     9.2920 </r>
       <r>    15.6802     0.3572     9.3305 </r>
       <r>    15.7880     0.3235     9.3654 </r>
       <r>    15.8959     0.2481     9.3922 </r>
       <r>    16.0037     1.1550     9.5167 </r>
       <r>    16.1116     1.6991     9.7000 </r>
       <r>    16.2195     1.5326     9.8653 </r>
       <r>    16.3273     1.3392    10.0098 </r>
       <r>    16.4352     1.3929    10.1600 </r>
       <r>    16.5430     1.1555    10.2846 </r>
       <r>    16.6509     0.5445    10.3433 </r>
       <r>    16.7588     0.2316    10.3683 </r>
       <r>    16.8666     0.0603    10.3748 </r>
       <r>    16.9745     0.2025    10.3967 </r>
       <r>    17.0823     0.3600    10.4355 </r>
       <r>    17.1902     0.3838    10.4769 </r>
       <r>    17.2981     0.3962    10.5196 </r>
       <r>    17.4059     0.9137    10.6182 </r>
       <r>    17.5138     1.2874    10.7570 </r>
       <r>    17.6216     1.5796    10.9274 </r>
       <r>    17.7295     1.8987    11.1322 </r>
       <r>    17.8374     1.7565    11.3217 </r>
       <r>    17.9452     1.1575    11.4465 </r>
       <r>    18.0531     0.4703    11.4973 </r>
       <r>    18.1609     0.5497    11.5565 </r>
       <r>    18.2688     0.9660    11.6607 </r>
       <r>    18.3767     0.9408    11.7622 </r>
       <r>    18.4845     0.5035    11.8165 </r>
       <r>    18.5924     0.5235    11.8730 </r>
       <r>    18.7002     0.2678    11.9019 </r>
       <r>    18.8081     0.4294    11.9482 </r>
       <r>    18.9160     0.3969    11.9910 </r>
       <r>    19.0238     0.5147    12.0465 </r>
       <r>    19.1317     1.1680    12.1725 </r>
       <r>    19.2395     1.6482    12.3503 </r>
       <r>    19.3474     0.9999    12.4581 </r>
       <r>    19.4553     0.4224    12.5037 </r>
       <r>    19.5631     0.2068    12.5260 </r>
       <r>    19.6710     0.6756    12.5989 </r>
       <r>    19.7788     1.4574    12.7561 </r>
       <r>    19.8867     1.3472    12.9014 </r>
       <r>    19.9946     0.6520    12.9717 </r>
       <r>    20.1024     0.5801    13.0343 </r>
       <r>    20.2103     0.4227    13.0799 </r>
       <r>    20.3181     0.5215    13.1361 </r>
       <r>    20.4260     1.0800    13.2526 </r>
       <r>    20.5339     1.0241    13.3631 </r>
       <r>    20.6417     0.8204    13.4516 </r>
       <r>    20.7496     1.0281    13.5625 </r>
       <r>    20.8575     0.8956    13.6591 </r>
       <r>    20.9653     1.0016    13.7671 </r>
       <r>    21.0732     0.5841    13.8301 </r>
       <r>    21.1810     0.1867    13.8502 </r>
       <r>    21.2889     0.1873    13.8704 </r>
       <r>    21.3968     0.8450    13.9616 </r>
       <r>    21.5046     1.0290    14.0726 </r>
       <r>    21.6125     1.0266    14.1833 </r>
       <r>    21.7203     1.0013    14.2913 </r>
       <r>    21.8282     1.2408    14.4251 </r>
       <r>    21.9361     1.1017    14.5440 </r>
       <r>    22.0439     1.0048    14.6523 </r>
       <r>    22.1518     0.6934    14.7271 </r>
       <r>    22.2596     0.3377    14.7636 </r>
       <r>    22.3675     0.5606    14.8240 </r>
       <r>    22.4754     0.3849    14.8655 </r>
       <r>    22.5832     0.2182    14.8891 </r>
       <r>    22.6911     0.2985    14.9213 </r>
       <r>    22.7989     0.3965    14.9640 </r>
       <r>    22.9068     0.5811    15.0267 </r>
       <r>    23.0147     0.8118    15.1143 </r>
       <r>    23.1225     0.8686    15.2080 </r>
       <r>    23.2304     0.9014    15.3052 </r>
       <r>    23.3382     0.8186    15.3935 </r>
       <r>    23.4461     0.9451    15.4954 </r>
       <r>    23.5540     0.7164    15.5727 </r>
       <r>    23.6618     0.1773    15.5918 </r>
       <r>    23.7697     0.0089    15.5928 </r>
       <r>    23.8775     0.0513    15.5983 </r>
       <r>    23.9854     0.1854    15.6183 </r>
       <r>    24.0933     0.0977    15.6289 </r>
       <r>    24.2011     0.0071    15.6296 </r>
       <r>    24.3090     0.0008    15.6297 </r>
       <r>    24.4168     0.0377    15.6338 </r>
       <r>    24.5247     0.2879    15.6648 </r>
       <r>    24.6326     0.5184    15.7208 </r>
       <r>    24.7404     0.4274    15.7668 </r>
       <r>    24.8483     0.1248    15.7803 </r>
       <r>    24.9561     0.1632    15.7979 </r>
       <r>    25.0640     0.1518    15.8143 </r>
       <r>    25.1719     0.1429    15.8297 </r>
       <r>    25.2797     0.2337    15.8549 </r>
       <r>    25.3876     0.3267    15.8902 </r>
       <r>    25.4954     0.2780    15.9201 </r>
       <r>    25.6033     0.0521    15.9258 </r>
       <r>    25.7112     0.0016    15.9259 </r>
       <r>    25.8190     0.0000    15.9259 </r>
       <r>    25.9269     0.0000    15.9259 </r>
       <r>    26.0348     0.0000    15.9259 </r>
       <r>    26.1426     0.0002    15.9259 </r>
       <r>    26.2505     0.0141    15.9275 </r>
       <r>    26.3583     0.1356    15.9421 </r>
       <r>    26.4662     0.2607    15.9702 </r>
       <r>    26.5741     0.2184    15.9938 </r>
       <r>    26.6819     0.0556    15.9998 </r>
       <r>    26.7898     0.0021    16.0000 </r>
       <r>    26.8976     0.0000    16.0000 </r>
       <r>    27.0055     0.0000    16.0000 </r>
       <r>    27.1134     0.0000    16.0000 </r>
       <r>    27.2212     0.0000    16.0000 </r>
       <r>    27.3291     0.0000    16.0000 </r>
       <r>    27.4369     0.0000    16.0000 </r>
       <r>    27.5448     0.0000    16.0000 </r>
       <r>    27.6527     0.0000    16.0000 </r>
       <r>    27.7605     0.0000    16.0000 </r>
       <r>    27.8684     0.0000    16.0000 </r>
       <r>    27.9762     0.0000    16.0000 </r>
      </set>
     </set>
    </array>
   </total>
  </dos>
 </calculation>
 <structure name="finalpos" >
  <crystal>
   <varray name="basis" >
    <v>       2.53048708       0.00000000       0.00000000 </v>
    <v>      -1.26524354       2.19146609       0.00000000 </v>
    <v>       0.00000000       0.00000000       4.08109684 </v>
   </varray>
   <i name="volume">     22.63162713 </i>
   <varray name="rec_basis" >
    <v>       0.39518084       0.22815776       0.00000000 </v>
    <v>       0.00000000       0.45631552       0.00000000 </v>
    <v>       0.00000000       0.00000000       0.24503217 </v>
   </varray>
  </crystal>
  <varray name="positions" >
   <v>      -0.00000000       0.00000000       0.00000000 </v>
   <v>       0.33333333       0.66666667       0.50000000 </v>
  </varray>
 </structure>
</modeling>
