Si beta-tin                             
           1
     2.520000    0.000000    0.000000
    -1.260000    2.182384    0.000000
     0.000000    0.000000    4.115135
    S
   2
Direct configuration=     1
   0.00000000  0.00000000  0.00000000
   0.33333333  0.66666667  0.50000000
Direct configuration=     2
  -0.00000000  0.00000000  0.00000000
   0.33333333  0.66666667  0.50000000
