Fe BCC                                  
   2.85000000000000     
    -0.500000    0.500000    0.500000
     0.500000   -0.500000    0.500000
     0.500000    0.500000   -0.500000
   Fe
     1
Direct
  0.000000  0.000000  0.000000
 
   28   28   28
  98.127      95.130      86.720      74.419      60.170      45.810      32.764      21.977      13.949      8.7403    
  5.9554      4.7923      4.2733      3.9539      3.8459      3.9539      4.2733      4.7923      5.9554      8.7403    
  13.949      21.977      32.764      45.810      60.170      74.419      86.720      95.130      95.130      94.142    
  87.574      76.648      63.184      49.057      35.809      24.520      15.820      9.9050      6.5262      5.0046    
  4.3880      4.0092      3.8331      3.8686      4.1143      4.5544      5.3626      7.4071      11.578      18.421    
  28.034      40.074      53.764      67.865      80.695      90.344      86.720      87.574      83.092      74.129    
  62.245      49.213      36.597      25.552      16.795      10.629      6.9310      5.1556      4.4438      4.0260    
  3.7948      3.7623      3.9293      4.2899      4.8545      6.1764      9.1681      14.504      22.452      32.845    
  45.092      58.168      70.618      80.695      74.419      76.648      74.129      67.355      57.551      46.271    
  34.996      24.875      16.667      10.734      7.0509      5.1971      4.4333      3.9991      3.7314      3.6435    
  3.7363      4.0097      4.4515      5.2276      7.1100      10.853      16.888      25.234      35.497      46.876    
  58.168      67.865      60.170      63.184      62.245      57.551      49.982      40.814      31.348      22.658    
  15.479      10.197      6.8431      5.1015      4.3568      3.9277      3.6444      3.5189      3.5501      3.7397    
  4.0886      4.5927      5.6243      7.9278      12.057      18.218      26.224      35.497      45.092      53.764    
  45.810      49.057      49.213      46.271      40.814      33.815      26.353      19.361      13.506      9.1519    
  6.3568      4.8805      4.2217      3.8165      3.5374      3.3933      3.3806      3.4992      3.7556      4.1501    
  4.7160      5.9311      8.4029      12.492      18.218      25.234      32.845      40.074      32.764      35.809    
  36.597      34.996      31.348      26.353      20.846      15.592      11.151      7.8382      5.7109      4.5807    
  4.0429      3.6748      3.4159      3.2707      3.2325      3.2983      3.4745      3.7711      4.1871      4.7914    
  6.0465      8.4029      12.057      16.888      22.452      28.034      21.977      24.520      25.552      24.875    
  22.658      19.361      15.592      11.932      8.8248      6.5154      5.0462      4.2617      3.8374      3.5150    
  3.2876      3.1546      3.1070      3.1389      3.2540      3.4638      3.7798      4.1992      4.7914      5.9311    
  7.9278      10.853      14.504      18.421      13.949      15.820      16.795      16.667      15.479      13.506    
  11.151      8.8248      6.8457      5.3897      4.4748      3.9663      3.6226      3.3508      3.1608      3.0483    
  3.0031      3.0174      3.0917      3.2349      3.4608      3.7798      4.1871      4.7160      5.6243      7.1100    
  9.1681      11.578      8.7403      9.9050      10.629      10.734      10.197      9.1519      7.8382      6.5154    
  5.3897      4.5688      4.0451      3.6992      3.4146      3.1945      3.0433      2.9549      2.9191      2.9277    
  2.9787      3.0774      3.2349      3.4638      3.7711      4.1501      4.5927      5.2276      6.1764      7.4071    
  5.9554      6.5262      6.9310      7.0509      6.8431      6.3568      5.7109      5.0462      4.4748      4.0451    
  3.7263      3.4528      3.2263      3.0559      2.9416      2.8772      2.8539      2.8644      2.9053      2.9787    
  3.0917      3.2540      3.4745      3.7556      4.0886      4.4515      4.8545      5.3626      4.7923      5.0046    
  5.1556      5.1971      5.1015      4.8805      4.5807      4.2617      3.9663      3.6992      3.4528      3.2391    
  3.0674      2.9416      2.8600      2.8175      2.8075      2.8243      2.8644      2.9277      3.0174      3.1389    
  3.2983      3.4992      3.7397      4.0097      4.2899      4.5544      4.2733      4.3880      4.4438      4.4333    
  4.3568      4.2217      4.0429      3.8374      3.6226      3.4146      3.2263      3.0674      2.9431      2.8548    
  2.8009      2.7778      2.7813      2.8075      2.8539      2.9191      3.0031      3.1070      3.2325      3.3806    
  3.5501      3.7363      3.9293      4.1143      3.9539      4.0092      4.0260      3.9991      3.9277      3.8165    
  3.6748      3.5150      3.3508      3.1945      3.0559      2.9416      2.8548      2.7964      2.7654      2.7598    
  2.7778      2.8175      2.8772      2.9549      3.0483      3.1546      3.2707      3.3933      3.5189      3.6435    
  3.7623      3.8686      3.8459      3.8331      3.7948      3.7314      3.6444      3.5374      3.4159      3.2876    
  3.1608      3.0433      2.9416      2.8600      2.8009      2.7654      2.7535      2.7654      2.8009      2.8600    
  2.9416      3.0433      3.1608      3.2876      3.4159      3.5374      3.6444      3.7314      3.7948      3.8331    
  3.9539      3.8686      3.7623      3.6435      3.5189      3.3933      3.2707      3.1546      3.0483      2.9549    
  2.8772      2.8175      2.7778      2.7598      2.7654      2.7964      2.8548      2.9416      3.0559      3.1945    
  3.3508      3.5150      3.6748      3.8165      3.9277      3.9991      4.0260      4.0092      4.2733      4.1143    
  3.9293      3.7363      3.5501      3.3806      3.2325      3.1070      3.0031      2.9191      2.8539      2.8075    
  2.7813      2.7778      2.8009      2.8548      2.9431      3.0674      3.2263      3.4146      3.6226      3.8374    
  4.0429      4.2217      4.3568      4.4333      4.4438      4.3880      4.7923      4.5544      4.2899      4.0097    
  3.7397      3.4992      3.2983      3.1389      3.0174      2.9277      2.8644      2.8243      2.8075      2.8175    
  2.8600      2.9416      3.0674      3.2391      3.4528      3.6992      3.9663      4.2617      4.5807      4.8805    
  5.1015      5.1971      5.1556      5.0046      5.9554      5.3626      4.8545      4.4515      4.0886      3.7556    
  3.4745      3.2540      3.0917      2.9787      2.9053      2.8644      2.8539      2.8772      2.9416      3.0559    
  3.2263      3.4528      3.7263      4.0451      4.4748      5.0462      5.7109      6.3568      6.8431      7.0509    
  6.9310      6.5262      8.7403      7.4071      6.1764      5.2276      4.5927      4.1501      3.7711      3.4638    
  3.2349      3.0774      2.9787      2.9277      2.9191      2.9549      3.0433      3.1945      3.4146      3.6992    
  4.0451      4.5688      5.3897      6.5154      7.8382      9.1519      10.197      10.734      10.629      9.9050    
  13.949      11.578      9.1681      7.1100      5.6243      4.7160      4.1871      3.7798      3.4608      3.2349    
  3.0917      3.0174      3.0031      3.0483      3.1608      3.3508      3.6226      3.9663      4.4748      5.3897    
  6.8457      8.8248      11.151      13.506      15.479      16.667      16.795      15.820      21.977      18.421    
  14.504      10.853      7.9278      5.9311      4.7914      4.1992      3.7798      3.4638      3.2540      3.1389    
  3.1070      3.1546      3.2876      3.5150      3.8374      4.2617      5.0462      6.5154      8.8248      11.932    
  15.592      19.361      22.658      24.875      25.552      24.520      32.764      28.034      22.452      16.888    
  12.057      8.4029      6.0465      4.7914      4.1871      3.7711      3.4745      3.2983      3.2325      3.2707    
  3.4159      3.6748      4.0429      4.5807      5.7109      7.8382      11.151      15.592      20.846      26.353    
  31.348      34.996      36.597      35.809      45.810      40.074      32.845      25.234      18.218      12.492    
  8.4029      5.9311      4.7160      4.1501      3.7556      3.4992      3.3806      3.3933      3.5374      3.8165    
  4.2217      4.8805      6.3568      9.1519      13.506      19.361      26.353      33.815      40.814      46.271    
  49.213      49.057      60.170      53.764      45.092      35.497      26.224      18.218      12.057      7.9278    
  5.6243      4.5927      4.0886      3.7397      3.5501      3.5189      3.6444      3.9277      4.3568      5.1015    
  6.8431      10.197      15.479      22.658      31.348      40.814      49.982      57.551      62.245      63.184    
  74.419      67.865      58.168      46.876      35.497      25.234      16.888      10.853      7.1100      5.2276    
  4.4515      4.0097      3.7363      3.6435      3.7314      3.9991      4.4333      5.1971      7.0509      10.734    
  16.667      24.875      34.996      46.271      57.551      67.355      74.129      76.648      86.720      80.695    
  70.618      58.168      45.092      32.845      22.452      14.504      9.1681      6.1764      4.8545      4.2899    
  3.9293      3.7623      3.7948      4.0260      4.4438      5.1556      6.9310      10.629      16.795      25.552    
  36.597      49.213      62.245      74.129      83.092      87.574      95.130      90.344      80.695      67.865    
  53.764      40.074      28.034      18.421      11.578      7.4071      5.3626      4.5544      4.1143      3.8686    
  3.8331      4.0092      4.3880      5.0046      6.5262      9.9050      15.820      24.520      35.809      49.057    
  63.184      76.648      87.574      94.142      95.130      94.142      87.574      76.648      63.184      49.057    
  35.809      24.520      15.820      9.9050      6.5262      5.0046      4.3880      4.0092      3.8331      3.8686    
  4.1143      4.5544      5.3626      7.4071      11.578      18.421      28.034      40.074      53.764      67.865    
  80.695      90.344      94.142      95.130      90.344      80.695      67.865      53.764      40.074      28.034    
  18.421      11.578      7.4071      5.3626      4.5544      4.1143      3.8686      3.8331      4.0092      4.3880    
  5.0046      6.5262      9.9050      15.820      24.520      35.809      49.057      63.184      76.648      87.574    
  87.574      90.344      87.574      79.797      68.419      55.240      41.972      29.952      20.068      12.779    
  8.1170      5.6735      4.6649      4.1781      3.8757      3.7739      3.8757      4.1781      4.6649      5.6735    
  8.1170      12.779      20.068      29.952      41.972      55.240      68.419      79.797      76.648      80.695    
  79.797      74.129      64.746      53.213      41.151      29.906      20.423      13.235      8.4716      5.8499    
  4.7100      4.1908      3.8509      3.6952      3.7274      3.9475      4.3475      4.9875      6.5386      9.8371    
  15.433      23.472      33.680      45.371      57.443      68.419      63.184      67.865      68.419      64.746    
  57.551      48.091      37.795      27.929      19.425      12.843      8.3727      5.8285      4.6739      4.1484    
  3.7925      3.6007      3.5759      3.7181      4.0281      4.4935      5.3674      7.4134      11.282      17.289    
  25.355      35.004      45.371      55.240      49.057      53.764      55.240      53.213      48.091      40.814    
  32.559      24.438      17.307      11.706      7.8435      5.6019      4.5526      4.0534      3.7023      3.4942    
  3.4296      3.5066      3.7291      4.0983      4.6225      5.7188      8.0606      12.101      17.952      25.355    
  33.680      41.972      35.809      40.074      41.972      41.151      37.795      32.559      26.353      20.090    
  14.508      10.084      7.0157      5.2223      4.3629      3.9147      3.5857      3.3795      3.2935      3.3230    
  3.4707      3.7452      4.1469      4.7212      5.9305      8.2984      12.101      17.289      23.472      29.952    
  24.520      28.034      29.952      29.906      27.929      24.438      20.090      15.592      11.534      8.3080    
  6.0772      4.7779      4.1355      3.7457      3.4514      3.2616      3.1706      3.1708      3.2622      3.4539    
  3.7572      4.1709      4.7589      5.9305      8.0606      11.282      15.433      20.068      15.820      18.421    
  20.068      20.423      19.425      17.307      14.508      11.534      8.8248      6.6761      5.2063      4.3549    
  3.8971      3.5619      3.3098      3.1459      3.0621      3.0488      3.1032      3.2317      3.4474      3.7615    
  4.1709      4.7212      5.7188      7.4134      9.8371      12.779      9.9050      11.578      12.779      13.235    
  12.843      11.706      10.084      8.3080      6.6761      5.3897      4.5199      4.0027      3.6584      3.3783    
  3.1716      3.0382      2.9689      2.9537      2.9877      3.0738      3.2226      3.4474      3.7572      4.1469    
  4.6225      5.3674      6.5386      8.1170      6.5262      7.4071      8.1170      8.4716      8.3727      7.8435    
  7.0157      6.0772      5.2063      4.5199      4.0451      3.7125      3.4325      3.2080      3.0460      2.9434    
  2.8917      2.8816      2.9074      2.9693      3.0738      3.2317      3.4539      3.7452      4.0983      4.4935    
  4.9875      5.6735      5.0046      5.3626      5.6735      5.8499      5.8285      5.6019      5.2223      4.7779    
  4.3549      4.0027      3.7125      3.4528      3.2324      3.0606      2.9396      2.8657      2.8317      2.8302    
  2.8558      2.9074      2.9877      3.1032      3.2622      3.4707      3.7291      4.0281      4.3475      4.6649    
  4.3880      4.5544      4.6649      4.7100      4.6739      4.5526      4.3629      4.1355      3.8971      3.6584    
  3.4325      3.2324      3.0674      2.9421      2.8566      2.8076      2.7902      2.7990      2.8302      2.8816    
  2.9537      3.0488      3.1708      3.3230      3.5066      3.7181      3.9475      4.1781      4.0092      4.1143    
  4.1781      4.1908      4.1484      4.0534      3.9147      3.7457      3.5619      3.3783      3.2080      3.0606    
  2.9421      2.8548      2.7985      2.7709      2.7691      2.7902      2.8317      2.8917      2.9689      3.0621    
  3.1706      3.2935      3.4296      3.5759      3.7274      3.8757      3.8331      3.8686      3.8757      3.8509    
  3.7925      3.7023      3.5857      3.4514      3.3098      3.1716      3.0460      2.9396      2.8566      2.7985    
  2.7654      2.7565      2.7709      2.8076      2.8657      2.9434      3.0382      3.1459      3.2616      3.3795    
  3.4942      3.6007      3.6952      3.7739      3.8686      3.8331      3.7739      3.6952      3.6007      3.4942    
  3.3795      3.2616      3.1459      3.0382      2.9434      2.8657      2.8076      2.7709      2.7565      2.7654    
  2.7985      2.8566      2.9396      3.0460      3.1716      3.3098      3.4514      3.5857      3.7023      3.7925    
  3.8509      3.8757      4.1143      4.0092      3.8757      3.7274      3.5759      3.4296      3.2935      3.1706    
  3.0621      2.9689      2.8917      2.8317      2.7902      2.7691      2.7709      2.7985      2.8548      2.9421    
  3.0606      3.2080      3.3783      3.5619      3.7457      3.9147      4.0534      4.1484      4.1908      4.1781    
  4.5544      4.3880      4.1781      3.9475      3.7181      3.5066      3.3230      3.1708      3.0488      2.9537    
  2.8816      2.8302      2.7990      2.7902      2.8076      2.8566      2.9421      3.0674      3.2324      3.4325    
  3.6584      3.8971      4.1355      4.3629      4.5526      4.6739      4.7100      4.6649      5.3626      5.0046    
  4.6649      4.3475      4.0281      3.7291      3.4707      3.2622      3.1032      2.9877      2.9074      2.8558    
  2.8302      2.8317      2.8657      2.9396      3.0606      3.2324      3.4528      3.7125      4.0027      4.3549    
  4.7779      5.2223      5.6019      5.8285      5.8499      5.6735      7.4071      6.5262      5.6735      4.9875    
  4.4935      4.0983      3.7452      3.4539      3.2317      3.0738      2.9693      2.9074      2.8816      2.8917    
  2.9434      3.0460      3.2080      3.4325      3.7125      4.0451      4.5199      5.2063      6.0772      7.0157    
  7.8435      8.3727      8.4716      8.1170      11.578      9.9050      8.1170      6.5386      5.3674      4.6225    
  4.1469      3.7572      3.4474      3.2226      3.0738      2.9877      2.9537      2.9689      3.0382      3.1716    
  3.3783      3.6584      4.0027      4.5199      5.3897      6.6761      8.3080      10.084      11.706      12.843    
  13.235      12.779      18.421      15.820      12.779      9.8371      7.4134      5.7188      4.7212      4.1709    
  3.7615      3.4474      3.2317      3.1032      3.0488      3.0621      3.1459      3.3098      3.5619      3.8971    
  4.3549      5.2063      6.6761      8.8248      11.534      14.508      17.307      19.425      20.423      20.068    
  28.034      24.520      20.068      15.433      11.282      8.0606      5.9305      4.7589      4.1709      3.7572    
  3.4539      3.2622      3.1708      3.1706      3.2616      3.4514      3.7457      4.1355      4.7779      6.0772    
  8.3080      11.534      15.592      20.090      24.438      27.929      29.906      29.952      40.074      35.809    
  29.952      23.472      17.289      12.101      8.2984      5.9305      4.7212      4.1469      3.7452      3.4707    
  3.3230      3.2935      3.3795      3.5857      3.9147      4.3629      5.2223      7.0157      10.084      14.508    
  20.090      26.353      32.559      37.795      41.151      41.972      53.764      49.057      41.972      33.680    
  25.355      17.952      12.101      8.0606      5.7188      4.6225      4.0983      3.7291      3.5066      3.4296    
  3.4942      3.7023      4.0534      4.5526      5.6019      7.8435      11.706      17.307      24.438      32.559    
  40.814      48.091      53.213      55.240      67.865      63.184      55.240      45.371      35.004      25.355    
  17.289      11.282      7.4134      5.3674      4.4935      4.0281      3.7181      3.5759      3.6007      3.7925    
  4.1484      4.6739      5.8285      8.3727      12.843      19.425      27.929      37.795      48.091      57.551    
  64.746      68.419      80.695      76.648      68.419      57.443      45.371      33.680      23.472      15.433    
  9.8371      6.5386      4.9875      4.3475      3.9475      3.7274      3.6952      3.8509      4.1908      4.7100    
  5.8499      8.4716      13.235      20.423      29.906      41.151      53.213      64.746      74.129      79.797    
  90.344      87.574      79.797      68.419      55.240      41.972      29.952      20.068      12.779      8.1170    
  5.6735      4.6649      4.1781      3.8757      3.7739      3.8757      4.1781      4.6649      5.6735      8.1170    
  12.779      20.068      29.952      41.972      55.240      68.419      79.797      87.574      86.720      87.574    
  83.092      74.129      62.245      49.213      36.597      25.552      16.795      10.629      6.9310      5.1556    
  4.4438      4.0260      3.7948      3.7623      3.9293      4.2899      4.8545      6.1764      9.1681      14.504    
  22.452      32.845      45.092      58.168      70.618      80.695      87.574      90.344      87.574      79.797    
  68.419      55.240      41.972      29.952      20.068      12.779      8.1170      5.6735      4.6649      4.1781    
  3.8757      3.7739      3.8757      4.1781      4.6649      5.6735      8.1170      12.779      20.068      29.952    
  41.972      55.240      68.419      79.797      83.092      87.574      86.720      80.695      70.618      58.168    
  45.092      32.845      22.452      14.504      9.1681      6.1764      4.8545      4.2899      3.9293      3.7623    
  3.7948      4.0260      4.4438      5.1556      6.9310      10.629      16.795      25.552      36.597      49.213    
  62.245      74.129      74.129      79.797      80.695      76.648      68.419      57.443      45.371      33.680    
  23.472      15.433      9.8371      6.5386      4.9875      4.3475      3.9475      3.7274      3.6952      3.8509    
  4.1908      4.7100      5.8499      8.4716      13.235      20.423      29.906      41.151      53.213      64.746    
  62.245      68.419      70.618      68.419      62.245      53.213      42.768      32.305      22.928      15.364    
  9.9557      6.6528      5.0243      4.3427      3.9252      3.6694      3.5844      3.6694      3.9252      4.3427    
  5.0243      6.6528      9.9557      15.364      22.928      32.305      42.768      53.213      49.213      55.240    
  58.168      57.443      53.213      46.271      37.795      29.012      20.952      14.324      9.4948      6.4773    
  4.9410      4.2751      3.8611      3.5896      3.4685      3.4952      3.6710      3.9981      4.4670      5.3572    
  7.3611      11.020      16.554      23.819      32.305      41.151      36.597      41.972      45.092      45.371    
  42.768      37.795      31.348      24.438      17.958      12.553      8.5705      6.0528      4.7470      4.1519    
  3.7591      3.4908      3.3519      3.3370      3.4456      3.6840      4.0548      4.5692      5.6158      7.7741    
  11.405      16.554      22.928      29.906      25.552      29.952      32.845      33.680      32.305      29.012    
  24.438      19.361      14.508      10.421      7.3972      5.4842      4.4822      3.9857      3.6278      3.3782    
  3.2380      3.1991      3.2579      3.4205      3.6971      4.0890      4.6307      5.7134      7.7741      11.020    
  15.364      20.423      16.795      20.068      22.452      23.472      22.928      20.952      17.958      14.508    
  11.151      8.3080      6.2126      4.8968      4.1970      3.7926      3.4787      3.2588      3.1300      3.0823    
  3.1095      3.2147      3.4091      3.7044      4.1002      4.6307      5.6158      7.3611      9.9557      13.235    
  10.629      12.779      14.504      15.433      15.364      14.324      12.553      10.421      8.3080      6.5154    
  5.2063      4.3900      3.9259      3.5895      3.3247      3.1404      3.0310      2.9857      2.9967      3.0639    
  3.1958      3.4058      3.7044      4.0890      4.5692      5.3572      6.6528      8.4716      6.9310      8.1170    
  9.1681      9.8371      9.9557      9.4948      8.5705      7.3972      6.2126      5.2063      4.4748      4.0027    
  3.6701      3.3918      3.1776      3.0307      2.9442      2.9079      2.9138      2.9595      3.0500      3.1958    
  3.4091      3.6971      4.0548      4.4670      5.0243      5.8499      5.1556      5.6735      6.1764      6.5386    
  6.6528      6.4773      6.0528      5.4842      4.8968      4.3900      4.0027      3.6992      3.4325      3.2124    
  3.0469      2.9355      2.8721      2.8478      2.8557      2.8923      2.9595      3.0639      3.2147      3.4205    
  3.6840      3.9981      4.3427      4.7100      4.4438      4.6649      4.8545      4.9875      5.0243      4.9410    
  4.7470      4.4822      4.1970      3.9259      3.6701      3.4325      3.2263      3.0606      2.9388      2.8593    
  2.8169      2.8056      2.8196      2.8557      2.9138      2.9967      3.1095      3.2579      3.4456      3.6710    
  3.9252      4.1908      4.0260      4.1781      4.2899      4.3475      4.3427      4.2751      4.1519      3.9857    
  3.7926      3.5895      3.3918      3.2124      3.0606      2.9416      2.8566      2.8041      2.7806      2.7823    
  2.8056      2.8478      2.9079      2.9857      3.0823      3.1991      3.3370      3.4952      3.6694      3.8509    
  3.7948      3.8757      3.9293      3.9475      3.9252      3.8611      3.7591      3.6278      3.4787      3.3247    
  3.1776      3.0469      2.9388      2.8566      2.8009      2.7709      2.7647      2.7806      2.8169      2.8721    
  2.9442      3.0310      3.1300      3.2380      3.3519      3.4685      3.5844      3.6952      3.7623      3.7739    
  3.7623      3.7274      3.6694      3.5896      3.4908      3.3782      3.2588      3.1404      3.0307      2.9355    
  2.8593      2.8041      2.7709      2.7598      2.7709      2.8041      2.8593      2.9355      3.0307      3.1404    
  3.2588      3.3782      3.4908      3.5896      3.6694      3.7274      3.9293      3.8757      3.7948      3.6952    
  3.5844      3.4685      3.3519      3.2380      3.1300      3.0310      2.9442      2.8721      2.8169      2.7806    
  2.7647      2.7709      2.8009      2.8566      2.9388      3.0469      3.1776      3.3247      3.4787      3.6278    
  3.7591      3.8611      3.9252      3.9475      4.2899      4.1781      4.0260      3.8509      3.6694      3.4952    
  3.3370      3.1991      3.0823      2.9857      2.9079      2.8478      2.8056      2.7823      2.7806      2.8041    
  2.8566      2.9416      3.0606      3.2124      3.3918      3.5895      3.7926      3.9857      4.1519      4.2751    
  4.3427      4.3475      4.8545      4.6649      4.4438      4.1908      3.9252      3.6710      3.4456      3.2579    
  3.1095      2.9967      2.9138      2.8557      2.8196      2.8056      2.8169      2.8593      2.9388      3.0606    
  3.2263      3.4325      3.6701      3.9259      4.1970      4.4822      4.7470      4.9410      5.0243      4.9875    
  6.1764      5.6735      5.1556      4.7100      4.3427      3.9981      3.6840      3.4205      3.2147      3.0639    
  2.9595      2.8923      2.8557      2.8478      2.8721      2.9355      3.0469      3.2124      3.4325      3.6992    
  4.0027      4.3900      4.8968      5.4842      6.0528      6.4773      6.6528      6.5386      9.1681      8.1170    
  6.9310      5.8499      5.0243      4.4670      4.0548      3.6971      3.4091      3.1958      3.0500      2.9595    
  2.9138      2.9079      2.9442      3.0307      3.1776      3.3918      3.6701      4.0027      4.4748      5.2063    
  6.2126      7.3972      8.5705      9.4948      9.9557      9.8371      14.504      12.779      10.629      8.4716    
  6.6528      5.3572      4.5692      4.0890      3.7044      3.4058      3.1958      3.0639      2.9967      2.9857    
  3.0310      3.1404      3.3247      3.5895      3.9259      4.3900      5.2063      6.5154      8.3080      10.421    
  12.553      14.324      15.364      15.433      22.452      20.068      16.795      13.235      9.9557      7.3611    
  5.6158      4.6307      4.1002      3.7044      3.4091      3.2147      3.1095      3.0823      3.1300      3.2588    
  3.4787      3.7926      4.1970      4.8968      6.2126      8.3080      11.151      14.508      17.958      20.952    
  22.928      23.472      32.845      29.952      25.552      20.423      15.364      11.020      7.7741      5.7134    
  4.6307      4.0890      3.6971      3.4205      3.2579      3.1991      3.2380      3.3782      3.6278      3.9857    
  4.4822      5.4842      7.3972      10.421      14.508      19.361      24.438      29.012      32.305      33.680    
  45.092      41.972      36.597      29.906      22.928      16.554      11.405      7.7741      5.6158      4.5692    
  4.0548      3.6840      3.4456      3.3370      3.3519      3.4908      3.7591      4.1519      4.7470      6.0528    
  8.5705      12.553      17.958      24.438      31.348      37.795      42.768      45.371      58.168      55.240    
  49.213      41.151      32.305      23.819      16.554      11.020      7.3611      5.3572      4.4670      3.9981    
  3.6710      3.4952      3.4685      3.5896      3.8611      4.2751      4.9410      6.4773      9.4948      14.324    
  20.952      29.012      37.795      46.271      53.213      57.443      70.618      68.419      62.245      53.213    
  42.768      32.305      22.928      15.364      9.9557      6.6528      5.0243      4.3427      3.9252      3.6694    
  3.5844      3.6694      3.9252      4.3427      5.0243      6.6528      9.9557      15.364      22.928      32.305    
  42.768      53.213      62.245      68.419      80.695      79.797      74.129      64.746      53.213      41.151    
  29.906      20.423      13.235      8.4716      5.8499      4.7100      4.1908      3.8509      3.6952      3.7274    
  3.9475      4.3475      4.9875      6.5386      9.8371      15.433      23.472      33.680      45.371      57.443    
  68.419      76.648      74.419      76.648      74.129      67.355      57.551      46.271      34.996      24.875    
  16.667      10.734      7.0509      5.1971      4.4333      3.9991      3.7314      3.6435      3.7363      4.0097    
  4.4515      5.2276      7.1100      10.853      16.888      25.234      35.497      46.876      58.168      67.865    
  76.648      80.695      79.797      74.129      64.746      53.213      41.151      29.906      20.423      13.235    
  8.4716      5.8499      4.7100      4.1908      3.8509      3.6952      3.7274      3.9475      4.3475      4.9875    
  6.5386      9.8371      15.433      23.472      33.680      45.371      57.443      68.419      74.129      79.797    
  80.695      76.648      68.419      57.443      45.371      33.680      23.472      15.433      9.8371      6.5386    
  4.9875      4.3475      3.9475      3.7274      3.6952      3.8509      4.1908      4.7100      5.8499      8.4716    
  13.235      20.423      29.906      41.151      53.213      64.746      67.355      74.129      76.648      74.419    
  67.865      58.168      46.876      35.497      25.234      16.888      10.853      7.1100      5.2276      4.4515    