Fe BCC                                  
   2.85000000000000     
    -0.500000    0.500000    0.500000
     0.500000   -0.500000    0.500000
     0.500000    0.500000   -0.500000
   Fe
     1
Direct
  0.000000  0.000000  0.000000
 
   28   28   28
 0.98126649286E+02 0.95130000605E+02 0.86720182817E+02 0.74419137089E+02 0.60170139192E+02
 0.45810329453E+02 0.32764247252E+02 0.21977076812E+02 0.13948644564E+02 0.87403390247E+01
 0.59553896872E+01 0.47923242832E+01 0.42732712370E+01 0.39539155339E+01 0.38459284796E+01
 0.39539155339E+01 0.42732712370E+01 0.47923242832E+01 0.59553896872E+01 0.87403390247E+01
 0.13948644564E+02 0.21977076812E+02 0.32764247252E+02 0.45810329453E+02 0.60170139192E+02
 0.74419137089E+02 0.86720182817E+02 0.95130000605E+02 0.95130000605E+02 0.94142338413E+02
 0.87573553218E+02 0.76647595336E+02 0.63184126656E+02 0.49056605025E+02 0.35808971113E+02
 0.24520410697E+02 0.15819680146E+02 0.99050384860E+01 0.65262320207E+01 0.50046287400E+01
 0.43879592240E+01 0.40091692369E+01 0.38331433232E+01 0.38685638283E+01 0.41143043811E+01
 0.45544453128E+01 0.53625986936E+01 0.74071293272E+01 0.11577989605E+02 0.18420747304E+02
 0.28034052154E+02 0.40074184691E+02 0.53764343207E+02 0.67865497830E+02 0.80695411560E+02
 0.90343857179E+02 0.86720182817E+02 0.87573553218E+02 0.83092235042E+02 0.74129379405E+02
 0.62245397963E+02 0.49213077804E+02 0.36597096776E+02 0.25551645442E+02 0.16794931810E+02
 0.10629100711E+02 0.69310103633E+01 0.51556149006E+01 0.44438327855E+01 0.40260203965E+01
 0.37948255901E+01 0.37623081785E+01 0.39292617404E+01 0.42899336299E+01 0.48545325429E+01
 0.61764048499E+01 0.91681458271E+01 0.14503644493E+02 0.22451979667E+02 0.32845152036E+02
 0.45091761327E+02 0.58167538407E+02 0.70617716501E+02 0.80695411560E+02 0.74419137089E+02
 0.76647595336E+02 0.74129379405E+02 0.67355257592E+02 0.57550504376E+02 0.46271326478E+02
 0.34995559556E+02 0.24875477124E+02 0.16666585201E+02 0.10734044881E+02 0.70509448978E+01
 0.51970763157E+01 0.44333041606E+01 0.39991140336E+01 0.37313984441E+01 0.36435159873E+01
 0.37362532643E+01 0.40097146878E+01 0.44514818105E+01 0.52276042976E+01 0.71099788522E+01
 0.10853349238E+02 0.16887900347E+02 0.25233967497E+02 0.35497337386E+02 0.46875601325E+02
 0.58167538407E+02 0.67865497830E+02 0.60170139192E+02 0.63184126656E+02 0.62245397963E+02
 0.57550504376E+02 0.49982412336E+02 0.40813831604E+02 0.31347820162E+02 0.22657750608E+02
 0.15479348550E+02 0.10196699548E+02 0.68430806616E+01 0.51014811173E+01 0.43568002128E+01
 0.39277323554E+01 0.36444249832E+01 0.35188503095E+01 0.35500884236E+01 0.37397397754E+01
 0.40886400208E+01 0.45927033741E+01 0.56242869490E+01 0.79278460807E+01 0.12057132867E+02
 0.18218053044E+02 0.26223821124E+02 0.35497337386E+02 0.45091761327E+02 0.53764343207E+02
 0.45810329453E+02 0.49056605025E+02 0.49213077804E+02 0.46271326478E+02 0.40813831604E+02
 0.33815243780E+02 0.26352568223E+02 0.19361003564E+02 0.13506409942E+02 0.91519048321E+01
 0.63567626055E+01 0.48804585341E+01 0.42216879440E+01 0.38164868317E+01 0.35373738617E+01
 0.33932961818E+01 0.33805693045E+01 0.34992200652E+01 0.37555914506E+01 0.41500806536E+01
 0.47160452015E+01 0.59311137181E+01 0.84029380304E+01 0.12492164493E+02 0.18218053044E+02
 0.25233967497E+02 0.32845152036E+02 0.40074184691E+02 0.32764247252E+02 0.35808971113E+02
 0.36597096776E+02 0.34995559556E+02 0.31347820162E+02 0.26352568223E+02 0.20845925505E+02
 0.15591612139E+02 0.11151374201E+02 0.78382155247E+01 0.57109369904E+01 0.45807420888E+01
 0.40428623916E+01 0.36747517446E+01 0.34159329676E+01 0.32707473804E+01 0.32325134163E+01
 0.32983234743E+01 0.34744584903E+01 0.37710599435E+01 0.41870708520E+01 0.47914402715E+01
 0.60464876880E+01 0.84029380304E+01 0.12057132867E+02 0.16887900347E+02 0.22451979667E+02
 0.28034052154E+02 0.21977076812E+02 0.24520410697E+02 0.25551645442E+02 0.24875477124E+02
 0.22657750608E+02 0.19361003564E+02 0.15591612139E+02 0.11932483812E+02 0.88248052655E+01
 0.65153747563E+01 0.50462278887E+01 0.42616540220E+01 0.38373926126E+01 0.35150333910E+01
 0.32876198261E+01 0.31546449111E+01 0.31070032836E+01 0.31389416449E+01 0.32539850664E+01
 0.34637788030E+01 0.37797619300E+01 0.41991598122E+01 0.47914402715E+01 0.59311137181E+01
 0.79278460807E+01 0.10853349238E+02 0.14503644493E+02 0.18420747304E+02 0.13948644564E+02
 0.15819680146E+02 0.16794931810E+02 0.16666585201E+02 0.15479348550E+02 0.13506409942E+02
 0.11151374201E+02 0.88248052655E+01 0.68457002312E+01 0.53897256238E+01 0.44747684340E+01
 0.39662700873E+01 0.36226225473E+01 0.33508124347E+01 0.31607734132E+01 0.30483041605E+01
 0.30030526805E+01 0.30174040529E+01 0.30916753814E+01 0.32348746232E+01 0.34608326279E+01
 0.37797619300E+01 0.41870708520E+01 0.47160452015E+01 0.56242869490E+01 0.71099788522E+01
 0.91681458271E+01 0.11577989605E+02 0.87403390247E+01 0.99050384860E+01 0.10629100711E+02
 0.10734044881E+02 0.10196699548E+02 0.91519048321E+01 0.78382155247E+01 0.65153747563E+01
 0.53897256238E+01 0.45688485180E+01 0.40450545789E+01 0.36991870404E+01 0.34145567536E+01
 0.31944863249E+01 0.30432928348E+01 0.29548809309E+01 0.29190741962E+01 0.29277310146E+01
 0.29787496706E+01 0.30774050223E+01 0.32348746232E+01 0.34637788030E+01 0.37710599435E+01
 0.41500806536E+01 0.45927033741E+01 0.52276042976E+01 0.61764048499E+01 0.74071293272E+01
 0.59553896872E+01 0.65262320207E+01 0.69310103633E+01 0.70509448978E+01 0.68430806616E+01
 0.63567626055E+01 0.57109369904E+01 0.50462278887E+01 0.44747684340E+01 0.40450545789E+01
 0.37263262508E+01 0.34527707623E+01 0.32263416372E+01 0.30558842368E+01 0.29415763105E+01
 0.28771737713E+01 0.28539229679E+01 0.28644148493E+01 0.29053400857E+01 0.29787496706E+01
 0.30916753814E+01 0.32539850664E+01 0.34744584903E+01 0.37555914506E+01 0.40886400208E+01
 0.44514818105E+01 0.48545325429E+01 0.53625986936E+01 0.47923242832E+01 0.50046287400E+01
 0.51556149006E+01 0.51970763157E+01 0.51014811173E+01 0.48804585341E+01 0.45807420888E+01
 0.42616540220E+01 0.39662700873E+01 0.36991870404E+01 0.34527707623E+01 0.32390741357E+01
 0.30674150694E+01 0.29415618565E+01 0.28599879030E+01 0.28175042985E+01 0.28075400993E+01
 0.28243078501E+01 0.28644148493E+01 0.29277310146E+01 0.30174040529E+01 0.31389416449E+01
 0.32983234743E+01 0.34992200652E+01 0.37397397754E+01 0.40097146878E+01 0.42899336299E+01
 0.45544453128E+01 0.42732712370E+01 0.43879592240E+01 0.44438327855E+01 0.44333041606E+01
 0.43568002128E+01 0.42216879440E+01 0.40428623916E+01 0.38373926126E+01 0.36226225473E+01
 0.34145567536E+01 0.32263416372E+01 0.30674150694E+01 0.29431113533E+01 0.28548466313E+01
 0.28009311080E+01 0.27777955772E+01 0.27812584951E+01 0.28075400993E+01 0.28539229679E+01
 0.29190741962E+01 0.30030526805E+01 0.31070032836E+01 0.32325134163E+01 0.33805693045E+01
 0.35500884236E+01 0.37362532643E+01 0.39292617404E+01 0.41143043811E+01 0.39539155339E+01
 0.40091692369E+01 0.40260203965E+01 0.39991140336E+01 0.39277323554E+01 0.38164868317E+01
 0.36747517446E+01 0.35150333910E+01 0.33508124347E+01 0.31944863249E+01 0.30558842368E+01
 0.29415618565E+01 0.28548466313E+01 0.27964494127E+01 0.27653712952E+01 0.27598067808E+01
 0.27777955772E+01 0.28175042985E+01 0.28771737713E+01 0.29548809309E+01 0.30483041605E+01
 0.31546449111E+01 0.32707473804E+01 0.33932961818E+01 0.35188503095E+01 0.36435159873E+01
 0.37623081785E+01 0.38685638283E+01 0.38459284796E+01 0.38331433232E+01 0.37948255901E+01
 0.37313984441E+01 0.36444249832E+01 0.35373738617E+01 0.34159329676E+01 0.32876198261E+01
 0.31607734132E+01 0.30432928348E+01 0.29415763105E+01 0.28599879030E+01 0.28009311080E+01
 0.27653712952E+01 0.27535177514E+01 0.27653712952E+01 0.28009311080E+01 0.28599879030E+01
 0.29415763105E+01 0.30432928348E+01 0.31607734132E+01 0.32876198261E+01 0.34159329676E+01
 0.35373738617E+01 0.36444249832E+01 0.37313984441E+01 0.37948255901E+01 0.38331433232E+01
 0.39539155339E+01 0.38685638283E+01 0.37623081785E+01 0.36435159873E+01 0.35188503095E+01
 0.33932961818E+01 0.32707473804E+01 0.31546449111E+01 0.30483041605E+01 0.29548809309E+01
 0.28771737713E+01 0.28175042985E+01 0.27777955772E+01 0.27598067808E+01 0.27653712952E+01
 0.27964494127E+01 0.28548466313E+01 0.29415618565E+01 0.30558842368E+01 0.31944863249E+01
 0.33508124347E+01 0.35150333910E+01 0.36747517446E+01 0.38164868317E+01 0.39277323554E+01
 0.39991140336E+01 0.40260203965E+01 0.40091692369E+01 0.42732712370E+01 0.41143043811E+01
 0.39292617404E+01 0.37362532643E+01 0.35500884236E+01 0.33805693045E+01 0.32325134163E+01
 0.31070032836E+01 0.30030526805E+01 0.29190741962E+01 0.28539229679E+01 0.28075400993E+01
 0.27812584951E+01 0.27777955772E+01 0.28009311080E+01 0.28548466313E+01 0.29431113533E+01
 0.30674150694E+01 0.32263416372E+01 0.34145567536E+01 0.36226225473E+01 0.38373926126E+01
 0.40428623916E+01 0.42216879440E+01 0.43568002128E+01 0.44333041606E+01 0.44438327855E+01
 0.43879592240E+01 0.47923242832E+01 0.45544453128E+01 0.42899336299E+01 0.40097146878E+01
 0.37397397754E+01 0.34992200652E+01 0.32983234743E+01 0.31389416449E+01 0.30174040529E+01
 0.29277310146E+01 0.28644148493E+01 0.28243078501E+01 0.28075400993E+01 0.28175042985E+01
 0.28599879030E+01 0.29415618565E+01 0.30674150694E+01 0.32390741357E+01 0.34527707623E+01
 0.36991870404E+01 0.39662700873E+01 0.42616540220E+01 0.45807420888E+01 0.48804585341E+01
 0.51014811173E+01 0.51970763157E+01 0.51556149006E+01 0.50046287400E+01 0.59553896872E+01
 0.53625986936E+01 0.48545325429E+01 0.44514818105E+01 0.40886400208E+01 0.37555914506E+01
 0.34744584903E+01 0.32539850664E+01 0.30916753814E+01 0.29787496706E+01 0.29053400857E+01
 0.28644148493E+01 0.28539229679E+01 0.28771737713E+01 0.29415763105E+01 0.30558842368E+01
 0.32263416372E+01 0.34527707623E+01 0.37263262508E+01 0.40450545789E+01 0.44747684340E+01
 0.50462278887E+01 0.57109369904E+01 0.63567626055E+01 0.68430806616E+01 0.70509448978E+01
 0.69310103633E+01 0.65262320207E+01 0.87403390247E+01 0.74071293272E+01 0.61764048499E+01
 0.52276042976E+01 0.45927033741E+01 0.41500806536E+01 0.37710599435E+01 0.34637788030E+01
 0.32348746232E+01 0.30774050223E+01 0.29787496706E+01 0.29277310146E+01 0.29190741962E+01
 0.29548809309E+01 0.30432928348E+01 0.31944863249E+01 0.34145567536E+01 0.36991870404E+01
 0.40450545789E+01 0.45688485180E+01 0.53897256238E+01 0.65153747563E+01 0.78382155247E+01
 0.91519048321E+01 0.10196699548E+02 0.10734044881E+02 0.10629100711E+02 0.99050384860E+01
 0.13948644564E+02 0.11577989605E+02 0.91681458271E+01 0.71099788522E+01 0.56242869490E+01
 0.47160452015E+01 0.41870708520E+01 0.37797619300E+01 0.34608326279E+01 0.32348746232E+01
 0.30916753814E+01 0.30174040529E+01 0.30030526805E+01 0.30483041605E+01 0.31607734132E+01
 0.33508124347E+01 0.36226225473E+01 0.39662700873E+01 0.44747684340E+01 0.53897256238E+01
 0.68457002312E+01 0.88248052655E+01 0.11151374201E+02 0.13506409942E+02 0.15479348550E+02
 0.16666585201E+02 0.16794931810E+02 0.15819680146E+02 0.21977076812E+02 0.18420747304E+02
 0.14503644493E+02 0.10853349238E+02 0.79278460807E+01 0.59311137181E+01 0.47914402715E+01
 0.41991598122E+01 0.37797619300E+01 0.34637788030E+01 0.32539850664E+01 0.31389416449E+01
 0.31070032836E+01 0.31546449111E+01 0.32876198261E+01 0.35150333910E+01 0.38373926126E+01
 0.42616540220E+01 0.50462278887E+01 0.65153747563E+01 0.88248052655E+01 0.11932483812E+02
 0.15591612139E+02 0.19361003564E+02 0.22657750608E+02 0.24875477124E+02 0.25551645442E+02
 0.24520410697E+02 0.32764247252E+02 0.28034052154E+02 0.22451979667E+02 0.16887900347E+02
 0.12057132867E+02 0.84029380304E+01 0.60464876880E+01 0.47914402715E+01 0.41870708520E+01
 0.37710599435E+01 0.34744584903E+01 0.32983234743E+01 0.32325134163E+01 0.32707473804E+01
 0.34159329676E+01 0.36747517446E+01 0.40428623916E+01 0.45807420888E+01 0.57109369904E+01
 0.78382155247E+01 0.11151374201E+02 0.15591612139E+02 0.20845925505E+02 0.26352568223E+02
 0.31347820162E+02 0.34995559556E+02 0.36597096776E+02 0.35808971113E+02 0.45810329453E+02
 0.40074184691E+02 0.32845152036E+02 0.25233967497E+02 0.18218053044E+02 0.12492164493E+02
 0.84029380304E+01 0.59311137181E+01 0.47160452015E+01 0.41500806536E+01 0.37555914506E+01
 0.34992200652E+01 0.33805693045E+01 0.33932961818E+01 0.35373738617E+01 0.38164868317E+01
 0.42216879440E+01 0.48804585341E+01 0.63567626055E+01 0.91519048321E+01 0.13506409942E+02
 0.19361003564E+02 0.26352568223E+02 0.33815243780E+02 0.40813831604E+02 0.46271326478E+02
 0.49213077804E+02 0.49056605025E+02 0.60170139192E+02 0.53764343207E+02 0.45091761327E+02
 0.35497337386E+02 0.26223821124E+02 0.18218053044E+02 0.12057132867E+02 0.79278460807E+01
 0.56242869490E+01 0.45927033741E+01 0.40886400208E+01 0.37397397754E+01 0.35500884236E+01
 0.35188503095E+01 0.36444249832E+01 0.39277323554E+01 0.43568002128E+01 0.51014811173E+01
 0.68430806616E+01 0.10196699548E+02 0.15479348550E+02 0.22657750608E+02 0.31347820162E+02
 0.40813831604E+02 0.49982412336E+02 0.57550504376E+02 0.62245397963E+02 0.63184126656E+02
 0.74419137089E+02 0.67865497830E+02 0.58167538407E+02 0.46875601325E+02 0.35497337386E+02
 0.25233967497E+02 0.16887900347E+02 0.10853349238E+02 0.71099788522E+01 0.52276042976E+01
 0.44514818105E+01 0.40097146878E+01 0.37362532643E+01 0.36435159873E+01 0.37313984441E+01
 0.39991140336E+01 0.44333041606E+01 0.51970763157E+01 0.70509448978E+01 0.10734044881E+02
 0.16666585201E+02 0.24875477124E+02 0.34995559556E+02 0.46271326478E+02 0.57550504376E+02
 0.67355257592E+02 0.74129379405E+02 0.76647595336E+02 0.86720182817E+02 0.80695411560E+02
 0.70617716501E+02 0.58167538407E+02 0.45091761327E+02 0.32845152036E+02 0.22451979667E+02
 0.14503644493E+02 0.91681458271E+01 0.61764048499E+01 0.48545325429E+01 0.42899336299E+01
 0.39292617404E+01 0.37623081785E+01 0.37948255901E+01 0.40260203965E+01 0.44438327855E+01
 0.51556149006E+01 0.69310103633E+01 0.10629100711E+02 0.16794931810E+02 0.25551645442E+02
 0.36597096776E+02 0.49213077804E+02 0.62245397963E+02 0.74129379405E+02 0.83092235042E+02
 0.87573553218E+02 0.95130000605E+02 0.90343857179E+02 0.80695411560E+02 0.67865497830E+02
 0.53764343207E+02 0.40074184691E+02 0.28034052154E+02 0.18420747304E+02 0.11577989605E+02
 0.74071293272E+01 0.53625986936E+01 0.45544453128E+01 0.41143043811E+01 0.38685638283E+01
 0.38331433232E+01 0.40091692369E+01 0.43879592240E+01 0.50046287400E+01 0.65262320207E+01
 0.99050384860E+01 0.15819680146E+02 0.24520410697E+02 0.35808971113E+02 0.49056605025E+02
 0.63184126656E+02 0.76647595336E+02 0.87573553218E+02 0.94142338413E+02 0.95130000605E+02
 0.94142338413E+02 0.87573553218E+02 0.76647595336E+02 0.63184126656E+02 0.49056605025E+02
 0.35808971113E+02 0.24520410697E+02 0.15819680146E+02 0.99050384860E+01 0.65262320207E+01
 0.50046287400E+01 0.43879592240E+01 0.40091692369E+01 0.38331433232E+01 0.38685638283E+01
 0.41143043811E+01 0.45544453128E+01 0.53625986936E+01 0.74071293272E+01 0.11577989605E+02
 0.18420747304E+02 0.28034052154E+02 0.40074184691E+02 0.53764343207E+02 0.67865497830E+02
 0.80695411560E+02 0.90343857179E+02 0.94142338413E+02 0.95129999857E+02 0.90343855761E+02
 0.80695409617E+02 0.67865495551E+02 0.53764340807E+02 0.40074182386E+02 0.28034050135E+02
 0.18420745707E+02 0.11577988491E+02 0.74071286778E+01 0.53625984173E+01 0.45544452727E+01
 0.41143044339E+01 0.38685638662E+01 0.38331433067E+01 0.40091692079E+01 0.43879592950E+01
 0.50046290611E+01 0.65262327333E+01 0.99050396774E+01 0.15819681817E+02 0.24520412749E+02
 0.35808973362E+02 0.49056607236E+02 0.63184128580E+02 0.76647596753E+02 0.87573553967E+02
 0.87573553218E+02 0.90343855761E+02 0.87573552040E+02 0.79797063070E+02 0.68419011657E+02
 0.55239889905E+02 0.41972090671E+02 0.29952253599E+02 0.20068315607E+02 0.12779282845E+02
 0.81169539602E+01 0.56735090350E+01 0.46649167001E+01 0.41780913284E+01 0.38757071689E+01
 0.37739228298E+01 0.38757070796E+01 0.41780912793E+01 0.46649169114E+01 0.56735097517E+01
 0.81169553786E+01 0.12779285052E+02 0.20068318546E+02 0.29952257072E+02 0.41972094372E+02
 0.55239893468E+02 0.68419014715E+02 0.79797065303E+02 0.76647595336E+02 0.80695409617E+02
 0.79797063070E+02 0.74129378307E+02 0.64746249097E+02 0.53213024963E+02 0.41150667641E+02
 0.29906138709E+02 0.20422899329E+02 0.13234679788E+02 0.84716045358E+01 0.58499353477E+01
 0.47100160988E+01 0.41908065925E+01 0.38508813818E+01 0.36951867689E+01 0.37274203193E+01
 0.39475450516E+01 0.43474692548E+01 0.49874951342E+01 0.65386033730E+01 0.98370616030E+01
 0.15433087717E+02 0.23472181773E+02 0.33679938976E+02 0.45370952203E+02 0.57443052486E+02
 0.68419013985E+02 0.63184126656E+02 0.67865495551E+02 0.68419011657E+02 0.64746249097E+02
 0.57550503844E+02 0.48090653895E+02 0.37794927446E+02 0.27928985878E+02 0.19425001275E+02
 0.12843001165E+02 0.83727029927E+01 0.58285258418E+01 0.46738939965E+01 0.41483551076E+01
 0.37925190505E+01 0.36007244485E+01 0.35759029034E+01 0.37180930714E+01 0.40281186549E+01
 0.44935113586E+01 0.53674328685E+01 0.74133702075E+01 0.11281641477E+02 0.17288529578E+02
 0.25354676956E+02 0.35003688273E+02 0.45370951557E+02 0.55239892132E+02 0.49056605025E+02
 0.53764340807E+02 0.55239889905E+02 0.53213024963E+02 0.48090653895E+02 0.40813831870E+02
 0.32559063712E+02 0.24437609034E+02 0.17307220337E+02 0.11705798226E+02 0.78434912785E+01
 0.56018933155E+01 0.45526117593E+01 0.40533554052E+01 0.37023296991E+01 0.34941517580E+01
 0.34295538257E+01 0.35065701349E+01 0.37290809943E+01 0.40983486612E+01 0.46224570653E+01
 0.57188129452E+01 0.80605798403E+01 0.12100768390E+02 0.17952399920E+02 0.25354676479E+02
 0.33679937877E+02 0.41972092641E+02 0.35808971113E+02 0.40074182386E+02 0.41972090671E+02
 0.41150667641E+02 0.37794927446E+02 0.32559063712E+02 0.26352569138E+02 0.20090028323E+02
 0.14508431331E+02 0.10084397593E+02 0.70157352055E+01 0.52223244409E+01 0.43629408391E+01
 0.39146809885E+01 0.35857445915E+01 0.33794927178E+01 0.32935355192E+01 0.33229724038E+01
 0.34706714457E+01 0.37452220372E+01 0.41469450054E+01 0.47211952755E+01 0.59304563866E+01
 0.82984215420E+01 0.12100768127E+02 0.17288528857E+02 0.23472180469E+02 0.29952255203E+02
 0.24520410697E+02 0.28034050135E+02 0.29952253599E+02 0.29906138709E+02 0.27928985878E+02
 0.24437609034E+02 0.20090028323E+02 0.15591613272E+02 0.11533982780E+02 0.83080024482E+01
 0.60772018441E+01 0.47779389833E+01 0.41355140241E+01 0.37457029017E+01 0.34514027239E+01
 0.32615668127E+01 0.31705881636E+01 0.31707849717E+01 0.32621633126E+01 0.34539111094E+01
 0.37572498086E+01 0.41708706833E+01 0.47589128834E+01 0.59304563115E+01 0.80605795219E+01
 0.11281640740E+02 0.15433086455E+02 0.20068316791E+02 0.15819680146E+02 0.18420745707E+02
 0.20068315607E+02 0.20422899329E+02 0.19425001275E+02 0.17307220337E+02 0.14508431331E+02
 0.11533982780E+02 0.88248061684E+01 0.66761049896E+01 0.52063218042E+01 0.43549235489E+01
 0.38971313101E+01 0.35618667820E+01 0.33098083290E+01 0.31458954621E+01 0.30620843176E+01
 0.30488422000E+01 0.31032357327E+01 0.32317389529E+01 0.34474212382E+01 0.37615018918E+01
 0.41708707124E+01 0.47211952467E+01 0.57188127133E+01 0.74133696198E+01 0.98370605702E+01
 0.12779283609E+02 0.99050384860E+01 0.11577988491E+02 0.12779282845E+02 0.13234679788E+02
 0.12843001165E+02 0.11705798226E+02 0.10084397593E+02 0.83080024482E+01 0.66761049896E+01
 0.53897260782E+01 0.45199164263E+01 0.40026736040E+01 0.36584440398E+01 0.33783092382E+01
 0.31715984396E+01 0.30381506803E+01 0.29688643160E+01 0.29536781491E+01 0.29876507115E+01
 0.30738154529E+01 0.32225701059E+01 0.34474212819E+01 0.37572498904E+01 0.41469450585E+01
 0.46224569724E+01 0.53674325045E+01 0.65386026643E+01 0.81169543538E+01 0.65262320207E+01
 0.74071286778E+01 0.81169539602E+01 0.84716045358E+01 0.83727029927E+01 0.78434912785E+01
 0.70157352055E+01 0.60772018441E+01 0.52063218042E+01 0.45199164263E+01 0.40450546436E+01
 0.37124876734E+01 0.34324963919E+01 0.32080030772E+01 0.30459612488E+01 0.29434280219E+01
 0.28917278258E+01 0.28815977020E+01 0.29073628991E+01 0.29692794215E+01 0.30738154606E+01
 0.32317390040E+01 0.34539112085E+01 0.37452221405E+01 0.40983486837E+01 0.44935112061E+01
 0.49874947487E+01 0.56735091499E+01 0.50046287400E+01 0.53625984173E+01 0.56735090350E+01
 0.58499353477E+01 0.58285258418E+01 0.56018933155E+01 0.52223244409E+01 0.47779389833E+01
 0.43549235489E+01 0.40026736040E+01 0.37124876734E+01 0.34527706372E+01 0.32324164607E+01
 0.30606187216E+01 0.29396255835E+01 0.28656938234E+01 0.28316931789E+01 0.28301572242E+01
 0.28558454507E+01 0.29073628701E+01 0.29876506858E+01 0.31032357454E+01 0.32621633775E+01
 0.34706715419E+01 0.37290810690E+01 0.40281186449E+01 0.43474691176E+01 0.46649166514E+01
 0.43879592240E+01 0.45544452727E+01 0.46649167001E+01 0.47100160988E+01 0.46738939965E+01
 0.45526117593E+01 0.43629408391E+01 0.41355140241E+01 0.38971313101E+01 0.36584440398E+01
 0.34324963919E+01 0.32324164607E+01 0.30674149229E+01 0.29420947938E+01 0.28565888176E+01
 0.28076284568E+01 0.27901654855E+01 0.27990134394E+01 0.28301571854E+01 0.28815976326E+01
 0.29536780758E+01 0.30488421543E+01 0.31707849730E+01 0.33229724490E+01 0.35065701985E+01
 0.37180931171E+01 0.39475450514E+01 0.41780912297E+01 0.40091692369E+01 0.41143044339E+01
 0.41780913284E+01 0.41908065925E+01 0.41483551076E+01 0.40533554052E+01 0.39146809885E+01
 0.37457029017E+01 0.35618667820E+01 0.33783092382E+01 0.32080030772E+01 0.30606187216E+01
 0.29420947938E+01 0.28548465239E+01 0.27984912544E+01 0.27708696656E+01 0.27690642495E+01
 0.27901654617E+01 0.28316931208E+01 0.28917277380E+01 0.29688642168E+01 0.30620842305E+01
 0.31705881074E+01 0.32935355007E+01 0.34295538380E+01 0.35759029314E+01 0.37274203483E+01
 0.38757071044E+01 0.38331433232E+01 0.38685638662E+01 0.38757071689E+01 0.38508813818E+01
 0.37925190505E+01 0.37023296991E+01 0.35857445915E+01 0.34514027239E+01 0.33098083290E+01
 0.31715984396E+01 0.30459612488E+01 0.29396255835E+01 0.28565888176E+01 0.27984912544E+01
 0.27653712133E+01 0.27564783636E+01 0.27708696627E+01 0.28076284396E+01 0.28656937832E+01
 0.29434279566E+01 0.30381505954E+01 0.31458953684E+01 0.32615667231E+01 0.33794926424E+01
 0.34941517024E+01 0.36007244132E+01 0.36951867517E+01 0.37739228289E+01 0.38685638283E+01
 0.38331433067E+01 0.37739228298E+01 0.36951867689E+01 0.36007244485E+01 0.34941517580E+01
 0.33794927178E+01 0.32615668127E+01 0.31458954621E+01 0.30381506803E+01 0.29434280219E+01
 0.28656938234E+01 0.28076284568E+01 0.27708696656E+01 0.27564783636E+01 0.27653712197E+01
 0.27984912698E+01 0.28565888365E+01 0.29396255935E+01 0.30459612353E+01 0.31715983915E+01
 0.33098082429E+01 0.34514026060E+01 0.35857444558E+01 0.37023295634E+01 0.37925189306E+01
 0.38508812880E+01 0.38757071044E+01 0.41143043811E+01 0.40091692079E+01 0.38757070796E+01
 0.37274203193E+01 0.35759029034E+01 0.34295538257E+01 0.32935355192E+01 0.31705881636E+01
 0.30620843176E+01 0.29688643160E+01 0.28917278258E+01 0.28316931789E+01 0.27901654855E+01
 0.27690642495E+01 0.27708696627E+01 0.27984912698E+01 0.28548465681E+01 0.29420948594E+01
 0.30606187843E+01 0.32080031035E+01 0.33783091982E+01 0.35618666613E+01 0.37457027080E+01
 0.39146807498E+01 0.40533551608E+01 0.41483548946E+01 0.41908064347E+01 0.41780912297E+01
 0.45544453128E+01 0.43879592950E+01 0.41780912793E+01 0.39475450516E+01 0.37180930714E+01
 0.35065701349E+01 0.33229724038E+01 0.31707849717E+01 0.30488422000E+01 0.29536781491E+01
 0.28815977020E+01 0.28301572242E+01 0.27990134394E+01 0.27901654617E+01 0.28076284396E+01
 0.28565888365E+01 0.29420948594E+01 0.30674150164E+01 0.32324165362E+01 0.34324963914E+01
 0.36584439160E+01 0.38971310469E+01 0.41355136468E+01 0.43629404090E+01 0.45526113545E+01
 0.46738936863E+01 0.47100159212E+01 0.46649166514E+01 0.53625986936E+01 0.50046290611E+01
 0.46649169114E+01 0.43474692548E+01 0.40281186549E+01 0.37290809943E+01 0.34706714457E+01
 0.32621633126E+01 0.31032357327E+01 0.29876507115E+01 0.29073628991E+01 0.28558454507E+01
 0.28301571854E+01 0.28316931208E+01 0.28656937832E+01 0.29396255935E+01 0.30606187843E+01
 0.32324165362E+01 0.34527706503E+01 0.37124875391E+01 0.40026732628E+01 0.43549229971E+01
 0.47779382842E+01 0.52223237118E+01 0.56018926931E+01 0.58285254382E+01 0.58499352149E+01
 0.56735091499E+01 0.74071293272E+01 0.65262327333E+01 0.56735097517E+01 0.49874951342E+01
 0.44935113586E+01 0.40983486612E+01 0.37452220372E+01 0.34539111094E+01 0.32317389529E+01
 0.30738154529E+01 0.29692794215E+01 0.29073628701E+01 0.28815976326E+01 0.28917277380E+01
 0.29434279566E+01 0.30459612353E+01 0.32080031035E+01 0.34324963914E+01 0.37124875391E+01
 0.40450542661E+01 0.45199157432E+01 0.52063208386E+01 0.60772007155E+01 0.70157341045E+01
 0.78434904129E+01 0.83727025230E+01 0.84716045246E+01 0.81169543538E+01 0.11577989605E+02
 0.99050396774E+01 0.81169553786E+01 0.65386033730E+01 0.53674328685E+01 0.46224570653E+01
 0.41469450054E+01 0.37572498086E+01 0.34474212382E+01 0.32225701059E+01 0.30738154606E+01
 0.29876506858E+01 0.29536780758E+01 0.29688642168E+01 0.30381505954E+01 0.31715983915E+01
 0.33783091982E+01 0.36584439160E+01 0.40026732628E+01 0.45199157432E+01 0.53897249986E+01
 0.66761035744E+01 0.83080008803E+01 0.10084396140E+02 0.11705797165E+02 0.12843000699E+02
 0.13234679983E+02 0.12779283609E+02 0.18420747304E+02 0.15819681817E+02 0.12779285052E+02
 0.98370616030E+01 0.74133702075E+01 0.57188129452E+01 0.47211952755E+01 0.41708706833E+01
 0.37615018918E+01 0.34474212819E+01 0.32317390040E+01 0.31032357454E+01 0.30488421543E+01
 0.30620842305E+01 0.31458953684E+01 0.33098082429E+01 0.35618666613E+01 0.38971310469E+01
 0.43549229971E+01 0.52063208386E+01 0.66761035744E+01 0.88248044040E+01 0.11533980906E+02
 0.14508429676E+02 0.17307219227E+02 0.19425000936E+02 0.20422899818E+02 0.20068316791E+02
 0.28034052154E+02 0.24520412749E+02 0.20068318546E+02 0.15433087717E+02 0.11281641477E+02
 0.80605798403E+01 0.59304563866E+01 0.47589128834E+01 0.41708707124E+01 0.37572498904E+01
 0.34539112085E+01 0.32621633775E+01 0.31707849730E+01 0.31705881074E+01 0.32615667231E+01
 0.34514026060E+01 0.37457027080E+01 0.41355136468E+01 0.47779382842E+01 0.60772007155E+01
 0.83080008803E+01 0.11533980906E+02 0.15591611364E+02 0.20090026735E+02 0.24437608105E+02
 0.27928985830E+02 0.29906139573E+02 0.29952255203E+02 0.40074184691E+02 0.35808973362E+02
 0.29952257072E+02 0.23472181773E+02 0.17288529578E+02 0.12100768390E+02 0.82984215420E+01
 0.59304563115E+01 0.47211952467E+01 0.41469450585E+01 0.37452221405E+01 0.34706715419E+01
 0.33229724490E+01 0.32935355007E+01 0.33794926424E+01 0.35857444558E+01 0.39146807498E+01
 0.43629404090E+01 0.52223237118E+01 0.70157341045E+01 0.10084396140E+02 0.14508429676E+02
 0.20090026735E+02 0.26352567953E+02 0.32559063234E+02 0.37794927856E+02 0.41150668932E+02
 0.41972092641E+02 0.53764343207E+02 0.49056607236E+02 0.41972094372E+02 0.33679938976E+02
 0.25354676956E+02 0.17952399920E+02 0.12100768127E+02 0.80605795219E+01 0.57188127133E+01
 0.46224569724E+01 0.40983486837E+01 0.37290810690E+01 0.35065701985E+01 0.34295538380E+01
 0.34941517024E+01 0.37023295634E+01 0.40533551608E+01 0.45526113545E+01 0.56018926931E+01
 0.78434904129E+01 0.11705797165E+02 0.17307219227E+02 0.24437608105E+02 0.32559063234E+02
 0.40813832069E+02 0.48090654881E+02 0.53213026681E+02 0.55239892132E+02 0.67865497830E+02
 0.63184128580E+02 0.55239893468E+02 0.45370952203E+02 0.35003688273E+02 0.25354676479E+02
 0.17288528857E+02 0.11281640740E+02 0.74133696198E+01 0.53674325045E+01 0.44935112061E+01
 0.40281186449E+01 0.37180931171E+01 0.35759029314E+01 0.36007244132E+01 0.37925189306E+01
 0.41483548946E+01 0.46738936863E+01 0.58285254382E+01 0.83727025230E+01 0.12843000699E+02
 0.19425000936E+02 0.27928985830E+02 0.37794927856E+02 0.48090654881E+02 0.57550505426E+02
 0.64746251167E+02 0.68419013985E+02 0.80695411560E+02 0.76647596753E+02 0.68419014715E+02
 0.57443052486E+02 0.45370951557E+02 0.33679937877E+02 0.23472180469E+02 0.15433086455E+02
 0.98370605702E+01 0.65386026643E+01 0.49874947487E+01 0.43474691176E+01 0.39475450514E+01
 0.37274203483E+01 0.36951867517E+01 0.38508812880E+01 0.41908064347E+01 0.47100159212E+01
 0.58499352149E+01 0.84716045246E+01 0.13234679983E+02 0.20422899818E+02 0.29906139573E+02
 0.41150668932E+02 0.53213026681E+02 0.64746251167E+02 0.74129380572E+02 0.79797065303E+02
 0.90343857179E+02 0.87573553967E+02 0.79797065303E+02 0.68419013985E+02 0.55239892132E+02
 0.41972092641E+02 0.29952255203E+02 0.20068316791E+02 0.12779283609E+02 0.81169543538E+01
 0.56735091499E+01 0.46649166514E+01 0.41780912297E+01 0.38757071044E+01 0.37739228289E+01
 0.38757071044E+01 0.41780912297E+01 0.46649166514E+01 0.56735091499E+01 0.81169543538E+01
 0.12779283609E+02 0.20068316791E+02 0.29952255203E+02 0.41972092641E+02 0.55239892132E+02
 0.68419013985E+02 0.79797065303E+02 0.87573553967E+02 0.86720182817E+02 0.87573553218E+02
 0.83092235042E+02 0.74129379405E+02 0.62245397963E+02 0.49213077804E+02 0.36597096776E+02
 0.25551645442E+02 0.16794931810E+02 0.10629100711E+02 0.69310103633E+01 0.51556149006E+01
 0.44438327855E+01 0.40260203965E+01 0.37948255901E+01 0.37623081785E+01 0.39292617404E+01
 0.42899336299E+01 0.48545325429E+01 0.61764048499E+01 0.91681458271E+01 0.14503644493E+02
 0.22451979667E+02 0.32845152036E+02 0.45091761327E+02 0.58167538407E+02 0.70617716501E+02
 0.80695411560E+02 0.87573553218E+02 0.90343855761E+02 0.87573552040E+02 0.79797063070E+02
 0.68419011657E+02 0.55239889905E+02 0.41972090671E+02 0.29952253599E+02 0.20068315607E+02
 0.12779282845E+02 0.81169539602E+01 0.56735090350E+01 0.46649167001E+01 0.41780913284E+01
 0.38757071689E+01 0.37739228298E+01 0.38757070796E+01 0.41780912793E+01 0.46649169114E+01
 0.56735097517E+01 0.81169553786E+01 0.12779285052E+02 0.20068318546E+02 0.29952257072E+02
 0.41972094372E+02 0.55239893468E+02 0.68419014715E+02 0.79797065303E+02 0.83092235042E+02
 0.87573552040E+02 0.86720180588E+02 0.80695408511E+02 0.70617712937E+02 0.58167534662E+02