   1   1   1   0
  0.1157456E+02  0.2468172E-09  0.2468172E-09  0.2468172E-09  0.5000000E-15
  1.000000000000000E-004
  CAR 
 Fe BCC                                  
     46.45541461     -4.66698318  301      5.56699011      1.00000000
     -4.667  0.0000E+00  0.0000E+00  0.0000E+00  0.0000E+00
     -4.497  0.0000E+00  0.0000E+00  0.0000E+00  0.0000E+00
     -4.326  0.0000E+00  0.0000E+00  0.0000E+00  0.0000E+00
     -4.156  0.0000E+00  0.0000E+00  0.0000E+00  0.0000E+00
     -3.985  0.0000E+00  0.0000E+00  0.0000E+00  0.0000E+00
     -3.815  0.0000E+00  0.0000E+00  0.0000E+00  0.0000E+00
     -3.645  0.0000E+00  0.0000E+00  0.0000E+00  0.0000E+00
     -3.474  0.0000E+00  0.0000E+00  0.0000E+00  0.0000E+00
     -3.304  0.0000E+00  0.0000E+00  0.0000E+00  0.0000E+00
     -3.133  0.0000E+00  0.0000E+00  0.0000E+00  0.0000E+00
     -2.963  0.0000E+00  0.0000E+00  0.0000E+00  0.0000E+00
     -2.792  0.0000E+00  0.0000E+00  0.0000E+00  0.0000E+00
     -2.622  0.0000E+00  0.0000E+00  0.0000E+00  0.0000E+00
     -2.452  0.0000E+00  0.0000E+00  0.0000E+00  0.0000E+00
     -2.281  0.1232E-01  0.0000E+00  0.1334E-02  0.0000E+00
     -2.111  0.1876E-01  0.1453E-01  0.3997E-02  0.2174E-02
     -1.940  0.2417E-01  0.2034E-01  0.7671E-02  0.5160E-02
     -1.770  0.2855E-01  0.2511E-01  0.1218E-01  0.9047E-02
     -1.600  0.3587E-01  0.2940E-01  0.1761E-01  0.1366E-01
     -1.429  0.4264E-01  0.3669E-01  0.2433E-01  0.1932E-01
     -1.259  0.4770E-01  0.4224E-01  0.3205E-01  0.2607E-01
     -1.088  0.4899E-01  0.4606E-01  0.4029E-01  0.3362E-01
     -0.918  0.5463E-01  0.4613E-01  0.4911E-01  0.4135E-01
     -0.748  0.6079E-01  0.5037E-01  0.5894E-01  0.4957E-01
     -0.577  0.6749E-01  0.5488E-01  0.6986E-01  0.5853E-01
     -0.407  0.7471E-01  0.5967E-01  0.8197E-01  0.6829E-01
     -0.236  0.8247E-01  0.6474E-01  0.9535E-01  0.7889E-01
     -0.066  0.9359E-01  0.7009E-01  0.1102E+00  0.9037E-01
      0.104  0.1110E+00  0.7486E-01  0.1276E+00  0.1027E+00
      0.275  0.1297E+00  0.8231E-01  0.1481E+00  0.1161E+00
      0.445  0.1526E+00  0.8956E-01  0.1719E+00  0.1308E+00
      0.616  0.1920E+00  0.9599E-01  0.2011E+00  0.1466E+00
      0.786  0.2441E+00  0.1028E+00  0.2381E+00  0.1635E+00
      0.956  0.4726E+00  0.1117E+00  0.2916E+00  0.1818E+00
      1.127  0.5871E+00  0.1231E+00  0.3810E+00  0.2017E+00
      1.297  0.8160E+00  0.1358E+00  0.4990E+00  0.2238E+00
      1.468  0.1168E+01  0.1501E+00  0.6674E+00  0.2481E+00
      1.638  0.9122E+00  0.1659E+00  0.8467E+00  0.2750E+00
      1.809  0.5751E+00  0.1862E+00  0.9729E+00  0.3048E+00
      1.979  0.4312E+00  0.2528E+00  0.1059E+01  0.3416E+00
      2.149  0.4083E+00  0.3776E+00  0.1121E+01  0.3934E+00
      2.320  0.1613E+01  0.3786E+00  0.1262E+01  0.4596E+00
      2.490  0.1647E+01  0.3932E+00  0.1561E+01  0.5255E+00
      2.661  0.8693E+00  0.3927E+00  0.1784E+01  0.5927E+00
      2.831  0.7899E+00  0.4629E+00  0.1916E+01  0.6616E+00
      3.001  0.1073E+01  0.7037E+00  0.2070E+01  0.7620E+00
      3.172  0.1867E+01  0.6246E+00  0.2307E+01  0.8886E+00
      3.342  0.1235E+01  0.4615E+00  0.2625E+01  0.9816E+00
      3.513  0.5081E+00  0.2255E+00  0.2751E+01  0.1044E+01
      3.683  0.4261E+00  0.1631E+00  0.2829E+01  0.1076E+01
      3.853  0.4174E+00  0.5091E+00  0.2900E+01  0.1120E+01
      4.024  0.7050E+00  0.1182E+01  0.2981E+01  0.1288E+01
      4.194  0.8588E+00  0.1545E+01  0.3104E+01  0.1511E+01
      4.365  0.1612E+01  0.1051E+01  0.3313E+01  0.1760E+01
      4.535  0.2238E+01  0.1152E+01  0.3662E+01  0.1946E+01
      4.705  0.1942E+01  0.1106E+01  0.4069E+01  0.2130E+01
      4.876  0.1357E+01  0.1465E+01  0.4424E+01  0.2346E+01
      5.046  0.1075E+01  0.1278E+01  0.4634E+01  0.2576E+01
      5.217  0.8498E+00  0.8956E+00  0.4790E+01  0.2762E+01
      5.387  0.8101E+00  0.2710E+00  0.4930E+01  0.2857E+01
      5.557  0.1171E+01  0.2052E+00  0.5088E+01  0.2899E+01
      5.728  0.2946E+00  0.1470E+00  0.5212E+01  0.2926E+01
      5.898  0.1513E+00  0.1645E+00  0.5244E+01  0.2951E+01
      6.069  0.1509E+00  0.3006E+00  0.5270E+01  0.2989E+01
      6.239  0.1559E+00  0.3792E+00  0.5296E+01  0.3045E+01
      6.410  0.1738E+00  0.5536E+00  0.5326E+01  0.3123E+01
      6.580  0.1649E+00  0.8128E+00  0.5355E+01  0.3237E+01
      6.750  0.1561E+00  0.1024E+01  0.5383E+01  0.3396E+01
      6.921  0.1514E+00  0.1489E+01  0.5409E+01  0.3617E+01
      7.091  0.1513E+00  0.1653E+01  0.5435E+01  0.3897E+01
      7.262  0.1512E+00  0.1224E+01  0.5460E+01  0.4130E+01
      7.432  0.1511E+00  0.1344E+01  0.5486E+01  0.4345E+01
      7.602  0.1510E+00  0.1550E+01  0.5512E+01  0.4752E+01
      7.773  0.1509E+00  0.1333E+01  0.5538E+01  0.4992E+01
      7.943  0.1502E+00  0.6372E+00  0.5563E+01  0.5191E+01
      8.114  0.1483E+00  0.2989E+00  0.5589E+01  0.5249E+01
      8.284  0.1451E+00  0.2767E+00  0.5614E+01  0.5298E+01
      8.454  0.1488E+00  0.2529E+00  0.5639E+01  0.5343E+01
      8.625  0.1429E+00  0.2224E+00  0.5664E+01  0.5384E+01
      8.795  0.1359E+00  0.2074E+00  0.5687E+01  0.5420E+01
      8.966  0.1565E+00  0.2035E+00  0.5711E+01  0.5455E+01
      9.136  0.1276E+00  0.2008E+00  0.5735E+01  0.5489E+01
      9.306  0.1226E+00  0.1993E+00  0.5756E+01  0.5523E+01
      9.477  0.1177E+00  0.1951E+00  0.5777E+01  0.5557E+01
      9.647  0.1128E+00  0.1881E+00  0.5796E+01  0.5589E+01
      9.818  0.1080E+00  0.1884E+00  0.5815E+01  0.5621E+01
      9.988  0.1032E+00  0.1720E+00  0.5833E+01  0.5652E+01
     10.159  0.9686E-01  0.1630E+00  0.5850E+01  0.5680E+01
     10.329  0.9047E-01  0.1639E+00  0.5866E+01  0.5708E+01
     10.499  0.8417E-01  0.1492E+00  0.5881E+01  0.5736E+01
     10.670  0.7795E-01  0.1421E+00  0.5895E+01  0.5761E+01
     10.840  0.8110E-01  0.1353E+00  0.5908E+01  0.5785E+01
     11.011  0.7429E-01  0.1286E+00  0.5922E+01  0.5807E+01
     11.181  0.6496E-01  0.1222E+00  0.5934E+01  0.5829E+01
     11.351  0.4636E-01  0.1159E+00  0.5943E+01  0.5849E+01
     11.522  0.4271E-01  0.1072E+00  0.5951E+01  0.5868E+01
     11.692  0.3926E-01  0.9855E-01  0.5958E+01  0.5885E+01
     11.863  0.3452E-01  0.9803E-01  0.5965E+01  0.5903E+01
     12.033  0.2692E-01  0.8747E-01  0.5970E+01  0.5918E+01
     12.203  0.2136E-01  0.7467E-01  0.5975E+01  0.5932E+01
     12.374  0.1784E-01  0.5446E-01  0.5978E+01  0.5943E+01
     12.544  0.1648E-01  0.4966E-01  0.5981E+01  0.5952E+01
     12.715  0.1871E-01  0.4515E-01  0.5984E+01  0.5960E+01
     12.885  0.2567E-01  0.3866E-01  0.5987E+01  0.5968E+01
     13.055  0.5522E-01  0.2964E-01  0.5994E+01  0.5974E+01
     13.226  0.8715E-01  0.2301E-01  0.6006E+01  0.5979E+01
     13.396  0.1250E+00  0.1879E-01  0.6024E+01  0.5982E+01
     13.567  0.1836E+00  0.1701E-01  0.6051E+01  0.5985E+01
     13.737  0.2357E+00  0.1818E-01  0.6089E+01  0.5988E+01
     13.907  0.2473E+00  0.2245E-01  0.6130E+01  0.5992E+01
     14.078  0.2578E+00  0.3306E-01  0.6173E+01  0.5997E+01
     14.248  0.2664E+00  0.5403E-01  0.6217E+01  0.6003E+01
     14.419  0.2244E+00  0.9847E-01  0.6261E+01  0.6016E+01
     14.589  0.1834E+00  0.1668E+00  0.6292E+01  0.6039E+01
     14.760  0.1793E+00  0.2313E+00  0.6323E+01  0.6075E+01
     14.930  0.1747E+00  0.2839E+00  0.6354E+01  0.6118E+01
     15.100  0.1702E+00  0.2993E+00  0.6383E+01  0.6168E+01
     15.271  0.1671E+00  0.3081E+00  0.6412E+01  0.6220E+01
     15.441  0.1696E+00  0.2147E+00  0.6440E+01  0.6268E+01
     15.612  0.1773E+00  0.2086E+00  0.6470E+01  0.6304E+01
     15.782  0.1783E+00  0.2018E+00  0.6500E+01  0.6339E+01
     15.952  0.1770E+00  0.2014E+00  0.6531E+01  0.6373E+01
     16.123  0.1670E+00  0.2029E+00  0.6561E+01  0.6407E+01
     16.293  0.1712E+00  0.2176E+00  0.6590E+01  0.6445E+01
     16.464  0.1769E+00  0.1709E+00  0.6620E+01  0.6477E+01
     16.634  0.1839E+00  0.1791E+00  0.6650E+01  0.6507E+01
     16.804  0.1990E+00  0.1824E+00  0.6684E+01  0.6538E+01
     16.975  0.2012E+00  0.1864E+00  0.6719E+01  0.6569E+01
     17.145  0.2034E+00  0.1909E+00  0.6753E+01  0.6601E+01
     17.316  0.2063E+00  0.1970E+00  0.6788E+01  0.6634E+01
     17.486  0.2089E+00  0.2135E+00  0.6823E+01  0.6671E+01
     17.656  0.2101E+00  0.2159E+00  0.6859E+01  0.6707E+01
     17.827  0.2174E+00  0.2180E+00  0.6897E+01  0.6744E+01
     17.997  0.2322E+00  0.2204E+00  0.6936E+01  0.6781E+01
     18.168  0.1930E+00  0.2225E+00  0.6972E+01  0.6819E+01
     18.338  0.1905E+00  0.2302E+00  0.7005E+01  0.6859E+01
     18.509  0.1880E+00  0.2297E+00  0.7037E+01  0.6898E+01
     18.679  0.1856E+00  0.2154E+00  0.7069E+01  0.6937E+01
     18.849  0.1835E+00  0.2020E+00  0.7100E+01  0.6973E+01
     19.020  0.1826E+00  0.1994E+00  0.7131E+01  0.7007E+01
     19.190  0.1811E+00  0.1969E+00  0.7162E+01  0.7041E+01
     19.361  0.1796E+00  0.1944E+00  0.7193E+01  0.7075E+01
     19.531  0.1809E+00  0.1922E+00  0.7224E+01  0.7107E+01
     19.701  0.1770E+00  0.1914E+00  0.7255E+01  0.7140E+01
     19.872  0.1738E+00  0.1900E+00  0.7285E+01  0.7173E+01
     20.042  0.1725E+00  0.1886E+00  0.7314E+01  0.7205E+01
     20.213  0.1703E+00  0.1918E+00  0.7343E+01  0.7238E+01
     20.383  0.1686E+00  0.1841E+00  0.7372E+01  0.7270E+01
     20.553  0.1672E+00  0.1832E+00  0.7401E+01  0.7301E+01
     20.724  0.1658E+00  0.1813E+00  0.7429E+01  0.7332E+01
     20.894  0.1645E+00  0.1792E+00  0.7457E+01  0.7363E+01
     21.065  0.1631E+00  0.1780E+00  0.7485E+01  0.7393E+01
     21.235  0.1619E+00  0.1768E+00  0.7513E+01  0.7424E+01
     21.405  0.1678E+00  0.1756E+00  0.7542E+01  0.7454E+01
     21.576  0.1693E+00  0.1744E+00  0.7571E+01  0.7483E+01
     21.746  0.1724E+00  0.1732E+00  0.7600E+01  0.7513E+01
     21.917  0.1763E+00  0.1720E+00  0.7629E+01  0.7542E+01
     22.087  0.1824E+00  0.1705E+00  0.7660E+01  0.7572E+01
     22.257  0.2061E+00  0.1779E+00  0.7692E+01  0.7602E+01
     22.428  0.2065E+00  0.1813E+00  0.7728E+01  0.7633E+01
     22.598  0.2235E+00  0.1888E+00  0.7764E+01  0.7664E+01
     22.769  0.2345E+00  0.1995E+00  0.7803E+01  0.7697E+01
     22.939  0.2284E+00  0.2233E+00  0.7842E+01  0.7733E+01
     23.110  0.2350E+00  0.2265E+00  0.7881E+01  0.7771E+01
     23.280  0.2413E+00  0.2446E+00  0.7922E+01  0.7812E+01
     23.450  0.2475E+00  0.2419E+00  0.7964E+01  0.7853E+01
     23.621  0.2521E+00  0.2498E+00  0.8006E+01  0.7895E+01
     23.791  0.2604E+00  0.2560E+00  0.8050E+01  0.7938E+01
     23.962  0.2614E+00  0.2617E+00  0.8095E+01  0.7983E+01
     24.132  0.2754E+00  0.2562E+00  0.8141E+01  0.8026E+01
     24.302  0.3090E+00  0.2606E+00  0.8189E+01  0.8070E+01
     24.473  0.2935E+00  0.2732E+00  0.8239E+01  0.8115E+01
     24.643  0.3134E+00  0.2826E+00  0.8291E+01  0.8163E+01
     24.814  0.3069E+00  0.2901E+00  0.8345E+01  0.8213E+01
     24.984  0.3042E+00  0.3008E+00  0.8397E+01  0.8263E+01
     25.154  0.3011E+00  0.3172E+00  0.8448E+01  0.8315E+01
     25.325  0.2897E+00  0.3181E+00  0.8498E+01  0.8371E+01
     25.495  0.2870E+00  0.3143E+00  0.8547E+01  0.8425E+01
     25.666  0.2798E+00  0.3046E+00  0.8596E+01  0.8478E+01
     25.836  0.2715E+00  0.3014E+00  0.8643E+01  0.8530E+01
     26.006  0.2621E+00  0.2911E+00  0.8688E+01  0.8580E+01
     26.177  0.2507E+00  0.2806E+00  0.8732E+01  0.8629E+01
     26.347  0.2366E+00  0.2702E+00  0.8773E+01  0.8676E+01
     26.518  0.2247E+00  0.2579E+00  0.8813E+01  0.8721E+01
     26.688  0.2013E+00  0.2435E+00  0.8849E+01  0.8763E+01
     26.858  0.1744E+00  0.2268E+00  0.8881E+01  0.8804E+01
     27.029  0.1604E+00  0.2114E+00  0.8909E+01  0.8841E+01
     27.199  0.1531E+00  0.1893E+00  0.8937E+01  0.8875E+01
     27.370  0.1533E+00  0.1738E+00  0.8963E+01  0.8906E+01
     27.540  0.1543E+00  0.1646E+00  0.8989E+01  0.8934E+01
     27.711  0.1514E+00  0.1564E+00  0.9015E+01  0.8962E+01
     27.881  0.1568E+00  0.1501E+00  0.9042E+01  0.8987E+01
     28.051  0.1495E+00  0.1518E+00  0.9067E+01  0.9013E+01
     28.222  0.1491E+00  0.1596E+00  0.9093E+01  0.9040E+01
     28.392  0.1485E+00  0.1529E+00  0.9118E+01  0.9067E+01
     28.563  0.1586E+00  0.1521E+00  0.9144E+01  0.9093E+01
     28.733  0.1551E+00  0.1481E+00  0.9171E+01  0.9119E+01
     28.903  0.1467E+00  0.1632E+00  0.9197E+01  0.9145E+01
     29.074  0.1454E+00  0.1515E+00  0.9222E+01  0.9172E+01
     29.244  0.1500E+00  0.1440E+00  0.9247E+01  0.9197E+01
     29.415  0.1560E+00  0.1474E+00  0.9273E+01  0.9222E+01
     29.585  0.1627E+00  0.1508E+00  0.9300E+01  0.9247E+01
     29.755  0.1701E+00  0.1560E+00  0.9328E+01  0.9273E+01
     29.926  0.1782E+00  0.1631E+00  0.9358E+01  0.9300E+01
     30.096  0.2414E+00  0.1667E+00  0.9392E+01  0.9330E+01
     30.267  0.3777E+00  0.1744E+00  0.9448E+01  0.9359E+01
     30.437  0.2644E+00  0.2263E+00  0.9510E+01  0.9392E+01
     30.607  0.2370E+00  0.3285E+00  0.9552E+01  0.9438E+01
     30.778  0.2194E+00  0.2971E+00  0.9591E+01  0.9504E+01
     30.948  0.1999E+00  0.2736E+00  0.9627E+01  0.9552E+01
     31.119  0.1763E+00  0.2472E+00  0.9659E+01  0.9597E+01
     31.289  0.1731E+00  0.2118E+00  0.9689E+01  0.9636E+01
     31.460  0.1742E+00  0.1913E+00  0.9718E+01  0.9670E+01
     31.630  0.1832E+00  0.1926E+00  0.9748E+01  0.9703E+01
     31.800  0.1896E+00  0.1848E+00  0.9781E+01  0.9735E+01
     31.971  0.1825E+00  0.1768E+00  0.9812E+01  0.9766E+01
     32.141  0.1815E+00  0.1746E+00  0.9844E+01  0.9796E+01
     32.312  0.1777E+00  0.1684E+00  0.9874E+01  0.9825E+01
     32.482  0.1724E+00  0.1626E+00  0.9904E+01  0.9853E+01
     32.652  0.1591E+00  0.1572E+00  0.9932E+01  0.9881E+01
     32.823  0.2248E+00  0.1617E+00  0.9966E+01  0.9913E+01
     32.993  0.2363E+00  0.1599E+00  0.1001E+02  0.9940E+01
     33.164  0.2671E+00  0.1512E+00  0.1005E+02  0.9967E+01
     33.334  0.2832E+00  0.2166E+00  0.1010E+02  0.1000E+02
     33.504  0.3056E+00  0.2556E+00  0.1015E+02  0.1004E+02
     33.675  0.3304E+00  0.2889E+00  0.1020E+02  0.1009E+02
     33.845  0.3366E+00  0.3153E+00  0.1026E+02  0.1014E+02
     34.016  0.3266E+00  0.3217E+00  0.1031E+02  0.1020E+02
     34.186  0.3250E+00  0.3317E+00  0.1037E+02  0.1025E+02
     34.356  0.3359E+00  0.3345E+00  0.1043E+02  0.1031E+02
     34.527  0.3299E+00  0.3302E+00  0.1048E+02  0.1037E+02
     34.697  0.3110E+00  0.3332E+00  0.1054E+02  0.1042E+02
     34.868  0.2702E+00  0.3221E+00  0.1059E+02  0.1048E+02
     35.038  0.2523E+00  0.3056E+00  0.1063E+02  0.1053E+02
     35.208  0.2448E+00  0.2828E+00  0.1067E+02  0.1058E+02
     35.379  0.2365E+00  0.2631E+00  0.1072E+02  0.1063E+02
     35.549  0.2243E+00  0.2497E+00  0.1076E+02  0.1067E+02
     35.720  0.2193E+00  0.2427E+00  0.1079E+02  0.1071E+02
     35.890  0.2094E+00  0.2360E+00  0.1083E+02  0.1076E+02
     36.061  0.2071E+00  0.2402E+00  0.1087E+02  0.1080E+02
     36.231  0.2077E+00  0.2433E+00  0.1090E+02  0.1084E+02
     36.401  0.2161E+00  0.2210E+00  0.1094E+02  0.1088E+02
     36.572  0.2332E+00  0.2047E+00  0.1098E+02  0.1091E+02
     36.742  0.2490E+00  0.2108E+00  0.1102E+02  0.1095E+02
     36.913  0.2645E+00  0.2221E+00  0.1106E+02  0.1099E+02
     37.083  0.2770E+00  0.2409E+00  0.1111E+02  0.1102E+02
     37.253  0.2911E+00  0.2575E+00  0.1116E+02  0.1107E+02
     37.424  0.3323E+00  0.2854E+00  0.1121E+02  0.1111E+02
     37.594  0.3471E+00  0.2981E+00  0.1127E+02  0.1116E+02
     37.765  0.3147E+00  0.3102E+00  0.1133E+02  0.1121E+02
     37.935  0.2781E+00  0.3522E+00  0.1138E+02  0.1127E+02
     38.105  0.2394E+00  0.3268E+00  0.1143E+02  0.1133E+02
     38.276  0.2263E+00  0.2937E+00  0.1147E+02  0.1138E+02
     38.446  0.2186E+00  0.2433E+00  0.1150E+02  0.1143E+02
     38.617  0.2109E+00  0.2266E+00  0.1154E+02  0.1147E+02
     38.787  0.2032E+00  0.2187E+00  0.1158E+02  0.1151E+02
     38.957  0.1955E+00  0.2109E+00  0.1161E+02  0.1154E+02
     39.128  0.1877E+00  0.2032E+00  0.1164E+02  0.1158E+02
     39.298  0.1800E+00  0.1901E+00  0.1167E+02  0.1161E+02
     39.469  0.1665E+00  0.1835E+00  0.1170E+02  0.1165E+02
     39.639  0.1720E+00  0.1770E+00  0.1173E+02  0.1168E+02
     39.810  0.1772E+00  0.1707E+00  0.1176E+02  0.1171E+02
     39.980  0.1781E+00  0.1749E+00  0.1179E+02  0.1174E+02
     40.150  0.1745E+00  0.1788E+00  0.1182E+02  0.1177E+02
     40.321  0.1227E+00  0.1794E+00  0.1185E+02  0.1180E+02
     40.491  0.9742E-01  0.1942E+00  0.1187E+02  0.1183E+02
     40.662  0.7729E-01  0.1241E+00  0.1189E+02  0.1186E+02
     40.832  0.6609E-01  0.9213E-01  0.1190E+02  0.1188E+02
     41.002  0.6110E-01  0.7203E-01  0.1191E+02  0.1189E+02
     41.173  0.5709E-01  0.6510E-01  0.1192E+02  0.1190E+02
     41.343  0.5324E-01  0.6093E-01  0.1193E+02  0.1191E+02
     41.514  0.4954E-01  0.5691E-01  0.1194E+02  0.1192E+02
     41.684  0.4600E-01  0.5305E-01  0.1195E+02  0.1193E+02
     41.854  0.4262E-01  0.4933E-01  0.1195E+02  0.1194E+02
     42.025  0.3939E-01  0.4577E-01  0.1196E+02  0.1195E+02
     42.195  0.3631E-01  0.4236E-01  0.1197E+02  0.1195E+02
     42.366  0.3339E-01  0.3910E-01  0.1197E+02  0.1196E+02
     42.536  0.3063E-01  0.3599E-01  0.1198E+02  0.1197E+02
     42.706  0.2347E-01  0.2831E-01  0.1198E+02  0.1198E+02
     42.877  0.2156E-01  0.2606E-01  0.1199E+02  0.1198E+02
     43.047  0.1979E-01  0.2394E-01  0.1199E+02  0.1198E+02
     43.218  0.1267E-01  0.2195E-01  0.1200E+02  0.1199E+02
     43.388  0.4243E-02  0.2035E-01  0.1200E+02  0.1199E+02
     43.558  0.3133E-02  0.1337E-01  0.1200E+02  0.1200E+02
     43.729  0.2701E-02  0.8086E-02  0.1200E+02  0.1200E+02
     43.899  0.2290E-02  0.4497E-02  0.1200E+02  0.1200E+02
     44.070  0.0000E+00  0.2602E-02  0.1200E+02  0.1200E+02
     44.240  0.0000E+00  0.0000E+00  0.1200E+02  0.1200E+02
     44.411  0.0000E+00  0.0000E+00  0.1200E+02  0.1200E+02
     44.581  0.0000E+00  0.0000E+00  0.1200E+02  0.1200E+02
     44.751  0.0000E+00  0.0000E+00  0.1200E+02  0.1200E+02
     44.922  0.0000E+00  0.0000E+00  0.1200E+02  0.1200E+02
     45.092  0.0000E+00  0.0000E+00  0.1200E+02  0.1200E+02
     45.263  0.0000E+00  0.0000E+00  0.1200E+02  0.1200E+02
     45.433  0.0000E+00  0.0000E+00  0.1200E+02  0.1200E+02
     45.603  0.0000E+00  0.0000E+00  0.1200E+02  0.1200E+02
     45.774  0.0000E+00  0.0000E+00  0.1200E+02  0.1200E+02
     45.944  0.0000E+00  0.0000E+00  0.1200E+02  0.1200E+02
     46.115  0.0000E+00  0.0000E+00  0.1200E+02  0.1200E+02
     46.285  0.0000E+00  0.0000E+00  0.1200E+02  0.1200E+02
     46.455  0.0000E+00  0.0000E+00  0.1200E+02  0.1200E+02
     46.45541461     -4.66698318  301      5.56699011      1.00000000
     -4.667  0.0000E+00  0.0000E+00  0.0000E+00  0.0000E+00  0.0000E+00  0.0000E+00  0.0000E+00  0.0000E+00  0.0000E+00  0.0000E+00  0.0000E+00  0.0000E+00  0.0000E+00  0.0000E+00  0.0000E+00  0.0000E+00  0.0000E+00  0.0000E+00
     -4.497  0.0000E+00  0.0000E+00  0.0000E+00  0.0000E+00  0.0000E+00  0.0000E+00  0.0000E+00  0.0000E+00  0.0000E+00  0.0000E+00  0.0000E+00  0.0000E+00  0.0000E+00  0.0000E+00  0.0000E+00  0.0000E+00  0.0000E+00  0.0000E+00
     -4.326  0.0000E+00  0.0000E+00  0.0000E+00  0.0000E+00  0.0000E+00  0.0000E+00  0.0000E+00  0.0000E+00  0.0000E+00  0.0000E+00  0.0000E+00  0.0000E+00  0.0000E+00  0.0000E+00  0.0000E+00  0.0000E+00  0.0000E+00  0.0000E+00
     -4.156  0.0000E+00  0.0000E+00  0.0000E+00  0.0000E+00  0.0000E+00  0.0000E+00  0.0000E+00  0.0000E+00  0.0000E+00  0.0000E+00  0.0000E+00  0.0000E+00  0.0000E+00  0.0000E+00  0.0000E+00  0.0000E+00  0.0000E+00  0.0000E+00
     -3.985  0.0000E+00  0.0000E+00  0.0000E+00  0.0000E+00  0.0000E+00  0.0000E+00  0.0000E+00  0.0000E+00  0.0000E+00  0.0000E+00  0.0000E+00  0.0000E+00  0.0000E+00  0.0000E+00  0.0000E+00  0.0000E+00  0.0000E+00  0.0000E+00
     -3.815  0.0000E+00  0.0000E+00  0.0000E+00  0.0000E+00  0.0000E+00  0.0000E+00  0.0000E+00  0.0000E+00  0.0000E+00  0.0000E+00  0.0000E+00  0.0000E+00  0.0000E+00  0.0000E+00  0.0000E+00  0.0000E+00  0.0000E+00  0.0000E+00
     -3.645  0.0000E+00  0.0000E+00  0.0000E+00  0.0000E+00  0.0000E+00  0.0000E+00  0.0000E+00  0.0000E+00  0.0000E+00  0.0000E+00  0.0000E+00  0.0000E+00  0.0000E+00  0.0000E+00  0.0000E+00  0.0000E+00  0.0000E+00  0.0000E+00
     -3.474  0.0000E+00  0.0000E+00  0.0000E+00  0.0000E+00  0.0000E+00  0.0000E+00  0.0000E+00  0.0000E+00  0.0000E+00  0.0000E+00  0.0000E+00  0.0000E+00  0.0000E+00  0.0000E+00  0.0000E+00  0.0000E+00  0.0000E+00  0.0000E+00
     -3.304  0.0000E+00  0.0000E+00  0.0000E+00  0.0000E+00  0.0000E+00  0.0000E+00  0.0000E+00  0.0000E+00  0.0000E+00  0.0000E+00  0.0000E+00  0.0000E+00  0.0000E+00  0.0000E+00  0.0000E+00  0.0000E+00  0.0000E+00  0.0000E+00
     -3.133  0.0000E+00  0.0000E+00  0.0000E+00  0.0000E+00  0.0000E+00  0.0000E+00  0.0000E+00  0.0000E+00  0.0000E+00  0.0000E+00  0.0000E+00  0.0000E+00  0.0000E+00  0.0000E+00  0.0000E+00  0.0000E+00  0.0000E+00  0.0000E+00
     -2.963  0.0000E+00  0.0000E+00  0.0000E+00  0.0000E+00  0.0000E+00  0.0000E+00  0.0000E+00  0.0000E+00  0.0000E+00  0.0000E+00  0.0000E+00  0.0000E+00  0.0000E+00  0.0000E+00  0.0000E+00  0.0000E+00  0.0000E+00  0.0000E+00
     -2.792  0.0000E+00  0.0000E+00  0.0000E+00  0.0000E+00  0.0000E+00  0.0000E+00  0.0000E+00  0.0000E+00  0.0000E+00  0.0000E+00  0.0000E+00  0.0000E+00  0.0000E+00  0.0000E+00  0.0000E+00  0.0000E+00  0.0000E+00  0.0000E+00
     -2.622  0.0000E+00  0.0000E+00  0.0000E+00  0.0000E+00  0.0000E+00  0.0000E+00  0.0000E+00  0.0000E+00  0.0000E+00  0.0000E+00  0.0000E+00  0.0000E+00  0.0000E+00  0.0000E+00  0.0000E+00  0.0000E+00  0.0000E+00  0.0000E+00
     -2.452  0.0000E+00  0.0000E+00  0.0000E+00  0.0000E+00  0.0000E+00  0.0000E+00  0.0000E+00  0.0000E+00  0.0000E+00  0.0000E+00  0.0000E+00  0.0000E+00  0.0000E+00  0.0000E+00  0.0000E+00  0.0000E+00  0.0000E+00  0.0000E+00
     -2.281  0.8291E-02  0.0000E+00  0.8303E-04  0.0000E+00  0.5625E-04  0.0000E+00  0.3527E-03  0.0000E+00  0.2633E-04  0.0000E+00  0.6935E-05  0.0000E+00  0.9741E-05  0.0000E+00  0.6610E-05  0.0000E+00  0.1117E-04  0.0000E+00
     -2.111  0.1241E-01  0.9702E-02  0.1806E-03  0.1193E-03  0.1130E-03  0.7817E-04  0.6298E-03  0.4472E-03  0.6416E-04  0.2376E-04  0.1897E-04  0.6868E-05  0.2461E-04  0.8381E-05  0.1441E-04  0.6215E-05  0.2828E-04  0.1010E-04
     -1.940  0.1574E-01  0.1338E-01  0.2806E-03  0.2171E-03  0.1595E-03  0.1305E-03  0.9379E-03  0.7284E-03  0.1116E-03  0.4806E-04  0.3615E-04  0.1471E-04  0.4549E-04  0.1781E-04  0.2244E-04  0.1110E-04  0.5482E-04  0.2175E-04
     -1.770  0.1828E-01  0.1628E-01  0.3833E-03  0.3174E-03  0.1958E-03  0.1729E-03  0.1277E-02  0.1038E-02  0.1688E-03  0.7761E-04  0.5846E-04  0.2487E-04  0.7238E-04  0.3041E-04  0.3070E-04  0.1591E-04  0.9077E-04  0.3834E-04
     -1.600  0.2253E-01  0.1876E-01  0.5729E-03  0.4320E-03  0.2930E-03  0.2143E-03  0.1778E-02  0.1398E-02  0.2642E-03  0.1144E-03  0.1224E-03  0.3932E-04  0.1160E-03  0.4680E-04  0.5118E-04  0.2136E-04  0.1483E-03  0.6059E-04
     -1.429  0.2621E-01  0.2299E-01  0.7918E-03  0.6421E-03  0.4287E-03  0.3321E-03  0.2269E-02  0.1902E-02  0.3931E-03  0.1750E-03  0.2378E-03  0.8196E-04  0.1766E-03  0.7209E-04  0.8951E-04  0.3665E-04  0.2270E-03  0.9500E-04
     -1.259  0.2859E-01  0.2597E-01  0.1017E-02  0.8584E-03  0.5866E-03  0.4714E-03  0.2707E-02  0.2352E-02  0.5494E-03  0.2462E-03  0.3989E-03  0.1457E-03  0.2522E-03  0.1023E-03  0.1441E-03  0.5969E-04  0.3247E-03  0.1372E-03
     -1.088  0.2788E-01  0.2769E-01  0.1225E-02  0.1081E-02  0.7868E-03  0.6322E-03  0.3160E-02  0.2747E-02  0.7911E-03  0.3280E-03  0.6406E-03  0.2306E-03  0.4031E-03  0.1373E-03  0.2480E-03  0.9048E-04  0.5524E-03  0.1871E-03
     -0.918  0.3013E-01  0.2655E-01  0.1430E-02  0.1271E-02  0.9479E-03  0.8254E-03  0.3714E-02  0.3151E-02  0.1173E-02  0.4496E-03  0.8287E-03  0.3449E-03  0.6286E-03  0.2062E-03  0.3486E-03  0.1451E-03  0.7590E-03  0.3038E-03
     -0.748  0.3251E-01  0.2833E-01  0.1643E-02  0.1468E-02  0.1116E-02  0.9768E-03  0.4330E-02  0.3650E-02  0.1630E-02  0.6201E-03  0.1050E-02  0.4310E-03  0.9051E-03  0.2919E-03  0.4721E-03  0.1936E-03  0.1001E-02  0.4007E-03
     -0.577  0.3502E-01  0.3018E-01  0.1864E-02  0.1672E-02  0.1290E-02  0.1133E-02  0.5010E-02  0.4199E-02  0.2163E-02  0.8180E-03  0.1303E-02  0.5288E-03  0.1233E-02  0.3930E-03  0.6186E-03  0.2507E-03  0.1278E-02  0.5112E-03
     -0.407  0.3766E-01  0.3211E-01  0.2092E-02  0.1882E-02  0.1472E-02  0.1295E-02  0.5752E-02  0.4798E-02  0.2771E-02  0.1043E-02  0.1590E-02  0.6382E-03  0.1611E-02  0.5096E-03  0.7879E-03  0.3165E-03  0.1590E-02  0.6352E-03
     -0.236  0.4043E-01  0.3411E-01  0.2328E-02  0.2098E-02  0.1660E-02  0.1462E-02  0.6558E-02  0.5446E-02  0.3455E-02  0.1296E-02  0.1909E-02  0.7594E-03  0.2041E-02  0.6415E-03  0.9801E-03  0.3910E-03  0.1937E-02  0.7729E-03
     -0.066  0.4346E-01  0.3619E-01  0.2689E-02  0.2320E-02  0.2029E-02  0.1634E-02  0.7561E-02  0.6144E-02  0.4636E-02  0.1576E-02  0.2900E-02  0.8922E-03  0.2873E-02  0.7888E-03  0.1498E-02  0.4741E-03  0.2489E-02  0.9241E-03
      0.104  0.4785E-01  0.3748E-01  0.3187E-02  0.2536E-02  0.2558E-02  0.1858E-02  0.9003E-02  0.6865E-02  0.6667E-02  0.1946E-02  0.4669E-02  0.1145E-02  0.4423E-02  0.1001E-02  0.2200E-02  0.6411E-03  0.3542E-02  0.1103E-02
      0.275  0.5160E-01  0.3952E-01  0.3598E-02  0.2894E-02  0.3053E-02  0.2227E-02  0.1066E-01  0.7783E-02  0.9217E-02  0.2553E-02  0.6794E-02  0.1668E-02  0.6531E-02  0.1366E-02  0.3015E-02  0.8601E-03  0.5000E-02  0.1408E-02
      0.445  0.5487E-01  0.4111E-01  0.3840E-02  0.3209E-02  0.3387E-02  0.2588E-02  0.1262E-01  0.8749E-02  0.1349E-01  0.3243E-02  0.9437E-02  0.2270E-02  0.1004E-01  0.1818E-02  0.3917E-02  0.1099E-02  0.7038E-02  0.1814E-02
      0.616  0.6179E-01  0.4195E-01  0.4264E-02  0.3434E-02  0.3781E-02  0.2902E-02  0.1516E-01  0.9709E-02  0.2187E-01  0.4039E-02  0.1374E-01  0.2931E-02  0.1646E-01  0.2372E-02  0.4903E-02  0.1353E-02  0.9755E-02  0.2316E-02
      0.786  0.7008E-01  0.4274E-01  0.4701E-02  0.3612E-02  0.4224E-02  0.3169E-02  0.1806E-01  0.1068E-01  0.3398E-01  0.5073E-02  0.1969E-01  0.3650E-02  0.2586E-01  0.3072E-02  0.6051E-02  0.1617E-02  0.1318E-01  0.2878E-02
      0.956  0.1010E+00  0.4434E-01  0.5755E-02  0.3843E-02  0.5642E-02  0.3449E-02  0.2374E-01  0.1176E-01  0.9037E-01  0.6433E-02  0.5999E-01  0.4475E-02  0.6972E-01  0.3947E-02  0.7812E-02  0.1892E-02  0.2891E-01  0.3496E-02
      1.127  0.9605E-01  0.4659E-01  0.5704E-02  0.4108E-02  0.6546E-02  0.3732E-02  0.2757E-01  0.1297E-01  0.9675E-01  0.8316E-02  0.6660E-01  0.5475E-02  0.1199E+00  0.5119E-02  0.1143E-01  0.2180E-02  0.6433E-01  0.4186E-02
      1.297  0.1037E+00  0.4905E-01  0.6154E-02  0.4379E-02  0.7935E-02  0.4025E-02  0.4183E-01  0.1429E-01  0.1219E+00  0.1060E-01  0.8362E-01  0.6639E-02  0.2009E+00  0.6538E-02  0.1833E-01  0.2496E-02  0.1099E+00  0.4952E-02
      1.468  0.9513E-01  0.5172E-01  0.7615E-02  0.4655E-02  0.8872E-02  0.4330E-02  0.5757E-01  0.1571E-01  0.1453E+00  0.1328E-01  0.9462E-01  0.7966E-02  0.3877E+00  0.8203E-02  0.3257E-01  0.2841E-02  0.1768E+00  0.5794E-02
      1.638  0.6263E-01  0.5461E-01  0.7212E-02  0.4937E-02  0.7325E-02  0.4646E-02  0.4153E-01  0.1723E-01  0.1148E+00  0.1636E-01  0.9590E-01  0.9458E-02  0.2608E+00  0.1011E-01  0.4148E-01  0.3213E-02  0.1611E+00  0.6713E-02
      1.809  0.3184E-01  0.5781E-01  0.5635E-02  0.5227E-02  0.4488E-02  0.4973E-02  0.2068E-01  0.1948E-01  0.7317E-01  0.2008E-01  0.1101E+00  0.1113E-01  0.9502E-01  0.1278E-01  0.4466E-01  0.3658E-02  0.1224E+00  0.8648E-02
      1.979  0.1568E-01  0.6735E-01  0.5334E-02  0.6263E-02  0.2777E-02  0.6623E-02  0.1463E-01  0.2348E-01  0.4317E-01  0.3147E-01  0.8936E-01  0.2402E-01  0.5920E-01  0.2088E-01  0.3353E-01  0.5470E-02  0.1197E+00  0.1360E-01
      2.149  0.4604E-02  0.8523E-01  0.8501E-02  0.6905E-02  0.3497E-02  0.7752E-02  0.1277E-01  0.2930E-01  0.2346E-01  0.6057E-01  0.6879E-01  0.4569E-01  0.7617E-01  0.3973E-01  0.2942E-01  0.7322E-02  0.1369E+00  0.2179E-01
      2.320  0.1378E-02  0.7654E-01  0.3392E-01  0.6087E-02  0.2383E-01  0.7549E-02  0.1636E-01  0.3039E-01  0.3404E+00  0.6224E-01  0.1426E+00  0.4658E-01  0.1633E+00  0.4509E-01  0.5604E+00  0.9014E-02  0.2033E+00  0.2370E-01
      2.490  0.3106E-02  0.7297E-01  0.2587E-01  0.5822E-02  0.1574E-01  0.7506E-02  0.1532E-01  0.3197E-01  0.2157E+00  0.6457E-01  0.2808E+00  0.5024E-01  0.1722E+00  0.5002E-01  0.5806E+00  0.1128E-01  0.2164E+00  0.2651E-01
      2.661  0.5205E-02  0.6669E-01  0.1359E-01  0.5441E-02  0.9105E-02  0.7234E-02  0.6931E-02  0.3255E-01  0.1362E+00  0.6335E-01  0.1294E+00  0.5143E-01  0.1166E+00  0.5284E-01  0.2866E+00  0.1373E-01  0.1026E+00  0.2873E-01
      2.831  0.9418E-02  0.6160E-01  0.1916E-01  0.5314E-02  0.2066E-01  0.7068E-02  0.1126E-01  0.3825E-01  0.1769E+00  0.6536E-01  0.1370E+00  0.5237E-01  0.7322E-01  0.7394E-01  0.2093E+00  0.1763E-01  0.7118E-01  0.6053E-01
      3.001  0.1531E-01  0.5937E-01  0.3040E-01  0.6958E-02  0.3131E-01  0.8056E-02  0.2085E-01  0.5277E-01  0.2381E+00  0.7097E-01  0.2403E+00  0.6755E-01  0.7462E-01  0.1551E+00  0.2218E+00  0.2639E-01  0.1140E+00  0.1388E+00
      3.172  0.2764E-01  0.4378E-01  0.5071E-01  0.8212E-02  0.3935E-01  0.8287E-02  0.4681E-01  0.3875E-01  0.4225E+00  0.6776E-01  0.4399E+00  0.6986E-01  0.1043E+00  0.1613E+00  0.3707E+00  0.2910E-01  0.2208E+00  0.9834E-01
      3.342  0.1966E-01  0.2800E-01  0.3484E-01  0.7608E-02  0.2508E-01  0.6451E-02  0.2729E-01  0.2458E-01  0.2677E+00  0.4979E-01  0.2432E+00  0.6315E-01  0.5869E-01  0.1166E+00  0.3098E+00  0.2881E-01  0.1576E+00  0.6649E-01
      3.513  0.1002E-01  0.6781E-02  0.1899E-01  0.5968E-02  0.1406E-01  0.2564E-02  0.1241E-01  0.1172E-01  0.6975E-01  0.9279E-02  0.1129E+00  0.4784E-01  0.2592E-01  0.4972E-01  0.1080E+00  0.9250E-02  0.9431E-01  0.4937E-01
      3.683  0.6745E-02  0.6168E-04  0.1358E-01  0.6671E-02  0.9632E-02  0.1079E-02  0.8943E-02  0.4869E-02  0.5656E-01  0.4156E-02  0.1031E+00  0.1283E-02  0.2351E-01  0.5313E-01  0.9495E-01  0.3866E-02  0.7813E-01  0.6251E-01
      3.853  0.4874E-02  0.1819E-03  0.1054E-01  0.2142E-01  0.7541E-02  0.1246E-01  0.6516E-02  0.1203E-01  0.6633E-01  0.9434E-01  0.1034E+00  0.2586E-01  0.2915E-01  0.7346E-01  0.9658E-01  0.1034E+00  0.6671E-01  0.1030E+00