 running on    4 total cores
 distrk:  each k-point on    4 cores,    1 groups
 distr:  one band on    1 cores,    4 groups
 using from now: INCAR     
 vasp.5.4.1 24Jun15 (build Jul 19 2016 16:50:41) complex                        
  
 POSCAR found type information on POSCAR  Fe
 POSCAR found :  1 types and       1 ions
 LDA part: xc-table for Pade appr. of Perdew
 POSCAR, INCAR and KPOINTS ok, starting setup
 FFT: planning ...
 WAVECAR not read
 entering main loop
       N       E                     dE             d eps       ncg     rms          rms(c)
DAV:   1     0.137608299277E+02    0.13761E+02   -0.30114E+03  1388   0.582E+02
DAV:   2    -0.826883810301E+01   -0.22030E+02   -0.20395E+02  1312   0.103E+02
DAV:   3    -0.869454909760E+01   -0.42571E+00   -0.42479E+00  1460   0.169E+01
DAV:   4    -0.869593608450E+01   -0.13870E-02   -0.13880E-02  1372   0.849E-01
DAV:   5    -0.869594395957E+01   -0.78751E-05   -0.78804E-05  1436   0.666E-02    0.121E+01
DAV:   6    -0.830058002622E+01    0.39536E+00   -0.95301E+00  1400   0.372E+01    0.495E+00
DAV:   7    -0.825742696814E+01    0.43153E-01   -0.43735E-01  1448   0.776E+00    0.307E+00
DAV:   8    -0.824904712390E+01    0.83798E-02   -0.60115E-03  1484   0.537E-01    0.125E+00
DAV:   9    -0.824315678296E+01    0.58903E-02   -0.80129E-03  1660   0.571E-01    0.190E-01
DAV:  10    -0.824313623949E+01    0.20543E-04   -0.68468E-04  1376   0.324E-01    0.508E-02
DAV:  11    -0.824315956878E+01   -0.23329E-04   -0.37123E-05  1388   0.542E-02    0.374E-02
DAV:  12    -0.824316505417E+01   -0.54854E-05   -0.25580E-06  1332   0.134E-02    0.214E-02
DAV:  13    -0.824316313633E+01    0.19178E-05   -0.47364E-07   672   0.707E-03    0.135E-02
DAV:  14    -0.824316339475E+01   -0.25842E-06   -0.22589E-07   688   0.496E-03
   1 F= -.82431634E+01 E0= -.82431634E+01  d E =0.000000E+00  mag=     2.1990
 writing wavefunctions
