PROCAR lm decomposed
# of k-points:   26         # of bands:  12         # of ions:   1

 k-point    1 :    0.06250000 0.06250000 0.06250000     weight = 0.01562500

band   1 # energy   -1.73328216 # occ.  1.00000000
 
ion      s     py     pz     px    dxy    dyz    dz2    dxz    dx2    tot
  1  0.650  0.021  0.021  0.021  0.002  0.002  0.000  0.002  0.000  0.719
 
band   2 # energy    3.14481582 # occ.  1.00000000
 
ion      s     py     pz     px    dxy    dyz    dz2    dxz    dx2    tot
  1  0.000  0.001  0.001  0.001  0.291  0.422  0.011  0.226  0.013  0.966
 
band   3 # energy    3.14481582 # occ.  1.00000000
 
ion      s     py     pz     px    dxy    dyz    dz2    dxz    dx2    tot
  1  0.000  0.001  0.001  0.001  0.335  0.204  0.013  0.400  0.011  0.966
 
band   4 # energy    3.92858902 # occ.  1.00000000
 
ion      s     py     pz     px    dxy    dyz    dz2    dxz    dx2    tot
  1  0.002  0.003  0.003  0.003  0.320  0.320  0.000  0.320  0.000  0.973
 
band   5 # energy    4.50419828 # occ.  1.00000000
 
ion      s     py     pz     px    dxy    dyz    dz2    dxz    dx2    tot
  1  0.000  0.000  0.000  0.000  0.001  0.011  0.033  0.015  0.909  0.969
 
band   6 # energy    4.50419828 # occ.  1.00338885
 
ion      s     py     pz     px    dxy    dyz    dz2    dxz    dx2    tot
  1  0.000  0.000  0.000  0.000  0.017  0.007  0.909  0.002  0.033  0.969
 
band   7 # energy   26.84753827 # occ.  0.00000000
 
ion      s     py     pz     px    dxy    dyz    dz2    dxz    dx2    tot
  1  0.000  0.056  0.046  0.008  0.109  0.019  0.110  0.134  0.066  0.549
 
band   8 # energy   26.84753827 # occ.  0.00000000
 
ion      s     py     pz     px    dxy    dyz    dz2    dxz    dx2    tot
  1  0.000  0.017  0.028  0.066  0.066  0.156  0.066  0.041  0.110  0.549
 
band   9 # energy   30.63045093 # occ.  0.00000000
 
ion      s     py     pz     px    dxy    dyz    dz2    dxz    dx2    tot
  1  0.079  0.170  0.170  0.170  0.140  0.140  0.000  0.140  0.000  1.010
 
band  10 # energy   31.37587163 # occ.  0.00000000
 
ion      s     py     pz     px    dxy    dyz    dz2    dxz    dx2    tot
  1  0.000  0.000  0.000  0.000  0.000  0.000  0.000  0.000  0.000  0.000
 
band  11 # energy   36.27263614 # occ.  0.00000000
 
ion      s     py     pz     px    dxy    dyz    dz2    dxz    dx2    tot
  1  0.000  0.066  0.050  0.212  0.012  0.051  0.008  0.016  0.026  0.440
 
band  12 # energy   36.27263614 # occ.  0.00000000
 
ion      s     py     pz     px    dxy    dyz    dz2    dxz    dx2    tot
  1  0.000  0.153  0.169  0.006  0.040  0.001  0.026  0.037  0.008  0.440
 

 k-point    2 :    0.18750000 0.06250000 0.06250000     weight = 0.04687500

band   1 # energy   -0.15524479 # occ.  1.00000000
 
ion      s     py     pz     px    dxy    dyz    dz2    dxz    dx2    tot
  1  0.502  0.062  0.062  0.018  0.007  0.066  0.004  0.007  0.011  0.738
 
band   2 # energy    2.74566831 # occ.  1.00000000
 
ion      s     py     pz     px    dxy    dyz    dz2    dxz    dx2    tot
  1  0.000  0.002  0.002  0.000  0.464  0.000  0.019  0.464  0.006  0.957
 
band   3 # energy    2.95302821 # occ.  1.00000000
 
ion      s     py     pz     px    dxy    dyz    dz2    dxz    dx2    tot
  1  0.013  0.018  0.018  0.002  0.092  0.545  0.038  0.092  0.115  0.933
 
band   4 # energy    4.44396691 # occ.  1.00000000
 
ion      s     py     pz     px    dxy    dyz    dz2    dxz    dx2    tot
  1  0.001  0.000  0.000  0.000  0.016  0.152  0.197  0.016  0.590  0.971
 
band   5 # energy    4.62390516 # occ.  1.00091129
 
ion      s     py     pz     px    dxy    dyz    dz2    dxz    dx2    tot
  1  0.000  0.000  0.000  0.000  0.014  0.000  0.710  0.014  0.237  0.975
 
band   6 # energy    4.92884251 # occ.  0.88316867
 
ion      s     py     pz     px    dxy    dyz    dz2    dxz    dx2    tot
  1  0.014  0.011  0.011  0.010  0.369  0.181  0.000  0.369  0.000  0.967
 
band   7 # energy   21.42530195 # occ.  0.00000000
 
ion      s     py     pz     px    dxy    dyz    dz2    dxz    dx2    tot
  1  0.061  0.117  0.117  0.023  0.008  0.293  0.034  0.008  0.101  0.763
 
band   8 # energy   24.50652998 # occ.  0.00000000
 
ion      s     py     pz     px    dxy    dyz    dz2    dxz    dx2    tot
  1  0.000  0.104  0.104  0.000  0.150  0.000  0.075  0.150  0.025  0.607
 
band   9 # energy   26.79239150 # occ.  0.00000000
 
ion      s     py     pz     px    dxy    dyz    dz2    dxz    dx2    tot
  1  0.126  0.056  0.056  0.389  0.102  0.001  0.009  0.102  0.028  0.870
 
band  10 # energy   31.68782989 # occ.  0.00000000
 
ion      s     py     pz     px    dxy    dyz    dz2    dxz    dx2    tot
  1  0.000  0.003  0.003  0.000  0.174  0.000  0.018  0.174  0.006  0.377
 
band  11 # energy   35.71998584 # occ.  0.00000000
 
ion      s     py     pz     px    dxy    dyz    dz2    dxz    dx2    tot
  1  0.036  0.054  0.054  0.155  0.060  0.073  0.103  0.060  0.310  0.903
 
band  12 # energy   36.92241520 # occ.  0.00000000
 
ion      s     py     pz     px    dxy    dyz    dz2    dxz    dx2    tot
  1  0.000  0.105  0.105  0.000  0.138  0.000  0.004  0.138  0.001  0.491
 

 k-point    3 :    0.31250000 0.06250000 0.06250000     weight = 0.04687500

band   1 # energy    0.97587924 # occ.  1.00000000
 
ion      s     py     pz     px    dxy    dyz    dz2    dxz    dx2    tot
  1  0.206  0.024  0.024  0.016  0.001  0.399  0.042  0.001  0.127  0.839
 
band   2 # energy    2.40361443 # occ.  1.00000000
 
ion      s     py     pz     px    dxy    dyz    dz2    dxz    dx2    tot
  1  0.000  0.003  0.003  0.000  0.468  0.000  0.006  0.468  0.002  0.951
 
band   3 # energy    3.72154817 # occ.  1.00000000
 
ion      s     py     pz     px    dxy    dyz    dz2    dxz    dx2    tot
  1  0.080  0.117  0.117  0.000  0.161  0.086  0.031  0.161  0.093  0.846
 
band   4 # energy    4.58270847 # occ.  1.00000000
 
ion      s     py     pz     px    dxy    dyz    dz2    dxz    dx2    tot
  1  0.002  0.002  0.002  0.001  0.017  0.291  0.162  0.017  0.485  0.978
 
band   5 # energy    4.71870503 # occ.  1.03316964
 
ion      s     py     pz     px    dxy    dyz    dz2    dxz    dx2    tot
  1  0.000  0.000  0.000  0.000  0.005  0.000  0.729  0.005  0.243  0.981
 
band   6 # energy    6.33457283 # occ.  0.01105448
 
ion      s     py     pz     px    dxy    dyz    dz2    dxz    dx2    tot
  1  0.050  0.061  0.061  0.009  0.313  0.114  0.001  0.313  0.003  0.925
 
band   7 # energy   15.97088795 # occ.  0.00000000
 
ion      s     py     pz     px    dxy    dyz    dz2    dxz    dx2    tot
  1  0.223  0.106  0.106  0.013  0.004  0.294  0.022  0.004  0.066  0.837
 
band   8 # energy   22.81391705 # occ.  0.00000000
 
ion      s     py     pz     px    dxy    dyz    dz2    dxz    dx2    tot
  1  0.000  0.131  0.131  0.000  0.138  0.000  0.021  0.138  0.007  0.567
 
band   9 # energy   24.47046141 # occ.  0.00000000
 
ion      s     py     pz     px    dxy    dyz    dz2    dxz    dx2    tot
  1  0.125  0.009  0.009  0.529  0.034  0.012  0.012  0.034  0.036  0.802
 
band  10 # energy   31.15826657 # occ.  0.00000000
 
ion      s     py     pz     px    dxy    dyz    dz2    dxz    dx2    tot
  1  0.000  0.006  0.006  0.000  0.359  0.000  0.006  0.359  0.002  0.739
 
band  11 # energy   35.02698748 # occ.  0.00000000
 
ion      s     py     pz     px    dxy    dyz    dz2    dxz    dx2    tot
  1  0.103  0.021  0.021  0.127  0.015  0.000  0.150  0.015  0.451  0.906
 
band  12 # energy   40.23694349 # occ.  0.00000000
 
ion      s     py     pz     px    dxy    dyz    dz2    dxz    dx2    tot
  1  0.004  0.103  0.071  0.001  0.064  0.023  0.128  0.046  0.041  0.481
 

 k-point    4 :    0.43750000 0.06250000 0.06250000     weight = 0.02343750

band   1 # energy    1.03176418 # occ.  1.00000000
 
ion      s     py     pz     px    dxy    dyz    dz2    dxz    dx2    tot
  1  0.116  0.000  0.000  0.015  0.000  0.493  0.063  0.000  0.189  0.875
 
band   2 # energy    2.27218708 # occ.  1.00000000
 
ion      s     py     pz     px    dxy    dyz    dz2    dxz    dx2    tot
  1  0.000  0.004  0.004  0.000  0.471  0.000  0.000  0.471  0.000  0.950
 
band   3 # energy    4.64440995 # occ.  1.00000000
 
ion      s     py     pz     px    dxy    dyz    dz2    dxz    dx2    tot
  1  0.011  0.000  0.000  0.001  0.000  0.292  0.169  0.000  0.508  0.980
 
band   4 # energy    4.70312484 # occ.  1.00000000
 
ion      s     py     pz     px    dxy    dyz    dz2    dxz    dx2    tot
  1  0.000  0.133  0.133  0.000  0.302  0.000  0.000  0.302  0.000  0.869
 
band   5 # energy    4.75717801 # occ.  1.07996908
 
ion      s     py     pz     px    dxy    dyz    dz2    dxz    dx2    tot
  1  0.000  0.000  0.000  0.000  0.000  0.000  0.738  0.000  0.246  0.984
 
band   6 # energy    7.72246499 # occ. -0.00486653
 
ion      s     py     pz     px    dxy    dyz    dz2    dxz    dx2    tot
  1  0.000  0.207  0.207  0.000  0.202  0.000  0.000  0.202  0.000  0.818
 
band   7 # energy   12.87778836 # occ.  0.00000000
 
ion      s     py     pz     px    dxy    dyz    dz2    dxz    dx2    tot
  1  0.422  0.000  0.000  0.017  0.000  0.372  0.021  0.000  0.064  0.897
 
band   8 # energy   22.19479031 # occ.  0.00000000
 
ion      s     py     pz     px    dxy    dyz    dz2    dxz    dx2    tot
  1  0.000  0.139  0.139  0.000  0.132  0.000  0.000  0.132  0.000  0.544
 
band   9 # energy   23.60517060 # occ.  0.00000000
 
ion      s     py     pz     px    dxy    dyz    dz2    dxz    dx2    tot
  1  0.122  0.000  0.000  0.582  0.000  0.022  0.011  0.000  0.034  0.771
 
band  10 # energy   30.92537024 # occ.  0.00000000
 
ion      s     py     pz     px    dxy    dyz    dz2    dxz    dx2    tot
  1  0.000  0.007  0.007  0.000  0.415  0.000  0.000  0.415  0.000  0.843
 
band  11 # energy   34.92059461 # occ.  0.00000000
 
ion      s     py     pz     px    dxy    dyz    dz2    dxz    dx2    tot
  1  0.142  0.000  0.000  0.119  0.000  0.010  0.170  0.000  0.511  0.952
 
band  12 # energy   40.17157937 # occ.  0.00000000
 
ion      s     py     pz     px    dxy    dyz    dz2    dxz    dx2    tot
  1  0.000  0.034  0.034  0.000  0.006  0.000  0.000  0.006  0.000  0.080
 

 k-point    5 :   -0.06250000 0.06250000 0.06250000     weight = 0.01171875

band   1 # energy   -2.34323783 # occ.  1.00000000
 
ion      s     py     pz     px    dxy    dyz    dz2    dxz    dx2    tot
  1  0.694  0.000  0.000  0.022  0.000  0.000  0.000  0.000  0.000  0.717
 
band   2 # energy    3.34294347 # occ.  1.00000000
 
ion      s     py     pz     px    dxy    dyz    dz2    dxz    dx2    tot
  1  0.000  0.001  0.001  0.000  0.485  0.000  0.000  0.485  0.000  0.973
 
band   3 # energy    3.34294661 # occ.  1.00000000
 
ion      s     py     pz     px    dxy    dyz    dz2    dxz    dx2    tot
  1  0.000  0.001  0.001  0.000  0.485  0.000  0.000  0.485  0.000  0.973
 
band   4 # energy    3.42877279 # occ.  1.00000000
 
ion      s     py     pz     px    dxy    dyz    dz2    dxz    dx2    tot
  1  0.000  0.000  0.000  0.000  0.000  0.975  0.000  0.000  0.000  0.975
 
band   5 # energy    4.43065614 # occ.  1.00000000
 
ion      s     py     pz     px    dxy    dyz    dz2    dxz    dx2    tot
  1  0.000  0.000  0.000  0.000  0.000  0.000  0.723  0.000  0.241  0.964
 
band   6 # energy    4.62434225 # occ.  1.00000000
 
ion      s     py     pz     px    dxy    dyz    dz2    dxz    dx2    tot
  1  0.000  0.000  0.000  0.000  0.000  0.000  0.243  0.000  0.729  0.972
 
band   7 # energy   28.78626743 # occ.  0.00000000
 
ion      s     py     pz     px    dxy    dyz    dz2    dxz    dx2    tot
  1  0.000  0.000  0.000  0.000  0.000  0.000  0.189  0.000  0.063  0.251
 
band   8 # energy   30.10922272 # occ.  0.00000000
 
ion      s     py     pz     px    dxy    dyz    dz2    dxz    dx2    tot
  1  0.000  0.014  0.014  0.000  0.126  0.000  0.000  0.126  0.000  0.280
 
band   9 # energy   30.10922952 # occ.  0.00000000
 
ion      s     py     pz     px    dxy    dyz    dz2    dxz    dx2    tot
  1  0.000  0.014  0.014  0.000  0.126  0.000  0.000  0.126  0.000  0.280
 
band  10 # energy   33.16750222 # occ.  0.00000000
 
ion      s     py     pz     px    dxy    dyz    dz2    dxz    dx2    tot
  1  0.019  0.000  0.000  0.306  0.000  0.000  0.070  0.000  0.210  0.606
 
band  11 # energy   35.26657112 # occ.  0.00000000
 
ion      s     py     pz     px    dxy    dyz    dz2    dxz    dx2    tot
  1  0.000  0.228  0.228  0.000  0.238  0.000  0.000  0.238  0.000  0.931
 
band  12 # energy   35.26657373 # occ.  0.00000000
 
ion      s     py     pz     px    dxy    dyz    dz2    dxz    dx2    tot
  1  0.000  0.228  0.228  0.000  0.238  0.000  0.000  0.238  0.000  0.931
 

 k-point    6 :    0.18750000 0.18750000 0.06250000     weight = 0.04687500

band   1 # energy    1.30716737 # occ.  1.00000000
 
ion      s     py     pz     px    dxy    dyz    dz2    dxz    dx2    tot
  1  0.282  0.043  0.069  0.043  0.000  0.158  0.045  0.158  0.000  0.799
 
band   2 # energy    2.47233979 # occ.  1.00000000
 
ion      s     py     pz     px    dxy    dyz    dz2    dxz    dx2    tot
  1  0.000  0.019  0.000  0.019  0.000  0.345  0.000  0.345  0.196  0.926
 
band   3 # energy    2.66942288 # occ.  1.00000000
 
ion      s     py     pz     px    dxy    dyz    dz2    dxz    dx2    tot
  1  0.030  0.004  0.062  0.004  0.663  0.076  0.007  0.076  0.000  0.920
 
band   4 # energy    4.52305297 # occ.  1.00000000
 
ion      s     py     pz     px    dxy    dyz    dz2    dxz    dx2    tot
  1  0.000  0.001  0.000  0.001  0.000  0.110  0.000  0.110  0.754  0.975
 
band   5 # energy    4.75085071 # occ.  1.00075196
 
ion      s     py     pz     px    dxy    dyz    dz2    dxz    dx2    tot
  1  0.005  0.000  0.001  0.000  0.000  0.034  0.908  0.034  0.000  0.981
 
band   6 # energy    6.53645664 # occ. -0.00807262
 
ion      s     py     pz     px    dxy    dyz    dz2    dxz    dx2    tot
  1  0.067  0.029  0.056  0.029  0.299  0.216  0.018  0.216  0.000  0.931
 
band   7 # energy   18.92678701 # occ.  0.00000000
 
ion      s     py     pz     px    dxy    dyz    dz2    dxz    dx2    tot
  1  0.000  0.163  0.000  0.163  0.000  0.166  0.000  0.166  0.123  0.782
 
band   8 # energy   19.71681840 # occ.  0.00000000
 
ion      s     py     pz     px    dxy    dyz    dz2    dxz    dx2    tot
  1  0.212  0.015  0.253  0.015  0.072  0.091  0.016  0.091  0.000  0.765
 
band   9 # energy   23.59508770 # occ.  0.00000000
 
ion      s     py     pz     px    dxy    dyz    dz2    dxz    dx2    tot
  1  0.141  0.200  0.008  0.200  0.166  0.007  0.029  0.007  0.000  0.757
 
band  10 # energy   33.60967904 # occ.  0.00000000
 
ion      s     py     pz     px    dxy    dyz    dz2    dxz    dx2    tot
  1  0.000  0.013  0.000  0.013  0.000  0.087  0.000  0.087  0.137  0.338
 
band  11 # energy   37.22381752 # occ.  0.00000000
 
ion      s     py     pz     px    dxy    dyz    dz2    dxz    dx2    tot
  1  0.021  0.023  0.032  0.023  0.376  0.157  0.014  0.157  0.000  0.803
 
band  12 # energy   39.61510330 # occ.  0.00000000
 
ion      s     py     pz     px    dxy    dyz    dz2    dxz    dx2    tot
  1  0.000  0.088  0.000  0.088  0.000  0.028  0.000  0.028  0.393  0.626
 

 k-point    7 :    0.31250000 0.18750000 0.06250000     weight = 0.09375000

band   1 # energy    1.64653021 # occ.  1.00000000
 
ion      s     py     pz     px    dxy    dyz    dz2    dxz    dx2    tot
  1  0.083  0.002  0.006  0.043  0.030  0.529  0.056  0.040  0.098  0.887
 
band   2 # energy    2.30980430 # occ.  1.00000000
 
ion      s     py     pz     px    dxy    dyz    dz2    dxz    dx2    tot
  1  0.000  0.021  0.009  0.011  0.323  0.023  0.000  0.473  0.070  0.931
 
band   3 # energy    3.29921755 # occ.  1.00000000
 
ion      s     py     pz     px    dxy    dyz    dz2    dxz    dx2    tot
  1  0.019  0.079  0.111  0.001  0.372  0.009  0.080  0.145  0.060  0.877
 
band   4 # energy    4.66033151 # occ.  1.00000000
 
ion      s     py     pz     px    dxy    dyz    dz2    dxz    dx2    tot
  1  0.003  0.001  0.000  0.002  0.000  0.212  0.053  0.047  0.663  0.980
 
band   5 # energy    4.84519489 # occ.  1.00975851
 
ion      s     py     pz     px    dxy    dyz    dz2    dxz    dx2    tot
  1  0.004  0.004  0.005  0.000  0.054  0.013  0.766  0.079  0.055  0.981
 
band   6 # energy    8.98338437 # occ. -0.00357905
 
ion      s     py     pz     px    dxy    dyz    dz2    dxz    dx2    tot
  1  0.073  0.116  0.173  0.019  0.188  0.081  0.031  0.171  0.000  0.851
 
band   7 # energy   14.29853414 # occ.  0.00000000
 
ion      s     py     pz     px    dxy    dyz    dz2    dxz    dx2    tot
  1  0.248  0.115  0.029  0.068  0.013  0.281  0.004  0.018  0.060  0.837
 
band   8 # energy   18.15245310 # occ.  0.00000000
 
ion      s     py     pz     px    dxy    dyz    dz2    dxz    dx2    tot
  1  0.178  0.050  0.101  0.155  0.087  0.003  0.001  0.160  0.028  0.761
 
band   9 # energy   22.32583608 # occ.  0.00000000
 
ion      s     py     pz     px    dxy    dyz    dz2    dxz    dx2    tot
  1  0.129  0.111  0.056  0.237  0.108  0.039  0.008  0.043  0.003  0.735
 
band  10 # energy   33.96268776 # occ.  0.00000000
 
ion      s     py     pz     px    dxy    dyz    dz2    dxz    dx2    tot
  1  0.008  0.001  0.002  0.027  0.133  0.006  0.013  0.207  0.140  0.535
 
band  11 # energy   38.27017020 # occ.  0.00000000
 
ion      s     py     pz     px    dxy    dyz    dz2    dxz    dx2    tot
  1  0.004  0.061  0.001  0.000  0.152  0.060  0.090  0.010  0.108  0.485
 
band  12 # energy   40.22640616 # occ.  0.00000000
 
ion      s     py     pz     px    dxy    dyz    dz2    dxz    dx2    tot
  1  0.048  0.007  0.004  0.119  0.062  0.000  0.233  0.034  0.294  0.802
 

 k-point    8 :   -0.18750000 0.18750000 0.06250000     weight = 0.04687500

band   1 # energy   -1.16386149 # occ.  1.00000000
 
ion      s     py     pz     px    dxy    dyz    dz2    dxz    dx2    tot
  1  0.601  0.018  0.000  0.079  0.013  0.000  0.006  0.000  0.005  0.722
 
band   2 # energy    3.08285800 # occ.  1.00000000
 
ion      s     py     pz     px    dxy    dyz    dz2    dxz    dx2    tot
  1  0.000  0.000  0.002  0.000  0.000  0.374  0.000  0.589  0.000  0.966
 
band   3 # energy    3.27316685 # occ.  1.00000000
 
ion      s     py     pz     px    dxy    dyz    dz2    dxz    dx2    tot
  1  0.005  0.012  0.000  0.007  0.810  0.000  0.107  0.000  0.011  0.952
 
band   4 # energy    4.03192345 # occ.  1.00000000
 
ion      s     py     pz     px    dxy    dyz    dz2    dxz    dx2    tot
  1  0.000  0.000  0.006  0.000  0.000  0.596  0.000  0.371  0.000  0.974
 
band   5 # energy    4.19665731 # occ.  1.00000000
 
ion      s     py     pz     px    dxy    dyz    dz2    dxz    dx2    tot
  1  0.000  0.000  0.000  0.000  0.126  0.000  0.654  0.000  0.179  0.959
 
band   6 # energy    4.72157838 # occ.  1.01081387
 
ion      s     py     pz     px    dxy    dyz    dz2    dxz    dx2    tot
  1  0.005  0.000  0.000  0.001  0.005  0.000  0.188  0.000  0.777  0.976
 
band   7 # energy   24.29639672 # occ.  0.00000000
 
ion      s     py     pz     px    dxy    dyz    dz2    dxz    dx2    tot
  1  0.028  0.126  0.000  0.058  0.275  0.000  0.194  0.000  0.014  0.695
 
band   8 # energy   27.67898025 # occ.  0.00000000
 
ion      s     py     pz     px    dxy    dyz    dz2    dxz    dx2    tot
  1  0.026  0.001  0.000  0.143  0.049  0.000  0.046  0.000  0.140  0.405
 
band   9 # energy   28.52116708 # occ.  0.00000000
 
ion      s     py     pz     px    dxy    dyz    dz2    dxz    dx2    tot
  1  0.000  0.000  0.210  0.000  0.000  0.022  0.000  0.576  0.000  0.807
 
band  10 # energy   32.54917792 # occ.  0.00000000
 
ion      s     py     pz     px    dxy    dyz    dz2    dxz    dx2    tot
  1  0.001  0.254  0.000  0.078  0.221  0.000  0.115  0.000  0.002  0.670
 
band  11 # energy   32.69838459 # occ.  0.00000000
 
ion      s     py     pz     px    dxy    dyz    dz2    dxz    dx2    tot
  1  0.000  0.000  0.349  0.000  0.000  0.464  0.000  0.005  0.000  0.818
 
band  12 # energy   34.26107743 # occ.  0.00000000
 
ion      s     py     pz     px    dxy    dyz    dz2    dxz    dx2    tot
  1  0.095  0.125  0.000  0.123  0.000  0.000  0.095  0.000  0.007  0.444
 

 k-point    9 :    0.31250000 0.31250000 0.06250000     weight = 0.01562500

band   1 # energy    1.95938047 # occ.  1.00000000
 
ion      s     py     pz     px    dxy    dyz    dz2    dxz    dx2    tot
  1  0.038  0.007  0.007  0.007  0.289  0.289  0.000  0.289  0.000  0.925
 
band   2 # energy    2.66515679 # occ.  1.00000000
 
ion      s     py     pz     px    dxy    dyz    dz2    dxz    dx2    tot
  1  0.000  0.022  0.089  0.022  0.362  0.091  0.215  0.091  0.000  0.893
 
band   3 # energy    2.66516071 # occ.  1.00000000
 
ion      s     py     pz     px    dxy    dyz    dz2    dxz    dx2    tot
  1  0.000  0.067  0.000  0.067  0.000  0.272  0.000  0.272  0.215  0.893
 
band   4 # energy    4.79504366 # occ.  1.00000000
 
ion      s     py     pz     px    dxy    dyz    dz2    dxz    dx2    tot
  1  0.000  0.004  0.000  0.004  0.000  0.121  0.000  0.121  0.732  0.982
 
band   5 # energy    4.79504371 # occ.  1.00000000
 
ion      s     py     pz     px    dxy    dyz    dz2    dxz    dx2    tot
  1  0.000  0.001  0.005  0.001  0.162  0.040  0.732  0.040  0.000  0.982
 
band   6 # energy   12.48546408 # occ.  0.00000000
 
ion      s     py     pz     px    dxy    dyz    dz2    dxz    dx2    tot
  1  0.000  0.072  0.287  0.072  0.218  0.054  0.059  0.054  0.000  0.816
 
band   7 # energy   12.48546961 # occ.  0.00000000
 
ion      s     py     pz     px    dxy    dyz    dz2    dxz    dx2    tot
  1  0.000  0.215  0.000  0.215  0.000  0.163  0.000  0.163  0.059  0.816
 
band   8 # energy   14.94696196 # occ.  0.00000000
 
ion      s     py     pz     px    dxy    dyz    dz2    dxz    dx2    tot
  1  0.586  0.002  0.002  0.002  0.076  0.076  0.000  0.076  0.000  0.821
 
band   9 # energy   21.85676048 # occ.  0.00000000
 
ion      s     py     pz     px    dxy    dyz    dz2    dxz    dx2    tot
  1  0.129  0.128  0.128  0.128  0.080  0.080  0.000  0.080  0.000  0.753
 
band  10 # energy   36.38789976 # occ.  0.00000000
 
ion      s     py     pz     px    dxy    dyz    dz2    dxz    dx2    tot
  1  0.000  0.008  0.032  0.008  0.061  0.015  0.278  0.015  0.000  0.418
 
band  11 # energy   36.38790874 # occ.  0.00000000
 
ion      s     py     pz     px    dxy    dyz    dz2    dxz    dx2    tot
  1  0.000  0.024  0.000  0.024  0.000  0.046  0.000  0.046  0.278  0.418
 
band  12 # energy   43.45315269 # occ.  0.00000000
 
ion      s     py     pz     px    dxy    dyz    dz2    dxz    dx2    tot
  1  0.026  0.052  0.052  0.052  0.351  0.351  0.000  0.351  0.000  1.234
 

 k-point   10 :   -0.31250000 0.31250000 0.06250000     weight = 0.04687500

band   1 # energy    0.45885549 # occ.  1.00000000
 
ion      s     py     pz     px    dxy    dyz    dz2    dxz    dx2    tot
  1  0.362  0.028  0.000  0.091  0.197  0.000  0.092  0.000  0.010  0.780
 
band   2 # energy    2.69547108 # occ.  1.00000000
 
ion      s     py     pz     px    dxy    dyz    dz2    dxz    dx2    tot
  1  0.000  0.000  0.002  0.000  0.000  0.433  0.000  0.523  0.000  0.958
 
band   3 # energy    3.33617393 # occ.  1.00000000
 
ion      s     py     pz     px    dxy    dyz    dz2    dxz    dx2    tot
  1  0.058  0.062  0.000  0.069  0.264  0.000  0.275  0.000  0.148  0.877
 
band   4 # energy    4.39751941 # occ.  1.00000000
 
ion      s     py     pz     px    dxy    dyz    dz2    dxz    dx2    tot
  1  0.001  0.010  0.000  0.010  0.450  0.000  0.477  0.000  0.019  0.968
 
band   5 # energy    4.90276119 # occ.  1.01741088
 
ion      s     py     pz     px    dxy    dyz    dz2    dxz    dx2    tot
  1  0.033  0.009  0.000  0.018  0.006  0.000  0.098  0.000  0.801  0.965
 
band   6 # energy    5.02207958 # occ.  0.70951109
 
ion      s     py     pz     px    dxy    dyz    dz2    dxz    dx2    tot
  1  0.000  0.000  0.008  0.000  0.000  0.537  0.000  0.434  0.000  0.979
 
band   7 # energy   18.52674257 # occ.  0.00000000
 
ion      s     py     pz     px    dxy    dyz    dz2    dxz    dx2    tot
  1  0.142  0.171  0.000  0.093  0.291  0.000  0.113  0.000  0.007  0.816
 
band   8 # energy   25.28452750 # occ.  0.00000000
 
ion      s     py     pz     px    dxy    dyz    dz2    dxz    dx2    tot
  1  0.027  0.058  0.000  0.147  0.003  0.000  0.067  0.000  0.066  0.368
 
band   9 # energy   26.37091868 # occ.  0.00000000
 
ion      s     py     pz     px    dxy    dyz    dz2    dxz    dx2    tot
  1  0.000  0.000  0.473  0.000  0.000  0.014  0.000  0.420  0.000  0.908
 
band  10 # energy   30.86388724 # occ.  0.00000000
 
ion      s     py     pz     px    dxy    dyz    dz2    dxz    dx2    tot
  1  0.000  0.000  0.191  0.000  0.000  0.578  0.000  0.165  0.000  0.934
 
band  11 # energy   32.74715950 # occ.  0.00000000
 
ion      s     py     pz     px    dxy    dyz    dz2    dxz    dx2    tot
  1  0.081  0.228  0.000  0.000  0.017  0.000  0.441  0.000  0.004  0.772
 
band  12 # energy   35.64564068 # occ.  0.00000000
 
ion      s     py     pz     px    dxy    dyz    dz2    dxz    dx2    tot
  1  0.111  0.018  0.000  0.068  0.180  0.000  0.030  0.000  0.107  0.514
 

 k-point   11 :   -0.18750000 0.31250000 0.06250000     weight = 0.04687500

band   1 # energy    0.27234884 # occ.  1.00000000
 
ion      s     py     pz     px    dxy    dyz    dz2    dxz    dx2    tot
  1  0.440  0.013  0.013  0.137  0.039  0.000  0.017  0.039  0.050  0.746
 
band   2 # energy    2.87433722 # occ.  1.00000000
 
ion      s     py     pz     px    dxy    dyz    dz2    dxz    dx2    tot
  1  0.000  0.010  0.010  0.000  0.280  0.000  0.262  0.280  0.087  0.931
 
band   3 # energy    3.07354389 # occ.  1.00000000
 
ion      s     py     pz     px    dxy    dyz    dz2    dxz    dx2    tot
  1  0.010  0.004  0.004  0.020  0.220  0.470  0.000  0.220  0.000  0.949
 
band   4 # energy    4.07520730 # occ.  1.00000000
 
ion      s     py     pz     px    dxy    dyz    dz2    dxz    dx2    tot
  1  0.000  0.002  0.002  0.000  0.187  0.000  0.437  0.187  0.146  0.961
 
band   5 # energy    4.75120427 # occ.  1.00179651
 
ion      s     py     pz     px    dxy    dyz    dz2    dxz    dx2    tot
  1  0.001  0.003  0.003  0.001  0.160  0.336  0.079  0.160  0.236  0.978
 
band   6 # energy    5.09951935 # occ.  0.76049263
 
ion      s     py     pz     px    dxy    dyz    dz2    dxz    dx2    tot
  1  0.046  0.006  0.006  0.023  0.055  0.164  0.151  0.055  0.454  0.961
 
band   7 # energy   21.50757253 # occ.  0.00000000
 
ion      s     py     pz     px    dxy    dyz    dz2    dxz    dx2    tot
  1  0.000  0.128  0.128  0.000  0.135  0.000  0.184  0.135  0.061  0.771
 
band   8 # energy   22.46323829 # occ.  0.00000000
 
ion      s     py     pz     px    dxy    dyz    dz2    dxz    dx2    tot
  1  0.146  0.067  0.067  0.177  0.140  0.017  0.001  0.140  0.004  0.761
 
band   9 # energy   28.98732794 # occ.  0.00000000
 
ion      s     py     pz     px    dxy    dyz    dz2    dxz    dx2    tot
  1  0.000  0.057  0.057  0.000  0.132  0.000  0.189  0.132  0.063  0.630
 
band  10 # energy   29.18874035 # occ.  0.00000000
 
ion      s     py     pz     px    dxy    dyz    dz2    dxz    dx2    tot
  1  0.001  0.225  0.225  0.061  0.017  0.087  0.003  0.017  0.010  0.645
 
band  11 # energy   32.94989307 # occ.  0.00000000
 
ion      s     py     pz     px    dxy    dyz    dz2    dxz    dx2    tot
  1  0.101  0.001  0.001  0.062  0.122  0.336  0.013  0.122  0.038  0.797
 
band  12 # energy   37.56056889 # occ.  0.00000000
 
ion      s     py     pz     px    dxy    dyz    dz2    dxz    dx2    tot
  1  0.000  0.145  0.145  0.000  0.004  0.000  0.098  0.004  0.033  0.429
 

 k-point   12 :   -0.43750000 0.43750000 0.06250000     weight = 0.04687500

band   1 # energy    0.91151863 # occ.  1.00000000
 
ion      s     py     pz     px    dxy    dyz    dz2    dxz    dx2    tot
  1  0.142  0.000  0.000  0.016  0.432  0.000  0.274  0.000  0.001  0.864
 
band   2 # energy    2.43246263 # occ.  1.00000000
 
ion      s     py     pz     px    dxy    dyz    dz2    dxz    dx2    tot
  1  0.000  0.000  0.002  0.000  0.000  0.462  0.000  0.489  0.000  0.954
 
band   3 # energy    4.09690441 # occ.  1.00000000
 
ion      s     py     pz     px    dxy    dyz    dz2    dxz    dx2    tot
  1  0.017  0.060  0.000  0.066  0.002  0.000  0.103  0.000  0.656  0.904
 
band   4 # energy    4.56029261 # occ.  1.00000000
 
ion      s     py     pz     px    dxy    dyz    dz2    dxz    dx2    tot
  1  0.008  0.005  0.000  0.004  0.336  0.000  0.541  0.000  0.082  0.975
 
band   5 # energy    5.81740769 # occ.  0.48853523
 
ion      s     py     pz     px    dxy    dyz    dz2    dxz    dx2    tot
  1  0.000  0.000  0.002  0.000  0.000  0.511  0.000  0.478  0.000  0.990
 
band   6 # energy    6.26590475 # occ.  0.00092410
 
ion      s     py     pz     px    dxy    dyz    dz2    dxz    dx2    tot
  1  0.055  0.196  0.000  0.236  0.062  0.000  0.009  0.000  0.247  0.803
 
band   7 # energy   13.78252386 # occ.  0.00000000
 
ion      s     py     pz     px    dxy    dyz    dz2    dxz    dx2    tot
  1  0.347  0.082  0.000  0.023  0.331  0.000  0.093  0.000  0.003  0.879
 
band   8 # energy   23.91883698 # occ.  0.00000000
 
ion      s     py     pz     px    dxy    dyz    dz2    dxz    dx2    tot
  1  0.025  0.106  0.000  0.132  0.001  0.000  0.067  0.000  0.008  0.338
 
band   9 # energy   24.75133342 # occ.  0.00000000
 
ion      s     py     pz     px    dxy    dyz    dz2    dxz    dx2    tot
  1  0.000  0.000  0.617  0.000  0.000  0.045  0.000  0.170  0.000  0.832
 
band  10 # energy   30.15812221 # occ.  0.00000000
 
ion      s     py     pz     px    dxy    dyz    dz2    dxz    dx2    tot
  1  0.000  0.000  0.119  0.000  0.000  0.544  0.000  0.408  0.000  1.070
 
band  11 # energy   33.00401681 # occ.  0.00000000
 
ion      s     py     pz     px    dxy    dyz    dz2    dxz    dx2    tot