<?xml version="1.0" encoding="ISO-8859-1"?>
<modeling>
 <generator>
  <i name="program" type="string">vasp </i>
  <i name="version" type="string">5.4.1  </i>
  <i name="subversion" type="string">24Jun15 (build Jul 19 2016 16:50:41) complex                          parallel </i>
  <i name="platform" type="string">IFC91_ompi </i>
  <i name="date" type="string">2019 10 17 </i>
  <i name="time" type="string">11:04:32 </i>
 </generator>
 <incar>
  <i type="string" name="SYSTEM"> Fe BCC</i>
  <i type="string" name="PREC">accurate</i>
  <i type="int" name="ISPIN">     2</i>
  <i name="EDIFF">      0.00000100</i>
  <i name="ENCUT">    300.00000000</i>
  <v name="MAGMOM">      4.00000000</v>
  <i type="int" name="ISMEAR">    -5</i>
  <i type="logical" name="LORBIT"> F  </i>
  <v type="int" name="KPOINT_BSE">    -1     0     0     0</v>
 </incar>
 <kpoints>
  <generation param="Monkhorst-Pack">
   <v type="int" name="divisions">       8        8        8 </v>
   <v name="usershift">      0.00000000       0.00000000       0.00000000 </v>
   <v name="genvec1">      0.12500000       0.00000000       0.00000000 </v>
   <v name="genvec2">      0.00000000       0.12500000       0.00000000 </v>
   <v name="genvec3">      0.00000000       0.00000000       0.12500000 </v>
   <v name="shift">      0.50000000       0.50000000       0.50000000 </v>
  </generation>
  <varray name="kpointlist" >
   <v>       0.06250000       0.06250000       0.06250000 </v>
   <v>       0.18750000       0.06250000       0.06250000 </v>
   <v>       0.31250000       0.06250000       0.06250000 </v>
   <v>       0.43750000       0.06250000       0.06250000 </v>
   <v>      -0.06250000       0.06250000       0.06250000 </v>
   <v>       0.18750000       0.18750000       0.06250000 </v>
   <v>       0.31250000       0.18750000       0.06250000 </v>
   <v>      -0.18750000       0.18750000       0.06250000 </v>
   <v>       0.31250000       0.31250000       0.06250000 </v>
   <v>      -0.31250000       0.31250000       0.06250000 </v>
   <v>      -0.18750000       0.31250000       0.06250000 </v>
   <v>      -0.43750000       0.43750000       0.06250000 </v>
   <v>      -0.31250000       0.43750000       0.06250000 </v>
   <v>      -0.43750000      -0.43750000       0.06250000 </v>
   <v>      -0.31250000      -0.43750000       0.06250000 </v>
   <v>       0.18750000       0.18750000       0.18750000 </v>
   <v>       0.31250000       0.18750000       0.18750000 </v>
   <v>      -0.18750000       0.18750000       0.18750000 </v>
   <v>      -0.31250000       0.31250000       0.18750000 </v>
   <v>      -0.43750000       0.43750000       0.18750000 </v>
   <v>      -0.31250000       0.43750000       0.18750000 </v>
   <v>      -0.43750000      -0.43750000       0.18750000 </v>
   <v>      -0.31250000       0.31250000       0.31250000 </v>
   <v>      -0.43750000       0.43750000       0.31250000 </v>
   <v>      -0.43750000      -0.43750000       0.31250000 </v>
   <v>      -0.43750000       0.43750000       0.43750000 </v>
  </varray>
  <varray name="weights" >
   <v>       0.01562500 </v>
   <v>       0.04687500 </v>
   <v>       0.04687500 </v>
   <v>       0.02343750 </v>
   <v>       0.01171875 </v>
   <v>       0.04687500 </v>
   <v>       0.09375000 </v>
   <v>       0.04687500 </v>
   <v>       0.01562500 </v>
   <v>       0.04687500 </v>
   <v>       0.04687500 </v>
   <v>       0.04687500 </v>
   <v>       0.09375000 </v>
   <v>       0.04687500 </v>
   <v>       0.04687500 </v>
   <v>       0.01562500 </v>
   <v>       0.02343750 </v>
   <v>       0.01171875 </v>
   <v>       0.04687500 </v>
   <v>       0.04687500 </v>
   <v>       0.04687500 </v>
   <v>       0.04687500 </v>
   <v>       0.01171875 </v>
   <v>       0.04687500 </v>
   <v>       0.01562500 </v>
   <v>       0.01171875 </v>
  </varray>
  <varray name="tetrahedronlist"  type="int" >
   <v type="int" >        4        1        2        2        6 </v>
   <v type="int" >        8        2        2        6        6 </v>
   <v type="int" >        4        2        6        6       16 </v>
   <v type="int" >        4        2        3        6        7 </v>
   <v type="int" >        4        2        6        6        7 </v>
   <v type="int" >       12        6        6        7       16 </v>
   <v type="int" >        8        3        6        7        7 </v>
   <v type="int" >        8        6        7        7       17 </v>
   <v type="int" >        8        6        7       16       17 </v>
   <v type="int" >        4        3        4        7        7 </v>
   <v type="int" >        4        3        7        7        7 </v>
   <v type="int" >       16        7        7        7       17 </v>
   <v type="int" >        8        4        7        7        7 </v>
   <v type="int" >        4        7        7        7       16 </v>
   <v type="int" >       20        7        7       16       17 </v>
   <v type="int" >        4        3        4        6        7 </v>
   <v type="int" >        4        4        6        7        7 </v>
   <v type="int" >       16        6        7        7       16 </v>
   <v type="int" >        8        3        6        6        7 </v>
   <v type="int" >        4        6        6        6        7 </v>
   <v type="int" >        4        2        2        3        6 </v>
   <v type="int" >        8        2        3        6        6 </v>
   <v type="int" >        4        2        6        6        6 </v>
   <v type="int" >        4        2        2        2        6 </v>
   <v type="int" >        8        2        2        6       11 </v>
   <v type="int" >        4        2        6        6       11 </v>
   <v type="int" >       16        1        2        2        8 </v>
   <v type="int" >        4        2        2        2        8 </v>
   <v type="int" >       12        2        2        8       11 </v>
   <v type="int" >       16        1        2        8        8 </v>
   <v type="int" >        4        2        8        8       18 </v>
   <v type="int" >        4        2        8       11       18 </v>
   <v type="int" >       20        1        5        8        8 </v>
   <v type="int" >        4        1        8        8        8 </v>
   <v type="int" >        4        8        8        8       18 </v>
   <v type="int" >        8        5        8        8        8 </v>
   <v type="int" >        4        8        8        8       11 </v>
   <v type="int" >        4        8        8       11       18 </v>
   <v type="int" >        8        1        2        5        8 </v>
   <v type="int" >        8        2        5        8        8 </v>
   <v type="int" >        8        2        8        8       11 </v>
   <v type="int" >        4        2        2        6        8 </v>
   <v type="int" >        4        2        6        8       11 </v>
   <v type="int" >        4        6        7        9       16 </v>
   <v type="int" >       16        7        9       16       17 </v>
   <v type="int" >       12        9       16       17       17 </v>
   <v type="int" >       20        7        7        9       17 </v>
   <v type="int" >       12        7        9       17       17 </v>
   <v type="int" >        8        7        7       17       17 </v>
   <v type="int" >       12        3        6        7       16 </v>
   <v type="int" >        8        3        7        7       16 </v>
   <v type="int" >        8        3        6        6       16 </v>
   <v type="int" >        4        3        6       13       16 </v>
   <v type="int" >        4        3        7       13       16 </v>
   <v type="int" >        4        2        6        6       10 </v>
   <v type="int" >        4        3        6        6       10 </v>
   <v type="int" >        8        3        6       10       13 </v>
   <v type="int" >       12        2        6       10       11 </v>
   <v type="int" >        4        6       10       11       19 </v>
   <v type="int" >        4        6       10       13       19 </v>
   <v type="int" >        4        2        8       11       11 </v>
   <v type="int" >        4        2       10       11       11 </v>
   <v type="int" >        4       10       11       11       19 </v>
   <v type="int" >        8        8       11       11       18 </v>
   <v type="int" >        8       11       11       18       19 </v>
   <v type="int" >        4       11       11       19       19 </v>
   <v type="int" >        4        8        8       10       18 </v>
   <v type="int" >       12        8       10       11       18 </v>
   <v type="int" >       12       10       11       18       19 </v>
   <v type="int" >        4       10       11       13       18 </v>
   <v type="int" >        4       10       13       18       19 </v>
   <v type="int" >        4        2        3        8       11 </v>
   <v type="int" >        4        3        8       10       11 </v>
   <v type="int" >        8        3       10       11       13 </v>
   <v type="int" >       16        2        3        6       11 </v>
   <v type="int" >        4        3        6        7       11 </v>
   <v type="int" >        4        3        7       11       13 </v>
   <v type="int" >        4        4        7        9       17 </v>
   <v type="int" >        8        4        7        7       17 </v>
   <v type="int" >        4        4        7       14       17 </v>
   <v type="int" >        4        3        7        7       12 </v>
   <v type="int" >        8        4        7        7       12 </v>
   <v type="int" >        8        4        7       12       14 </v>
   <v type="int" >        8        3        7       12       13 </v>
   <v type="int" >        4        7       12       13       20 </v>
   <v type="int" >        4        7       12       14       20 </v>
   <v type="int" >        4        3       10       13       13 </v>
   <v type="int" >        4        3       12       13       13 </v>
   <v type="int" >        4       12       13       13       20 </v>
   <v type="int" >        8       10       13       13       19 </v>
   <v type="int" >       12       13       13       19       21 </v>
   <v type="int" >        4       13       13       20       21 </v>
   <v type="int" >        8       10       11       13       19 </v>
   <v type="int" >        8       11       13       19       19 </v>
   <v type="int" >        4       13       19       19       20 </v>
   <v type="int" >        8       13       19       20       21 </v>
   <v type="int" >        4       10       11       12       19 </v>
   <v type="int" >        4       11       12       13       19 </v>
   <v type="int" >        8       12       13       19       20 </v>
   <v type="int" >        8       10       12       13       19 </v>
   <v type="int" >        4       12       13       14       19 </v>
   <v type="int" >        4       12       14       19       20 </v>
   <v type="int" >        4        3        4       10       13 </v>
   <v type="int" >        4        4       10       12       13 </v>
   <v type="int" >       12        4       12       13       14 </v>
   <v type="int" >       12        3        4        7       13 </v>
   <v type="int" >        8        4        7        7       13 </v>
   <v type="int" >       12        4        7       13       14 </v>
   <v type="int" >        4        4       12       14       14 </v>
   <v type="int" >        4       12       14       14       20 </v>
   <v type="int" >        4       14       14       20       22 </v>
   <v type="int" >        4       12       13       15       20 </v>
   <v type="int" >        4       12       14       15       20 </v>
   <v type="int" >        8       14       15       20       22 </v>
   <v type="int" >       12       13       15       20       21 </v>
   <v type="int" >       12       15       20       21       22 </v>
   <v type="int" >        4       15       20       22       22 </v>
   <v type="int" >        4       13       13       14       21 </v>
   <v type="int" >       12       13       14       15       21 </v>
   <v type="int" >       16       14       15       21       22 </v>
   <v type="int" >        8       13       14       20       21 </v>
   <v type="int" >        4       14       20       20       21 </v>
   <v type="int" >       12       14       20       21       22 </v>
   <v type="int" >        4       12       12       13       20 </v>
   <v type="int" >        8       12       13       14       20 </v>
   <v type="int" >        8       12       14       20       20 </v>
   <v type="int" >        8       12       12       14       20 </v>
   <v type="int" >        4       12       13       20       20 </v>
   <v type="int" >       16        3        4       12       14 </v>
   <v type="int" >        8        3       12       12       14 </v>
   <v type="int" >        8        3       12       13       14 </v>
   <v type="int" >       16        3        4        7       14 </v>
   <v type="int" >        4        3        6        7       14 </v>
   <v type="int" >        4        3        6       13       14 </v>
   <v type="int" >        8       14       15       15       22 </v>
   <v type="int" >        8       15       15       22       22 </v>
   <v type="int" >        8       15       21       22       22 </v>
   <v type="int" >       12       13       14       15       22 </v>
   <v type="int" >        4       13       15       15       22 </v>
   <v type="int" >        8       13       15       21       22 </v>
   <v type="int" >       12       13       14       20       22 </v>
   <v type="int" >        4       13       19       20       22 </v>
   <v type="int" >        4       13       19       21       22 </v>
   <v type="int" >        4       10       12       14       20 </v>
   <v type="int" >        4       10       13       14       20 </v>
   <v type="int" >        8       10       13       19       20 </v>
   <v type="int" >        8       10       12       13       20 </v>
   <v type="int" >        4       10       11       13       20 </v>
   <v type="int" >        4       10       11       19       20 </v>
   <v type="int" >        4        2        3       12       13 </v>
   <v type="int" >        4        2       10       12       13 </v>
   <v type="int" >        8        2       10       11       13 </v>
   <v type="int" >       12        2        3        6       13 </v>
   <v type="int" >        4        2        2        6       13 </v>
   <v type="int" >        4        2        2       11       13 </v>
   <v type="int" >        4       11       13       15       21 </v>
   <v type="int" >        8       11       13       19       21 </v>
   <v type="int" >        4       11       18       19       21 </v>
   <v type="int" >        4        8       10       13       19 </v>
   <v type="int" >        4        8       11       13       19 </v>
   <v type="int" >        8        8       11       18       19 </v>
   <v type="int" >        8        8       10       11       19 </v>
   <v type="int" >        4        8        8       11       19 </v>
   <v type="int" >        4        8        8       18       19 </v>
   <v type="int" >        4        1        2       10       11 </v>
   <v type="int" >        4        1        8       10       11 </v>
   <v type="int" >        8        1        8        8       11 </v>
   <v type="int" >        8        1        2        2       11 </v>
   <v type="int" >       12        1        2        8       11 </v>
   <v type="int" >        4        5        8       11       18 </v>
   <v type="int" >        4        5        8        8       18 </v>
   <v type="int" >        4        1        5        8       18 </v>
   <v type="int" >        4        5        5        8        8 </v>
   <v type="int" >       12        1        5        5        8 </v>
   <v type="int" >        6        1        1        5        5 </v>
   <v type="int" >        8        1        1        5        8 </v>
   <v type="int" >        4        1        1        2        8 </v>
   <v type="int" >        4        2        3        6       16 </v>
   <v type="int" >        4        3        7       16       17 </v>
   <v type="int" >       12        7       16       17       17 </v>
   <v type="int" >        8        7       17       17       17 </v>
   <v type="int" >       12        7        7        9       16 </v>
   <v type="int" >        4        6        6        7        7 </v>
   <v type="int" >       16        3        6        7       13 </v>
   <v type="int" >       12        6        7        7       13 </v>
   <v type="int" >        4        3        6        6       11 </v>
   <v type="int" >       12        3        6       11       13 </v>
   <v type="int" >       12        2        3       10       11 </v>
   <v type="int" >        4        3       10       11       19 </v>
   <v type="int" >        4        3       11       13       19 </v>
   <v type="int" >        4        2        8       10       18 </v>
   <v type="int" >        4        2       10       11       18 </v>
   <v type="int" >        4       10       18       19       19 </v>
   <v type="int" >        4        8        8       11       11 </v>
   <v type="int" >        4        8       10       11       11 </v>
   <v type="int" >        4       10       11       11       13 </v>
   <v type="int" >        4       11       11       13       19 </v>
   <v type="int" >        4        2        6        8       10 </v>
   <v type="int" >        4        6        8       10       11 </v>
   <v type="int" >       12        6       10       11       13 </v>
   <v type="int" >        8        2        3        6       10 </v>
   <v type="int" >        4        3        6        7       10 </v>
   <v type="int" >        4        6        7       10       13 </v>
   <v type="int" >        4       16       17       17       17 </v>
   <v type="int" >        4       17       17       17       17 </v>
   <v type="int" >        4        9       17       17       17 </v>
   <v type="int" >        8        7        7       15       17 </v>
   <v type="int" >        8        7        9       15       17 </v>
   <v type="int" >        4        6        7       13       16 </v>
   <v type="int" >        4        7        7       13       16 </v>
   <v type="int" >       12        7        7       13       15 </v>
   <v type="int" >        8        6        7       13       13 </v>
   <v type="int" >        4        7       13       13       21 </v>
   <v type="int" >        4        7       13       15       21 </v>
   <v type="int" >        4        6       11       13       19 </v>
   <v type="int" >        4        6       13       13       19 </v>
   <v type="int" >        4       13       19       19       23 </v>
   <v type="int" >        4       13       19       21       23 </v>
   <v type="int" >        4       11       18       19       19 </v>
   <v type="int" >        4       11       19       19       19 </v>
   <v type="int" >        4       19       19       19       23 </v>
   <v type="int" >        4       18       19       19       19 </v>
   <v type="int" >        4       19       19       19       21 </v>
   <v type="int" >        4       19       19       21       23 </v>
   <v type="int" >        4       11       13       18       19 </v>
   <v type="int" >        4       13       18       19       19 </v>
   <v type="int" >        8       13       19       19       21 </v>
   <v type="int" >       12       11       13       13       19 </v>
   <v type="int" >        4       13       13       15       19 </v>
   <v type="int" >        4       13       15       19       21 </v>
   <v type="int" >        4        6        7       11       13 </v>
   <v type="int" >        4        7       11       13       13 </v>
   <v type="int" >        8        7       13       13       15 </v>
   <v type="int" >        4        7        7        9       13 </v>
   <v type="int" >        4        7        9       13       15 </v>
   <v type="int" >        4        7        9       14       17 </v>
   <v type="int" >       12        7        9       14       15 </v>
   <v type="int" >        4        9       14       15       22 </v>
   <v type="int" >        4        7       13       15       20 </v>
   <v type="int" >        4        7       14       15       20 </v>
   <v type="int" >        4       15       20       21       24 </v>
   <v type="int" >        4       15       20       22       24 </v>
   <v type="int" >        4       13       19       21       21 </v>
   <v type="int" >        4       13       20       21       21 </v>
   <v type="int" >        4       20       21       21       24 </v>
   <v type="int" >        8       19       21       21       23 </v>
   <v type="int" >        8       21       21       23       24 </v>
   <v type="int" >        4       21       21       24       24 </v>
   <v type="int" >        4       19       19       20       23 </v>
   <v type="int" >       12       19       20       21       23 </v>
   <v type="int" >       12       20       21       23       24 </v>
   <v type="int" >        4       20       21       22       23 </v>
   <v type="int" >        4       20       22       23       24 </v>
   <v type="int" >        4       13       14       19       21 </v>
   <v type="int" >        4       14       19       20       21 </v>
   <v type="int" >        4       14       15       15       21 </v>
   <v type="int" >       16        7       13       14       15 </v>
   <v type="int" >        8        7       14       15       15 </v>
   <v type="int" >       16        7        7        9       15 </v>
   <v type="int" >        4        7        7       15       15 </v>
   <v type="int" >        4       14       20       22       22 </v>
   <v type="int" >        8       20       22       22       24 </v>
   <v type="int" >       16       22       22       24       25 </v>
   <v type="int" >       16       20       21       22       24 </v>
   <v type="int" >        8       21       22       24       24 </v>
   <v type="int" >        4       22       24       24       24 </v>
   <v type="int" >       16       22       24       24       25 </v>
   <v type="int" >        4       20       20       21       24 </v>
   <v type="int" >       12       20       22       24       24 </v>
   <v type="int" >        8       20       20       22       24 </v>
   <v type="int" >        4       20       21       24       24 </v>
   <v type="int" >        4       13       20       20       22 </v>
   <v type="int" >        8       13       20       21       22 </v>
   <v type="int" >        4       13       13       15       22 </v>
   <v type="int" >        4       13       13       21       22 </v>
   <v type="int" >        4        6        7       14       15 </v>
   <v type="int" >        4        6       13       14       15 </v>
   <v type="int" >        4        6       13       13       15 </v>
   <v type="int" >        4        6        7        7       15 </v>
   <v type="int" >        4        3        6        7       15 </v>
   <v type="int" >        4        3        6       13       15 </v>
   <v type="int" >        8       21       22       22       25 </v>
   <v type="int" >       12       21       22       24       25 </v>
   <v type="int" >        4       21       23       24       25 </v>
   <v type="int" >        4       19       20       22       24 </v>
   <v type="int" >        4       19       21       22       24 </v>
   <v type="int" >        8       19       21       23       24 </v>
   <v type="int" >        8       19       20       21       24 </v>
   <v type="int" >        4       19       19       21       24 </v>
   <v type="int" >        4       19       19       23       24 </v>
   <v type="int" >        4       11       13       20       21 </v>
   <v type="int" >        4       11       19       20       21 </v>
   <v type="int" >        4       11       19       19       21 </v>
   <v type="int" >        4       11       13       13       21 </v>
   <v type="int" >        4       10       11       13       21 </v>
   <v type="int" >        4       10       11       19       21 </v>
   <v type="int" >        4        2        6       13       13 </v>
   <v type="int" >        4        2       11       13       13 </v>
   <v type="int" >       12        2        3       10       13 </v>
   <v type="int" >        4        2       10       10       13 </v>
   <v type="int" >        4       18       19       21       23 </v>
   <v type="int" >        4       18       19       19       23 </v>
   <v type="int" >        4       11       18       19       23 </v>
   <v type="int" >        4        8       11       19       19 </v>
   <v type="int" >        4        8       18       19       19 </v>
   <v type="int" >        4        2        8       10       19 </v>
   <v type="int" >        4        2        8       11       19 </v>
   <v type="int" >       16        2        8       10       11 </v>
   <v type="int" >        4        8        8       10       11 </v>
   <v type="int" >       12        2        8        8       10 </v>
   <v type="int" >        8        2        8       10       10 </v>
   <v type="int" >        4        8       10       10       11 </v>
   <v type="int" >        4        1        8       11       18 </v>
   <v type="int" >        4        2        8        8        8 </v>
   <v type="int" >        8        2        2        8       10 </v>
   <v type="int" >        4        2        2        3       10 </v>
   <v type="int" >        4        3        4        7       17 </v>
   <v type="int" >        4        4        7       16       17 </v>
   <v type="int" >        4        7        7        7        9 </v>
   <v type="int" >        4        4        7        7       14 </v>
   <v type="int" >        4        7        7        7       14 </v>
   <v type="int" >       12        3        4       12       13 </v>
   <v type="int" >        4        4       12       13       20 </v>
   <v type="int" >        4        4       13       14       20 </v>
   <v type="int" >        4        3       10       12       19 </v>
   <v type="int" >        4        3       12       13       19 </v>
   <v type="int" >        4       12       13       19       21 </v>
   <v type="int" >        4       12       19       20       21 </v>
   <v type="int" >        4       10       13       19       19 </v>
   <v type="int" >        8       13       13       19       20 </v>
   <v type="int" >        4       10       11       13       13 </v>
   <v type="int" >        4       10       12       13       13 </v>
   <v type="int" >        4       12       13       13       14 </v>
   <v type="int" >        4       13       13       14       20 </v>
   <v type="int" >        4        3        7       10       12 </v>
   <v type="int" >        4        7       10       12       13 </v>
   <v type="int" >        8        7       12       13       14 </v>
   <v type="int" >        8        3        4        7       12 </v>
   <v type="int" >        4        7        7       12       14 </v>
   <v type="int" >        4        7        9       15       16 </v>
   <v type="int" >       12        7        9       15       15 </v>
   <v type="int" >        8        7        7       14       15 </v>
   <v type="int" >        4        7       14       15       22 </v>
   <v type="int" >        4        7       15       15       22 </v>
   <v type="int" >        4        7       13       14       21 </v>
   <v type="int" >        4        7       14       15       21 </v>
   <v type="int" >        4       14       20       21       24 </v>
   <v type="int" >        4       14       21       22       24 </v>
   <v type="int" >        4       13       19       20       23 </v>
   <v type="int" >        4       13       20       21       23 </v>
   <v type="int" >        4       20       23       24       24 </v>
   <v type="int" >        4       19       19       21       21 </v>
   <v type="int" >        4       19       20       21       21 </v>
   <v type="int" >        4       20       21       21       22 </v>
   <v type="int" >        4       21       21       22       24 </v>
   <v type="int" >        4       13       15       19       20 </v>
   <v type="int" >        4       15       19       20       21 </v>
   <v type="int" >        8       13       14       15       20 </v>
   <v type="int" >        4       14       15       15       20 </v>
   <v type="int" >        4       15       15       20       22 </v>
   <v type="int" >        4        7        9       13       14 </v>
   <v type="int" >        4        9       13       14       15 </v>
   <v type="int" >        8        9       14       15       15 </v>
   <v type="int" >        8        7        7        9       14 </v>
   <v type="int" >        4        9       15       15       22 </v>
   <v type="int" >        4       15       22       22       25 </v>
   <v type="int" >        4       15       21       22       24 </v>
   <v type="int" >        4       15       22       22       24 </v>
   <v type="int" >        8       22       24       24       26 </v>
   <v type="int" >        8       22       24       25       26 </v>
   <v type="int" >        4       21       23       24       24 </v>
   <v type="int" >        4       21       24       24       24 </v>
   <v type="int" >        8       24       24       24       26 </v>
   <v type="int" >        4       23       24       24       24 </v>
   <v type="int" >        4       24       24       24       25 </v>
   <v type="int" >       20       24       24       25       26 </v>
   <v type="int" >        4       21       22       23       24 </v>
   <v type="int" >        4       22       23       24       24 </v>
   <v type="int" >       12       21       22       22       24 </v>
   <v type="int" >        4       22       22       22       24 </v>
   <v type="int" >        4       15       15       21       22 </v>
   <v type="int" >        4       15       22       22       22 </v>
   <v type="int" >        4       15       15       15       22 </v>
   <v type="int" >        4       14       15       22       22 </v>
   <v type="int" >        4        7       15       15       15 </v>
   <v type="int" >        4        4        7        7       15 </v>
   <v type="int" >        4        4        7       14       15 </v>
   <v type="int" >        4       22       24       25       25 </v>
   <v type="int" >        8       24       25       25       26 </v>
   <v type="int" >        6       25       25       26       26 </v>
   <v type="int" >       12       24       25       26       26 </v>
   <v type="int" >        4       24       24       26       26 </v>
   <v type="int" >        8       21       24       24       25 </v>
   <v type="int" >        4       20       21       22       25 </v>
   <v type="int" >        4       20       21       24       25 </v>
   <v type="int" >        4       13       15       22       22 </v>
   <v type="int" >        4       13       21       22       22 </v>
   <v type="int" >        4       12       13       14       22 </v>
   <v type="int" >        4       12       13       20       22 </v>
   <v type="int" >        4        3        7       14       15 </v>
   <v type="int" >        4        3       13       14       15 </v>
   <v type="int" >        4       23       24       25       26 </v>
   <v type="int" >        4       23       24       24       26 </v>
   <v type="int" >        4       21       23       24       26 </v>
   <v type="int" >        4       19       21       24       24 </v>
   <v type="int" >        4       19       23       24       24 </v>
   <v type="int" >        4       13       19       20       24 </v>
   <v type="int" >        4       13       19       21       24 </v>
   <v type="int" >        4       10       13       20       21 </v>
   <v type="int" >        4       10       19       20       21 </v>
   <v type="int" >        4        3       10       12       20 </v>
   <v type="int" >        4        3       10       13       20 </v>
   <v type="int" >        8        3       10       12       13 </v>
   <v type="int" >        4       10       10       12       13 </v>
   <v type="int" >        8        3       10       10       12 </v>
   <v type="int" >        8        3       10       12       12 </v>
   <v type="int" >        4       10       12       12       13 </v>
   <v type="int" >        4       11       19       21       23 </v>
   <v type="int" >        4        6       11       13       21 </v>
   <v type="int" >        4        2       10       13       19 </v>
   <v type="int" >        4        2       11       13       19 </v>
   <v type="int" >        8        2        6       11       13 </v>
   <v type="int" >        4        2        6        6       13 </v>
   <v type="int" >        4        3       10       10       11 </v>
   <v type="int" >        4        3       11       13       13 </v>
   <v type="int" >        4        2        2        6       10 </v>
   <v type="int" >        4        6       10       12       13 </v>
   <v type="int" >        4        3        6       10       12 </v>
   <v type="int" >        4        2        3        3       10 </v>
   <v type="int" >        4        3        3       10       12 </v>
   <v type="int" >        4        3        3        4       12 </v>
   <v type="int" >        4        3        4        7       16 </v>
   <v type="int" >        4        6        7        7        7 </v>
   <v type="int" >        4        6        6        7       13 </v>
   <v type="int" >        8        3        7        7       14 </v>
   <v type="int" >        8        3        7       13       14 </v>
   <v type="int" >        4        3       12       14       20 </v>
   <v type="int" >        4        3       13       14       20 </v>
   <v type="int" >        4        4       12       12       20 </v>
   <v type="int" >        4        4       12       14       20 </v>
   <v type="int" >        4       12       14       20       22 </v>
   <v type="int" >        4       12       20       20       22 </v>
   <v type="int" >        4       12       13       14       21 </v>
   <v type="int" >        4       12       14       20       21 </v>
   <v type="int" >        4       14       21       22       22 </v>
   <v type="int" >        4       13       13       15       20 </v>
   <v type="int" >        4       14       15       20       20 </v>
   <v type="int" >        4       15       20       20       22 </v>
   <v type="int" >        4       12       13       14       14 </v>
   <v type="int" >        4       13       14       14       20 </v>
   <v type="int" >        2       14       14       20       20 </v>
   <v type="int" >        2       12       12       14       14 </v>
   <v type="int" >        8        4        7       12       12 </v>
   <v type="int" >        4        7       12       12       14 </v>
   <v type="int" >        4        3        6        7       12 </v>
   <v type="int" >        4        6        7       12       13 </v>
   <v type="int" >        4        6        7       15       16 </v>
   <v type="int" >        8        6        7       13       15 </v>
   <v type="int" >        4        6       13       15       21 </v>
   <v type="int" >        4        7       13       14       22 </v>
   <v type="int" >        4        7       13       15       22 </v>
   <v type="int" >        4       13       20       22       24 </v>
   <v type="int" >        4       13       21       22       24 </v>
   <v type="int" >        4       14       20       20       24 </v>
   <v type="int" >        4       14       20       22       24 </v>
   <v type="int" >        4       20       22       24       25 </v>
   <v type="int" >        4       20       24       24       25 </v>
   <v type="int" >        6       22       22       24       24 </v>
   <v type="int" >        4       20       21       22       22 </v>
   <v type="int" >        2       20       20       22       22 </v>
   <v type="int" >        4        7        7       13       14 </v>
   <v type="int" >        4        3        7       13       13 </v>
   <v type="int" >        4       15       21       22       25 </v>
   <v type="int" >        4       21       24       25       26 </v>
   <v type="int" >        4       24       26       26       26 </v>
   <v type="int" >        6       24       24       25       25 </v>
   <v type="int" >        4        4        7       13       15 </v>
   <v type="int" >        4        4       13       14       15 </v>
   <v type="int" >        8        4       12       12       13 </v>
   <v type="int" >        4       25       26       26       26 </v>
   <v type="int" >        2       26       26       26       26 </v>
   <v type="int" >        4        4       12       12       14 </v>
   <v type="int" >        4       12       12       12       14 </v>
   <v type="int" >        8        4       12       12       12 </v>
   <v type="int" >        4        3        4        4       12 </v>
   <v type="int" >        4        4        4       12       12 </v>
   <v type="int" >        4        1        5        8       11 </v>
   <v type="int" >        4        1        2        6       11 </v>
   <v type="int" >        4        2        8       10       13 </v>
   <v type="int" >        4        2        8       11       13 </v>
   <v type="int" >        4        2        3        7       13 </v>
   <v type="int" >        4        2        6        7       13 </v>
   <v type="int" >        4        3       10       12       14 </v>
   <v type="int" >        4        3       10       13       14 </v>
   <v type="int" >        4        3        4        6       13 </v>
   <v type="int" >        4        4        6        7       13 </v>
   <v type="int" >        4        3       10       11       12 </v>
   <v type="int" >        4        3       11       12       13 </v>
   <v type="int" >        4        2        2        3       11 </v>
   <v type="int" >        6        2        2        8        8 </v>
   <v type="int" >        6        1        1        8        8 </v>
   <v type="int" >        4        5        5        5        8 </v>
   <v type="int" >        4        6       11       13       15 </v>
   <v type="int" >        4        6        7        9       15 </v>
   <v type="int" >        4        7       13       15       15 </v>
   <v type="int" >        4        7        7        7       15 </v>
   <v type="int" >        4        7       13       13       14 </v>
   <v type="int" >        4        3        7        7       13 </v>
   <v type="int" >        4        6       10       13       13 </v>
   <v type="int" >        4        2        6       10       10 </v>
   <v type="int" >        4        3        6       10       10 </v>
   <v type="int" >        4        2        2       10       11 </v>
   <v type="int" >        2        2        2       10       10 </v>
   <v type="int" >        4        1        8        8       10 </v>
   <v type="int" >        4        1        2        8       10 </v>
   <v type="int" >        4        2        3        8       10 </v>
   <v type="int" >        4        3        8       10       10 </v>
   <v type="int" >        4        4        7        9       14 </v>
   <v type="int" >        4        7       12       13       15 </v>
   <v type="int" >        4        7       12       14       15 </v>
   <v type="int" >        4        3        7       12       12 </v>
   <v type="int" >        4        3        3       10       13 </v>
   <v type="int" >        4        3        3       12       13 </v>
   <v type="int" >        2        3        3       12       12 </v>
   <v type="int" >        2        3        3       10       10 </v>
   <v type="int" >        4        2       10       10       12 </v>
   <v type="int" >        4        2        3       10       12 </v>
   <v type="int" >        4        3        4       10       12 </v>
   <v type="int" >        4        4       10       12       12 </v>
   <v type="int" >        4        4        4       12       14 </v>
   <v type="int" >        4        3       12       12       12 </v>
   <v type="int" >        4        3        4       12       12 </v>
   <v type="int" >        4        1        5        5        5 </v>
   <v type="int" >        2        5        5        5        5 </v>
  </varray>
  <i name="volumeweight">      0.00032552 </i>
 </kpoints>
 <parameters>
  <separator name="general" >
   <i type="string" name="SYSTEM">Fe BCC</i>
   <i type="logical" name="LCOMPAT"> F  </i>
  </separator>
  <separator name="electronic" >
   <i type="string" name="PREC">accura</i>
   <i name="ENMAX">    300.00000000</i>
   <i name="ENAUG">    511.36800000</i>
   <i name="EDIFF">      0.00000100</i>
   <i type="int" name="IALGO">    38</i>
   <i type="int" name="IWAVPR">    10</i>
   <i type="int" name="NBANDS">    12</i>
   <i name="NELECT">      8.00000000</i>
   <i type="int" name="TURBO">     0</i>
   <i type="int" name="IRESTART">     0</i>
   <i type="int" name="NREBOOT">     0</i>
   <i type="int" name="NMIN">     0</i>
   <i name="EREF">      0.00000000</i>
   <separator name="electronic smearing" >
    <i type="int" name="ISMEAR">    -5</i>
    <i name="SIGMA">      0.20000000</i>
    <i name="KSPACING">      0.50000000</i>
    <i type="logical" name="KGAMMA"> T  </i>
   </separator>
   <separator name="electronic projectors" >
    <i type="logical" name="LREAL"> F  </i>
    <v name="ROPT">      0.00000000</v>
    <i type="int" name="LMAXPAW">  -100</i>
    <i type="int" name="LMAXMIX">     2</i>
    <i type="logical" name="NLSPLINE"> F  </i>
   </separator>
   <separator name="electronic startup" >
    <i type="int" name="ISTART">     0</i>
    <i type="int" name="ICHARG">     2</i>
    <i type="int" name="INIWAV">     1</i>
   </separator>
   <separator name="electronic spin" >
    <i type="int" name="ISPIN">     2</i>
    <i type="logical" name="LNONCOLLINEAR"> F  </i>
    <v name="MAGMOM">      4.00000000</v>
    <i name="NUPDOWN">     -1.00000000</i>
    <i type="logical" name="LSORBIT"> F  </i>
    <v name="SAXIS">      0.00000000      0.00000000      1.00000000</v>
    <i type="logical" name="LSPIRAL"> F  </i>
    <v name="QSPIRAL">      0.00000000      0.00000000      0.00000000</v>
    <i type="logical" name="LZEROZ"> F  </i>
   </separator>
   <separator name="electronic exchange-correlation" >
    <i type="logical" name="LASPH"> F  </i>
    <i type="logical" name="LMETAGGA"> F  </i>
   </separator>
   <separator name="electronic convergence" >
    <i type="int" name="NELM">    60</i>
    <i type="int" name="NELMDL">    -5</i>
    <i type="int" name="NELMIN">     2</i>
    <i name="ENINI">    300.00000000</i>
    <separator name="electronic convergence detail" >
     <i type="logical" name="LDIAG"> T  </i>
     <i type="logical" name="LSUBROT"> F  </i>
     <i name="WEIMIN">      0.00000000</i>
     <i name="EBREAK">      0.00000002</i>
     <i name="DEPER">      0.30000000</i>
     <i type="int" name="NRMM">     4</i>
     <i name="TIME">      0.40000000</i>
    </separator>
   </separator>
   <separator name="electronic mixer" >
    <i name="AMIX">      0.40000000</i>
    <i name="BMIX">      1.00000000</i>
    <i name="AMIN">      0.10000000</i>
    <i name="AMIX_MAG">      1.60000000</i>
    <i name="BMIX_MAG">      1.00000000</i>
    <separator name="electronic mixer details" >
     <i type="int" name="IMIX">     4</i>
     <i type="logical" name="MIXFIRST"> F  </i>
     <i type="int" name="MAXMIX">   -45</i>
     <i name="WC">    100.00000000</i>
     <i type="int" name="INIMIX">     1</i>
     <i type="int" name="MIXPRE">     1</i>
     <i type="int" name="MREMOVE">     5</i>
    </separator>
   </separator>
   <separator name="electronic dipolcorrection" >
    <i type="logical" name="LDIPOL"> F  </i>
    <i type="logical" name="LMONO"> F  </i>
    <i type="int" name="IDIPOL">     0</i>
    <i name="EPSILON">      1.00000000</i>
    <v name="DIPOL">   -100.00000000   -100.00000000   -100.00000000</v>
    <i name="EFIELD">      0.00000000</i>
   </separator>
  </separator>
  <separator name="grids" >
   <i type="int" name="NGX">    14</i>
   <i type="int" name="NGY">    14</i>
   <i type="int" name="NGZ">    14</i>
   <i type="int" name="NGXF">    28</i>
   <i type="int" name="NGYF">    28</i>
   <i type="int" name="NGZF">    28</i>
   <i type="logical" name="ADDGRID"> F  </i>
  </separator>
  <separator name="ionic" >
   <i type="int" name="NSW">     0</i>
   <i type="int" name="IBRION">    -1</i>
   <i type="int" name="ISIF">     2</i>
   <i name="PSTRESS">      0.00000000</i>
   <i name="EDIFFG">      0.00001000</i>
   <i type="int" name="NFREE">     0</i>
   <i name="POTIM">      0.50000000</i>
   <i name="SMASS">     -3.00000000</i>
   <i name="SCALEE">      1.00000000</i>
  </separator>
  <separator name="ionic md" >
   <i name="TEBEG">      0.00010000</i>
   <i name="TEEND">      0.00010000</i>
   <i type="int" name="NBLOCK">     1</i>
   <i type="int" name="KBLOCK">     1</i>
   <i type="int" name="NPACO">   256</i>
   <i name="APACO">     16.00000000</i>
  </separator>
  <separator name="symmetry" >
   <i type="int" name="ISYM">     2</i>
   <i name="SYMPREC">      0.00001000</i>
  </separator>
  <separator name="dos" >
   <i type="logical" name="LORBIT"> F  </i>
   <v name="RWIGS">     -1.00000000</v>
   <i type="int" name="NEDOS">   301</i>
   <i name="EMIN">     10.00000000</i>
   <i name="EMAX">    -10.00000000</i>
   <i name="EFERMI">      0.00000000</i>
  </separator>
  <separator name="writing" >
   <i type="int" name="NWRITE">     2</i>
   <i type="logical" name="LWAVE"> T  </i>
   <i type="logical" name="LCHARG"> T  </i>
   <i type="logical" name="LPARD"> F  </i>
   <i type="logical" name="LVTOT"> F  </i>
   <i type="logical" name="LVHAR"> F  </i>
   <i type="logical" name="LELF"> F  </i>
   <i type="logical" name="LOPTICS"> F  </i>
   <v name="STM">      0.00000000      0.00000000      0.00000000      0.00000000      0.00000000      0.00000000      0.00000000</v>
  </separator>
  <separator name="performance" >
   <i type="int" name="NPAR">     4</i>
   <i type="int" name="NSIM">     4</i>
   <i type="int" name="NBLK">    -1</i>
   <i type="logical" name="LPLANE"> T  </i>
   <i type="logical" name="LSCALAPACK"> F  </i>
   <i type="logical" name="LSCAAWARE"> F  </i>
   <i type="logical" name="LSCALU"> F  </i>
   <i type="logical" name="LASYNC"> F  </i>
   <i type="logical" name="LORBITALREAL"> F  </i>
  </separator>
  <separator name="miscellaneous" >
   <i type="int" name="IDIOT">     3</i>
   <i type="logical" name="LMUSIC"> F  </i>
   <v name="POMASS">     55.84700000</v>
   <v name="DARWINR">      0.00000000</v>
   <v name="DARWINV">      1.00000000</v>
   <i type="logical" name="LCORR"> T  </i>
  </separator>
  <i type="logical" name="GGA_COMPAT"> T  </i>
  <i type="logical" name="LBERRY"> F  </i>
  <i type="int" name="ICORELEVEL">     0</i>
  <i type="logical" name="LDAU"> F  </i>
  <i type="int" name="I_CONSTRAINED_M">     0</i>
  <separator name="electronic exchange-correlation" >
   <i type="string" name="GGA">--</i>
   <i type="int" name="VOSKOWN">     0</i>
   <i type="logical" name="LHFCALC"> F  </i>
   <i type="string" name="PRECFOCK"></i>
   <i type="logical" name="LSYMGRAD"> F  </i>
   <i type="logical" name="LHFONE"> F  </i>
   <i type="logical" name="LRHFCALC"> F  </i>
   <i type="logical" name="LTHOMAS"> F  </i>
   <i type="logical" name="LMODELHF"> F  </i>
   <i name="ENCUT4O">     -1.00000000</i>
   <i type="int" name="EXXOEP">     0</i>
   <i type="int" name="FOURORBIT">     0</i>
   <i name="AEXX">      0.00000000</i>
   <i name="HFALPHA">      0.00000000</i>
   <i name="MCALPHA">      0.00000000</i>
   <i name="ALDAX">      1.00000000</i>
   <i name="AGGAX">      1.00000000</i>
   <i name="ALDAC">      1.00000000</i>
   <i name="AGGAC">      1.00000000</i>
   <i type="int" name="NKREDX">     1</i>
   <i type="int" name="NKREDY">     1</i>
   <i type="int" name="NKREDZ">     1</i>
   <i type="logical" name="SHIFTRED"> F  </i>
   <i type="logical" name="ODDONLY"> F  </i>
   <i type="logical" name="EVENONLY"> F  </i>
   <i type="int" name="LMAXFOCK">     0</i>
   <i type="int" name="NMAXFOCKAE">     0</i>
   <i type="logical" name="LFOCKAEDFT"> F  </i>
   <i name="HFSCREEN">      0.00000000</i>
   <i name="HFSCREENC">      0.00000000</i>
   <i type="int" name="NBANDSGWLOW">     0</i>
  </separator>
  <separator name="vdW DFT" >
   <i type="logical" name="LUSE_VDW"> F  </i>
   <i name="Zab_VDW">     -0.84910000</i>
   <i name="PARAM1">      0.12340000</i>
   <i name="PARAM2">      1.00000000</i>
   <i name="PARAM3">      0.00000000</i>
  </separator>
  <separator name="model GW" >
   <i type="int" name="MODEL_GW">     0</i>
   <i name="MODEL_EPS0">      6.94473750</i>
   <i name="MODEL_ALPHA">      1.00000000</i>
  </separator>
  <separator name="linear response parameters" >
   <i type="logical" name="LEPSILON"> F  </i>
   <i type="logical" name="LRPA"> F  </i>
   <i type="logical" name="LNABLA"> F  </i>
   <i type="logical" name="LVEL"> F  </i>
   <i type="int" name="KINTER">     0</i>
   <i name="CSHIFT">      0.10000000</i>
   <i name="OMEGAMAX">     -1.00000000</i>
   <i name="DEG_THRESHOLD">      0.00200000</i>
  </separator>
  <separator name="orbital magnetization" >
   <i type="logical" name="NUCIND"> F  </i>
   <v name="MAGPOS">      0.00000000      0.00000000      0.00000000</v>
   <i type="logical" name="LNICSALL"> T  </i>
   <i type="logical" name="ORBITALMAG"> F  </i>
   <i type="logical" name="LMAGBLOCH"> F  </i>
   <i type="logical" name="LCHIMAG"> F  </i>
   <i type="logical" name="LGAUGE"> T  </i>
   <i type="int" name="MAGATOM">     0</i>
   <v name="MAGDIPOL">      0.00000000      0.00000000      0.00000000</v>
   <v name="AVECCONST">      0.00000000      0.00000000      0.00000000</v>
  </separator>
  <separator name="response functions" >
   <i type="logical" name="LADDER"> F  </i>
   <i type="logical" name="LFXC"> F  </i>
   <i type="logical" name="LHARTREE"> T  </i>
   <i type="int" name="IBSE">     0</i>
   <v type="int" name="KPOINT">    -1     0     0     0</v>
   <i type="logical" name="LTCTE"> F  </i>
   <i type="logical" name="LTETE"> F  </i>
   <i type="logical" name="LTRIPLET"> F  </i>
   <i type="logical" name="LFXCEPS"> F  </i>
   <i type="logical" name="LFXHEG"> F  </i>
   <i type="int" name="NATURALO">     0</i>
   <i type="logical" name="L2ORDER"> F  </i>
   <i type="logical" name="LUSEW"> F  </i>
   <i name="ENCUTGW">     -2.00000000</i>
   <i name="ENCUTGWSOFT">     -2.00000000</i>
   <i name="ENCUTLF">     -1.00000000</i>
   <i type="int" name="LMAXMP2">    -1</i>
   <i name="SCISSOR">      0.00000000</i>
   <i type="int" name="NOMEGA">     0</i>
   <i type="int" name="NOMEGAR">     0</i>
   <i type="int" name="NBANDSGW">    -1</i>
   <i type="int" name="NBANDSO">    -1</i>
   <i type="int" name="NBANDSV">    -1</i>
   <i type="int" name="NELM">     1</i>
   <i type="int" name="NELMHF">     1</i>
   <i type="int" name="DIM">     3</i>
   <i type="int" name="ANTIRES">     0</i>
   <i name="OMEGAMAX">    -30.00000000</i>
   <i name="OMEGAMIN">    -30.00000000</i>
   <i name="OMEGATL">   -200.00000000</i>
   <i type="int" name="OMEGAGRID">     0</i>
   <i name="CSHIFT">     -0.10000000</i>
   <i type="logical" name="SELFENERGY"> F  </i>
   <i type="logical" name="LSPECTRAL"> F  </i>
   <i type="logical" name="LSPECTRALGW"> F  </i>
   <i type="logical" name="LSINGLES"> F  </i>
   <i type="logical" name="LFERMIGW"> F  </i>
   <i type="logical" name="ODDONLYGW"> F  </i>
   <i type="logical" name="EVENONLYGW"> F  </i>
   <i type="int" name="NKREDLFX">     1</i>
   <i type="int" name="NKREDLFY">     1</i>
   <i type="int" name="NKREDLFZ">     1</i>
   <i type="int" name="MAXMEM">  1800</i>
   <i type="int" name="TELESCOPE">     0</i>
   <i type="int" name="TAUPAR">     1</i>
   <i type="int" name="OMEGAPAR">    -1</i>
   <i name="LAMBDA">      1.00000000</i>
  </separator>
  <separator name="External order field" >
   <i name="OFIELD_KAPPA">      0.00000000</i>
   <v name="OFIELD_K">      0.00000000      0.00000000      0.00000000</v>
   <i name="OFIELD_Q6_NEAR">      0.00000000</i>
   <i name="OFIELD_Q6_FAR">      0.00000000</i>
   <i name="OFIELD_A">      0.00000000</i>
  </separator>
 </parameters>
 <atominfo>
  <atoms>       1 </atoms>
  <types>       1 </types>
  <array name="atoms" >
   <dimension dim="1">ion</dimension>
   <field type="string">element</field>
   <field type="int">atomtype</field>
   <set>
    <rc><c>Fe</c><c>   1</c></rc>
   </set>
  </array>
  <array name="atomtypes" >
   <dimension dim="1">type</dimension>
   <field type="int">atomspertype</field>
   <field type="string">element</field>
   <field>mass</field>
   <field>valence</field>
   <field type="string">pseudopotential</field>
   <set>
    <rc><c>   1</c><c>Fe</c><c>     55.84700000</c><c>      8.00000000</c><c>  PAW_PBE Fe 06Sep2000                  </c></rc>
   </set>
  </array>
 </atominfo>
 <structure name="initialpos" >
  <crystal>
   <varray name="basis" >
    <v>      -1.42500000       1.42500000       1.42500000 </v>
    <v>       1.42500000      -1.42500000       1.42500000 </v>
    <v>       1.42500000       1.42500000      -1.42500000 </v>
   </varray>
   <i name="volume">     11.57456250 </i>
   <varray name="rec_basis" >
    <v>       0.00000000       0.35087719       0.35087719 </v>
    <v>       0.35087719       0.00000000       0.35087719 </v>
    <v>       0.35087719       0.35087719       0.00000000 </v>
   </varray>
  </crystal>
  <varray name="positions" >
   <v>       0.00000000       0.00000000       0.00000000 </v>
  </varray>
 </structure>
 <calculation>
  <scstep>
   <time name="dav">    3.67    2.35</time>
   <time name="total">    3.77    2.42</time>
   <energy>
    <i name="alphaZ">     59.71178263 </i>
    <i name="ewald">   -588.39789044 </i>
    <i name="hartreedc">   -112.96750494 </i>
    <i name="XCdc">      5.94991612 </i>
    <i name="pawpsdc">    552.89180568 </i>
    <i name="pawaedc">   -560.64780826 </i>
    <i name="eentropy">      0.00000000 </i>
    <i name="bandstr">     62.93215264 </i>
    <i name="atom">    594.28837649 </i>
    <i name="e_fr_energy">     13.76082993 </i>
    <i name="e_wo_entrp">     13.76082993 </i>
    <i name="e_0_energy">     13.76082993 </i>
   </energy>
  </scstep>
  <scstep>
   <time name="dav">    3.68    2.28</time>
   <time name="total">    3.80    2.36</time>
   <energy>
    <i name="e_fr_energy">     -8.26883810 </i>
    <i name="e_wo_entrp">     -8.26883810 </i>
    <i name="e_0_energy">     -8.26883810 </i>
   </energy>
  </scstep>
  <scstep>
   <time name="dav">    3.83    2.39</time>
   <time name="total">    3.91    2.44</time>
   <energy>
    <i name="e_fr_energy">     -8.69454910 </i>
    <i name="e_wo_entrp">     -8.69454910 </i>
    <i name="e_0_energy">     -8.69454910 </i>
   </energy>
  </scstep>
  <scstep>
   <time name="dav">    3.64    2.25</time>
   <time name="total">    3.70    2.29</time>
   <energy>
    <i name="e_fr_energy">     -8.69593608 </i>
    <i name="e_wo_entrp">     -8.69593608 </i>
    <i name="e_0_energy">     -8.69593608 </i>
   </energy>
  </scstep>
  <scstep>
   <time name="dav">    3.63    2.29</time>
   <time name="total">    3.80    2.40</time>
   <energy>
    <i name="e_fr_energy">     -8.69594396 </i>
    <i name="e_wo_entrp">     -8.69594396 </i>
    <i name="e_0_energy">     -8.69594396 </i>
   </energy>
  </scstep>
  <scstep>
   <time name="dav">    3.73    2.37</time>
   <time name="total">    3.89    2.47</time>
   <energy>
    <i name="e_fr_energy">     -8.30058003 </i>
    <i name="e_wo_entrp">     -8.30058003 </i>
    <i name="e_0_energy">     -8.30058003 </i>
   </energy>
  </scstep>
  <scstep>
   <time name="dav">    3.86    2.37</time>
   <time name="total">    4.03    2.47</time>
   <energy>
    <i name="e_fr_energy">     -8.25742697 </i>
    <i name="e_wo_entrp">     -8.25742697 </i>
    <i name="e_0_energy">     -8.25742697 </i>
   </energy>
  </scstep>
  <scstep>
   <time name="dav">    3.65    2.28</time>
   <time name="total">    3.82    2.39</time>
   <energy>
    <i name="e_fr_energy">     -8.24904712 </i>
    <i name="e_wo_entrp">     -8.24904712 </i>
    <i name="e_0_energy">     -8.24904712 </i>
   </energy>
  </scstep>
  <scstep>
   <time name="dav">    4.31    2.68</time>
   <time name="total">    4.49    2.79</time>
   <energy>
    <i name="e_fr_energy">     -8.24315678 </i>
    <i name="e_wo_entrp">     -8.24315678 </i>
    <i name="e_0_energy">     -8.24315678 </i>
   </energy>
  </scstep>
  <scstep>
   <time name="dav">    3.40    2.19</time>
   <time name="total">    3.56    2.30</time>
   <energy>
    <i name="e_fr_energy">     -8.24313624 </i>
    <i name="e_wo_entrp">     -8.24313624 </i>
    <i name="e_0_energy">     -8.24313624 </i>
   </energy>
  </scstep>
  <scstep>
   <time name="dav">    3.61    2.23</time>
   <time name="total">    3.72    2.30</time>
   <energy>
    <i name="e_fr_energy">     -8.24315957 </i>
    <i name="e_wo_entrp">     -8.24315957 </i>
    <i name="e_0_energy">     -8.24315957 </i>
   </energy>
  </scstep>
  <scstep>
   <time name="dav">    3.60    2.25</time>
   <time name="total">    3.76    2.35</time>
   <energy>
    <i name="e_fr_energy">     -8.24316505 </i>
    <i name="e_wo_entrp">     -8.24316505 </i>
    <i name="e_0_energy">     -8.24316505 </i>
   </energy>
  </scstep>
  <scstep>
   <time name="dav">    1.88    1.21</time>
   <time name="total">    2.02    1.29</time>
   <energy>
    <i name="e_fr_energy">     -8.24316314 </i>
    <i name="e_wo_entrp">     -8.24316314 </i>
    <i name="e_0_energy">     -8.24316314 </i>
   </energy>
  </scstep>
  <scstep>
   <time name="dav">    2.32    1.56</time>
   <time name="total">    2.45    1.65</time>
   <energy>
    <i name="alphaZ">     59.71178263 </i>
    <i name="ewald">   -588.39789044 </i>
    <i name="hartreedc">    -96.47275164 </i>
    <i name="XCdc">      4.29809866 </i>
    <i name="pawpsdc">    711.77760562 </i>
    <i name="pawaedc">   -720.83473043 </i>
    <i name="eentropy">      0.00000000 </i>
    <i name="bandstr">     27.38634570 </i>
    <i name="atom">    594.28837649 </i>
    <i name="e_fr_energy">     -8.24316339 </i>
    <i name="e_wo_entrp">     -8.24316339 </i>
    <i name="e_0_energy">     -8.24316339 </i>
   </energy>
  </scstep>
  <structure>
   <crystal>
    <varray name="basis" >
     <v>      -1.42500000       1.42500000       1.42500000 </v>
     <v>       1.42500000      -1.42500000       1.42500000 </v>
     <v>       1.42500000       1.42500000      -1.42500000 </v>
    </varray>
    <i name="volume">     11.57456250 </i>
    <varray name="rec_basis" >
     <v>       0.00000000       0.35087719       0.35087719 </v>
     <v>       0.35087719       0.00000000       0.35087719 </v>
     <v>       0.35087719       0.35087719       0.00000000 </v>
    </varray>
   </crystal>
   <varray name="positions" >
    <v>       0.00000000       0.00000000       0.00000000 </v>
   </varray>
  </structure>
  <varray name="forces" >
   <v>      -0.00000000       0.00000000      -0.00000000 </v>
  </varray>
  <varray name="stress" >
   <v>     -39.26375647       0.00000000      -0.00000000 </v>
   <v>      -0.00000000     -39.26375647      -0.00000000 </v>
   <v>       0.00000000      -0.00000000     -39.26375647 </v>
  </varray>
  <energy>
   <i name="e_fr_energy">     -8.24316339 </i>
   <i name="e_wo_entrp">     -8.24316339 </i>
   <i name="e_0_energy">      0.00000000 </i>
  </energy>
  <time name="totalsc">   51.15   32.23</time>
  <eigenvalues>
   <array>
    <dimension dim="1">band</dimension>
    <dimension dim="2">kpoint</dimension>
    <dimension dim="3">spin</dimension>
    <field>eigene</field>
    <field>occ</field>
    <set>
     <set comment="spin 1">
      <set comment="kpoint 1">
       <r>   -1.7333    1.0000 </r>
       <r>    3.1448    1.0000 </r>
       <r>    3.1448    1.0000 </r>
       <r>    3.9286    1.0000 </r>
       <r>    4.5042    1.0000 </r>
       <r>    4.5042    1.0034 </r>
       <r>   26.8475    0.0000 </r>
       <r>   26.8475    0.0000 </r>
       <r>   30.6305    0.0000 </r>
       <r>   31.3759    0.0000 </r>
       <r>   36.2726    0.0000 </r>
       <r>   36.2726    0.0000 </r>
      </set>
      <set comment="kpoint 2">
       <r>   -0.1552    1.0000 </r>
       <r>    2.7457    1.0000 </r>
       <r>    2.9530    1.0000 </r>
       <r>    4.4440    1.0000 </r>
       <r>    4.6239    1.0009 </r>
       <r>    4.9288    0.8832 </r>
       <r>   21.4253    0.0000 </r>
       <r>   24.5065    0.0000 </r>
       <r>   26.7924    0.0000 </r>
       <r>   31.6878    0.0000 </r>
       <r>   35.7200    0.0000 </r>
       <r>   36.9224    0.0000 </r>
      </set>
      <set comment="kpoint 3">
       <r>    0.9759    1.0000 </r>
       <r>    2.4036    1.0000 </r>
       <r>    3.7215    1.0000 </r>
       <r>    4.5827    1.0000 </r>
       <r>    4.7187    1.0332 </r>
       <r>    6.3346    0.0111 </r>
       <r>   15.9709    0.0000 </r>
       <r>   22.8139    0.0000 </r>
       <r>   24.4705    0.0000 </r>
       <r>   31.1583    0.0000 </r>
       <r>   35.0270    0.0000 </r>
       <r>   40.2369    0.0000 </r>
      </set>
      <set comment="kpoint 4">
       <r>    1.0318    1.0000 </r>
       <r>    2.2722    1.0000 </r>
       <r>    4.6444    1.0000 </r>
       <r>    4.7031    1.0000 </r>
       <r>    4.7572    1.0800 </r>
       <r>    7.7225   -0.0049 </r>
       <r>   12.8778    0.0000 </r>
       <r>   22.1948    0.0000 </r>
       <r>   23.6052    0.0000 </r>
       <r>   30.9254    0.0000 </r>
       <r>   34.9206    0.0000 </r>
       <r>   40.1716    0.0000 </r>
      </set>
      <set comment="kpoint 5">
       <r>   -2.3432    1.0000 </r>
       <r>    3.3429    1.0000 </r>
       <r>    3.3429    1.0000 </r>
       <r>    3.4288    1.0000 </r>
       <r>    4.4307    1.0000 </r>
       <r>    4.6243    1.0000 </r>
       <r>   28.7863    0.0000 </r>
       <r>   30.1092    0.0000 </r>
       <r>   30.1092    0.0000 </r>
       <r>   33.1675    0.0000 </r>
       <r>   35.2666    0.0000 </r>
       <r>   35.2666    0.0000 </r>
      </set>
      <set comment="kpoint 6">
       <r>    1.3072    1.0000 </r>
       <r>    2.4723    1.0000 </r>
       <r>    2.6694    1.0000 </r>
       <r>    4.5231    1.0000 </r>
       <r>    4.7509    1.0008 </r>
       <r>    6.5365   -0.0081 </r>
       <r>   18.9268    0.0000 </r>
       <r>   19.7168    0.0000 </r>
       <r>   23.5951    0.0000 </r>
       <r>   33.6097    0.0000 </r>
       <r>   37.2238    0.0000 </r>
       <r>   39.6151    0.0000 </r>
      </set>
      <set comment="kpoint 7">
       <r>    1.6465    1.0000 </r>
       <r>    2.3098    1.0000 </r>
       <r>    3.2992    1.0000 </r>
       <r>    4.6603    1.0000 </r>
       <r>    4.8452    1.0098 </r>
       <r>    8.9834   -0.0036 </r>
       <r>   14.2985    0.0000 </r>
       <r>   18.1525    0.0000 </r>
       <r>   22.3258    0.0000 </r>
       <r>   33.9627    0.0000 </r>
       <r>   38.2702    0.0000 </r>
       <r>   40.2264    0.0000 </r>
      </set>
      <set comment="kpoint 8">
       <r>   -1.1639    1.0000 </r>
       <r>    3.0829    1.0000 </r>
       <r>    3.2732    1.0000 </r>
       <r>    4.0319    1.0000 </r>
       <r>    4.1967    1.0000 </r>
       <r>    4.7216    1.0108 </r>
       <r>   24.2964    0.0000 </r>
       <r>   27.6790    0.0000 </r>
       <r>   28.5212    0.0000 </r>
       <r>   32.5492    0.0000 </r>
       <r>   32.6984    0.0000 </r>
       <r>   34.2611    0.0000 </r>
      </set>
      <set comment="kpoint 9">
       <r>    1.9594    1.0000 </r>
       <r>    2.6652    1.0000 </r>
       <r>    2.6652    1.0000 </r>
       <r>    4.7950    1.0000 </r>
       <r>    4.7950    1.0000 </r>
       <r>   12.4855    0.0000 </r>
       <r>   12.4855    0.0000 </r>
       <r>   14.9470    0.0000 </r>
       <r>   21.8568    0.0000 </r>
       <r>   36.3879    0.0000 </r>
       <r>   36.3879    0.0000 </r>
       <r>   43.4532    0.0000 </r>
      </set>
      <set comment="kpoint 10">
       <r>    0.4589    1.0000 </r>
       <r>    2.6955    1.0000 </r>
       <r>    3.3362    1.0000 </r>
       <r>    4.3975    1.0000 </r>
       <r>    4.9028    1.0174 </r>
       <r>    5.0221    0.7095 </r>
       <r>   18.5267    0.0000 </r>
       <r>   25.2845    0.0000 </r>
       <r>   26.3709    0.0000 </r>
       <r>   30.8639    0.0000 </r>
       <r>   32.7472    0.0000 </r>
       <r>   35.6456    0.0000 </r>
      </set>
      <set comment="kpoint 11">
       <r>    0.2723    1.0000 </r>
       <r>    2.8743    1.0000 </r>
       <r>    3.0735    1.0000 </r>
       <r>    4.0752    1.0000 </r>
       <r>    4.7512    1.0018 </r>
       <r>    5.0995    0.7605 </r>
       <r>   21.5076    0.0000 </r>
       <r>   22.4632    0.0000 </r>
       <r>   28.9873    0.0000 </r>
       <r>   29.1887    0.0000 </r>
       <r>   32.9499    0.0000 </r>
       <r>   37.5606    0.0000 </r>
      </set>
      <set comment="kpoint 12">
       <r>    0.9115    1.0000 </r>
       <r>    2.4325    1.0000 </r>
       <r>    4.0969    1.0000 </r>
       <r>    4.5603    1.0000 </r>
       <r>    5.8174    0.4885 </r>
       <r>    6.2659    0.0009 </r>
       <r>   13.7825    0.0000 </r>
       <r>   23.9188    0.0000 </r>
       <r>   24.7513    0.0000 </r>
       <r>   30.1581    0.0000 </r>
       <r>   33.0040    0.0000 </r>
       <r>   37.3466    0.0000 </r>
      </set>
      <set comment="kpoint 13">
       <r>    1.3146    1.0000 </r>
       <r>    2.5756    1.0000 </r>
       <r>    3.1415    1.0000 </r>
       <r>    4.3694    1.0000 </r>
       <r>    5.1343    1.0246 </r>
       <r>    6.8199   -0.0359 </r>
       <r>   16.3495    0.0000 </r>
       <r>   20.2479    0.0000 </r>
       <r>   26.7914    0.0000 </r>
       <r>   29.9724    0.0000 </r>
       <r>   33.5861    0.0000 </r>
       <r>   38.0957    0.0000 </r>
      </set>
      <set comment="kpoint 14">
       <r>    1.3497    1.0000 </r>
       <r>    2.5660    1.0000 </r>
       <r>    3.3124    1.0000 </r>
       <r>    4.4714    1.0000 </r>
       <r>    5.4795    0.8867 </r>
       <r>    8.8244   -0.0018 </r>
       <r>   12.9821    0.0000 </r>
       <r>   19.5549    0.0000 </r>
       <r>   25.9572    0.0000 </r>
       <r>   30.3041    0.0000 </r>
       <r>   34.5725    0.0000 </r>
       <r>   37.4062    0.0000 </r>
      </set>
      <set comment="kpoint 15">
       <r>    2.0277    1.0000 </r>
       <r>    2.2807    1.0000 </r>
       <r>    2.8105    1.0000 </r>
       <r>    4.6632    1.0000 </r>
       <r>    5.1090    1.0379 </r>
       <r>   10.0446   -0.0006 </r>
       <r>   14.4288    0.0000 </r>
       <r>   15.7562    0.0000 </r>
       <r>   27.1788    0.0000 </r>
       <r>   30.3907    0.0000 </r>
       <r>   32.5674    0.0000 </r>
       <r>   39.6144    0.0000 </r>
      </set>
      <set comment="kpoint 16">
       <r>    2.2946    1.0000 </r>
       <r>    2.2946    1.0000 </r>
       <r>    2.4631    1.0000 </r>
       <r>    4.7341    1.0000 </r>
       <r>    4.7341    1.0000 </r>
       <r>    8.9623   -0.0045 </r>
       <r>   17.2825    0.0000 </r>
       <r>   17.2825    0.0000 </r>
       <r>   18.5728    0.0000 </r>
       <r>   38.2845    0.0000 </r>
       <r>   40.9336    0.0000 </r>
       <r>   40.9336    0.0000 </r>
      </set>
      <set comment="kpoint 17">
       <r>    2.1821    1.0000 </r>
       <r>    2.2574    1.0000 </r>
       <r>    2.9052    1.0000 </r>
       <r>    4.7672    1.0000 </r>
       <r>    4.7815    1.0000 </r>
       <r>   11.7804    0.0000 </r>
       <r>   13.5967    0.0000 </r>
       <r>   16.7198    0.0000 </r>
       <r>   17.6586    0.0000 </r>
       <r>   39.3169    0.0000 </r>
       <r>   42.6833    0.0000 </r>
       <r>   43.0850    0.0000 </r>
      </set>
      <set comment="kpoint 18">
       <r>   -0.1307    1.0000 </r>
       <r>    3.4330    1.0000 </r>
       <r>    3.4941    1.0000 </r>
       <r>    3.4941    1.0000 </r>
       <r>    4.0458    1.0000 </r>
       <r>    5.0781    0.9058 </r>
       <r>   24.4504    0.0000 </r>
       <r>   25.3860    0.0000 </r>
       <r>   25.3860    0.0000 </r>
       <r>   27.3083    0.0000 </r>
       <r>   36.7196    0.0000 </r>
       <r>   36.7196    0.0000 </r>
      </set>
      <set comment="kpoint 19">
       <r>    1.1625    1.0000 </r>
       <r>    2.6849    1.0000 </r>
       <r>    3.3587    1.0000 </r>
       <r>    4.0068    1.0000 </r>
       <r>    4.9082    1.0329 </r>
       <r>    5.9312    0.1112 </r>
       <r>   19.3785    0.0000 </r>
       <r>   22.7825    0.0000 </r>
       <r>   23.9902    0.0000 </r>
       <r>   27.9126    0.0000 </r>
       <r>   35.7957    0.0000 </r>
       <r>   37.5198    0.0000 </r>
      </set>
      <set comment="kpoint 20">
       <r>    1.4466    1.0000 </r>
       <r>    2.6194    1.0000 </r>
       <r>    3.1652    1.0000 </r>
       <r>    4.2182    1.0000 </r>
       <r>    5.7379    0.3552 </r>
       <r>    8.4053   -0.0113 </r>
       <r>   14.3026    0.0000 </r>
       <r>   21.1713    0.0000 </r>
       <r>   23.1491    0.0000 </r>
       <r>   30.4377    0.0000 </r>
       <r>   34.8729    0.0000 </r>
       <r>   35.5242    0.0000 </r>
      </set>
      <set comment="kpoint 21">
       <r>    1.7596    1.0000 </r>
       <r>    2.0712    1.0000 </r>
       <r>    3.4380    1.0000 </r>
       <r>    4.3951    1.0000 </r>
       <r>    5.3231    1.0650 </r>
       <r>    8.2816   -0.0151 </r>
       <r>   17.2421    0.0000 </r>
       <r>   17.8463    0.0000 </r>
       <r>   25.4153    0.0000 </r>
       <r>   26.9018    0.0000 </r>
       <r>   34.5087    0.0000 </r>
       <r>   37.4106    0.0000 </r>
      </set>
      <set comment="kpoint 22">
       <r>    1.7135    1.0000 </r>
       <r>    2.0816    1.0000 </r>
       <r>    3.2479    1.0000 </r>
       <r>    4.6991    1.0000 </r>
       <r>    5.5497    0.7593 </r>
       <r>   11.2729    0.0000 </r>
       <r>   13.4561    0.0000 </r>
       <r>   16.8655    0.0000 </r>
       <r>   25.4184    0.0000 </r>
       <r>   28.5743    0.0000 </r>
       <r>   31.9806    0.0000 </r>
       <r>   36.4205    0.0000 </r>
      </set>
      <set comment="kpoint 23">
       <r>    1.5485    1.0000 </r>
       <r>    2.0263    1.0000 </r>
       <r>    4.2520    1.0000 </r>
       <r>    4.2520    1.0000 </r>
       <r>    4.9429    1.1682 </r>
       <r>    7.6539   -0.0220 </r>
       <r>   19.8556    0.0000 </r>
       <r>   19.8556    0.0000 </r>
       <r>   22.1460    0.0000 </r>
       <r>   24.1555    0.0000 </r>
       <r>   35.8529    0.0000 </r>
       <r>   40.6923    0.0000 </r>
      </set>
      <set comment="kpoint 24">
       <r>    1.4509    1.0000 </r>
       <r>    1.5806    1.0000 </r>
       <r>    4.3874    1.0000 </r>
       <r>    4.6641    1.0000 </r>
       <r>    5.6281    0.2913 </r>
       <r>   10.7579    0.0000 </r>
       <r>   15.4899    0.0000 </r>
       <r>   18.0495    0.0000 </r>
       <r>   22.3046    0.0000 </r>
       <r>   25.1681    0.0000 </r>
       <r>   31.1900    0.0000 </r>
       <r>   40.1685    0.0000 </r>
      </set>
      <set comment="kpoint 25">
       <r>    1.3140    1.0000 </r>
       <r>    1.3140    1.0000 </r>
       <r>    4.4924    1.0000 </r>
       <r>    5.4766    1.0000 </r>
       <r>    5.4766    1.0645 </r>
       <r>   14.1423    0.0000 </r>
       <r>   14.1423    0.0000 </r>
       <r>   15.2589    0.0000 </r>
       <r>   23.7760    0.0000 </r>
       <r>   23.7760    0.0000 </r>
       <r>   28.6474    0.0000 </r>
       <r>   40.7138    0.0000 </r>
      </set>
      <set comment="kpoint 26">
       <r>    1.0567    1.0000 </r>
       <r>    1.0573    1.0000 </r>
       <r>    5.4367    1.0000 </r>
       <r>    5.4367    1.0000 </r>
       <r>    5.5943    0.2283 </r>
       <r>   13.5390    0.0000 </r>
       <r>   16.0491    0.0000 </r>
       <r>   16.0492    0.0000 </r>
       <r>   21.2652    0.0000 </r>
       <r>   22.4158    0.0000 </r>
       <r>   27.1377    0.0000 </r>
       <r>   43.9093    0.0000 </r>
      </set>
     </set>
     <set comment="spin 2">
      <set comment="kpoint 1">
       <r>   -1.6191    1.0000 </r>
       <r>    5.0783    1.0000 </r>
       <r>    5.0783    1.0000 </r>
       <r>    5.9613   -0.0237 </r>
       <r>    7.1977    0.0000 </r>
       <r>    7.1977    0.0000 </r>
       <r>   26.9935    0.0000 </r>
       <r>   26.9935    0.0000 </r>
       <r>   31.0413    0.0000 </r>
       <r>   31.4614    0.0000 </r>
       <r>   36.5566    0.0000 </r>
       <r>   36.5566    0.0000 </r>
      </set>
      <set comment="kpoint 2">
       <r>    0.0509    1.0000 </r>
       <r>    4.5904    1.0000 </r>
       <r>    4.7552    1.0000 </r>
       <r>    7.0036   -0.0010 </r>
       <r>    7.0533    0.0000 </r>
       <r>    7.3531    0.0000 </r>
       <r>   21.9875    0.0000 </r>
       <r>   24.7780    0.0000 </r>
       <r>   27.5023    0.0000 </r>
       <r>   31.5839    0.0000 </r>
       <r>   36.2614    0.0000 </r>
       <r>   37.1342    0.0000 </r>
      </set>
      <set comment="kpoint 3">
       <r>    1.8483    1.0000 </r>
       <r>    4.1707    1.0000 </r>
       <r>    4.8716    1.0072 </r>
       <r>    7.1467    0.0000 </r>
       <r>    7.4913    0.0000 </r>
       <r>    8.2841    0.0000 </r>
       <r>   16.9033    0.0000 </r>
       <r>   23.0727    0.0000 </r>
       <r>   25.0884    0.0000 </r>
       <r>   31.3071    0.0000 </r>
       <r>   35.5535    0.0000 </r>
       <r>   40.4010    0.0000 </r>
      </set>
      <set comment="kpoint 4">
       <r>    2.3267    1.0000 </r>
       <r>    4.0100    1.0000 </r>
       <r>    5.6352    0.9011 </r>
       <r>    7.2182    0.0000 </r>
       <r>    7.5510    0.0000 </r>
       <r>    9.1403    0.0000 </r>
       <r>   14.2141    0.0000 </r>
       <r>   22.4315    0.0000 </r>
       <r>   24.1743    0.0000 </r>
       <r>   31.1501    0.0000 </r>
       <r>   35.4718    0.0000 </r>
       <r>   40.1415    0.0000 </r>
      </set>
      <set comment="kpoint 5">
       <r>   -2.2368    1.0000 </r>
       <r>    5.3146    1.0000 </r>
       <r>    5.3146    1.0000 </r>
       <r>    5.4227    0.3793 </r>
       <r>    7.1132    0.0000 </r>
       <r>    7.3634    0.0000 </r>
       <r>   28.6346    0.0000 </r>
       <r>   29.9534    0.0000 </r>
       <r>   29.9534    0.0000 </r>
       <r>   33.5124    0.0000 </r>
       <r>   36.0118    0.0000 </r>
       <r>   36.0118    0.0000 </r>
      </set>
      <set comment="kpoint 6">
       <r>    1.8312    1.0000 </r>
       <r>    4.1965    1.0000 </r>
       <r>    4.3036    1.0001 </r>
       <r>    7.1300    0.0000 </r>
       <r>    7.4853    0.0000 </r>
       <r>    8.4754    0.0000 </r>
       <r>   19.5941    0.0000 </r>
       <r>   20.3314    0.0000 </r>
       <r>   24.1517    0.0000 </r>
       <r>   33.4987    0.0000 </r>
       <r>   37.4928    0.0000 </r>
       <r>   39.8752    0.0000 </r>
      </set>
      <set comment="kpoint 7">
       <r>    2.9383    1.0000 </r>
       <r>    3.9629    1.0000 </r>
       <r>    4.5453    1.0023 </r>
       <r>    7.2700    0.0000 </r>
       <r>    7.5562    0.0000 </r>
       <r>   10.3983    0.0000 </r>
       <r>   15.3115    0.0000 </r>
       <r>   18.7836    0.0000 </r>
       <r>   22.8402    0.0000 </r>
       <r>   33.9914    0.0000 </r>
       <r>   38.3375    0.0000 </r>
       <r>   40.6010    0.0000 </r>
      </set>
      <set comment="kpoint 8">
       <r>   -1.0305    1.0000 </r>
       <r>    4.9962    1.0000 </r>
       <r>    5.1908    1.0000 </r>
       <r>    6.0868   -0.0122 </r>
       <r>    6.7618    0.0000 </r>
       <r>    7.4699    0.0000 </r>
       <r>   24.6750    0.0000 </r>
       <r>   27.7549    0.0000 </r>
       <r>   28.8481    0.0000 </r>
       <r>   32.9220    0.0000 </r>
       <r>   33.2214    0.0000 </r>
       <r>   34.6252    0.0000 </r>
      </set>
      <set comment="kpoint 9">
       <r>    3.4968    1.0000 </r>
       <r>    4.0924    1.0000 </r>
       <r>    4.0924    1.0001 </r>
       <r>    7.4444    0.0000 </r>
       <r>    7.4444    0.0000 </r>
       <r>   13.5064    0.0000 </r>
       <r>   13.5064    0.0000 </r>
       <r>   15.8353    0.0000 </r>
       <r>   22.3914    0.0000 </r>
       <r>   36.3739    0.0000 </r>
       <r>   36.3739    0.0000 </r>
       <r>   44.1317    0.0000 </r>
      </set>
      <set comment="kpoint 10">
       <r>    0.9077    1.0000 </r>
       <r>    4.5296    1.0000 </r>
       <r>    4.9223    1.0017 </r>
       <r>    6.8269    0.0000 </r>
       <r>    7.1978    0.0000 </r>
       <r>    7.5883    0.0000 </r>
       <r>   19.2950    0.0000 </r>
       <r>   25.3675    0.0000 </r>
       <r>   26.9475    0.0000 </r>
       <r>   31.2895    0.0000 </r>
       <r>   33.2217    0.0000 </r>
       <r>   35.8800    0.0000 </r>
      </set>
      <set comment="kpoint 11">
       <r>    0.5457    1.0000 </r>
       <r>    4.7774    1.0000 </r>
       <r>    4.8875    1.0018 </r>
       <r>    6.4875   -0.0005 </r>
       <r>    6.9359    0.0000 </r>
       <r>    7.6991    0.0000 </r>
       <r>   22.0738    0.0000 </r>
       <r>   23.0051    0.0000 </r>
       <r>   29.1678    0.0000 </r>
       <r>   29.6516    0.0000 </r>
       <r>   33.3066    0.0000 </r>
       <r>   37.8497    0.0000 </r>
      </set>
      <set comment="kpoint 12">
       <r>    2.1121    1.0000 </r>
       <r>    4.2163    1.0000 </r>
       <r>    5.5005    0.9877 </r>
       <r>    7.0383    0.0000 </r>
       <r>    7.9602    0.0000 </r>
       <r>    8.1125    0.0000 </r>
       <r>   14.9847    0.0000 </r>
       <r>   23.9715    0.0000 </r>
       <r>   25.3018    0.0000 </r>
       <r>   30.6218    0.0000 </r>
       <r>   33.5557    0.0000 </r>
       <r>   37.4158    0.0000 </r>
      </set>
      <set comment="kpoint 13">
       <r>    2.2560    1.0000 </r>
       <r>    4.3372    1.0000 </r>
       <r>    4.7332    1.0054 </r>
       <r>    6.7399    0.0000 </r>
       <r>    7.5933    0.0000 </r>
       <r>    8.6913    0.0000 </r>
       <r>   17.2374    0.0000 </r>
       <r>   20.8231    0.0000 </r>
       <r>   27.1019    0.0000 </r>
       <r>   30.3104    0.0000 </r>
       <r>   33.8649    0.0000 </r>
       <r>   38.4828    0.0000 </r>
      </set>
      <set comment="kpoint 14">
       <r>    2.7410    1.0000 </r>
       <r>    4.3307    1.0000 </r>
       <r>    4.8212    1.0091 </r>
       <r>    6.8953    0.0000 </r>
       <r>    7.8219    0.0000 </r>
       <r>   10.0722    0.0000 </r>
       <r>   14.2494    0.0000 </r>
       <r>   20.1181    0.0000 </r>
       <r>   26.2343    0.0000 </r>
       <r>   30.7304    0.0000 </r>
       <r>   34.6271    0.0000 </r>
       <r>   37.8900    0.0000 </r>
      </set>
      <set comment="kpoint 15">
       <r>    3.4425    1.0000 </r>
       <r>    3.9466    1.0000 </r>
       <r>    4.4425    1.0058 </r>
       <r>    7.0306    0.0000 </r>
       <r>    7.5108    0.0000 </r>
       <r>   11.3402    0.0000 </r>
       <r>   15.3897    0.0000 </r>
       <r>   16.5591    0.0000 </r>
       <r>   27.6217    0.0000 </r>
       <r>   30.5419    0.0000 </r>
       <r>   32.7343    0.0000 </r>
       <r>   40.4368    0.0000 </r>
      </set>
      <set comment="kpoint 16">
       <r>    3.3390    1.0000 </r>
       <r>    3.8889    1.0000 </r>
[...]
       </set>
       <set comment="band 5">
        <r>  0.0063  0.0012  0.0012  0.0096  0.0922  0.3237  0.1131  0.0923  0.3392 </r>
       </set>
       <set comment="band 6">
        <r>  0.0581  0.0420  0.0420  0.2064  0.0920  0.1428  0.0518  0.0920  0.1554 </r>
       </set>
       <set comment="band 7">
        <r>  0.0000  0.1950  0.1950  0.0000  0.1334  0.0000  0.1417  0.1334  0.0472 </r>
       </set>
       <set comment="band 8">
        <r>  0.4534  0.0414  0.0414  0.0268  0.0769  0.0873  0.0014  0.0769  0.0043 </r>
       </set>
       <set comment="band 9">
        <r>  0.0257  0.1828  0.1828  0.0888  0.0497  0.0819  0.0004  0.0497  0.0013 </r>
       </set>
       <set comment="band 10">
        <r>  0.0000  0.0441  0.0441  0.0000  0.0488  0.0000  0.2881  0.0488  0.0960 </r>
       </set>
       <set comment="band 11">
        <r>  0.0268  0.0099  0.0099  0.0282  0.0212  0.1356  0.0888  0.0212  0.2663 </r>
       </set>
       <set comment="band 12">
        <r>  0.1145  0.0364  0.0364  0.1743  0.2098  0.2265  0.0178  0.2098  0.0535 </r>
       </set>
      </set>
      <set comment="kpoint 16">
       <set comment="band 1">
        <r>  0.1505  0.0856  0.0856  0.0856  0.1307  0.1307  0.0000  0.1307  0.0000 </r>
       </set>
       <set comment="band 2">
        <r>  0.0000  0.0068  0.0201  0.0484  0.2109  0.5088  0.0174  0.0719  0.0261 </r>
       </set>
       <set comment="band 3">
        <r>  0.0000  0.0433  0.0301  0.0018  0.3169  0.0189  0.0261  0.4559  0.0174 </r>
       </set>
       <set comment="band 4">
        <r>  0.0000  0.0000  0.0000  0.0000  0.0017  0.0290  0.0403  0.0263  0.8852 </r>
       </set>
       <set comment="band 5">
        <r>  0.0000  0.0000  0.0000  0.0000  0.0363  0.0090  0.8852  0.0117  0.0403 </r>
       </set>
       <set comment="band 6">
        <r>  0.0696  0.0568  0.0568  0.0568  0.2224  0.2224  0.0000  0.2224  0.0000 </r>
       </set>
       <set comment="band 7">
        <r>  0.0000  0.1127  0.1903  0.0271  0.2318  0.0330  0.0340  0.1373  0.0053 </r>
       </set>
       <set comment="band 8">
        <r>  0.0000  0.1074  0.0298  0.1929  0.0363  0.2350  0.0053  0.1308  0.0340 </r>
       </set>
       <set comment="band 9">
        <r>  0.5621  0.0771  0.0771  0.0771  0.0012  0.0012  0.0000  0.0012  0.0000 </r>
       </set>
       <set comment="band 10">
        <r>  0.0000  0.0000  0.0000  0.0000  0.0000  0.0000  0.0000  0.0000  0.0000 </r>
       </set>
       <set comment="band 11">
        <r>  0.0000  0.0013  0.0014  0.0052  0.0918  0.3428  0.0183  0.0879  0.0511 </r>
       </set>
       <set comment="band 12">
        <r>  0.0000  0.0039  0.0039  0.0001  0.2565  0.0055  0.0511  0.2604  0.0183 </r>
       </set>
      </set>
      <set comment="kpoint 17">
       <set comment="band 1">
        <r>  0.0331  0.0000  0.0000  0.1246  0.0000  0.6723  0.0119  0.0000  0.0358 </r>
       </set>
       <set comment="band 2">
        <r>  0.0000  0.0425  0.0425  0.0000  0.4124  0.0000  0.0000  0.4124  0.0000 </r>
       </set>
       <set comment="band 3">
        <r>  0.0000  0.1157  0.1157  0.0000  0.3129  0.0000  0.0000  0.3129  0.0000 </r>
       </set>
       <set comment="band 4">
        <r>  0.0003  0.0000  0.0000  0.0002  0.0000  0.0664  0.2293  0.0000  0.6880 </r>
       </set>
       <set comment="band 5">
        <r>  0.0000  0.0000  0.0000  0.0000  0.0000  0.0000  0.7397  0.0000  0.2466 </r>
       </set>
       <set comment="band 6">
        <r>  0.0000  0.1729  0.1729  0.0000  0.2432  0.0000  0.0000  0.2432  0.0000 </r>
       </set>
       <set comment="band 7">
        <r>  0.2366  0.0000  0.0000  0.1771  0.0000  0.4003  0.0070  0.0000  0.0209 </r>
       </set>
       <set comment="band 8">
        <r>  0.0000  0.1684  0.1684  0.0000  0.2159  0.0000  0.0000  0.2159  0.0000 </r>
       </set>
       <set comment="band 9">
        <r>  0.5244  0.0000  0.0000  0.2077  0.0000  0.0490  0.0019  0.0000  0.0058 </r>
       </set>
       <set comment="band 10">
        <r>  0.0000  0.0002  0.0002  0.0000  0.1165  0.0000  0.0000  0.1165  0.0000 </r>
       </set>
       <set comment="band 11">
        <r>  0.0000  0.0254  0.0255  0.0000  0.0581  0.0000  0.0000  0.0581  0.0000 </r>
       </set>
       <set comment="band 12">
        <r>  0.0124  0.0000  0.0000  0.0954  0.0000  0.1147  0.1040  0.0000  0.3118 </r>
       </set>
      </set>
      <set comment="kpoint 18">
       <set comment="band 1">
        <r>  0.5079  0.0000  0.0000  0.1697  0.0000  0.0000  0.0106  0.0000  0.0317 </r>
       </set>
       <set comment="band 2">
        <r>  0.0000  0.0116  0.0116  0.0000  0.4678  0.0000  0.0000  0.4678  0.0000 </r>
       </set>
       <set comment="band 3">
        <r>  0.0000  0.0116  0.0116  0.0000  0.4678  0.0000  0.0000  0.4678  0.0000 </r>
       </set>
       <set comment="band 4">
        <r>  0.0000  0.0000  0.0000  0.0000  0.0000  0.0000  0.6794  0.0000  0.2265 </r>
       </set>
       <set comment="band 5">
        <r>  0.0000  0.0000  0.0000  0.0000  0.0000  0.9735  0.0000  0.0000  0.0000 </r>
       </set>
       <set comment="band 6">
        <r>  0.0263  0.0000  0.0000  0.0068  0.0000  0.0000  0.2368  0.0000  0.7105 </r>
       </set>
       <set comment="band 7">
        <r>  0.0000  0.0000  0.0000  0.0000  0.0000  0.0000  0.4264  0.0000  0.1421 </r>
       </set>
       <set comment="band 8">
        <r>  0.0000  0.1767  0.1767  0.0000  0.2646  0.0000  0.0000  0.2647  0.0000 </r>
       </set>
       <set comment="band 9">
        <r>  0.0000  0.1767  0.1767  0.0000  0.2647  0.0000  0.0000  0.2646  0.0000 </r>
       </set>
       <set comment="band 10">
        <r>  0.1639  0.0000  0.0000  0.2827  0.0000  0.0000  0.0000  0.0000  0.0000 </r>
       </set>
       <set comment="band 11">
        <r>  0.0000  0.1607  0.1611  0.0000  0.0047  0.0000  0.0000  0.0047  0.0000 </r>
       </set>
       <set comment="band 12">
        <r>  0.0000  0.1611  0.1607  0.0000  0.0047  0.0000  0.0000  0.0047  0.0000 </r>
       </set>
      </set>
      <set comment="kpoint 19">
       <set comment="band 1">
        <r>  0.3162  0.0077  0.0000  0.2157  0.0473  0.0000  0.0623  0.0000  0.0959 </r>
       </set>
       <set comment="band 2">
        <r>  0.0016  0.0296  0.0000  0.0113  0.2155  0.0000  0.4044  0.0000  0.2181 </r>
       </set>
       <set comment="band 3">
        <r>  0.0000  0.0000  0.0235  0.0000  0.0000  0.2736  0.0000  0.6558  0.0000 </r>
       </set>
       <set comment="band 4">
        <r>  0.0000  0.0218  0.0000  0.0074  0.6316  0.0000  0.2691  0.0000  0.0153 </r>
       </set>
       <set comment="band 5">
        <r>  0.0000  0.0000  0.0087  0.0000  0.0000  0.6999  0.0000  0.2672  0.0000 </r>
       </set>
       <set comment="band 6">
        <r>  0.0835  0.0071  0.0000  0.0476  0.0085  0.0000  0.1724  0.0000  0.6403 </r>
       </set>
       <set comment="band 7">
        <r>  0.0916  0.2656  0.0000  0.0341  0.2663  0.0000  0.1137  0.0000  0.0491 </r>
       </set>
       <set comment="band 8">
        <r>  0.0000  0.0000  0.4854  0.0000  0.0000  0.0100  0.0000  0.3873  0.0000 </r>
       </set>
       <set comment="band 9">
        <r>  0.0934  0.0011  0.0000  0.0749  0.0250  0.0000  0.3375  0.0000  0.0452 </r>
       </set>
       <set comment="band 10">
        <r>  0.0640  0.2003  0.0000  0.0687  0.1120  0.0000  0.0365  0.0000  0.1191 </r>
       </set>
       <set comment="band 11">
        <r>  0.0000  0.0000  0.1721  0.0000  0.0000  0.5502  0.0000  0.1329  0.0000 </r>
       </set>
       <set comment="band 12">
        <r>  0.0674  0.1730  0.0000  0.0109  0.0919  0.0000  0.1627  0.0000  0.0826 </r>
       </set>
      </set>
      <set comment="kpoint 20">
       <set comment="band 1">
        <r>  0.1179  0.0003  0.0000  0.0873  0.2573  0.0000  0.3304  0.0000  0.0354 </r>
       </set>
       <set comment="band 2">
        <r>  0.0039  0.0941  0.0000  0.0906  0.0323  0.0000  0.0968  0.0000  0.5055 </r>
       </set>
       <set comment="band 3">
        <r>  0.0000  0.0000  0.0231  0.0000  0.0000  0.4125  0.0000  0.5135  0.0000 </r>
       </set>
       <set comment="band 4">
        <r>  0.0191  0.0106  0.0000  0.0006  0.4977  0.0000  0.4156  0.0000  0.0035 </r>
       </set>
       <set comment="band 5">
        <r>  0.0000  0.0000  0.0025  0.0000  0.0000  0.5573  0.0000  0.4289  0.0000 </r>
       </set>
       <set comment="band 6">
        <r>  0.0673  0.0991  0.0000  0.2040  0.0389  0.0000  0.0343  0.0000  0.4418 </r>
       </set>
       <set comment="band 7">
        <r>  0.2644  0.1847  0.0000  0.0023  0.2935  0.0000  0.0998  0.0000  0.0277 </r>
       </set>
       <set comment="band 8">
        <r>  0.0000  0.0000  0.5748  0.0000  0.0000  0.0627  0.0000  0.2018  0.0000 </r>
       </set>
       <set comment="band 9">
        <r>  0.1075  0.0225  0.0000  0.0533  0.0067  0.0000  0.3687  0.0000  0.0051 </r>
       </set>
       <set comment="band 10">
        <r>  0.0115  0.1542  0.0000  0.0007  0.0251  0.0000  0.0315  0.0000  0.3581 </r>
       </set>
       <set comment="band 11">
        <r>  0.0000  0.0000  0.1455  0.0000  0.0000  0.4776  0.0000  0.3141  0.0000 </r>
       </set>
       <set comment="band 12">
        <r>  0.0026  0.1441  0.0000  0.2163  0.0042  0.0000  0.3325  0.0000  0.0961 </r>
       </set>
      </set>
      <set comment="kpoint 21">
       <set comment="band 1">
        <r>  0.1233  0.0051  0.0051  0.1821  0.0456  0.0001  0.0964  0.0456  0.2891 </r>
       </set>
       <set comment="band 2">
        <r>  0.0000  0.0203  0.0203  0.0000  0.0651  0.0000  0.5181  0.0651  0.1727 </r>
       </set>
       <set comment="band 3">
        <r>  0.0063  0.0157  0.0157  0.0091  0.2495  0.3224  0.0171  0.2495  0.0512 </r>
       </set>
       <set comment="band 4">
        <r>  0.0000  0.0153  0.0153  0.0000  0.3795  0.0000  0.1245  0.3795  0.0415 </r>
       </set>
       <set comment="band 5">
        <r>  0.0117  0.0004  0.0004  0.0052  0.1164  0.6076  0.0300  0.1164  0.0899 </r>
       </set>
       <set comment="band 6">
        <r>  0.1266  0.0176  0.0176  0.1815  0.0459  0.0415  0.1064  0.0459  0.3193 </r>
       </set>
       <set comment="band 7">
        <r>  0.0000  0.2075  0.2075  0.0000  0.1078  0.0000  0.1647  0.1078  0.0549 </r>
       </set>
       <set comment="band 8">
        <r>  0.2359  0.1435  0.1435  0.0306  0.1035  0.0271  0.0037  0.1035  0.0111 </r>
       </set>
       <set comment="band 9">
        <r>  0.0000  0.0612  0.0612  0.0000  0.0437  0.0000  0.3785  0.0437  0.1262 </r>
       </set>
       <set comment="band 10">
        <r>  0.0894  0.1177  0.1177  0.0344  0.0107  0.0019  0.0484  0.0107  0.1452 </r>
       </set>
       <set comment="band 11">
        <r>  0.0011  0.0680  0.0680  0.1301  0.0489  0.2141  0.0554  0.0489  0.1663 </r>
       </set>
       <set comment="band 12">
        <r>  0.1644  0.0000  0.0000  0.1733  0.1106  0.2104  0.0350  0.1106  0.1049 </r>
       </set>
      </set>
      <set comment="kpoint 22">
       <set comment="band 1">
        <r>  0.0280  0.0237  0.0210  0.0237  0.1592  0.0000  0.5899  0.0000  0.0000 </r>
       </set>
       <set comment="band 2">
        <r>  0.0000  0.0728  0.0000  0.0728  0.0000  0.0179  0.0000  0.0179  0.6465 </r>
       </set>
       <set comment="band 3">
        <r>  0.0316  0.0009  0.0216  0.0009  0.1527  0.3402  0.0440  0.3402  0.0000 </r>
       </set>
       <set comment="band 4">
        <r>  0.0098  0.0064  0.0118  0.0064  0.5090  0.1092  0.1975  0.1092  0.0000 </r>
       </set>
       <set comment="band 5">
        <r>  0.0000  0.0093  0.0000  0.0093  0.0000  0.4372  0.0000  0.4372  0.0882 </r>
       </set>
       <set comment="band 6">
        <r>  0.0000  0.2319  0.0000  0.2319  0.0000  0.0473  0.0000  0.0473  0.2923 </r>
       </set>
       <set comment="band 7">
        <r>  0.2579  0.0888  0.0400  0.0888  0.2544  0.0003  0.1352  0.0003  0.0000 </r>
       </set>
       <set comment="band 8">
        <r>  0.1670  0.0026  0.3695  0.0026  0.0024  0.0924  0.0797  0.0924  0.0000 </r>
       </set>
       <set comment="band 9">
        <r>  0.0305  0.0024  0.1476  0.0024  0.0141  0.0130  0.4459  0.0130  0.0000 </r>
       </set>
       <set comment="band 10">
        <r>  0.0000  0.0477  0.0000  0.0477  0.0000  0.0052  0.0000  0.0052  0.5257 </r>
       </set>
       <set comment="band 11">
        <r>  0.0416  0.2162  0.0861  0.2162  0.0000  0.0363  0.0990  0.0363  0.0000 </r>
       </set>
       <set comment="band 12">
        <r>  0.2113  0.0203  0.0081  0.0203  0.1825  0.2649  0.0070  0.2649  0.0000 </r>
       </set>
      </set>
      <set comment="kpoint 23">
       <set comment="band 1">
        <r>  0.1326  0.0000  0.0000  0.2080  0.0000  0.0000  0.1094  0.0000  0.3282 </r>
       </set>
       <set comment="band 2">
        <r>  0.0000  0.0000  0.0000  0.0000  0.0000  0.0000  0.6456  0.0000  0.2152 </r>
       </set>
       <set comment="band 3">
        <r>  0.0000  0.0241  0.0241  0.0000  0.4512  0.0000  0.0000  0.4512  0.0000 </r>
       </set>
       <set comment="band 4">
        <r>  0.0000  0.0241  0.0241  0.0000  0.4512  0.0000  0.0000  0.4512  0.0000 </r>
       </set>
       <set comment="band 5">
        <r>  0.0000  0.0000  0.0000  0.0000  0.0000  0.9763  0.0000  0.0000  0.0000 </r>
       </set>
       <set comment="band 6">
        <r>  0.1792  0.0000  0.0000  0.1674  0.0000  0.0000  0.1392  0.0000  0.4177 </r>
       </set>
       <set comment="band 7">
        <r>  0.0000  0.2802  0.2802  0.0000  0.1428  0.0000  0.0000  0.1428  0.0000 </r>
       </set>
       <set comment="band 8">
        <r>  0.0000  0.2802  0.2802  0.0000  0.1428  0.0000  0.0000  0.1428  0.0000 </r>
       </set>
       <set comment="band 9">
        <r>  0.0000  0.0000  0.0000  0.0000  0.0000  0.0000  0.5770  0.0000  0.1923 </r>
       </set>
       <set comment="band 10">
        <r>  0.2897  0.0000  0.0000  0.0751  0.0000  0.0000  0.0520  0.0000  0.1559 </r>
       </set>
       <set comment="band 11">
        <r>  0.1265  0.0000  0.0000  0.3093  0.0000  0.0000  0.0997  0.0000  0.2992 </r>
       </set>
       <set comment="band 12">
        <r>  0.0000  0.0000  0.0000  0.0000  0.0000  0.9534  0.0000  0.0000  0.0000 </r>
       </set>
      </set>
      <set comment="kpoint 24">
       <set comment="band 1">
        <r>  0.0231  0.0013  0.0000  0.0957  0.0202  0.0000  0.3492  0.0000  0.3362 </r>
       </set>
       <set comment="band 2">
        <r>  0.0000  0.0245  0.0000  0.0065  0.0146  0.0000  0.4143  0.0000  0.3861 </r>
       </set>
       <set comment="band 3">
        <r>  0.0000  0.0000  0.0389  0.0000  0.0000  0.3293  0.0000  0.5857  0.0000 </r>
       </set>
       <set comment="band 4">
        <r>  0.0189  0.0330  0.0000  0.0059  0.8300  0.0000  0.0602  0.0000  0.0017 </r>
       </set>
       <set comment="band 5">
        <r>  0.0000  0.0000  0.0024  0.0000  0.0000  0.6424  0.0000  0.3414  0.0000 </r>
       </set>
       <set comment="band 6">
        <r>  0.1275  0.0392  0.0000  0.3568  0.0301  0.0000  0.0489  0.0000  0.2375 </r>
       </set>
       <set comment="band 7">
        <r>  0.1234  0.4267  0.0000  0.0000  0.1692  0.0000  0.0554  0.0000  0.0498 </r>
       </set>
       <set comment="band 8">
        <r>  0.0000  0.0000  0.6262  0.0000  0.0000  0.0289  0.0000  0.1461  0.0000 </r>
       </set>
       <set comment="band 9">
        <r>  0.0812  0.0027  0.0000  0.0044  0.0073  0.0000  0.6551  0.0000  0.0176 </r>
       </set>
       <set comment="band 10">
        <r>  0.0832  0.1044  0.0000  0.0001  0.0084  0.0000  0.0000  0.0000  0.5045 </r>
       </set>
       <set comment="band 11">
        <r>  0.2789  0.0616  0.0000  0.2774  0.0122  0.0000  0.0794  0.0000  0.1001 </r>
       </set>
       <set comment="band 12">
        <r>  0.0000  0.0000  0.0712  0.0000  0.0000  0.4656  0.0000  0.2316  0.0000 </r>
       </set>
      </set>
      <set comment="kpoint 25">
       <set comment="band 1">
        <r>  0.0000  0.0194  0.0000  0.0194  0.0000  0.0040  0.0000  0.0040  0.7939 </r>
       </set>
       <set comment="band 2">
        <r>  0.0000  0.0065  0.0258  0.0065  0.0054  0.0013  0.7939  0.0013  0.0000 </r>
       </set>
       <set comment="band 3">
        <r>  0.0173  0.0130  0.0130  0.0130  0.2972  0.2972  0.0000  0.2972  0.0000 </r>
       </set>
       <set comment="band 4">
        <r>  0.0000  0.0033  0.0130  0.0033  0.6269  0.1567  0.0178  0.1567  0.0000 </r>
       </set>
       <set comment="band 5">
        <r>  0.0000  0.0098  0.0000  0.0098  0.0000  0.4702  0.0000  0.4702  0.0178 </r>
       </set>
       <set comment="band 6">
        <r>  0.0000  0.2883  0.0000  0.2883  0.0000  0.0285  0.0000  0.0285  0.1762 </r>
       </set>
       <set comment="band 7">
        <r>  0.0000  0.0961  0.3844  0.0961  0.0380  0.0095  0.1762  0.0095  0.0000 </r>
       </set>
       <set comment="band 8">
        <r>  0.2557  0.1255  0.1255  0.1255  0.0517  0.0517  0.0000  0.0517  0.0000 </r>
       </set>
       <set comment="band 9">
        <r>  0.0000  0.0418  0.0000  0.0418  0.0000  0.0036  0.0000  0.0036  0.6871 </r>
       </set>
       <set comment="band 10">
        <r>  0.0000  0.0139  0.0558  0.0139  0.0048  0.0012  0.6871  0.0012  0.0000 </r>
       </set>
       <set comment="band 11">
        <r>  0.4783  0.0992  0.0992  0.0992  0.0033  0.0033  0.0000  0.0033  0.0000 </r>
       </set>
       <set comment="band 12">
        <r>  0.0353  0.0184  0.0184  0.0184  0.1979  0.1979  0.0000  0.1979  0.0000 </r>
       </set>
      </set>
      <set comment="kpoint 26">
       <set comment="band 1">
        <r>  0.0014  0.0000  0.0000  0.0263  0.0000  0.0000  0.2029  0.0000  0.6088 </r>
       </set>
       <set comment="band 2">
        <r>  0.0000  0.0000  0.0000  0.0000  0.0000  0.0000  0.6335  0.0000  0.2112 </r>
       </set>
       <set comment="band 3">
        <r>  0.0000  0.0104  0.0104  0.0000  0.4776  0.0000  0.0000  0.4776  0.0000 </r>
       </set>
       <set comment="band 4">
        <r>  0.0000  0.0104  0.0104  0.0000  0.4776  0.0000  0.0000  0.4776  0.0000 </r>
       </set>
       <set comment="band 5">
        <r>  0.0000  0.0000  0.0000  0.0000  0.0000  0.9865  0.0000  0.0000  0.0000 </r>
       </set>
       <set comment="band 6">
        <r>  0.0828  0.0000  0.0000  0.5690  0.0000  0.0000  0.0307  0.0000  0.0921 </r>
       </set>
       <set comment="band 7">
        <r>  0.0000  0.3477  0.3477  0.0000  0.0281  0.0000  0.0000  0.0281  0.0000 </r>
       </set>
       <set comment="band 8">
        <r>  0.0000  0.3477  0.3477  0.0000  0.0281  0.0000  0.0000  0.0281  0.0000 </r>
       </set>
       <set comment="band 9">
        <r>  0.0000  0.0000  0.0000  0.0000  0.0000  0.0000  0.6548  0.0000  0.2183 </r>
       </set>
       <set comment="band 10">
        <r>  0.0660  0.0000  0.0000  0.0195  0.0000  0.0000  0.1835  0.0000  0.5506 </r>
       </set>
       <set comment="band 11">
        <r>  0.6289  0.0000  0.0000  0.1223  0.0000  0.0000  0.0102  0.0000  0.0305 </r>
       </set>
       <set comment="band 12">
        <r>  0.0000  0.0000  0.0000  0.0000  0.0000  0.2502  0.0000  0.0000  0.0000 </r>
       </set>
      </set>
     </set>
    </set>
   </array>
  </projected>
 </calculation>
 <structure name="finalpos" >
  <crystal>
   <varray name="basis" >
    <v>      -1.42500000       1.42500000       1.42500000 </v>
    <v>       1.42500000      -1.42500000       1.42500000 </v>
    <v>       1.42500000       1.42500000      -1.42500000 </v>
   </varray>
   <i name="volume">     11.57456250 </i>
   <varray name="rec_basis" >
    <v>       0.00000000       0.35087719       0.35087719 </v>
    <v>       0.35087719       0.00000000       0.35087719 </v>
    <v>       0.35087719       0.35087719       0.00000000 </v>
   </varray>
  </crystal>
  <varray name="positions" >
   <v>       0.00000000       0.00000000       0.00000000 </v>
  </varray>
 </structure>
</modeling>
