Fe BCC                                  
   2.74000000000000     
    -0.500000    0.500000    0.500000
     0.500000   -0.500000    0.500000
     0.500000    0.500000   -0.500000
   Fe
     1
Direct
  0.000000  0.000000  0.000000
 
   32   32   32
  86.588      84.710      79.334      71.165      61.183      50.434      39.849      30.160      21.868      15.265    
  10.443      7.3016      5.5481      4.7380      4.3595      4.1270      4.0469      4.1270      4.3595      4.7380    
  5.5481      7.3016      10.443      15.265      21.868      30.160      39.849      50.434      61.183      71.165    
  79.334      84.710      84.710      84.090      79.898      72.696      63.377      52.969      42.438      32.576    
  23.950      16.915      11.625      8.0403      5.9311      4.8981      4.4421      4.1669      4.0359      4.0624    
  4.2440      4.5623      5.1531      6.4929      9.0576      13.195      19.075      26.669      35.759      45.920    
  56.510      66.668      75.391      81.673      79.334      79.898      77.007      71.054      62.798      53.192    
  43.187      33.598      25.038      17.910      12.421      8.5864      6.2352      5.0229      4.4850      4.1780    
  4.0034      3.9783      4.1048      4.3716      4.7965      5.7312      7.6615      10.981      15.924      22.537    
  30.673      39.993      49.951      59.793      68.596      75.391      71.165      72.696      71.054      66.464    
  59.529      51.079      42.002      33.095      24.986      18.108      12.706      8.8421      6.3981      5.0853    
  4.4862      4.1577      3.9500      3.8798      3.9524      4.1629      4.4947      5.0990      6.4220      8.8856    
  12.782      18.229      25.161      33.324      42.272      51.364      59.793      66.668      61.183      63.377    
  62.798      59.529      54.009      46.923      39.055      31.147      23.811      17.486      12.437      8.7600    
  6.3810      5.0641      4.4438      4.1058      3.8771      3.7719      3.7963      3.9496      4.2229      4.6245    
  5.4462      7.1116      9.9569      14.170      19.764      26.573      34.251      42.272      49.951      56.510    
  50.434      52.969      53.192      51.079      46.923      41.256      34.739      28.029      21.690      16.144    
  11.661      8.3535      6.1809      4.9535      4.3580      4.0243      3.7873      3.6589      3.6446      3.7455    
  3.9591      4.2736      4.7615      5.7733      7.6664      10.686      14.924      20.302      26.573      33.324    
  39.993      45.920      39.849      42.438      43.187      42.002      39.055      34.739      29.584      24.144    
  18.915      14.283      10.503      7.6920      5.8304      4.7662      4.2346      3.9176      3.6839      3.5444    
  3.5031      3.5604      3.7172      3.9713      4.3130      4.8801      6.0068      7.9748      10.944      14.924    
  19.764      25.161      30.673      35.759      30.160      32.576      33.598      33.095      31.147      28.029    
  24.144      19.938      15.830      12.153      9.1340      6.8820      5.3884      4.5299      4.0846      3.7920    
  3.5711      3.4318      3.3750      3.4002      3.5085      3.7026      3.9807      4.3406      4.9493      6.0913    
  7.9748      10.686      14.170      18.229      22.537      26.669      21.868      23.950      25.038      24.986    
  23.811      21.690      18.915      15.830      12.769      10.007      7.7335      6.0410      4.9235      4.2782    
  3.9199      3.6550      3.4542      3.3237      3.2619      3.2665      3.3377      3.4794      3.6957      3.9855    
  4.3507      4.9493      6.0068      7.6664      9.9569      12.782      15.924      19.075      15.265      16.915    
  17.910      18.108      17.486      16.144      14.283      12.153      10.007      8.0590      6.4568      5.2722    
  4.4957      4.0389      3.7486      3.5145      3.3384      3.2228      3.1641      3.1583      3.2042      3.3049    
  3.4663      3.6936      3.9855      4.3406      4.8801      5.7733      7.1116      8.8856      10.981      13.195    
  10.443      11.625      12.421      12.706      12.437      11.661      10.503      9.1340      7.7335      6.4568    
  5.4114      4.6453      4.1422      3.8242      3.5788      3.3780      3.2290      3.1316      3.0813      3.0729    
  3.1041      3.1763      3.2948      3.4663      3.6957      3.9807      4.3130      4.7615      5.4462      6.4220    
  7.6615      9.0576      7.3016      8.0403      8.5864      8.8421      8.7600      8.3535      7.6920      6.8820    
  6.0410      5.2722      4.6453      4.1852      3.8682      3.6264      3.4185      3.2519      3.1304      3.0524    
  3.0132      3.0077      3.0324      3.0874      3.1763      3.3049      3.4794      3.7026      3.9713      4.2736    
  4.6245      5.0990      5.7312      6.4929      5.5481      5.9311      6.2352      6.3981      6.3810      6.1809    
  5.8304      5.3884      4.9235      4.4957      4.1422      3.8682      3.6440      3.4437      3.2742      3.1411    
  3.0462      2.9874      2.9604      2.9608      2.9852      3.0324      3.1041      3.2042      3.3377      3.5085    
  3.7172      3.9591      4.2229      4.4947      4.7965      5.1531      4.7380      4.8981      5.0229      5.0853    
  5.0641      4.9535      4.7662      4.5299      4.2782      4.0389      3.8242      3.6264      3.4437      3.2834    
  3.1509      3.0493      2.9790      2.9382      2.9238      2.9323      2.9608      3.0077      3.0729      3.1583    
  3.2665      3.4002      3.5604      3.7455      3.9496      4.1629      4.3716      4.5623      4.3595      4.4421    
  4.4850      4.4862      4.4438      4.3580      4.2346      4.0846      3.9199      3.7486      3.5788      3.4185    
  3.2742      3.1509      3.0517      2.9782      2.9302      2.9066      2.9052      2.9238      2.9604      3.0132    
  3.0813      3.1641      3.2619      3.3750      3.5031      3.6446      3.7963      3.9524      4.1048      4.2440    
  4.1270      4.1669      4.1780      4.1577      4.1058      4.0243      3.9176      3.7920      3.6550      3.5145    
  3.3780      3.2519      3.1411      3.0493      2.9782      2.9288      2.9008      2.8937      2.9066      2.9382    
  2.9874      3.0524      3.1316      3.2228      3.3237      3.4318      3.5444      3.6589      3.7719      3.8798    
  3.9783      4.0624      4.0469      4.0359      4.0034      3.9500      3.8771      3.7873      3.6839      3.5711    
  3.4542      3.3384      3.2290      3.1304      3.0462      2.9790      2.9302      2.9008      2.8909      2.9008    
  2.9302      2.9790      3.0462      3.1304      3.2290      3.3384      3.4542      3.5711      3.6839      3.7873    
  3.8771      3.9500      4.0034      4.0359      4.1270      4.0624      3.9783      3.8798      3.7719      3.6589    
  3.5444      3.4318      3.3237      3.2228      3.1316      3.0524      2.9874      2.9382      2.9066      2.8937    
  2.9008      2.9288      2.9782      3.0493      3.1411      3.2519      3.3780      3.5145      3.6550      3.7920    
  3.9176      4.0243      4.1058      4.1577      4.1780      4.1669      4.3595      4.2440      4.1048      3.9524    
  3.7963      3.6446      3.5031      3.3750      3.2619      3.1641      3.0813      3.0132      2.9604      2.9238    
  2.9052      2.9066      2.9302      2.9782      3.0517      3.1509      3.2742      3.4185      3.5788      3.7486    
  3.9199      4.0846      4.2346      4.3580      4.4438      4.4862      4.4850      4.4421      4.7380      4.5623    
  4.3716      4.1629      3.9496      3.7455      3.5604      3.4002      3.2665      3.1583      3.0729      3.0077    
  2.9608      2.9323      2.9238      2.9382      2.9790      3.0493      3.1509      3.2834      3.4437      3.6264    
  3.8242      4.0389      4.2782      4.5299      4.7662      4.9535      5.0641      5.0853      5.0229      4.8981    
  5.5481      5.1531      4.7965      4.4947      4.2229      3.9591      3.7172      3.5085      3.3377      3.2042    
  3.1041      3.0324      2.9852      2.9608      2.9604      2.9874      3.0462      3.1411      3.2742      3.4437    
  3.6440      3.8682      4.1422      4.4957      4.9235      5.3884      5.8304      6.1809      6.3810      6.3981    
  6.2352      5.9311      7.3016      6.4929      5.7312      5.0990      4.6245      4.2736      3.9713      3.7026    
  3.4794      3.3049      3.1763      3.0874      3.0324      3.0077      3.0132      3.0524      3.1304      3.2519    
  3.4185      3.6264      3.8682      4.1852      4.6453      5.2722      6.0410      6.8820      7.6920      8.3535    
  8.7600      8.8421      8.5864      8.0403      10.443      9.0576      7.6615      6.4220      5.4462      4.7615    
  4.3130      3.9807      3.6957      3.4663      3.2948      3.1763      3.1041      3.0729      3.0813      3.1316    
  3.2290      3.3780      3.5788      3.8242      4.1422      4.6453      5.4114      6.4568      7.7335      9.1340    
  10.503      11.661      12.437      12.706      12.421      11.625      15.265      13.195      10.981      8.8856    
  7.1116      5.7733      4.8801      4.3406      3.9855      3.6936      3.4663      3.3049      3.2042      3.1583    
  3.1641      3.2228      3.3384      3.5145      3.7486      4.0389      4.4957      5.2722      6.4568      8.0590    
  10.007      12.153      14.283      16.144      17.486      18.108      17.910      16.915      21.868      19.075    
  15.924      12.782      9.9569      7.6664      6.0068      4.9493      4.3507      3.9855      3.6957      3.4794    
  3.3377      3.2665      3.2619      3.3237      3.4542      3.6550      3.9199      4.2782      4.9235      6.0410    
  7.7335      10.007      12.769      15.830      18.915      21.690      23.811      24.986      25.038      23.950    
  30.160      26.669      22.537      18.229      14.170      10.686      7.9748      6.0913      4.9493      4.3406    
  3.9807      3.7026      3.5085      3.4002      3.3750      3.4318      3.5711      3.7920      4.0846      4.5299    
  5.3884      6.8820      9.1340      12.153      15.830      19.938      24.144      28.029      31.147      33.095    
  33.598      32.576      39.849      35.759      30.673      25.161      19.764      14.924      10.944      7.9748    
  6.0068      4.8801      4.3130      3.9713      3.7172      3.5604      3.5031      3.5444      3.6839      3.9176    
  4.2346      4.7662      5.8304      7.6920      10.503      14.283      18.915      24.144      29.584      34.739    
  39.055      42.002      43.187      42.438      50.434      45.920      39.993      33.324      26.573      20.302    
  14.924      10.686      7.6664      5.7733      4.7615      4.2736      3.9591      3.7455      3.6446      3.6589    
  3.7873      4.0243      4.3580      4.9535      6.1809      8.3535      11.661      16.144      21.690      28.029    
  34.739      41.256      46.923      51.079      53.192      52.969      61.183      56.510      49.951      42.272    
  34.251      26.573      19.764      14.170      9.9569      7.1116      5.4462      4.6245      4.2229      3.9496    
  3.7963      3.7719      3.8771      4.1058      4.4438      5.0641      6.3810      8.7600      12.437      17.486    
  23.811      31.147      39.055      46.923      54.009      59.529      62.798      63.377      71.165      66.668    
  59.793      51.364      42.272      33.324      25.161      18.229      12.782      8.8856      6.4220      5.0990    
  4.4947      4.1629      3.9524      3.8798      3.9500      4.1577      4.4862      5.0853      6.3981      8.8421    
  12.706      18.108      24.986      33.095      42.002      51.079      59.529      66.464      71.054      72.696    
  79.334      75.391      68.596      59.793      49.951      39.993      30.673      22.537      15.924      10.981    
  7.6615      5.7312      4.7965      4.3716      4.1048      3.9783      4.0034      4.1780      4.4850      5.0229    
  6.2352      8.5864      12.421      17.910      25.038      33.598      43.187      53.192      62.798      71.054    
  77.007      79.898      84.710      81.673      75.391      66.668      56.510      45.920      35.759      26.669    
  19.075      13.195      9.0576      6.4929      5.1531      4.5623      4.2440      4.0624      4.0359      4.1669    
  4.4421      4.8981      5.9311      8.0403      11.625      16.915      23.950      32.576      42.438      52.969    
  63.377      72.696      79.898      84.090      84.710      84.090      79.898      72.696      63.377      52.969    
  42.438      32.576      23.950      16.915      11.625      8.0403      5.9311      4.8981      4.4421      4.1669    
  4.0359      4.0624      4.2440      4.5623      5.1531      6.4929      9.0576      13.195      19.075      26.669    
  35.759      45.920      56.510      66.668      75.391      81.673      84.090      84.710      81.673      75.391    
  66.668      56.510      45.920      35.759      26.669      19.075      13.195      9.0576      6.4929      5.1531    
  4.5623      4.2440      4.0624      4.0359      4.1669      4.4421      4.8981      5.9311      8.0403      11.625    
  16.915      23.950      32.576      42.438      52.969      63.377      72.696      79.898      79.898      81.673    
  79.898      74.817      67.095      57.659      47.497      37.497      28.355      20.551      14.363      9.8746    
  6.9780      5.3818      4.6497      4.2902      4.0656      3.9885      4.0656      4.2902      4.6497      5.3818    
  6.9780      9.8746      14.363      20.551      28.355      37.497      47.497      57.659      67.095      74.817    
  72.696      75.391      74.817      71.054      64.603      56.266      46.961      37.560      28.780      21.137    
  14.952      10.357      7.2977      5.5402      4.6979      4.3009      4.0439      3.9229      3.9478      4.1169    
  4.4152      4.9098      6.0103      8.1716      11.736      16.881      23.596      31.685      40.757      50.224    
  59.305      67.095      63.377      66.668      67.095      64.603      59.529      52.523      44.392      35.950    
  27.895      20.755      14.875      10.423      7.3880      5.5899      4.6950      4.2738      3.9968      3.8420    
  3.8209      3.9349      4.1770      4.5366      5.2310      6.6993      9.3198      13.332      18.802      25.616    
  33.475      41.898      50.224      57.659      52.969      56.510      57.659      56.266      52.523      46.923    
  40.140      32.894      25.833      19.468      14.149      10.061      7.2278      5.5120      4.6329      4.2099    
  3.9253      3.7489      3.6914      3.7555      3.9394      4.2328      4.6676      5.5674      7.3221      10.221    
  14.404      19.839      26.322      33.475      40.757      47.497      42.438      45.920      47.497      46.961    
  44.392      40.140      34.739      28.796      22.883      17.471      12.892      9.3351      6.8431      5.3140    
  4.5139      4.1130      3.8325      3.6466      3.5644      3.5879      3.7174      3.9508      4.2767      4.7948    
  5.8482      7.7545      10.715      14.781      19.839      25.616      31.685      37.497      32.576      35.759    
  37.497      37.560      35.950      32.894      28.796      24.144      19.419      15.035      11.289      8.3613    
  6.2997      5.0274      4.3509      3.9896      3.7227      3.5386      3.4435      3.4377      3.5216      3.6969    
  3.9618      4.3096      4.8889      6.0077      7.9091      10.715      14.404      18.802      23.596      28.355    
  23.950      26.669      28.355      28.780      27.895      25.833      22.883      19.419      15.830      12.457    
  9.5563      7.2834      5.6845      4.6982      4.1637      3.8475      3.6017      3.4287      3.3313      3.3077    
  3.3572      3.4824      3.6866      3.9688      4.3283      4.9236      6.0077      7.7545      10.221      13.332    
  16.881      20.551      16.915      19.075      20.551      21.137      20.755      19.468      17.471      15.035    
  12.457      10.007      7.8933      6.2401      5.0843      4.3730      3.9713      3.6954      3.4760      3.3206    
  3.2292      3.1980      3.2248      3.3111      3.4619      3.6823      3.9711      4.3283      4.8889      5.8482    
  7.3221      9.3198      11.736      14.363      11.625      13.195      14.363      14.952      14.875      14.149    
  12.892      11.289      9.5563      7.8933      6.4568      5.3401      4.5660      4.0852      3.7833      3.5420    
  3.3522      3.2185      3.1386      3.1075      3.1217      3.1812      3.2903      3.4556      3.6823      3.9688    
  4.3096      4.7948      5.5674      6.6993      8.1716      9.8746      8.0403      9.0576      9.8746      10.357    
  10.423      10.061      9.3351      8.3613      7.2834      6.2401      5.3401      4.6453      4.1629      3.8449    
  3.6008      3.3951      3.2362      3.1258      3.0604      3.0346      3.0440      3.0875      3.1677      3.2903    
  3.4619      3.6866      3.9618      4.2767      4.6676      5.2310      6.0103      6.9780      5.9311      6.4929    
  6.9780      7.2977      7.3880      7.2278      6.8431      6.2997      5.6845      5.0843      4.5660      4.1629    
  3.8682      3.6350      3.4302      3.2612      3.1331      3.0457      2.9958      2.9782      2.9885      3.0246    
  3.0875      3.1812      3.3111      3.4824      3.6969      3.9508      4.2328      4.5366      4.9098      5.3818    
  4.8981      5.1531      5.3818      5.5402      5.5899      5.5120      5.3140      5.0274      4.6982      4.3730    
  4.0852      3.8449      3.6350      3.4437      3.2785      3.1452      3.0462      2.9809      2.9462      2.9382    
  2.9531      2.9885      3.0440      3.1217      3.2248      3.3572      3.5216      3.7174      3.9394      4.1770    
  4.4152      4.6497      4.4421      4.5623      4.6497      4.6979      4.6950      4.6329      4.5139      4.3509    
  4.1637      3.9713      3.7833      3.6008      3.4302      3.2785      3.1509      3.0503      2.9779      2.9329    
  2.9131      2.9158      2.9382      2.9782      3.0346      3.1075      3.1980      3.3077      3.4377      3.5879    
  3.7555      3.9349      4.1169      4.2902      4.1669      4.2440      4.2902      4.3009      4.2738      4.2099    
  4.1130      3.9896      3.8475      3.6954      3.5420      3.3951      3.2612      3.1452      3.0503      2.9782    
  2.9293      2.9030      2.8982      2.9131      2.9462      2.9958      3.0604      3.1386      3.2292      3.3313    
  3.4435      3.5644      3.6914      3.8209      3.9478      4.0656      4.0359      4.0624      4.0656      4.0439    
  3.9968      3.9253      3.8325      3.7227      3.6017      3.4760      3.3522      3.2362      3.1331      3.0462    
  2.9779      2.9293      2.9008      2.8922      2.9030      2.9329      2.9809      3.0457      3.1258      3.2185    
  3.3206      3.4287      3.5386      3.6466      3.7489      3.8420      3.9229      3.9885      4.0624      4.0359    
  3.9885      3.9229      3.8420      3.7489      3.6466      3.5386      3.4287      3.3206      3.2185      3.1258    
  3.0457      2.9809      2.9329      2.9030      2.8922      2.9008      2.9293      2.9779      3.0462      3.1331    
  3.2362      3.3522      3.4760      3.6017      3.7227      3.8325      3.9253      3.9968      4.0439      4.0656    
  4.2440      4.1669      4.0656      3.9478      3.8209      3.6914      3.5644      3.4435      3.3313      3.2292    
  3.1386      3.0604      2.9958      2.9462      2.9131      2.8982      2.9030      2.9293      2.9782      3.0503    
  3.1452      3.2612      3.3951      3.5420      3.6954      3.8475      3.9896      4.1130      4.2099      4.2738    
  4.3009      4.2902      4.5623      4.4421      4.2902      4.1169      3.9349      3.7555      3.5879      3.4377    
  3.3077      3.1980      3.1075      3.0346      2.9782      2.9382      2.9158      2.9131      2.9329      2.9779    
  3.0503      3.1509      3.2785      3.4302      3.6008      3.7833      3.9713      4.1637      4.3509      4.5139    
  4.6329      4.6950      4.6979      4.6497      5.1531      4.8981      4.6497      4.4152      4.1770      3.9394    
  3.7174      3.5216      3.3572      3.2248      3.1217      3.0440      2.9885      2.9531      2.9382      2.9462    
  2.9809      3.0462      3.1452      3.2785      3.4437      3.6350      3.8449      4.0852      4.3730      4.6982    
  5.0274      5.3140      5.5120      5.5899      5.5402      5.3818      6.4929      5.9311      5.3818      4.9098    
  4.5366      4.2328      3.9508      3.6969      3.4824      3.3111      3.1812      3.0875      3.0246      2.9885    
  2.9782      2.9958      3.0457      3.1331      3.2612      3.4302      3.6350      3.8682      4.1629      4.5660    
  5.0843      5.6845      6.2997      6.8431      7.2278      7.3880      7.2977      6.9780      9.0576      8.0403    
  6.9780      6.0103      5.2310      4.6676      4.2767      3.9618      3.6866      3.4619      3.2903      3.1677    
  3.0875      3.0440      3.0346      3.0604      3.1258      3.2362      3.3951      3.6008      3.8449      4.1629    
  4.6453      5.3401      6.2401      7.2834      8.3613      9.3351      10.061      10.423      10.357      9.8746    
  13.195      11.625      9.8746      8.1716      6.6993      5.5674      4.7948      4.3096      3.9688      3.6823    
  3.4556      3.2903      3.1812      3.1217      3.1075      3.1386      3.2185      3.3522      3.5420      3.7833    
  4.0852      4.5660      5.3401      6.4568      7.8933      9.5563      11.289      12.892      14.149      14.875    
  14.952      14.363      19.075      16.915      14.363      11.736      9.3198      7.3221      5.8482      4.8889    
  4.3283      3.9711      3.6823      3.4619      3.3111      3.2248      3.1980      3.2292      3.3206      3.4760    
  3.6954      3.9713      4.3730      5.0843      6.2401      7.8933      10.007      12.457      15.035      17.471    
  19.468      20.755      21.137      20.551      26.669      23.950      20.551      16.881      13.332      10.221    
  7.7545      6.0077      4.9236      4.3283      3.9688      3.6866      3.4824      3.3572      3.3077      3.3313    
  3.4287      3.6017      3.8475      4.1637      4.6982      5.6845      7.2834      9.5563      12.457      15.830    
  19.419      22.883      25.833      27.895      28.780      28.355      35.759      32.576      28.355      23.596    
  18.802      14.404      10.715      7.9091      6.0077      4.8889      4.3096      3.9618      3.6969      3.5216    
  3.4377      3.4435      3.5386      3.7227      3.9896      4.3509      5.0274      6.2997      8.3613      11.289    
  15.035      19.419      24.144      28.796      32.894      35.950      37.560      37.497      45.920      42.438    
  37.497      31.685      25.616      19.839      14.781      10.715      7.7545      5.8482      4.7948      4.2767    
  3.9508      3.7174      3.5879      3.5644      3.6466      3.8325      4.1130      4.5139      5.3140      6.8431    
  9.3351      12.892      17.471      22.883      28.796      34.739      40.140      44.392      46.961      47.497    
  56.510      52.969      47.497      40.757      33.475      26.322      19.839      14.404      10.221      7.3221    
  5.5674      4.6676      4.2328      3.9394      3.7555      3.6914      3.7489      3.9253      4.2099      4.6329    
  5.5120      7.2278      10.061      14.149      19.468      25.833      32.894      40.140      46.923      52.523    
  56.266      57.659      66.668      63.377      57.659      50.224      41.898      33.475      25.616      18.802    
  13.332      9.3198      6.6993      5.2310      4.5366      4.1770      3.9349      3.8209      3.8420      3.9968    
  4.2738      4.6950      5.5899      7.3880      10.423      14.875      20.755      27.895      35.950      44.392    
  52.523      59.529      64.603      67.095      75.391      72.696      67.095      59.305      50.224      40.757    
  31.685      23.596      16.881      11.736      8.1716      6.0103      4.9098      4.4152      4.1169      3.9478    
  3.9229      4.0439      4.3009      4.6979      5.5402      7.2977      10.357      14.952      21.137      28.780    
  37.560      46.961      56.266      64.603      71.054      74.817      81.673      79.898      74.817      67.095    
  57.659      47.497      37.497      28.355      20.551      14.363      9.8746      6.9780      5.3818      4.6497    
  4.2902      4.0656      3.9885      4.0656      4.2902      4.6497      5.3818      6.9780      9.8746      14.363    
  20.551      28.355      37.497      47.497      57.659      67.095      74.817      79.898      79.334      79.898    
  77.007      71.054      62.798      53.192      43.187      33.598      25.038      17.910      12.421      8.5864    
  6.2352      5.0229      4.4850      4.1780      4.0034      3.9783      4.1048      4.3716      4.7965      5.7312    
  7.6615      10.981      15.924      22.537      30.673      39.993      49.951      59.793      68.596      75.391    
  79.898      81.673      79.898      74.817      67.095      57.659      47.497      37.497      28.355      20.551    
  14.363      9.8746      6.9780      5.3818      4.6497      4.2902      4.0656      3.9885      4.0656      4.2902    
  4.6497      5.3818      6.9780      9.8746      14.363      20.551      28.355      37.497      47.497      57.659    
  67.095      74.817      77.007      79.898      79.334      75.391      68.596      59.793      49.951      39.993    
  30.673      22.537      15.924      10.981      7.6615      5.7312      4.7965      4.3716      4.1048      3.9783    
  4.0034      4.1780      4.4850      5.0229      6.2352      8.5864      12.421      17.910      25.038      33.598    
  43.187      53.192      62.798      71.054      71.054      74.817      75.391      72.696      67.095      59.305    
  50.224      40.757      31.685      23.596      16.881      11.736      8.1716      6.0103      4.9098      4.4152    
  4.1169      3.9478      3.9229      4.0439      4.3009      4.6979      5.5402      7.2977      10.357      14.952    
  21.137      28.780      37.560      46.961      56.266      64.603      62.798      67.095      68.596      67.095    
  62.798      56.266      48.282      39.691      31.257      23.584      17.093      12.019      8.4162      6.1618    
  4.9661      4.4179      4.0994      3.8977      3.8291      3.8977      4.0994      4.4179      4.9661      6.1618    
  8.4162      12.019      17.093      23.584      31.257      39.691      48.282      56.266      53.192      57.659    
  59.793      59.305      56.266      51.079      44.392      36.948      29.457      22.510      16.533      11.784    
  8.3487      6.1491      4.9464      4.3788      4.0516      3.8293      3.7267      3.7487      3.8946      4.1568    
  4.5337      5.2738      6.7853      9.3983      13.302      18.520      24.901      32.123      39.691      46.961    
  43.187      47.497      49.951      50.224      48.282      44.392      39.055      32.894      26.540      20.536    
  15.294      11.073      7.9798      5.9683      4.8452      4.2990      3.9754      3.7446      3.6195      3.6041    
  3.6993      3.9030      4.2053      4.6530      5.5648      7.2887      10.068      14.000      19.020      24.901    
  31.257      37.560      33.598      37.497      39.993      40.757      39.691      36.948      32.894      28.029    
  22.883      17.935      13.559      10.001      7.3728      5.6490      4.6740      4.1838      3.8748      3.6469    
  3.5110      3.4695      3.5227      3.6713      3.9141      4.2409      4.7558      5.7733      7.5691      10.305    
  14.000      18.520      23.584      28.780      25.038      28.355      30.673      31.685      31.257      29.457    
  26.540      22.883      18.915      15.035      11.566      8.7290      6.6265      5.2450      4.4576      4.0428    
  3.7557      3.5401      3.4041      3.3479      3.3701      3.4721      3.6565      3.9226      4.2645      4.8159    
  5.8489      7.5691      10.068      13.302      17.093      21.137      17.910      20.551      22.537      23.596    
  23.584      22.510      20.536      17.935      15.035      12.153      9.5563      7.4263      5.8509      4.8194    
  4.2262      3.8859      3.6254      3.4291      3.3015      3.2406      3.2432      3.3095      3.4433      3.6492    
  3.9269      4.2730      4.8159      5.7733      7.2887      9.3983      12.019      14.952      12.421      14.363    
  15.924      16.881      17.093      16.533      15.294      13.559      11.566      9.5563      7.7335      6.2401    
  5.1426      4.4274      4.0040      3.7215      3.4914      3.3191      3.2059      3.1478      3.1406      3.1829    
  3.2775      3.4304      3.6470      3.9269      4.2645      4.7558      5.5648      6.7853      8.4162      10.357    
  8.5864      9.8746      10.981      11.736      12.019      11.784      11.073      10.001      8.7290      7.4263    
  6.2401      5.2722      4.5660      4.1019      3.8002      3.5582      3.3609      3.2150      3.1194      3.0695    
  3.0599      3.0882      3.1557      3.2675      3.4304      3.6492      3.9226      4.2409      4.6530      5.2738    
  6.1618      7.2977      6.2352      6.9780      7.6615      8.1716      8.4162      8.3487      7.9798      7.3728    
  6.6265      5.8509      5.1426      4.5660      4.1422      3.8449      3.6080      3.4036      3.2402      3.1212    