Fe BCC                                  
   2.74000000000000     
    -0.500000    0.500000    0.500000
     0.500000   -0.500000    0.500000
     0.500000    0.500000   -0.500000
   Fe
     1
Direct
  0.000000  0.000000  0.000000
 
   32   32   32
 0.86588296860E+02 0.84710195289E+02 0.79333690199E+02 0.71164703550E+02 0.61183373471E+02
 0.50433548067E+02 0.39849357000E+02 0.30160094979E+02 0.21868370121E+02 0.15264966338E+02
 0.10443351576E+02 0.73016018624E+01 0.55480742804E+01 0.47380364691E+01 0.43595165241E+01
 0.41269863102E+01 0.40468748681E+01 0.41269863102E+01 0.43595165241E+01 0.47380364691E+01
 0.55480742804E+01 0.73016018624E+01 0.10443351576E+02 0.15264966338E+02 0.21868370121E+02
 0.30160094979E+02 0.39849357000E+02 0.50433548067E+02 0.61183373471E+02 0.71164703550E+02
 0.79333690199E+02 0.84710195289E+02 0.84710195289E+02 0.84090096738E+02 0.79898217097E+02
 0.72695611454E+02 0.63377104036E+02 0.52968504934E+02 0.42438040833E+02 0.32575670897E+02
 0.23950049221E+02 0.16914754270E+02 0.11624538956E+02 0.80403379340E+01 0.59310876288E+01
 0.48981451801E+01 0.44421016287E+01 0.41668775486E+01 0.40359432301E+01 0.40624420956E+01
 0.42439731116E+01 0.45622509153E+01 0.51531437248E+01 0.64928570719E+01 0.90575848248E+01
 0.13195418454E+02 0.19074508731E+02 0.26669090411E+02 0.35759000852E+02 0.45920449918E+02
 0.56509517310E+02 0.66668012788E+02 0.75390868160E+02 0.81672969551E+02 0.79333690199E+02
 0.79898217097E+02 0.77007393916E+02 0.71053547020E+02 0.62797974002E+02 0.53191749902E+02
 0.43186929312E+02 0.33598226883E+02 0.25038393021E+02 0.17910471492E+02 0.12420840355E+02
 0.85863548664E+01 0.62352355989E+01 0.50229007130E+01 0.44849762164E+01 0.41779688891E+01
 0.40033803715E+01 0.39782943963E+01 0.41048373241E+01 0.43716402394E+01 0.47965364289E+01
 0.57311519784E+01 0.76614680606E+01 0.10981425791E+02 0.15924478860E+02 0.22536537696E+02
 0.30672578457E+02 0.39993001742E+02 0.49951439165E+02 0.59792642645E+02 0.68596038163E+02
 0.75390868160E+02 0.71164703550E+02 0.72695611454E+02 0.71053547020E+02 0.66464393653E+02
 0.59529222014E+02 0.51079381801E+02 0.42001904792E+02 0.33094945044E+02 0.24985993425E+02
 0.18108239274E+02 0.12706111994E+02 0.88421459729E+01 0.63980889422E+01 0.50853276552E+01
 0.44861600292E+01 0.41577300237E+01 0.39499525996E+01 0.38797980831E+01 0.39523656015E+01
 0.41628744427E+01 0.44946845327E+01 0.50990363487E+01 0.64220287611E+01 0.88855509801E+01
 0.12781604617E+02 0.18228918478E+02 0.25160818748E+02 0.33323715468E+02 0.42271662210E+02
 0.51363935581E+02 0.59792642645E+02 0.66668012788E+02 0.61183373471E+02 0.63377104036E+02
 0.62797974002E+02 0.59529222014E+02 0.54008827001E+02 0.46922632095E+02 0.39054502546E+02
 0.31147169446E+02 0.23810882380E+02 0.17485620375E+02 0.12436934472E+02 0.87600406261E+01
 0.63810298162E+01 0.50641463904E+01 0.44437667753E+01 0.41058058222E+01 0.38771361219E+01
 0.37718826498E+01 0.37962763571E+01 0.39496362222E+01 0.42228600124E+01 0.46244925780E+01
 0.54461695694E+01 0.71116030788E+01 0.99569029264E+01 0.14169853591E+02 0.19763993217E+02
 0.26573180823E+02 0.34250863742E+02 0.42271662210E+02 0.49951439165E+02 0.56509517310E+02
 0.50433548067E+02 0.52968504934E+02 0.53191749902E+02 0.51079381801E+02 0.46922632095E+02
 0.41256436020E+02 0.34739382426E+02 0.28029091065E+02 0.21689680907E+02 0.16144198350E+02
 0.11660993149E+02 0.83534885250E+01 0.61808509257E+01 0.49534792420E+01 0.43579933891E+01
 0.40242780363E+01 0.37873102072E+01 0.36588706795E+01 0.36445988707E+01 0.37454632508E+01
 0.39590636660E+01 0.42736142975E+01 0.47614712390E+01 0.57733062201E+01 0.76663546851E+01
 0.10685898100E+02 0.14923593584E+02 0.20302017308E+02 0.26573180823E+02 0.33323715468E+02
 0.39993001742E+02 0.45920449918E+02 0.39849357000E+02 0.42438040833E+02 0.43186929312E+02
 0.42001904792E+02 0.39054502546E+02 0.34739382426E+02 0.29583953058E+02 0.24143519295E+02
 0.18914636240E+02 0.14283121543E+02 0.10503059993E+02 0.76919659805E+01 0.58303538212E+01
 0.47661616571E+01 0.42346435649E+01 0.39175627648E+01 0.36838652910E+01 0.35444414303E+01
 0.35030501496E+01 0.35603890224E+01 0.37172221835E+01 0.39712527785E+01 0.43130432366E+01
 0.48800964635E+01 0.60067858907E+01 0.79747521129E+01 0.10943919665E+02 0.14923593584E+02
 0.19763993217E+02 0.25160818748E+02 0.30672578457E+02 0.35759000852E+02 0.30160094979E+02
 0.32575670897E+02 0.33598226883E+02 0.33094945044E+02 0.31147169446E+02 0.28029091065E+02
 0.24143519295E+02 0.19938278132E+02 0.15830129258E+02 0.12153287090E+02 0.91340288242E+01
 0.68819885423E+01 0.53884244940E+01 0.45299245833E+01 0.40846431822E+01 0.37919647254E+01
 0.35711482404E+01 0.34317600276E+01 0.33750051701E+01 0.34001569556E+01 0.35085144555E+01
 0.37025881079E+01 0.39806881174E+01 0.43405934376E+01 0.49493371182E+01 0.60913467708E+01
 0.79747521129E+01 0.10685898100E+02 0.14169853591E+02 0.18228918478E+02 0.22536537696E+02
 0.26669090411E+02 0.21868370121E+02 0.23950049221E+02 0.25038393021E+02 0.24985993425E+02
 0.23810882380E+02 0.21689680907E+02 0.18914636240E+02 0.15830129258E+02 0.12769425178E+02
 0.10007364982E+02 0.77335449797E+01 0.60410397715E+01 0.49234810358E+01 0.42782131914E+01
 0.39198936686E+01 0.36549816162E+01 0.34542166424E+01 0.33236582842E+01 0.32619368856E+01
 0.32665165688E+01 0.33377208884E+01 0.34793514342E+01 0.36956805017E+01 0.39854708398E+01
 0.43507337750E+01 0.49493371182E+01 0.60067858907E+01 0.76663546851E+01 0.99569029264E+01
 0.12781604617E+02 0.15924478860E+02 0.19074508731E+02 0.15264966338E+02 0.16914754270E+02
 0.17910471492E+02 0.18108239274E+02 0.17485620375E+02 0.16144198350E+02 0.14283121543E+02
 0.12153287090E+02 0.10007364982E+02 0.80589543037E+01 0.64567801329E+01 0.52722472594E+01
 0.44956604902E+01 0.40389077135E+01 0.37486046072E+01 0.35144922230E+01 0.33384316054E+01
 0.32227710528E+01 0.31641012470E+01 0.31583122994E+01 0.32042281819E+01 0.33049109631E+01
 0.34663486085E+01 0.36936392045E+01 0.39854708398E+01 0.43405934376E+01 0.48800964635E+01
 0.57733062201E+01 0.71116030788E+01 0.88855509801E+01 0.10981425791E+02 0.13195418454E+02
 0.10443351576E+02 0.11624538956E+02 0.12420840355E+02 0.12706111994E+02 0.12436934472E+02
 0.11660993149E+02 0.10503059993E+02 0.91340288242E+01 0.77335449797E+01 0.64567801329E+01
 0.54114117818E+01 0.46452840569E+01 0.41422010595E+01 0.38242031851E+01 0.35788215837E+01
 0.33779709604E+01 0.32289699734E+01 0.31315856290E+01 0.30812521957E+01 0.30729235435E+01
 0.31040931288E+01 0.31762873247E+01 0.32947626275E+01 0.34663486085E+01 0.36956805017E+01
 0.39806881174E+01 0.43130432366E+01 0.47614712390E+01 0.54461695694E+01 0.64220287611E+01
 0.76614680606E+01 0.90575848248E+01 0.73016018624E+01 0.80403379340E+01 0.85863548664E+01
 0.88421459729E+01 0.87600406261E+01 0.83534885250E+01 0.76919659805E+01 0.68819885423E+01
 0.60410397715E+01 0.52722472594E+01 0.46452840569E+01 0.41851862194E+01 0.38682033445E+01
 0.36264374937E+01 0.34184875032E+01 0.32518542732E+01 0.31303677246E+01 0.30524171459E+01
 0.30132411694E+01 0.30076580747E+01 0.30323837948E+01 0.30874241052E+01 0.31762873247E+01
 0.33049109631E+01 0.34793514342E+01 0.37025881079E+01 0.39712527785E+01 0.42736142975E+01
 0.46244925780E+01 0.50990363487E+01 0.57311519784E+01 0.64928570719E+01 0.55480742804E+01
 0.59310876288E+01 0.62352355989E+01 0.63980889422E+01 0.63810298162E+01 0.61808509257E+01
 0.58303538212E+01 0.53884244940E+01 0.49234810358E+01 0.44956604902E+01 0.41422010595E+01
 0.38682033445E+01 0.36439797776E+01 0.34437217073E+01 0.32741823798E+01 0.31411438536E+01
 0.30462029024E+01 0.29873536334E+01 0.29604229895E+01 0.29608268343E+01 0.29851740960E+01
 0.30323837948E+01 0.31040931288E+01 0.32042281819E+01 0.33377208884E+01 0.35085144555E+01
 0.37172221835E+01 0.39590636660E+01 0.42228600124E+01 0.44946845327E+01 0.47965364289E+01
 0.51531437248E+01 0.47380364691E+01 0.48981451801E+01 0.50229007130E+01 0.50853276552E+01
 0.50641463904E+01 0.49534792420E+01 0.47661616571E+01 0.45299245833E+01 0.42782131914E+01
 0.40389077135E+01 0.38242031851E+01 0.36264374937E+01 0.34437217073E+01 0.32833537366E+01
 0.31508649459E+01 0.30492748065E+01 0.29789845461E+01 0.29382157087E+01 0.29238367854E+01
 0.29323486201E+01 0.29608268343E+01 0.30076580747E+01 0.30729235435E+01 0.31583122994E+01
 0.32665165688E+01 0.34001569556E+01 0.35603890224E+01 0.37454632508E+01 0.39496362222E+01
 0.41628744427E+01 0.43716402394E+01 0.45622509153E+01 0.43595165241E+01 0.44421016287E+01
 0.44849762164E+01 0.44861600292E+01 0.44437667753E+01 0.43579933891E+01 0.42346435649E+01
 0.40846431822E+01 0.39198936686E+01 0.37486046072E+01 0.35788215837E+01 0.34184875032E+01
 0.32741823798E+01 0.31508649459E+01 0.30517283378E+01 0.29782190258E+01 0.29302474160E+01
 0.29065570241E+01 0.29051710032E+01 0.29238367854E+01 0.29604229895E+01 0.30132411694E+01
 0.30812521957E+01 0.31641012470E+01 0.32619368856E+01 0.33750051701E+01 0.35030501496E+01
 0.36445988707E+01 0.37962763571E+01 0.39523656015E+01 0.41048373241E+01 0.42439731116E+01
 0.41269863102E+01 0.41668775486E+01 0.41779688891E+01 0.41577300237E+01 0.41058058222E+01
 0.40242780363E+01 0.39175627648E+01 0.37919647254E+01 0.36549816162E+01 0.35144922230E+01
 0.33779709604E+01 0.32518542732E+01 0.31411438536E+01 0.30492748065E+01 0.29782190258E+01
 0.29287515609E+01 0.29007879501E+01 0.28937022488E+01 0.29065570241E+01 0.29382157087E+01
 0.29873536334E+01 0.30524171459E+01 0.31315856290E+01 0.32227710528E+01 0.33236582842E+01
 0.34317600276E+01 0.35444414303E+01 0.36588706795E+01 0.37718826498E+01 0.38797980831E+01
 0.39782943963E+01 0.40624420956E+01 0.40468748681E+01 0.40359432301E+01 0.40033803715E+01
 0.39499525996E+01 0.38771361219E+01 0.37873102072E+01 0.36838652910E+01 0.35711482404E+01
 0.34542166424E+01 0.33384316054E+01 0.32289699734E+01 0.31303677246E+01 0.30462029024E+01
 0.29789845461E+01 0.29302474160E+01 0.29007879501E+01 0.28909399020E+01 0.29007879501E+01
 0.29302474160E+01 0.29789845461E+01 0.30462029024E+01 0.31303677246E+01 0.32289699734E+01
 0.33384316054E+01 0.34542166424E+01 0.35711482404E+01 0.36838652910E+01 0.37873102072E+01
 0.38771361219E+01 0.39499525996E+01 0.40033803715E+01 0.40359432301E+01 0.41269863102E+01
 0.40624420956E+01 0.39782943963E+01 0.38797980831E+01 0.37718826498E+01 0.36588706795E+01
 0.35444414303E+01 0.34317600276E+01 0.33236582842E+01 0.32227710528E+01 0.31315856290E+01
 0.30524171459E+01 0.29873536334E+01 0.29382157087E+01 0.29065570241E+01 0.28937022488E+01
 0.29007879501E+01 0.29287515609E+01 0.29782190258E+01 0.30492748065E+01 0.31411438536E+01
 0.32518542732E+01 0.33779709604E+01 0.35144922230E+01 0.36549816162E+01 0.37919647254E+01
 0.39175627648E+01 0.40242780363E+01 0.41058058222E+01 0.41577300237E+01 0.41779688891E+01
 0.41668775486E+01 0.43595165241E+01 0.42439731116E+01 0.41048373241E+01 0.39523656015E+01
 0.37962763571E+01 0.36445988707E+01 0.35030501496E+01 0.33750051701E+01 0.32619368856E+01
 0.31641012470E+01 0.30812521957E+01 0.30132411694E+01 0.29604229895E+01 0.29238367854E+01
 0.29051710032E+01 0.29065570241E+01 0.29302474160E+01 0.29782190258E+01 0.30517283378E+01
 0.31508649459E+01 0.32741823798E+01 0.34184875032E+01 0.35788215837E+01 0.37486046072E+01
 0.39198936686E+01 0.40846431822E+01 0.42346435649E+01 0.43579933891E+01 0.44437667753E+01
 0.44861600292E+01 0.44849762164E+01 0.44421016287E+01 0.47380364691E+01 0.45622509153E+01
 0.43716402394E+01 0.41628744427E+01 0.39496362222E+01 0.37454632508E+01 0.35603890224E+01
 0.34001569556E+01 0.32665165688E+01 0.31583122994E+01 0.30729235435E+01 0.30076580747E+01
 0.29608268343E+01 0.29323486201E+01 0.29238367854E+01 0.29382157087E+01 0.29789845461E+01
 0.30492748065E+01 0.31508649459E+01 0.32833537366E+01 0.34437217073E+01 0.36264374937E+01
 0.38242031851E+01 0.40389077135E+01 0.42782131914E+01 0.45299245833E+01 0.47661616571E+01
 0.49534792420E+01 0.50641463904E+01 0.50853276552E+01 0.50229007130E+01 0.48981451801E+01
 0.55480742804E+01 0.51531437248E+01 0.47965364289E+01 0.44946845327E+01 0.42228600124E+01
 0.39590636660E+01 0.37172221835E+01 0.35085144555E+01 0.33377208884E+01 0.32042281819E+01
 0.31040931288E+01 0.30323837948E+01 0.29851740960E+01 0.29608268343E+01 0.29604229895E+01
 0.29873536334E+01 0.30462029024E+01 0.31411438536E+01 0.32741823798E+01 0.34437217073E+01
 0.36439797776E+01 0.38682033445E+01 0.41422010595E+01 0.44956604902E+01 0.49234810358E+01
 0.53884244940E+01 0.58303538212E+01 0.61808509257E+01 0.63810298162E+01 0.63980889422E+01
 0.62352355989E+01 0.59310876288E+01 0.73016018624E+01 0.64928570719E+01 0.57311519784E+01
 0.50990363487E+01 0.46244925780E+01 0.42736142975E+01 0.39712527785E+01 0.37025881079E+01
 0.34793514342E+01 0.33049109631E+01 0.31762873247E+01 0.30874241052E+01 0.30323837948E+01
 0.30076580747E+01 0.30132411694E+01 0.30524171459E+01 0.31303677246E+01 0.32518542732E+01
 0.34184875032E+01 0.36264374937E+01 0.38682033445E+01 0.41851862194E+01 0.46452840569E+01
 0.52722472594E+01 0.60410397715E+01 0.68819885423E+01 0.76919659805E+01 0.83534885250E+01
 0.87600406261E+01 0.88421459729E+01 0.85863548664E+01 0.80403379340E+01 0.10443351576E+02
 0.90575848248E+01 0.76614680606E+01 0.64220287611E+01 0.54461695694E+01 0.47614712390E+01
 0.43130432366E+01 0.39806881174E+01 0.36956805017E+01 0.34663486085E+01 0.32947626275E+01
 0.31762873247E+01 0.31040931288E+01 0.30729235435E+01 0.30812521957E+01 0.31315856290E+01
 0.32289699734E+01 0.33779709604E+01 0.35788215837E+01 0.38242031851E+01 0.41422010595E+01
 0.46452840569E+01 0.54114117818E+01 0.64567801329E+01 0.77335449797E+01 0.91340288242E+01
 0.10503059993E+02 0.11660993149E+02 0.12436934472E+02 0.12706111994E+02 0.12420840355E+02
 0.11624538956E+02 0.15264966338E+02 0.13195418454E+02 0.10981425791E+02 0.88855509801E+01
 0.71116030788E+01 0.57733062201E+01 0.48800964635E+01 0.43405934376E+01 0.39854708398E+01
 0.36936392045E+01 0.34663486085E+01 0.33049109631E+01 0.32042281819E+01 0.31583122994E+01
 0.31641012470E+01 0.32227710528E+01 0.33384316054E+01 0.35144922230E+01 0.37486046072E+01
 0.40389077135E+01 0.44956604902E+01 0.52722472594E+01 0.64567801329E+01 0.80589543037E+01
 0.10007364982E+02 0.12153287090E+02 0.14283121543E+02 0.16144198350E+02 0.17485620375E+02
 0.18108239274E+02 0.17910471492E+02 0.16914754270E+02 0.21868370121E+02 0.19074508731E+02
 0.15924478860E+02 0.12781604617E+02 0.99569029264E+01 0.76663546851E+01 0.60067858907E+01
 0.49493371182E+01 0.43507337750E+01 0.39854708398E+01 0.36956805017E+01 0.34793514342E+01
 0.33377208884E+01 0.32665165688E+01 0.32619368856E+01 0.33236582842E+01 0.34542166424E+01
 0.36549816162E+01 0.39198936686E+01 0.42782131914E+01 0.49234810358E+01 0.60410397715E+01
 0.77335449797E+01 0.10007364982E+02 0.12769425178E+02 0.15830129258E+02 0.18914636240E+02
 0.21689680907E+02 0.23810882380E+02 0.24985993425E+02 0.25038393021E+02 0.23950049221E+02
 0.30160094979E+02 0.26669090411E+02 0.22536537696E+02 0.18228918478E+02 0.14169853591E+02
 0.10685898100E+02 0.79747521129E+01 0.60913467708E+01 0.49493371182E+01 0.43405934376E+01
 0.39806881174E+01 0.37025881079E+01 0.35085144555E+01 0.34001569556E+01 0.33750051701E+01
 0.34317600276E+01 0.35711482404E+01 0.37919647254E+01 0.40846431822E+01 0.45299245833E+01
 0.53884244940E+01 0.68819885423E+01 0.91340288242E+01 0.12153287090E+02 0.15830129258E+02
 0.19938278132E+02 0.24143519295E+02 0.28029091065E+02 0.31147169446E+02 0.33094945044E+02
 0.33598226883E+02 0.32575670897E+02 0.39849357000E+02 0.35759000852E+02 0.30672578457E+02
 0.25160818748E+02 0.19763993217E+02 0.14923593584E+02 0.10943919665E+02 0.79747521129E+01
 0.60067858907E+01 0.48800964635E+01 0.43130432366E+01 0.39712527785E+01 0.37172221835E+01
 0.35603890224E+01 0.35030501496E+01 0.35444414303E+01 0.36838652910E+01 0.39175627648E+01
 0.42346435649E+01 0.47661616571E+01 0.58303538212E+01 0.76919659805E+01 0.10503059993E+02
 0.14283121543E+02 0.18914636240E+02 0.24143519295E+02 0.29583953058E+02 0.34739382426E+02
 0.39054502546E+02 0.42001904792E+02 0.43186929312E+02 0.42438040833E+02 0.50433548067E+02
 0.45920449918E+02 0.39993001742E+02 0.33323715468E+02 0.26573180823E+02 0.20302017308E+02
 0.14923593584E+02 0.10685898100E+02 0.76663546851E+01 0.57733062201E+01 0.47614712390E+01
 0.42736142975E+01 0.39590636660E+01 0.37454632508E+01 0.36445988707E+01 0.36588706795E+01
 0.37873102072E+01 0.40242780363E+01 0.43579933891E+01 0.49534792420E+01 0.61808509257E+01
 0.83534885250E+01 0.11660993149E+02 0.16144198350E+02 0.21689680907E+02 0.28029091065E+02
 0.34739382426E+02 0.41256436020E+02 0.46922632095E+02 0.51079381801E+02 0.53191749902E+02
 0.52968504934E+02 0.61183373471E+02 0.56509517310E+02 0.49951439165E+02 0.42271662210E+02
 0.34250863742E+02 0.26573180823E+02 0.19763993217E+02 0.14169853591E+02 0.99569029264E+01
 0.71116030788E+01 0.54461695694E+01 0.46244925780E+01 0.42228600124E+01 0.39496362222E+01
 0.37962763571E+01 0.37718826498E+01 0.38771361219E+01 0.41058058222E+01 0.44437667753E+01
 0.50641463904E+01 0.63810298162E+01 0.87600406261E+01 0.12436934472E+02 0.17485620375E+02
 0.23810882380E+02 0.31147169446E+02 0.39054502546E+02 0.46922632095E+02 0.54008827001E+02
 0.59529222014E+02 0.62797974002E+02 0.63377104036E+02 0.71164703550E+02 0.66668012788E+02
 0.59792642645E+02 0.51363935581E+02 0.42271662210E+02 0.33323715468E+02 0.25160818748E+02
 0.18228918478E+02 0.12781604617E+02 0.88855509801E+01 0.64220287611E+01 0.50990363487E+01
 0.44946845327E+01 0.41628744427E+01 0.39523656015E+01 0.38797980831E+01 0.39499525996E+01
 0.41577300237E+01 0.44861600292E+01 0.50853276552E+01 0.63980889422E+01 0.88421459729E+01
 0.12706111994E+02 0.18108239274E+02 0.24985993425E+02 0.33094945044E+02 0.42001904792E+02
 0.51079381801E+02 0.59529222014E+02 0.66464393653E+02 0.71053547020E+02 0.72695611454E+02
 0.79333690199E+02 0.75390868160E+02 0.68596038163E+02 0.59792642645E+02 0.49951439165E+02
 0.39993001742E+02 0.30672578457E+02 0.22536537696E+02 0.15924478860E+02 0.10981425791E+02
 0.76614680606E+01 0.57311519784E+01 0.47965364289E+01 0.43716402394E+01 0.41048373241E+01
 0.39782943963E+01 0.40033803715E+01 0.41779688891E+01 0.44849762164E+01 0.50229007130E+01
 0.62352355989E+01 0.85863548664E+01 0.12420840355E+02 0.17910471492E+02 0.25038393021E+02
 0.33598226883E+02 0.43186929312E+02 0.53191749902E+02 0.62797974002E+02 0.71053547020E+02
 0.77007393916E+02 0.79898217097E+02 0.84710195289E+02 0.81672969551E+02 0.75390868160E+02
 0.66668012788E+02 0.56509517310E+02 0.45920449918E+02 0.35759000852E+02 0.26669090411E+02
 0.19074508731E+02 0.13195418454E+02 0.90575848248E+01 0.64928570719E+01 0.51531437248E+01
 0.45622509153E+01 0.42439731116E+01 0.40624420956E+01 0.40359432301E+01 0.41668775486E+01
 0.44421016287E+01 0.48981451801E+01 0.59310876288E+01 0.80403379340E+01 0.11624538956E+02
 0.16914754270E+02 0.23950049221E+02 0.32575670897E+02 0.42438040833E+02 0.52968504934E+02
 0.63377104036E+02 0.72695611454E+02 0.79898217097E+02 0.84090096738E+02 0.84710195289E+02
 0.84090096738E+02 0.79898217097E+02 0.72695611454E+02 0.63377104036E+02 0.52968504934E+02
 0.42438040833E+02 0.32575670897E+02 0.23950049221E+02 0.16914754270E+02 0.11624538956E+02
 0.80403379340E+01 0.59310876288E+01 0.48981451801E+01 0.44421016287E+01 0.41668775486E+01
 0.40359432301E+01 0.40624420956E+01 0.42439731116E+01 0.45622509153E+01 0.51531437248E+01
 0.64928570719E+01 0.90575848248E+01 0.13195418454E+02 0.19074508731E+02 0.26669090411E+02
 0.35759000852E+02 0.45920449918E+02 0.56509517310E+02 0.66668012788E+02 0.75390868160E+02
 0.81672969551E+02 0.84090096738E+02 0.84710195369E+02 0.81672969706E+02 0.75390868376E+02
 0.66668013051E+02 0.56509517599E+02 0.45920450213E+02 0.35759001133E+02 0.26669090662E+02
 0.19074508940E+02 0.13195418613E+02 0.90575849347E+01 0.64928571379E+01 0.51531437567E+01
 0.45622509253E+01 0.42439731114E+01 0.40624420941E+01 0.40359432310E+01 0.41668775500E+01
 0.44421016230E+01 0.48981451559E+01 0.59310875735E+01 0.80403378368E+01 0.11624538811E+02
 0.16914754077E+02 0.23950048988E+02 0.32575670639E+02 0.42438040569E+02 0.52968504686E+02
 0.63377103827E+02 0.72695611303E+02 0.79898217018E+02 0.79898217097E+02 0.81672969706E+02
 0.79898217235E+02 0.74817020726E+02 0.67095373087E+02 0.57659273888E+02 0.47497265826E+02
 0.37497086726E+02 0.28354724748E+02 0.20551159985E+02 0.14363172233E+02 0.98746298607E+01
 0.69779838234E+01 0.53818463194E+01 0.46497148058E+01 0.42902299214E+01 0.40656326895E+01
 0.39885125480E+01 0.40656326923E+01 0.42902299179E+01 0.46497147794E+01 0.53818462497E+01
 0.69779836906E+01 0.98746296502E+01 0.14363171938E+02 0.20551159612E+02 0.28354724313E+02
 0.37497086255E+02 0.47497265353E+02 0.57659273450E+02 0.67095372721E+02 0.74817020462E+02
 0.72695611454E+02 0.75390868376E+02 0.74817020726E+02 0.71053547175E+02 0.64602940860E+02
 0.56265538295E+02 0.46960776448E+02 0.37560414573E+02 0.28780103704E+02 0.21137478752E+02
 0.14952451619E+02 0.10356952759E+02 0.72976504015E+01 0.55402494058E+01 0.46979040316E+01
 0.43008647075E+01 0.40438855120E+01 0.39229014894E+01 0.39478240460E+01 0.41169452590E+01
 0.44152150827E+01 0.49098075986E+01 0.60103268383E+01 0.81715633560E+01 0.11736496257E+02
 0.16881203995E+02 0.23596243924E+02 0.31684756437E+02 0.40757498326E+02 0.50224255307E+02
 0.59305281404E+02 0.67095372796E+02 0.63377104036E+02 0.66668013051E+02 0.67095373087E+02
 0.64602940860E+02 0.59529222138E+02 0.52522607174E+02 0.44392012601E+02 0.35949655006E+02
 0.27894506079E+02 0.20754697767E+02 0.14875183289E+02 0.10422594919E+02 0.73880423778E+01
 0.55899426004E+01 0.46949535152E+01 0.42737684263E+01 0.39967531689E+01 0.38420144277E+01
 0.38209069467E+01 0.39348580091E+01 0.41769589203E+01 0.45365806463E+01 0.52309683509E+01
 0.66992540346E+01 0.93198469514E+01 0.13332040543E+02 0.18802236506E+02 0.25615731517E+02
 0.33475325161E+02 0.41898335902E+02 0.50224255373E+02 0.57659273589E+02 0.52968504934E+02
 0.56509517599E+02 0.57659273888E+02 0.56265538295E+02 0.52522607174E+02 0.46922632146E+02
 0.40140108406E+02 0.32894027718E+02 0.25833128890E+02 0.19468459217E+02 0.14149302861E+02
 0.10061286330E+02 0.72277876319E+01 0.55120389867E+01 0.46329133714E+01 0.42098706523E+01
 0.39253398506E+01 0.37488536547E+01 0.36913900010E+01 0.37554940508E+01 0.39393675643E+01
 0.42327809748E+01 0.46676038394E+01 0.55674118532E+01 0.73220983889E+01 0.10221188849E+02
 0.14403943864E+02 0.19839280144E+02 0.26322223922E+02 0.33475325208E+02 0.40757498438E+02
 0.47497265537E+02 0.42438040833E+02 0.45920450213E+02 0.47497265826E+02 0.46960776448E+02
 0.44392012601E+02 0.40140108406E+02 0.34739382392E+02 0.28796042813E+02 0.22883282171E+02
 0.17470749510E+02 0.12891868550E+02 0.93351286690E+01 0.68431071700E+01 0.53139793966E+01
 0.45138593317E+01 0.41130429046E+01 0.38324814583E+01 0.36465824075E+01 0.35643817429E+01
 0.35878551906E+01 0.37174323960E+01 0.39508410030E+01 0.42766945975E+01 0.47948377581E+01
 0.58481798611E+01 0.77545368488E+01 0.10715353608E+02 0.14781070199E+02 0.19839280169E+02
 0.25615731589E+02 0.31684756573E+02 0.37497086461E+02 0.32575670897E+02 0.35759001133E+02
 0.37497086726E+02 0.37560414573E+02 0.35949655006E+02 0.32894027718E+02 0.28796042813E+02
 0.24143519197E+02 0.19419488356E+02 0.15034510434E+02 0.11289454484E+02 0.83613265210E+01
 0.62996572613E+01 0.50273774971E+01 0.43508513936E+01 0.39895927464E+01 0.37226615577E+01
 0.35386180833E+01 0.34435314848E+01 0.34377113170E+01 0.35216454733E+01 0.36969322877E+01
 0.39618167128E+01 0.43095673244E+01 0.48888807284E+01 0.60076577041E+01 0.79090681288E+01
 0.10715353610E+02 0.14403943891E+02 0.18802236580E+02 0.23596244062E+02 0.28354724518E+02
 0.23950049221E+02 0.26669090662E+02 0.28354724748E+02 0.28780103704E+02 0.27894506079E+02
 0.25833128890E+02 0.22883282171E+02 0.19419488356E+02 0.15830129143E+02 0.12456780529E+02
 0.95563295745E+01 0.72833991792E+01 0.56844902827E+01 0.46982067612E+01 0.41637038663E+01
 0.38474808436E+01 0.36016572680E+01 0.34286662841E+01 0.33312738088E+01 0.33076968013E+01
 0.33572346823E+01 0.34823549710E+01 0.36866043057E+01 0.39688233152E+01 0.43282630675E+01
 0.49236073717E+01 0.60076576934E+01 0.77545368405E+01 0.10221188864E+02 0.13332040603E+02
 0.16881204117E+02 0.20551159797E+02 0.16914754270E+02 0.19074508940E+02 0.20551159985E+02
 0.21137478752E+02 0.20754697767E+02 0.19468459217E+02 0.17470749510E+02 0.15034510434E+02
 0.12456780529E+02 0.10007364895E+02 0.78933308538E+01 0.62401436657E+01 0.50843022746E+01
 0.43729826502E+01 0.39713318424E+01 0.36954253824E+01 0.34759738323E+01 0.33206392476E+01
 0.32292211047E+01 0.31980244020E+01 0.32247650568E+01 0.33110604675E+01 0.34619242488E+01
 0.36822688888E+01 0.39711374643E+01 0.43282630539E+01 0.48888807039E+01 0.58481798379E+01
 0.73220983862E+01 0.93198469894E+01 0.11736496350E+02 0.14363172088E+02 0.11624538956E+02
 0.13195418613E+02 0.14363172233E+02 0.14952451619E+02 0.14875183289E+02 0.14149302861E+02
 0.12891868550E+02 0.11289454484E+02 0.95563295745E+01 0.78933308538E+01 0.64567800945E+01
 0.53401365453E+01 0.45659709842E+01 0.40851638057E+01 0.37833312069E+01 0.35420448896E+01
 0.33521741256E+01 0.32184561223E+01 0.31385597066E+01 0.31075046039E+01 0.31216587871E+01
 0.31811597699E+01 0.32902818188E+01 0.34556198984E+01 0.36822688806E+01 0.39688232939E+01
 0.43095672923E+01 0.47948377254E+01 0.55674118362E+01 0.66992540506E+01 0.81715634173E+01
 0.98746297589E+01 0.80403379340E+01 0.90575849347E+01 0.98746298607E+01 0.10356952759E+02
 0.10422594919E+02 0.10061286330E+02 0.93351286690E+01 0.83613265210E+01 0.72833991792E+01
 0.62401436657E+01 0.53401365453E+01 0.46452840606E+01 0.41629403220E+01 0.38448749519E+01
 0.36007500827E+01 0.33951487935E+01 0.32362343418E+01 0.31257761959E+01 0.30603631281E+01
 0.30345790781E+01 0.30440498996E+01 0.30875387945E+01 0.31676929579E+01 0.32902818189E+01
 0.34619242418E+01 0.36866042871E+01 0.39618166836E+01 0.42766945654E+01 0.46676038167E+01
 0.52309683511E+01 0.60103268715E+01 0.69779837593E+01 0.59310876288E+01 0.64928571379E+01
 0.69779838234E+01 0.72976504015E+01 0.73880423778E+01 0.72277876319E+01 0.68431071700E+01
 0.62996572613E+01 0.56844902827E+01 0.50843022746E+01 0.45659709842E+01 0.41629403220E+01
 0.38682033670E+01 0.36349811821E+01 0.34302200613E+01 0.32612346187E+01 0.31330525083E+01
 0.30457476137E+01 0.29957932948E+01 0.29781653363E+01 0.29884757416E+01 0.30246085759E+01
 0.30875388007E+01 0.31811597773E+01 0.33110604698E+01 0.34823549640E+01 0.36969322710E+01
 0.39508409810E+01 0.42327809556E+01 0.45365806394E+01 0.49098076115E+01 0.53818462854E+01
 0.48981451801E+01 0.51531437567E+01 0.53818463194E+01 0.55402494058E+01 0.55899426004E+01
 0.55120389867E+01 0.53139793966E+01 0.50273774971E+01 0.46982067612E+01 0.43729826502E+01
 0.40851638057E+01 0.38448749519E+01 0.36349811821E+01 0.34437217276E+01 0.32785457729E+01
 0.31452071101E+01 0.30461964847E+01 0.29808505764E+01 0.29461937750E+01 0.29381935961E+01
 0.29530835647E+01 0.29884757497E+01 0.30440499142E+01 0.31216588041E+01 0.32247650711E+01
 0.33572346899E+01 0.35216454727E+01 0.37174323886E+01 0.39393675545E+01 0.41769589138E+01
 0.44152150846E+01 0.46497147925E+01 0.44421016287E+01 0.45622509253E+01 0.46497148058E+01
 0.46979040316E+01 0.46949535152E+01 0.46329133714E+01 0.45138593317E+01 0.43508513936E+01
 0.41637038663E+01 0.39713318424E+01 0.37833312069E+01 0.36007500827E+01 0.34302200613E+01
 0.32785457729E+01 0.31508649554E+01 0.30503065846E+01 0.29779103771E+01 0.29328779419E+01
 0.29130940766E+01 0.29157856333E+01 0.29381936027E+01 0.29781653502E+01 0.30345790979E+01
 0.31075046266E+01 0.31980244239E+01 0.33076968190E+01 0.34377113284E+01 0.35878551956E+01
 0.37554940508E+01 0.39348580069E+01 0.41169452575E+01 0.42902299194E+01 0.41668775486E+01
 0.42439731114E+01 0.42902299214E+01 0.43008647075E+01 0.42737684263E+01 0.42098706523E+01
 0.41130429046E+01 0.39895927464E+01 0.38474808436E+01 0.36954253824E+01 0.35420448896E+01
 0.33951487935E+01 0.32612346187E+01 0.31452071101E+01 0.30503065846E+01 0.29782190274E+01
 0.29293271732E+01 0.29030431851E+01 0.28981505347E+01 0.29130940803E+01 0.29461937837E+01
 0.29957933086E+01 0.30603631458E+01 0.31385597264E+01 0.32292211243E+01 0.33312738261E+01
 0.34435314984E+01 0.35643817522E+01 0.36913900062E+01 0.38209069485E+01 0.39478240455E+01
 0.40656326908E+01 0.40359432301E+01 0.40624420941E+01 0.40656326895E+01 0.40438855120E+01
 0.39967531689E+01 0.39253398506E+01 0.38324814583E+01 0.37226615577E+01 0.36016572680E+01
 0.34759738323E+01 0.33521741256E+01 0.32362343418E+01 0.31330525083E+01 0.30461964847E+01
 0.29779103771E+01 0.29293271732E+01 0.29007879500E+01 0.28921570172E+01 0.29030431866E+01
 0.29328779453E+01 0.29808505815E+01 0.30457476201E+01 0.31257762029E+01 0.32184561293E+01
 0.33206392541E+01 0.34286662899E+01 0.35386180882E+01 0.36465824115E+01 0.37488536579E+01
 0.38420144299E+01 0.39229014905E+01 0.39885125480E+01 0.40624420956E+01 0.40359432310E+01
 0.39885125480E+01 0.39229014894E+01 0.38420144277E+01 0.37488536547E+01 0.36465824075E+01
 0.35386180833E+01 0.34286662841E+01 0.33206392476E+01 0.32184561223E+01 0.31257761959E+01
 0.30457476137E+01 0.29808505764E+01 0.29328779419E+01 0.29030431851E+01 0.28921570172E+01
 0.29007879507E+01 0.29293271735E+01 0.29779103758E+01 0.30461964808E+01 0.31330525014E+01
 0.32362343319E+01 0.33521741137E+01 0.34759738195E+01 0.36016572558E+01 0.37226615474E+01
 0.38324814507E+01 0.39253398460E+01 0.39967531671E+01 0.40438855122E+01 0.40656326908E+01
 0.42439731116E+01 0.41668775500E+01 0.40656326923E+01 0.39478240460E+01 0.38209069467E+01
 0.36913900010E+01 0.35643817429E+01 0.34435314848E+01 0.33312738088E+01 0.32292211047E+01
 0.31385597066E+01 0.30603631281E+01 0.29957932948E+01 0.29461937750E+01 0.29130940766E+01
 0.28981505347E+01 0.29030431866E+01 0.29293271735E+01 0.29782190238E+01 0.30503065752E+01
 0.31452070941E+01 0.32612345964E+01 0.33951487665E+01 0.35420448601E+01 0.36954253529E+01
 0.38474808163E+01 0.39895927230E+01 0.41130428860E+01 0.42098706386E+01 0.42737684173E+01