   1   1   1   0
  0.1028541E+02  0.2372910E-09  0.2372910E-09  0.2372910E-09  0.5000000E-15
  1.000000000000000E-004
  CAR 
 Fe BCC                                  
     50.52515780     -4.46793759  301      6.86898729      1.00000000
     -4.468  0.0000E+00  0.0000E+00  0.0000E+00  0.0000E+00
     -4.285  0.0000E+00  0.0000E+00  0.0000E+00  0.0000E+00
     -4.101  0.0000E+00  0.0000E+00  0.0000E+00  0.0000E+00
     -3.918  0.0000E+00  0.0000E+00  0.0000E+00  0.0000E+00
     -3.735  0.0000E+00  0.0000E+00  0.0000E+00  0.0000E+00
     -3.551  0.0000E+00  0.0000E+00  0.0000E+00  0.0000E+00
     -3.368  0.0000E+00  0.0000E+00  0.0000E+00  0.0000E+00
     -3.185  0.0000E+00  0.0000E+00  0.0000E+00  0.0000E+00
     -3.001  0.0000E+00  0.0000E+00  0.0000E+00  0.0000E+00
     -2.818  0.0000E+00  0.0000E+00  0.0000E+00  0.0000E+00
     -2.635  0.0000E+00  0.0000E+00  0.0000E+00  0.0000E+00
     -2.452  0.0000E+00  0.0000E+00  0.0000E+00  0.0000E+00
     -2.268  0.0000E+00  0.0000E+00  0.0000E+00  0.0000E+00
     -2.085  0.0000E+00  0.0000E+00  0.0000E+00  0.0000E+00
     -1.902  0.1128E-01  0.0000E+00  0.1325E-02  0.0000E+00
     -1.718  0.1715E-01  0.0000E+00  0.3944E-02  0.0000E+00
     -1.535  0.2211E-01  0.1120E-01  0.7556E-02  0.1354E-02
     -1.352  0.2617E-01  0.1687E-01  0.1200E-01  0.3941E-02
     -1.168  0.3275E-01  0.2163E-01  0.1733E-01  0.7482E-02
     -0.985  0.3915E-01  0.2548E-01  0.2394E-01  0.1181E-01
     -0.802  0.4404E-01  0.3158E-01  0.3159E-01  0.1698E-01
     -0.618  0.4546E-01  0.3754E-01  0.3983E-01  0.2334E-01
     -0.435  0.5088E-01  0.4198E-01  0.4865E-01  0.3065E-01
     -0.252  0.5682E-01  0.4236E-01  0.5852E-01  0.3850E-01
     -0.068  0.6330E-01  0.4667E-01  0.6952E-01  0.4666E-01
      0.115  0.7031E-01  0.5131E-01  0.8176E-01  0.5563E-01
      0.298  0.7785E-01  0.5629E-01  0.9533E-01  0.6549E-01
      0.481  0.8898E-01  0.6161E-01  0.1104E+00  0.7629E-01
      0.665  0.1070E+00  0.6727E-01  0.1284E+00  0.8810E-01
      0.848  0.1265E+00  0.7218E-01  0.1497E+00  0.1010E+00
      1.031  0.1534E+00  0.8194E-01  0.1750E+00  0.1151E+00
      1.215  0.2001E+00  0.9178E-01  0.2072E+00  0.1310E+00
      1.398  0.2615E+00  0.1011E+00  0.2493E+00  0.1487E+00
      1.581  0.4764E+00  0.1116E+00  0.3264E+00  0.1682E+00
      1.765  0.5798E+00  0.1270E+00  0.4233E+00  0.1899E+00
      1.948  0.8809E+00  0.1461E+00  0.5529E+00  0.2149E+00
      2.131  0.9583E+00  0.1683E+00  0.7287E+00  0.2437E+00
      2.315  0.7437E+00  0.1936E+00  0.8848E+00  0.2768E+00
      2.498  0.4720E+00  0.3360E+00  0.9915E+00  0.3184E+00
      2.681  0.3358E+00  0.3988E+00  0.1067E+01  0.3881E+00
      2.864  0.3440E+00  0.4206E+00  0.1121E+01  0.4631E+00
      3.048  0.1323E+01  0.5012E+00  0.1251E+01  0.5467E+00
      3.231  0.1409E+01  0.5792E+00  0.1519E+01  0.6453E+00
      3.414  0.8900E+00  0.8483E+00  0.1738E+01  0.7764E+00
      3.598  0.6385E+00  0.5856E+00  0.1868E+01  0.9061E+00
      3.781  0.7410E+00  0.3963E+00  0.1995E+01  0.9942E+00
      3.964  0.1062E+01  0.2199E+00  0.2158E+01  0.1055E+01
      4.148  0.1700E+01  0.1511E+00  0.2418E+01  0.1096E+01
      4.331  0.7922E+00  0.5784E+00  0.2669E+01  0.1148E+01
      4.514  0.3981E+00  0.1188E+01  0.2764E+01  0.1338E+01
      4.698  0.3408E+00  0.1233E+01  0.2830E+01  0.1568E+01
      4.881  0.3295E+00  0.8281E+00  0.2891E+01  0.1764E+01
      5.064  0.3710E+00  0.8304E+00  0.2953E+01  0.1915E+01
      5.248  0.5129E+00  0.9013E+00  0.3041E+01  0.2073E+01
      5.431  0.8193E+00  0.1184E+01  0.3156E+01  0.2260E+01
      5.614  0.1325E+01  0.1324E+01  0.3354E+01  0.2499E+01
      5.797  0.1776E+01  0.8620E+00  0.3652E+01  0.2698E+01
      5.981  0.1732E+01  0.3237E+00  0.3990E+01  0.2804E+01
      6.164  0.2382E+01  0.2578E+00  0.4291E+01  0.2857E+01
      6.347  0.1050E+01  0.2164E+00  0.4564E+01  0.2900E+01
      6.531  0.7547E+00  0.2160E+00  0.4730E+01  0.2939E+01
      6.714  0.7131E+00  0.2364E+00  0.4866E+01  0.2978E+01
      6.897  0.7235E+00  0.3256E+00  0.5000E+01  0.3031E+01
      7.081  0.8676E+00  0.4366E+00  0.5164E+01  0.3100E+01
      7.264  0.2089E+00  0.6962E+00  0.5232E+01  0.3201E+01
      7.447  0.1390E+00  0.9627E+00  0.5260E+01  0.3349E+01
      7.631  0.1613E+00  0.1333E+01  0.5287E+01  0.3562E+01
      7.814  0.1615E+00  0.1478E+01  0.5317E+01  0.3824E+01
      7.997  0.1579E+00  0.1205E+01  0.5346E+01  0.4062E+01
      8.180  0.1496E+00  0.1237E+01  0.5375E+01  0.4287E+01
      8.364  0.1409E+00  0.1483E+01  0.5401E+01  0.4627E+01
      8.547  0.1405E+00  0.9442E+00  0.5427E+01  0.4832E+01
      8.730  0.1403E+00  0.9145E+00  0.5453E+01  0.5001E+01
      8.914  0.1402E+00  0.8614E+00  0.5478E+01  0.5181E+01
      9.097  0.1401E+00  0.1855E+00  0.5504E+01  0.5244E+01
      9.280  0.1404E+00  0.2054E+00  0.5530E+01  0.5280E+01
      9.464  0.1399E+00  0.2043E+00  0.5556E+01  0.5318E+01
      9.647  0.1383E+00  0.1925E+00  0.5581E+01  0.5354E+01
      9.830  0.1356E+00  0.1766E+00  0.5606E+01  0.5388E+01
     10.014  0.1404E+00  0.1684E+00  0.5631E+01  0.5420E+01
     10.197  0.1334E+00  0.1665E+00  0.5656E+01  0.5450E+01
     10.380  0.1256E+00  0.1652E+00  0.5680E+01  0.5481E+01
     10.564  0.1287E+00  0.1646E+00  0.5703E+01  0.5511E+01
     10.747  0.1208E+00  0.1634E+00  0.5728E+01  0.5541E+01
     10.930  0.1163E+00  0.1603E+00  0.5750E+01  0.5571E+01
     11.113  0.1118E+00  0.1555E+00  0.5771E+01  0.5600E+01
     11.297  0.1073E+00  0.1571E+00  0.5791E+01  0.5628E+01
     11.480  0.1029E+00  0.1450E+00  0.5810E+01  0.5656E+01
     11.663  0.9853E-01  0.1392E+00  0.5828E+01  0.5682E+01
     11.847  0.9364E-01  0.1402E+00  0.5846E+01  0.5708E+01
     12.030  0.8750E-01  0.1319E+00  0.5863E+01  0.5734E+01
     12.213  0.8143E-01  0.1250E+00  0.5878E+01  0.5757E+01
     12.397  0.7543E-01  0.1196E+00  0.5892E+01  0.5780E+01
     12.580  0.7853E-01  0.1143E+00  0.5906E+01  0.5801E+01
     12.763  0.7204E-01  0.1091E+00  0.5920E+01  0.5822E+01
     12.947  0.6275E-01  0.1041E+00  0.5933E+01  0.5841E+01
     13.130  0.4466E-01  0.9779E-01  0.5942E+01  0.5860E+01
     13.313  0.4111E-01  0.9059E-01  0.5950E+01  0.5877E+01
     13.496  0.3776E-01  0.9132E-01  0.5957E+01  0.5893E+01
     13.680  0.3360E-01  0.8409E-01  0.5965E+01  0.5909E+01
     13.863  0.2619E-01  0.7463E-01  0.5971E+01  0.5924E+01
     14.046  0.2068E-01  0.6293E-01  0.5975E+01  0.5937E+01
     14.230  0.1707E-01  0.4750E-01  0.5978E+01  0.5946E+01
     14.413  0.1538E-01  0.4343E-01  0.5981E+01  0.5954E+01
     14.596  0.1589E-01  0.3961E-01  0.5984E+01  0.5962E+01
     14.780  0.1876E-01  0.3289E-01  0.5987E+01  0.5970E+01
     14.963  0.2398E-01  0.2544E-01  0.5991E+01  0.5975E+01
     15.146  0.3280E-01  0.2003E-01  0.5996E+01  0.5979E+01
     15.330  0.6818E-01  0.1668E-01  0.6006E+01  0.5983E+01
     15.513  0.1113E+00  0.1540E-01  0.6023E+01  0.5986E+01
     15.696  0.1675E+00  0.1640E-01  0.6048E+01  0.5988E+01
     15.880  0.2203E+00  0.1972E-01  0.6086E+01  0.5992E+01
     16.063  0.2457E+00  0.2841E-01  0.6130E+01  0.5997E+01
     16.246  0.2611E+00  0.3498E-01  0.6176E+01  0.6002E+01
     16.429  0.2694E+00  0.6491E-01  0.6225E+01  0.6011E+01
     16.613  0.1850E+00  0.1225E+00  0.6267E+01  0.6027E+01
     16.796  0.1805E+00  0.1901E+00  0.6301E+01  0.6057E+01
     16.979  0.1756E+00  0.2398E+00  0.6333E+01  0.6097E+01
     17.163  0.1701E+00  0.2896E+00  0.6365E+01  0.6145E+01
     17.346  0.1643E+00  0.2902E+00  0.6396E+01  0.6198E+01
     17.529  0.1658E+00  0.2081E+00  0.6426E+01  0.6251E+01
     17.713  0.1764E+00  0.1982E+00  0.6458E+01  0.6288E+01
     17.896  0.1662E+00  0.1920E+00  0.6489E+01  0.6324E+01
     18.079  0.1496E+00  0.1885E+00  0.6519E+01  0.6359E+01
     18.263  0.1597E+00  0.1905E+00  0.6548E+01  0.6393E+01
     18.446  0.1649E+00  0.2481E+00  0.6578E+01  0.6430E+01
     18.629  0.1708E+00  0.1576E+00  0.6609E+01  0.6465E+01
     18.812  0.1788E+00  0.1593E+00  0.6641E+01  0.6494E+01
     18.996  0.1904E+00  0.1687E+00  0.6676E+01  0.6524E+01
     19.179  0.1929E+00  0.1732E+00  0.6712E+01  0.6555E+01
     19.362  0.1954E+00  0.1784E+00  0.6747E+01  0.6588E+01
     19.546  0.1983E+00  0.1841E+00  0.6783E+01  0.6621E+01
     19.729  0.2005E+00  0.1991E+00  0.6820E+01  0.6657E+01
     19.912  0.2013E+00  0.2018E+00  0.6857E+01  0.6694E+01
     20.096  0.2009E+00  0.2042E+00  0.6894E+01  0.6731E+01
     20.279  0.1949E+00  0.2067E+00  0.6935E+01  0.6769E+01
     20.462  0.1844E+00  0.2088E+00  0.6970E+01  0.6807E+01
     20.646  0.1822E+00  0.2098E+00  0.7004E+01  0.6845E+01
     20.829  0.1800E+00  0.2155E+00  0.7037E+01  0.6885E+01
     21.012  0.1779E+00  0.2024E+00  0.7070E+01  0.6925E+01
     21.196  0.1769E+00  0.1909E+00  0.7102E+01  0.6962E+01
     21.379  0.1757E+00  0.1887E+00  0.7134E+01  0.6997E+01
     21.562  0.1746E+00  0.1864E+00  0.7166E+01  0.7031E+01
     21.745  0.1734E+00  0.1843E+00  0.7198E+01  0.7065E+01
     21.929  0.1753E+00  0.1823E+00  0.7231E+01  0.7099E+01
     22.112  0.1720E+00  0.1818E+00  0.7263E+01  0.7132E+01
     22.295  0.1692E+00  0.1807E+00  0.7294E+01  0.7165E+01
     22.479  0.1678E+00  0.1797E+00  0.7325E+01  0.7198E+01
     22.662  0.1657E+00  0.1867E+00  0.7355E+01  0.7232E+01
     22.845  0.1647E+00  0.1788E+00  0.7386E+01  0.7265E+01
     23.029  0.1637E+00  0.1755E+00  0.7416E+01  0.7298E+01
     23.212  0.1626E+00  0.1740E+00  0.7446E+01  0.7330E+01
     23.395  0.1616E+00  0.1722E+00  0.7475E+01  0.7361E+01
     23.579  0.1605E+00  0.1714E+00  0.7505E+01  0.7393E+01
     23.762  0.1661E+00  0.1705E+00  0.7536E+01  0.7424E+01
     23.945  0.1680E+00  0.1696E+00  0.7566E+01  0.7455E+01
     24.128  0.1714E+00  0.1688E+00  0.7597E+01  0.7486E+01
     24.312  0.1756E+00  0.1679E+00  0.7629E+01  0.7517E+01
     24.495  0.1829E+00  0.1669E+00  0.7662E+01  0.7548E+01
     24.678  0.2054E+00  0.1658E+00  0.7697E+01  0.7578E+01
     24.862  0.2045E+00  0.1735E+00  0.7734E+01  0.7610E+01
     25.045  0.2115E+00  0.1780E+00  0.7772E+01  0.7642E+01
     25.228  0.2270E+00  0.1846E+00  0.7813E+01  0.7676E+01
     25.412  0.2352E+00  0.1944E+00  0.7855E+01  0.7710E+01
     25.595  0.2294E+00  0.2234E+00  0.7897E+01  0.7748E+01
     25.778  0.2337E+00  0.2168E+00  0.7939E+01  0.7787E+01
     25.962  0.2374E+00  0.2353E+00  0.7982E+01  0.7829E+01
     26.145  0.2309E+00  0.2349E+00  0.8025E+01  0.7873E+01
     26.328  0.2358E+00  0.2403E+00  0.8068E+01  0.7917E+01
     26.512  0.2448E+00  0.2339E+00  0.8112E+01  0.7960E+01
     26.695  0.3080E+00  0.2378E+00  0.8158E+01  0.8003E+01
     26.878  0.2595E+00  0.2412E+00  0.8205E+01  0.8047E+01
     27.061  0.2688E+00  0.2471E+00  0.8254E+01  0.8092E+01
     27.245  0.2783E+00  0.2556E+00  0.8304E+01  0.8138E+01
     27.428  0.2959E+00  0.2623E+00  0.8356E+01  0.8186E+01
     27.611  0.2948E+00  0.2713E+00  0.8412E+01  0.8235E+01
     27.795  0.2848E+00  0.2796E+00  0.8465E+01  0.8286E+01
     27.978  0.2788E+00  0.2898E+00  0.8516E+01  0.8338E+01
     28.161  0.2706E+00  0.3283E+00  0.8567E+01  0.8394E+01
     28.345  0.2617E+00  0.3027E+00  0.8616E+01  0.8450E+01
     28.528  0.2521E+00  0.2900E+00  0.8663E+01  0.8504E+01
     28.711  0.2417E+00  0.2812E+00  0.8708E+01  0.8557E+01
     28.895  0.2294E+00  0.2695E+00  0.8751E+01  0.8607E+01
     29.078  0.2153E+00  0.2590E+00  0.8792E+01  0.8656E+01
     29.261  0.2011E+00  0.2475E+00  0.8830E+01  0.8702E+01
     29.444  0.1837E+00  0.2342E+00  0.8866E+01  0.8747E+01
     29.628  0.1679E+00  0.2190E+00  0.8898E+01  0.8788E+01
     29.811  0.1564E+00  0.2053E+00  0.8928E+01  0.8827E+01
     29.994  0.1497E+00  0.1862E+00  0.8955E+01  0.8863E+01
     30.178  0.1403E+00  0.1717E+00  0.8982E+01  0.8896E+01
     30.361  0.1415E+00  0.1603E+00  0.9007E+01  0.8926E+01
     30.544  0.1452E+00  0.1454E+00  0.9034E+01  0.8954E+01
     30.728  0.1404E+00  0.1442E+00  0.9060E+01  0.8980E+01
     30.911  0.1391E+00  0.1466E+00  0.9086E+01  0.9007E+01
     31.094  0.1393E+00  0.1504E+00  0.9113E+01  0.9034E+01
     31.278  0.1538E+00  0.1420E+00  0.9139E+01  0.9062E+01
     31.461  0.1407E+00  0.1415E+00  0.9166E+01  0.9088E+01
     31.644  0.1346E+00  0.1404E+00  0.9191E+01  0.9114E+01
     31.828  0.1381E+00  0.1601E+00  0.9216E+01  0.9142E+01
     32.011  0.1417E+00  0.1402E+00  0.9242E+01  0.9169E+01
     32.194  0.1454E+00  0.1380E+00  0.9268E+01  0.9195E+01
     32.377  0.1513E+00  0.1408E+00  0.9295E+01  0.9220E+01
     32.561  0.1541E+00  0.1437E+00  0.9324E+01  0.9246E+01
     32.744  0.1616E+00  0.1413E+00  0.9353E+01  0.9274E+01
     32.927  0.2157E+00  0.1439E+00  0.9387E+01  0.9300E+01
     33.111  0.3805E+00  0.1483E+00  0.9436E+01  0.9327E+01
     33.294  0.2786E+00  0.1548E+00  0.9501E+01  0.9354E+01
     33.477  0.2530E+00  0.1970E+00  0.9550E+01  0.9385E+01
     33.661  0.2246E+00  0.2695E+00  0.9593E+01  0.9428E+01
     33.844  0.1873E+00  0.3458E+00  0.9632E+01  0.9488E+01
     34.027  0.1757E+00  0.2891E+00  0.9666E+01  0.9544E+01
     34.211  0.1772E+00  0.2475E+00  0.9697E+01  0.9594E+01
     34.394  0.1706E+00  0.2249E+00  0.9729E+01  0.9636E+01
     34.577  0.1639E+00  0.1776E+00  0.9760E+01  0.9672E+01
     34.760  0.1569E+00  0.1735E+00  0.9789E+01  0.9704E+01
     34.944  0.1565E+00  0.1675E+00  0.9817E+01  0.9735E+01
     35.127  0.1529E+00  0.1615E+00  0.9846E+01  0.9765E+01
     35.310  0.1508E+00  0.1551E+00  0.9874E+01  0.9794E+01
     35.494  0.1536E+00  0.1484E+00  0.9907E+01  0.9822E+01
     35.677  0.1537E+00  0.1414E+00  0.9935E+01  0.9849E+01
     35.860  0.1455E+00  0.1712E+00  0.9962E+01  0.9876E+01
     36.044  0.2210E+00  0.1873E+00  0.9997E+01  0.9910E+01
     36.227  0.2334E+00  0.1530E+00  0.1004E+02  0.9939E+01
     36.410  0.2702E+00  0.1450E+00  0.1008E+02  0.9967E+01
     36.594  0.2995E+00  0.1446E+00  0.1013E+02  0.9993E+01
     36.777  0.3081E+00  0.2217E+00  0.1019E+02  0.1004E+02
     36.960  0.3185E+00  0.2488E+00  0.1025E+02  0.1008E+02
     37.144  0.3210E+00  0.2904E+00  0.1031E+02  0.1013E+02
     37.327  0.3157E+00  0.3124E+00  0.1037E+02  0.1018E+02
     37.510  0.3011E+00  0.3237E+00  0.1042E+02  0.1024E+02
     37.693  0.2999E+00  0.3244E+00  0.1048E+02  0.1030E+02
     37.877  0.2819E+00  0.3146E+00  0.1053E+02  0.1036E+02
     38.060  0.2569E+00  0.2997E+00  0.1058E+02  0.1042E+02
     38.243  0.2463E+00  0.3002E+00  0.1063E+02  0.1047E+02
     38.427  0.2369E+00  0.2867E+00  0.1067E+02  0.1053E+02
     38.610  0.2266E+00  0.2669E+00  0.1071E+02  0.1058E+02
     38.793  0.2207E+00  0.2530E+00  0.1075E+02  0.1063E+02
     38.977  0.2228E+00  0.2441E+00  0.1080E+02  0.1067E+02
     39.160  0.2197E+00  0.2329E+00  0.1084E+02  0.1071E+02
     39.343  0.2060E+00  0.2267E+00  0.1088E+02  0.1076E+02
     39.527  0.1923E+00  0.2226E+00  0.1091E+02  0.1080E+02
     39.710  0.1977E+00  0.2459E+00  0.1095E+02  0.1084E+02
     39.893  0.2079E+00  0.2202E+00  0.1099E+02  0.1088E+02
     40.076  0.2224E+00  0.1966E+00  0.1102E+02  0.1092E+02
     40.260  0.2404E+00  0.1994E+00  0.1107E+02  0.1096E+02
     40.443  0.2669E+00  0.2078E+00  0.1111E+02  0.1099E+02
     40.626  0.2797E+00  0.2201E+00  0.1116E+02  0.1103E+02
     40.810  0.2912E+00  0.2420E+00  0.1122E+02  0.1108E+02
     40.993  0.3290E+00  0.2590E+00  0.1127E+02  0.1112E+02
     41.176  0.3191E+00  0.2726E+00  0.1133E+02  0.1117E+02
     41.360  0.2806E+00  0.2848E+00  0.1139E+02  0.1122E+02
     41.543  0.2353E+00  0.3092E+00  0.1144E+02  0.1128E+02
     41.726  0.2179E+00  0.3080E+00  0.1148E+02  0.1134E+02
     41.910  0.2099E+00  0.2880E+00  0.1152E+02  0.1139E+02
     42.093  0.2019E+00  0.2482E+00  0.1155E+02  0.1144E+02
     42.276  0.1940E+00  0.2177E+00  0.1159E+02  0.1148E+02
     42.460  0.1813E+00  0.2096E+00  0.1163E+02  0.1152E+02
     42.643  0.1746E+00  0.1964E+00  0.1166E+02  0.1156E+02
     42.826  0.1680E+00  0.1895E+00  0.1169E+02  0.1159E+02
     43.009  0.1654E+00  0.1828E+00  0.1172E+02  0.1163E+02
     43.193  0.1695E+00  0.1762E+00  0.1175E+02  0.1166E+02
     43.376  0.1706E+00  0.1699E+00  0.1178E+02  0.1169E+02
     43.559  0.1779E+00  0.1704E+00  0.1181E+02  0.1172E+02
     43.743  0.1816E+00  0.1724E+00  0.1185E+02  0.1175E+02
     43.926  0.9592E-01  0.1663E+00  0.1187E+02  0.1179E+02
     44.109  0.7089E-01  0.1680E+00  0.1189E+02  0.1182E+02
     44.293  0.6407E-01  0.1507E+00  0.1190E+02  0.1185E+02
     44.476  0.5981E-01  0.9363E-01  0.1191E+02  0.1187E+02
     44.659  0.5571E-01  0.6922E-01  0.1192E+02  0.1189E+02
     44.843  0.5177E-01  0.6443E-01  0.1193E+02  0.1190E+02
     45.026  0.4799E-01  0.6010E-01  0.1194E+02  0.1191E+02
     45.209  0.4436E-01  0.5593E-01  0.1195E+02  0.1192E+02
     45.392  0.4089E-01  0.5192E-01  0.1196E+02  0.1193E+02
     45.576  0.3758E-01  0.4807E-01  0.1196E+02  0.1194E+02
     45.759  0.3443E-01  0.4439E-01  0.1197E+02  0.1195E+02
     45.942  0.3144E-01  0.4086E-01  0.1198E+02  0.1196E+02
     46.126  0.2460E-01  0.3750E-01  0.1198E+02  0.1196E+02
     46.309  0.2243E-01  0.2973E-01  0.1199E+02  0.1197E+02
     46.492  0.2040E-01  0.2723E-01  0.1199E+02  0.1198E+02
     46.676  0.1927E-01  0.2486E-01  0.1199E+02  0.1198E+02
     46.859  0.1135E-01  0.2263E-01  0.1200E+02  0.1199E+02
     47.042  0.5837E-02  0.2054E-01  0.1200E+02  0.1199E+02
     47.226  0.4522E-03  0.1751E-01  0.1200E+02  0.1199E+02
     47.409  0.0000E+00  0.1133E-01  0.1200E+02  0.1200E+02
     47.592  0.0000E+00  0.6633E-02  0.1200E+02  0.1200E+02
     47.776  0.0000E+00  0.1360E-02  0.1200E+02  0.1200E+02
     47.959  0.0000E+00  0.9669E-04  0.1200E+02  0.1200E+02
     48.142  0.0000E+00  0.0000E+00  0.1200E+02  0.1200E+02
     48.325  0.0000E+00  0.0000E+00  0.1200E+02  0.1200E+02
     48.509  0.0000E+00  0.0000E+00  0.1200E+02  0.1200E+02
     48.692  0.0000E+00  0.0000E+00  0.1200E+02  0.1200E+02
     48.875  0.0000E+00  0.0000E+00  0.1200E+02  0.1200E+02
     49.059  0.0000E+00  0.0000E+00  0.1200E+02  0.1200E+02
     49.242  0.0000E+00  0.0000E+00  0.1200E+02  0.1200E+02
     49.425  0.0000E+00  0.0000E+00  0.1200E+02  0.1200E+02
     49.609  0.0000E+00  0.0000E+00  0.1200E+02  0.1200E+02
     49.792  0.0000E+00  0.0000E+00  0.1200E+02  0.1200E+02
     49.975  0.0000E+00  0.0000E+00  0.1200E+02  0.1200E+02
     50.159  0.0000E+00  0.0000E+00  0.1200E+02  0.1200E+02
     50.342  0.0000E+00  0.0000E+00  0.1200E+02  0.1200E+02
     50.525  0.0000E+00  0.0000E+00  0.1200E+02  0.1200E+02
     50.52515780     -4.46793759  301      6.86898729      1.00000000
     -4.468  0.0000E+00  0.0000E+00  0.0000E+00  0.0000E+00  0.0000E+00  0.0000E+00  0.0000E+00  0.0000E+00  0.0000E+00  0.0000E+00  0.0000E+00  0.0000E+00  0.0000E+00  0.0000E+00  0.0000E+00  0.0000E+00  0.0000E+00  0.0000E+00
     -4.285  0.0000E+00  0.0000E+00  0.0000E+00  0.0000E+00  0.0000E+00  0.0000E+00  0.0000E+00  0.0000E+00  0.0000E+00  0.0000E+00  0.0000E+00  0.0000E+00  0.0000E+00  0.0000E+00  0.0000E+00  0.0000E+00  0.0000E+00  0.0000E+00
     -4.101  0.0000E+00  0.0000E+00  0.0000E+00  0.0000E+00  0.0000E+00  0.0000E+00  0.0000E+00  0.0000E+00  0.0000E+00  0.0000E+00  0.0000E+00  0.0000E+00  0.0000E+00  0.0000E+00  0.0000E+00  0.0000E+00  0.0000E+00  0.0000E+00
     -3.918  0.0000E+00  0.0000E+00  0.0000E+00  0.0000E+00  0.0000E+00  0.0000E+00  0.0000E+00  0.0000E+00  0.0000E+00  0.0000E+00  0.0000E+00  0.0000E+00  0.0000E+00  0.0000E+00  0.0000E+00  0.0000E+00  0.0000E+00  0.0000E+00
     -3.735  0.0000E+00  0.0000E+00  0.0000E+00  0.0000E+00  0.0000E+00  0.0000E+00  0.0000E+00  0.0000E+00  0.0000E+00  0.0000E+00  0.0000E+00  0.0000E+00  0.0000E+00  0.0000E+00  0.0000E+00  0.0000E+00  0.0000E+00  0.0000E+00
     -3.551  0.0000E+00  0.0000E+00  0.0000E+00  0.0000E+00  0.0000E+00  0.0000E+00  0.0000E+00  0.0000E+00  0.0000E+00  0.0000E+00  0.0000E+00  0.0000E+00  0.0000E+00  0.0000E+00  0.0000E+00  0.0000E+00  0.0000E+00  0.0000E+00
     -3.368  0.0000E+00  0.0000E+00  0.0000E+00  0.0000E+00  0.0000E+00  0.0000E+00  0.0000E+00  0.0000E+00  0.0000E+00  0.0000E+00  0.0000E+00  0.0000E+00  0.0000E+00  0.0000E+00  0.0000E+00  0.0000E+00  0.0000E+00  0.0000E+00
     -3.185  0.0000E+00  0.0000E+00  0.0000E+00  0.0000E+00  0.0000E+00  0.0000E+00  0.0000E+00  0.0000E+00  0.0000E+00  0.0000E+00  0.0000E+00  0.0000E+00  0.0000E+00  0.0000E+00  0.0000E+00  0.0000E+00  0.0000E+00  0.0000E+00
     -3.001  0.0000E+00  0.0000E+00  0.0000E+00  0.0000E+00  0.0000E+00  0.0000E+00  0.0000E+00  0.0000E+00  0.0000E+00  0.0000E+00  0.0000E+00  0.0000E+00  0.0000E+00  0.0000E+00  0.0000E+00  0.0000E+00  0.0000E+00  0.0000E+00
     -2.818  0.0000E+00  0.0000E+00  0.0000E+00  0.0000E+00  0.0000E+00  0.0000E+00  0.0000E+00  0.0000E+00  0.0000E+00  0.0000E+00  0.0000E+00  0.0000E+00  0.0000E+00  0.0000E+00  0.0000E+00  0.0000E+00  0.0000E+00  0.0000E+00
     -2.635  0.0000E+00  0.0000E+00  0.0000E+00  0.0000E+00  0.0000E+00  0.0000E+00  0.0000E+00  0.0000E+00  0.0000E+00  0.0000E+00  0.0000E+00  0.0000E+00  0.0000E+00  0.0000E+00  0.0000E+00  0.0000E+00  0.0000E+00  0.0000E+00
     -2.452  0.0000E+00  0.0000E+00  0.0000E+00  0.0000E+00  0.0000E+00  0.0000E+00  0.0000E+00  0.0000E+00  0.0000E+00  0.0000E+00  0.0000E+00  0.0000E+00  0.0000E+00  0.0000E+00  0.0000E+00  0.0000E+00  0.0000E+00  0.0000E+00
     -2.268  0.0000E+00  0.0000E+00  0.0000E+00  0.0000E+00  0.0000E+00  0.0000E+00  0.0000E+00  0.0000E+00  0.0000E+00  0.0000E+00  0.0000E+00  0.0000E+00  0.0000E+00  0.0000E+00  0.0000E+00  0.0000E+00  0.0000E+00  0.0000E+00
     -2.085  0.0000E+00  0.0000E+00  0.0000E+00  0.0000E+00  0.0000E+00  0.0000E+00  0.0000E+00  0.0000E+00  0.0000E+00  0.0000E+00  0.0000E+00  0.0000E+00  0.0000E+00  0.0000E+00  0.0000E+00  0.0000E+00  0.0000E+00  0.0000E+00
     -1.902  0.8680E-02  0.0000E+00  0.9261E-04  0.0000E+00  0.6294E-04  0.0000E+00  0.3970E-03  0.0000E+00  0.2807E-04  0.0000E+00  0.7321E-05  0.0000E+00  0.1011E-04  0.0000E+00  0.6982E-05  0.0000E+00  0.1139E-04  0.0000E+00
     -1.718  0.1296E-01  0.0000E+00  0.2006E-03  0.0000E+00  0.1262E-03  0.0000E+00  0.7052E-03  0.0000E+00  0.6797E-04  0.0000E+00  0.1983E-04  0.0000E+00  0.2529E-04  0.0000E+00  0.1507E-04  0.0000E+00  0.2834E-04  0.0000E+00
     -1.535  0.1644E-01  0.8694E-02  0.3114E-03  0.9432E-04  0.1782E-03  0.6372E-04  0.1048E-02  0.3979E-03  0.1179E-03  0.2125E-04  0.3758E-04  0.5816E-05  0.4651E-04  0.7499E-05  0.2328E-04  0.5576E-05  0.5447E-04  0.8872E-05
     -1.352  0.1912E-01  0.1286E-01  0.4250E-03  0.2010E-03  0.2191E-03  0.1258E-03  0.1425E-02  0.6994E-03  0.1779E-03  0.5026E-04  0.6058E-04  0.1483E-04  0.7376E-04  0.1822E-04  0.3161E-04  0.1170E-04  0.8979E-04  0.2114E-04
     -1.168  0.2344E-01  0.1624E-01  0.6301E-03  0.3106E-03  0.3227E-03  0.1770E-03  0.1978E-02  0.1033E-02  0.2759E-03  0.8616E-04  0.1238E-03  0.2703E-04  0.1173E-03  0.3303E-04  0.5116E-04  0.1776E-04  0.1457E-03  0.3963E-04
     -0.985  0.2739E-01  0.1882E-01  0.8747E-03  0.4229E-03  0.4732E-03  0.2174E-03  0.2537E-02  0.1399E-02  0.4093E-03  0.1290E-03  0.2419E-03  0.4243E-04  0.1785E-03  0.5193E-04  0.8878E-04  0.2374E-04  0.2234E-03  0.6434E-04
     -0.802  0.3001E-01  0.2289E-01  0.1127E-02  0.6209E-03  0.6486E-03  0.3162E-03  0.3037E-02  0.1928E-02  0.5701E-03  0.1968E-03  0.4078E-03  0.8303E-04  0.2547E-03  0.8094E-04  0.1426E-03  0.3730E-04  0.3199E-03  0.1022E-03
     -0.618  0.2936E-01  0.2667E-01  0.1365E-02  0.8595E-03  0.8740E-03  0.4621E-03  0.3559E-02  0.2464E-02  0.8082E-03  0.2863E-03  0.6636E-03  0.1582E-03  0.3998E-03  0.1196E-03  0.2457E-03  0.6269E-04  0.5408E-03  0.1532E-03
     -0.435  0.3179E-01  0.2915E-01  0.1598E-02  0.1105E-02  0.1057E-02  0.6320E-03  0.4196E-02  0.2943E-02  0.1202E-02  0.3913E-03  0.8611E-03  0.2626E-03  0.6267E-03  0.1658E-03  0.3470E-03  0.9824E-04  0.7429E-03  0.2151E-03
     -0.252  0.3437E-01  0.2805E-01  0.1839E-02  0.1336E-02  0.1247E-02  0.8559E-03  0.4907E-02  0.3392E-02  0.1675E-02  0.5250E-03  0.1093E-02  0.4274E-03  0.9060E-03  0.2428E-03  0.4721E-03  0.1647E-03  0.9798E-03  0.3519E-03
     -0.068  0.3709E-01  0.3008E-01  0.2090E-02  0.1557E-02  0.1446E-02  0.1027E-02  0.5692E-02  0.3959E-02  0.2228E-02  0.7543E-03  0.1359E-02  0.5435E-03  0.1238E-02  0.3625E-03  0.6207E-03  0.2259E-03  0.1252E-02  0.4748E-03
      0.115  0.3997E-01  0.3222E-01  0.2350E-02  0.1785E-02  0.1653E-02  0.1205E-02  0.6551E-02  0.4588E-02  0.2861E-02  0.1026E-02  0.1659E-02  0.6774E-03  0.1622E-02  0.5071E-03  0.7930E-03  0.2997E-03  0.1558E-02  0.6170E-03
      0.298  0.4299E-01  0.3446E-01  0.2619E-02  0.2020E-02  0.1869E-02  0.1389E-02  0.7485E-02  0.5277E-02  0.3574E-02  0.1339E-02  0.1994E-02  0.8290E-03  0.2058E-02  0.6765E-03  0.9890E-03  0.3863E-03  0.1900E-02  0.7785E-03
      0.481  0.4649E-01  0.3680E-01  0.3047E-02  0.2263E-02  0.2301E-02  0.1580E-02  0.8667E-02  0.6029E-02  0.4806E-02  0.1694E-02  0.3016E-02  0.9984E-03  0.2895E-02  0.8708E-03  0.1509E-02  0.4854E-03  0.2445E-02  0.9592E-03
      0.665  0.5172E-01  0.3924E-01  0.3658E-02  0.2514E-02  0.2948E-02  0.1778E-02  0.1043E-01  0.6842E-02  0.7024E-02  0.2091E-02  0.4928E-02  0.1185E-02  0.4528E-02  0.1090E-02  0.2249E-02  0.5973E-03  0.3513E-02  0.1159E-02
      0.848  0.5613E-01  0.4088E-01  0.4155E-02  0.2725E-02  0.3546E-02  0.1984E-02  0.1247E-01  0.7654E-02  0.9850E-02  0.2533E-02  0.7224E-02  0.1434E-02  0.6783E-02  0.1356E-02  0.3119E-02  0.7880E-03  0.4998E-02  0.1374E-02
      1.031  0.6087E-01  0.4410E-01  0.4487E-02  0.3202E-02  0.3950E-02  0.2471E-02  0.1511E-01  0.8851E-02  0.1529E-01  0.3459E-02  0.1037E-01  0.2242E-02  0.1100E-01  0.1935E-02  0.4083E-02  0.1115E-02  0.7201E-02  0.1800E-02
      1.215  0.7007E-01  0.4674E-01  0.5023E-02  0.3615E-02  0.4442E-02  0.2941E-02  0.1848E-01  0.1016E-01  0.2616E-01  0.4559E-02  0.1570E-01  0.3193E-02  0.1906E-01  0.2696E-02  0.5151E-02  0.1482E-02  0.1021E-01  0.2392E-02
      1.398  0.8109E-01  0.4839E-01  0.5572E-02  0.3908E-02  0.5013E-02  0.3348E-02  0.2233E-01  0.1152E-01  0.4152E-01  0.5871E-02  0.2310E-01  0.4261E-02  0.3064E-01  0.3669E-02  0.6401E-02  0.1881E-02  0.1406E-01  0.3149E-02
      1.581  0.1010E+00  0.5004E-01  0.6214E-02  0.4131E-02  0.6672E-02  0.3680E-02  0.2864E-01  0.1297E-01  0.8436E-01  0.7725E-02  0.5450E-01  0.5485E-02  0.8904E-01  0.5007E-02  0.9052E-02  0.2298E-02  0.4630E-01  0.4048E-02
      1.765  0.9909E-01  0.5345E-01  0.6499E-02  0.4462E-02  0.7548E-02  0.4042E-02  0.3324E-01  0.1469E-01  0.9383E-01  0.1059E-01  0.6539E-01  0.7060E-02  0.1290E+00  0.6940E-02  0.1263E-01  0.2735E-02  0.7324E-01  0.5088E-02
      1.948  0.1131E+00  0.5754E-01  0.8141E-02  0.4812E-02  0.1023E-01  0.4421E-02  0.5521E-01  0.1662E-01  0.1336E+00  0.1451E-01  0.8601E-01  0.9051E-02  0.2325E+00  0.9570E-02  0.2472E-01  0.3215E-02  0.1300E+00  0.6299E-02
      2.131  0.8918E-01  0.6211E-01  0.8757E-02  0.5168E-02  0.9617E-02  0.4825E-02  0.5964E-01  0.1874E-01  0.1263E+00  0.1935E-01  0.8557E-01  0.1144E-01  0.2964E+00  0.1283E-01  0.3473E-01  0.3748E-02  0.1559E+00  0.7679E-02
      2.315  0.5675E-01  0.6713E-01  0.7828E-02  0.5530E-02  0.7739E-02  0.5252E-02  0.4210E-01  0.2105E-01  0.9974E-01  0.2511E-01  0.9447E-01  0.1422E-01  0.1955E+00  0.1673E-01  0.4309E-01  0.4335E-02  0.1300E+00  0.9229E-02
      2.498  0.2933E-01  0.9611E-01  0.6226E-02  0.7397E-02  0.5025E-02  0.7474E-02  0.2127E-01  0.2672E-01  0.6343E-01  0.6117E-01  0.9142E-01  0.3703E-01  0.8221E-01  0.3942E-01  0.4078E-01  0.5436E-02  0.9448E-01  0.1675E-01
      2.681  0.1305E-01  0.9648E-01  0.5840E-02  0.7052E-02  0.3110E-02  0.8595E-02  0.1470E-01  0.3353E-01  0.3390E-01  0.7066E-01  0.6750E-01  0.5225E-01  0.5200E-01  0.5266E-01  0.2632E-01  0.8909E-02  0.9270E-01  0.2511E-01
      2.864  0.4401E-02  0.8912E-01  0.9693E-02  0.6317E-02  0.4140E-02  0.8515E-02  0.1399E-01  0.3678E-01  0.2283E-01  0.7517E-01  0.5522E-01  0.5708E-01  0.6512E-01  0.6181E-01  0.2715E-01  0.1168E-01  0.1137E+00  0.2962E-01
      3.048  0.1308E-02  0.8288E-01  0.3644E-01  0.6273E-02  0.2526E-01  0.8442E-02  0.2001E-01  0.4060E-01  0.2732E+00  0.7801E-01  0.1383E+00  0.5989E-01  0.1328E+00  0.9600E-01  0.4561E+00  0.1514E-01  0.1693E+00  0.6189E-01
      3.231  0.2767E-02  0.7313E-01  0.2991E-01  0.6641E-02  0.1872E-01  0.8209E-02  0.1764E-01  0.4542E-01  0.1969E+00  0.7694E-01  0.2447E+00  0.5919E-01  0.1420E+00  0.1336E+00  0.5093E+00  0.1973E-01  0.1776E+00  0.9677E-01
      3.414  0.4852E-02  0.7344E-01  0.1924E-01  0.9007E-02  0.9959E-02  0.9068E-02  0.1237E-01  0.6866E-01  0.1116E+00  0.8960E-01  0.1473E+00  0.6178E-01  0.1111E+00  0.2521E+00  0.2957E+00  0.2730E-01  0.1315E+00  0.1694E+00
      3.598  0.7952E-02  0.4652E-01  0.1805E-01  0.9195E-02  0.1862E-01  0.8558E-02  0.8734E-02  0.3784E-01  0.1429E+00  0.6992E-01  0.9473E-01  0.7409E-01  0.6944E-01  0.1600E+00  0.1906E+00  0.3230E-01  0.5457E-01  0.9142E-01
      3.781  0.1195E-01  0.2868E-01  0.2834E-01  0.8074E-02  0.3095E-01  0.6116E-02  0.1738E-01  0.2284E-01  0.1683E+00  0.4697E-01  0.1413E+00  0.6996E-01  0.5465E-01  0.8088E-01  0.1772E+00  0.3305E-01  0.6975E-01  0.6479E-01
      3.964  0.1867E-01  0.8791E-02  0.4145E-01  0.6740E-02  0.3890E-01  0.2983E-02  0.3097E-01  0.1287E-01  0.2403E+00  0.9886E-02  0.2506E+00  0.4697E-01  0.6683E-01  0.4143E-01  0.2033E+00  0.1075E-01  0.1121E+00  0.5943E-01
      4.148  0.2933E-01  0.1601E-03  0.6409E-01  0.6711E-02  0.4511E-01  0.1157E-02  0.5626E-01  0.5518E-02  0.4027E+00  0.3647E-02  0.3867E+00  0.1452E-02  0.8666E-01  0.4445E-01  0.3476E+00  0.4241E-02  0.1921E+00  0.6782E-01
      4.331  0.1543E-01  0.4242E-03  0.3563E-01  0.2621E-01  0.2700E-01  0.1786E-01  0.2425E-01  0.1277E-01  0.1457E+00  0.1319E+00  0.1630E+00  0.2014E-01  0.3381E-01  0.7554E-01  0.2080E+00  0.1428E+00  0.9509E-01  0.1106E+00
      4.514  0.8634E-02  0.1437E-02  0.2341E-01  0.3988E-01  0.1704E-01  0.2839E-01  0.1390E-01  0.1972E-01  0.5656E-01  0.2419E+00  0.8529E-01  0.1345E+00  0.1606E-01  0.1216E+00  0.9017E-01  0.4001E+00  0.6220E-01  0.1365E+00
      4.698  0.5960E-02  0.2894E-02  0.1847E-01  0.3886E-01  0.1336E-01  0.2146E-01  0.1048E-01  0.2023E-01  0.4839E-01  0.1690E+00  0.7861E-01  0.2202E+00  0.1415E-01  0.1194E+00  0.8120E-01  0.4352E+00  0.5064E-01  0.1425E+00