    1    1    1    2
  0.1028541E+02  0.2372910E-09  0.2372910E-09  0.2372910E-09  0.5000000E-15
  1.000000000000000E-004
  CAR 
 Fe BCC                                  
      8     26     12
 
  0.6250000E-01  0.6250000E-01  0.6250000E-01  0.1562500E-01
    1       -1.302612     -0.931751   1.000000   1.000000
    2        4.063027      5.626782   1.000000   1.000000
    3        4.063027      5.626782   1.000000   1.000000
    4        5.019544      6.659202   1.000000   0.754684
    5        5.804706      7.887734   1.000000  -0.000072
    6        5.804706      7.887734   1.002817   0.000000
    7       29.195522     29.669323   0.000000   0.000000
    8       29.195522     29.669323   0.000000   0.000000
    9       33.571994     33.728592   0.000000   0.000000
   10       34.164904     34.950712   0.000000   0.000000
   11       39.522096     39.970487   0.000000   0.000000
   12       39.522096     39.970487   0.000000   0.000000
 
  0.1875000E+00  0.6250000E-01  0.6250000E-01  0.4687500E-01
    1        0.390884      0.837477   1.000000   1.000000
    2        3.571012      5.070806   1.000000   1.000000
    3        3.820675      5.286141   1.000000   1.000000
    4        5.720330      7.741187   1.000000  -0.069967
    5        5.958067      7.901680   1.001932  -0.000048
    6        6.221685      8.070550   0.852402   0.000000
    7       23.807062     24.543676   0.000000   0.000000
    8       26.829184     27.366031   0.000000   0.000000
    9       29.958882     30.677474   0.000000   0.000000
   10       34.142285     34.449187   0.000000   0.000000
   11       39.186683     39.857388   0.000000   0.000000
   12       40.119980     40.557340   0.000000   0.000000
 
  0.3125000E+00  0.6250000E-01  0.6250000E-01  0.4687500E-01
    1        1.522117      2.430769   1.000000   1.000000
    2        3.152315      4.597748   1.000000   1.000000
    3        4.681591      5.704868   1.000000   1.000000
    4        5.884257      7.883779   1.000000  -0.000536
    5        6.082709      8.229902   1.032694   0.000000
    6        7.827672      9.432550  -0.012307   0.000000
    7       18.247089     19.209213   0.000000   0.000000
    8       25.012858     25.518636   0.000000   0.000000
    9       27.375972     28.032298   0.000000   0.000000
   10       33.819571     34.309575   0.000000   0.000000
   11       38.490533     39.163603   0.000000   0.000000
   12       43.528792     43.924295   0.000000   0.000000
 
  0.4375000E+00  0.6250000E-01  0.6250000E-01  0.2343750E-01
    1        1.546235      2.679057   1.000000   1.000000
    2        2.992347      4.417613   1.000000   1.000000
    3        5.803523      6.736925   1.000000   1.000000
    4        5.965444      7.972705   1.000000   0.000000
    5        6.134693      8.298807   1.061325   0.000000
    6        9.188979     10.480322  -0.004301   0.000000
    7       15.137652     16.336772   0.000000   0.000000
    8       24.331882     24.813593   0.000000   0.000000
    9       26.405991     27.024488   0.000000   0.000000
   10       33.644494     34.192285   0.000000   0.000000
   11       38.434372     39.132912   0.000000   0.000000
   12       43.229919     43.541272   0.000000   0.000000
 
 -0.6250000E-01  0.6250000E-01  0.6250000E-01  0.1171875E-01
    1       -1.968251     -1.605241   1.000000   1.000000
    2        4.308469      5.900884   1.000000   1.000000
    3        4.308469      5.900884   1.000000   1.000000
    4        4.414494      6.023048   1.000000   1.038147
    5        5.712635      7.785326   1.000000  -0.000174
    6        5.959050      8.077078   1.000000   0.000000
    7       30.954527     31.252571   0.000000   0.000000
    8       32.393430     32.651273   0.000000   0.000000
    9       32.393430     32.651273   0.000000   0.000000
   10       36.283857     36.794410   0.000000   0.000000
   11       38.909695     39.661179   0.000000   0.000000
   12       38.909696     39.661179   0.000000   0.000000
 
  0.1875000E+00  0.1875000E+00  0.6250000E-01  0.4687500E-01
    1        1.942768      2.625176   1.000000   1.000000
    2        3.237014      4.654275   1.000000   1.000000
    3        3.470949      4.811335   1.000000   1.000000
    4        5.817211      7.844045   1.000000  -0.000937
    5        6.116720      8.237892   1.001498   0.000000
    6        8.075451      9.667930  -0.030606   0.000000
    7       21.155839     21.980637   0.000000   0.000000
    8       22.138921     22.845496   0.000000   0.000000
    9       26.341023     26.982340   0.000000   0.000000
   10       36.204358     36.501508   0.000000   0.000000
   11       40.443142     40.941056   0.000000   0.000000
   12       43.005818     43.509931   0.000000   0.000000
 
  0.3125000E+00  0.1875000E+00  0.6250000E-01  0.9375000E-01
    1        2.265575      3.418111   1.000000   1.000000
    2        3.037148      4.408508   1.000000   1.000000
    3        4.201360      5.320895   1.000000   1.000000
    4        5.985689      8.018451   1.000000   0.000000
    5        6.223285      8.330214   1.010944   0.000000
    6       10.672522     11.947032  -0.002604   0.000000
    7       16.468789     17.477517   0.000000   0.000000
    8       20.434157     21.163529   0.000000   0.000000
    9       24.909779     25.527535   0.000000   0.000000
   10       36.716090     37.105818   0.000000   0.000000
   11       41.345156     41.731571   0.000000   0.000000
   12       43.791750     44.373857   0.000000   0.000000
 
 -0.1875000E+00  0.1875000E+00  0.6250000E-01  0.4687500E-01
    1       -0.686860     -0.299236   1.000000   1.000000
    2        3.985132      5.534894   1.000000   1.000000
    3        4.216049      5.767676   1.000000   1.000000
    4        5.144329      6.800810   1.000000   0.541101
    5        5.409118      7.394915   1.000000  -0.000010
    6        6.080271      8.207009   1.006319   0.000000
    7       26.697405     27.322542   0.000000   0.000000
    8       30.055471     30.450712   0.000000   0.000000
    9       31.222947     31.766893   0.000000   0.000000
   10       35.638284     36.151129   0.000000   0.000000
   11       35.954944     36.604006   0.000000   0.000000
   12       37.546253     38.092340   0.000000   0.000000
 
  0.3125000E+00  0.3125000E+00  0.6250000E-01  0.1562500E-01
    1        2.618982      3.912177   1.000000   1.000000
    2        3.462355      4.700491   1.000000   1.000000
    3        3.462355      4.700491   1.000000   1.000000
    4        6.153368      8.216990   1.000000   0.000000
    5        6.153368      8.216990   1.005979   0.000000
    6       14.377482     15.422710   0.000000   0.000000
    7       14.377482     15.422710   0.000000   0.000000
    8       17.286842     18.129354   0.000000   0.000000
    9       24.409092     25.048881   0.000000   0.000000
   10       39.270732     39.625402   0.000000   0.000000
   11       39.270732     39.625402   0.000000   0.000000
   12       47.338707     48.025472   0.000000   0.000000
 
 -0.3125000E+00  0.3125000E+00  0.6250000E-01  0.4687500E-01
    1        1.005515      1.636667   1.000000   1.000000
    2        3.508597      5.001176   1.000000   1.000000
    3        4.273975      5.578709   1.000000   1.000000
    4        5.630549      7.528066   1.000000  -0.035631
    5        6.283344      8.101009   1.012067  -0.000111
    6        6.349452      8.365855   0.655772   0.000000
    7       20.881076     21.746665   0.000000   0.000000
    8       27.495471     27.879132   0.000000   0.000000
    9       29.252001     29.937806   0.000000   0.000000
   10       33.842524     34.465933   0.000000   0.000000
   11       35.986704     36.612759   0.000000   0.000000
   12       38.865864     39.339102   0.000000   0.000000
 
 -0.1875000E+00  0.3125000E+00  0.6250000E-01  0.4687500E-01
    1        0.845076      1.342305   1.000000   1.000000
    2        3.733290      5.270659   1.000000   1.000000
    3        3.964511      5.441881   1.000000   1.000074
    4        5.239094      7.119317   1.000000   0.022090
    5        6.046802      7.799253   1.004362  -0.000157
    6        6.491255      8.514502   0.683061   0.000000
    7       23.835535     24.609995   0.000000   0.000000
    8       25.035852     25.687046   0.000000   0.000000
    9       31.543036     32.041582   0.000000   0.000000
   10       32.185227     32.746729   0.000000   0.000000
   11       36.061623     36.620138   0.000000   0.000000
   12       40.905042     41.398998   0.000000   0.000000
 
 -0.4375000E+00  0.4375000E+00  0.6250000E-01  0.4687500E-01
    1        1.415530      2.500101   1.000000   1.000000
    2        3.187502      4.644248   1.000000   1.000000
    3        5.212420      6.479403   1.000000   1.000000
    4        5.848618      7.786120   1.000000  -0.001107
    5        7.327128      8.952999   0.227870   0.000000
    6        7.545721      9.173065   0.003328   0.000000
    7       16.043477     17.169347   0.000000   0.000000
    8       26.006628     26.357515   0.000000   0.000000
    9       27.543181     28.183883   0.000000   0.000000
   10       33.096132     33.773034   0.000000   0.000000
   11       36.400810     37.102818   0.000000   0.000000
   12       40.387608     40.778693   0.000000   0.000000
 
 -0.3125000E+00  0.4375000E+00  0.6250000E-01  0.9375000E-01
    1        1.909970      2.863787   1.000000   1.000000
    2        3.366533      4.811090   1.000000   1.000000
    3        4.043113      5.367253   1.000000   1.000329
    4        5.592745      7.453302   1.000000  -0.011829
    5        6.527271      8.465522   0.993235  -0.000011
    6        8.355629      9.898813  -0.038515   0.000000
    7       18.616325     19.555792   0.000000   0.000000
    8       22.632178     23.332149   0.000000   0.000000
    9       29.424647     29.917109   0.000000   0.000000
   10       32.794483     33.380162   0.000000   0.000000
   11       36.609289     37.136704   0.000000   0.000000
   12       41.580163     42.162493   0.000000   0.000000
 
 -0.4375000E+00 -0.4375000E+00  0.6250000E-01  0.4687500E-01
    1        1.917606      3.114474   1.000000   1.000000
    2        3.348205      4.793663   1.000000   1.000000
    3        4.256803      5.571056   1.000000   1.000379
    4        5.728037      7.626789   1.000000  -0.000352
    5        6.915505      8.776903   0.610078   0.000000
    6       10.381807     11.558705  -0.001466   0.000000
    7       15.205644     16.363373   0.000000   0.000000
    8       21.882344     22.570025   0.000000   0.000000
    9       28.499344     28.966571   0.000000   0.000000
   10       33.245572     33.903372   0.000000   0.000000
   11       37.380979     37.787088   0.000000   0.000000
   12       40.894133     41.534052   0.000000   0.000000
 
 -0.3125000E+00 -0.4375000E+00  0.6250000E-01  0.4687500E-01
    1        2.714475      3.945012   1.000000   1.000000
    2        3.019153      4.399925   1.000000   1.000000
    3        3.648800      5.013007   1.000000   1.001048
    4        5.944451      7.810678   1.000003  -0.000491
    5        6.486672      8.383652   1.052015   0.000000
    6       11.812269     13.017447  -0.000327   0.000000
    7       16.473263     17.493141   0.000000   0.000000
    8       18.080356     18.880986   0.000000   0.000000
    9       30.004323     30.565674   0.000000   0.000000
   10       33.001028     33.490565   0.000000   0.000000
   11       35.369447     35.855271   0.000000   0.000000
   12       43.647183     44.435696   0.000000   0.000000
 
  0.1875000E+00  0.1875000E+00  0.1875000E+00  0.1562500E-01
    1        3.016998      4.118678   1.000000   1.000000
    2        3.016998      4.351289   1.000000   1.000000
    3        3.227977      4.351289   1.000000   1.000000
    4        6.098888      8.230423   1.000000   0.000000
    5        6.098888      8.230423   1.000000   0.000000
    6       10.711802     12.049379  -0.003504   0.000000
    7       19.422934     20.258968   0.000000   0.000000
    8       19.422934     20.258968   0.000000   0.000000
    9       21.214181     21.851531   0.000000   0.000000
   10       41.047367     41.209957   0.000000   0.000000
   11       44.198243     44.616617   0.000000   0.000000
   12       44.198243     44.616617   0.000000   0.000000
 
  0.3125000E+00  0.1875000E+00  0.1875000E+00  0.2343750E-01
    1        2.886546      4.099278   1.000000   1.000000
    2        2.969603      4.272861   1.000000   1.000000
    3        3.732881      4.891578   1.000000   1.000000
    4        6.139269      8.271729   1.000000   0.000000
    5        6.166074      8.336535   1.000035   0.000000
    6       13.611246     14.654692   0.000000   0.000000
    7       15.699550     16.704376   0.000000   0.000000
    8       18.823819     19.659845   0.000000   0.000000
    9       20.169443     20.816587   0.000000   0.000000
   10       42.282793     42.544394   0.000000   0.000000
   11       45.947154     46.278698   0.000000   0.000000
   12       46.658879     47.177620   0.000000   0.000000
 
 -0.1875000E+00  0.1875000E+00  0.1875000E+00  0.1171875E-01
    1        0.424977      0.866075   1.000000   1.000000
    2        4.454012      6.035347   1.000000   1.000000
    3        4.478636      6.035347   1.000000   1.000109
    4        4.478636      6.302303   1.000000   1.125680
    5        5.158932      6.823662   1.000000   0.002822
    6        6.508918      8.602797   0.821222   0.000000
    7       26.635522     27.284383   0.000000   0.000000
    8       28.132340     28.825995   0.000000   0.000000
    9       28.132340     28.825995   0.000000   0.000000
   10       30.115780     30.578043   0.000000   0.000000
   11       39.979748     40.432885   0.000000   0.000000
   12       39.979748     40.432885   0.000000   0.000000
 
 -0.3125000E+00  0.3125000E+00  0.1875000E+00  0.4687500E-01
    1        1.781949      2.514369   1.000000   1.000000
    2        3.519600      5.111439   1.000000   1.000000
    3        4.309675      5.844024   1.000000   1.009475
    4        5.114158      6.780383   1.000000   0.321667
    5        6.207908      7.946233   1.045213  -0.000134
    6        7.423743      9.211491   0.043134   0.000000
    7       21.757475     22.596802   0.000000   0.000000
    8       25.414988     26.132115   0.000000   0.000000
    9       26.347490     26.976376   0.000000   0.000000
   10       30.680760     31.221591   0.000000   0.000000
   11       39.041792     39.628526   0.000000   0.000000
   12       40.962025     41.501612   0.000000   0.000000
 
 -0.4375000E+00  0.4375000E+00  0.1875000E+00  0.4687500E-01
    1        2.037052      3.255577   1.000000   1.000000
    2        3.436908      4.822513   1.000000   1.000000
    3        4.072373      5.581311   1.000000   1.021664
    4        5.389595      7.141429   1.000012  -0.002571
    5        7.228600      9.064910   0.090448   0.000000
    6        9.979888     11.191778  -0.009249   0.000000
    7       16.512756     17.542240   0.000000   0.000000
    8       23.667440     24.338804   0.000000   0.000000
    9       25.459525     26.097056   0.000000   0.000000
   10       33.164959     33.675417   0.000000   0.000000
   11       38.060741     38.672539   0.000000   0.000000
   12       39.004205     39.659354   0.000000   0.000000
 
 -0.3125000E+00  0.4375000E+00  0.1875000E+00  0.4687500E-01
    1        2.422903      3.535642   1.000000   1.000000
    2        2.774128      4.293927   1.000000   1.000000
    3        4.406453      5.935748   1.000000   1.025065
    4        5.579774      7.260254   1.000122  -0.016549
    5        6.722696      8.525016   0.824821  -0.000012
    6        9.922618     11.223718  -0.011461   0.000000
    7       19.465527     20.388596   0.000000   0.000000
    8       20.203474     20.936770   0.000000   0.000000
    9       27.860045     28.545546   0.000000   0.000000
   10       29.613779     30.155225   0.000000   0.000000
   11       37.774855     38.384023   0.000000   0.000000
   12       41.222975     41.948212   0.000000   0.000000
 
 -0.4375000E+00 -0.4375000E+00  0.1875000E+00  0.4687500E-01
    1        2.346897      3.737279   1.000000   1.000000
    2        2.791610      4.185958   1.000000   1.000000
    3        4.172073      5.648646   1.000000   1.044765
    4        5.955205      7.677440   1.000435  -0.000383
    5        6.995822      8.809441   0.205736   0.000000
    6       13.037563     14.064342   0.000000   0.000000
    7       15.574696     16.588953   0.000000   0.000000
    8       19.109681     19.876833   0.000000   0.000000
    9       27.896644     28.545407   0.000000   0.000000
   10       31.119175     31.683142   0.000000   0.000000
   11       35.423901     36.078339   0.000000   0.000000
   12       40.138462     40.858984   0.000000   0.000000
 
 -0.3125000E+00  0.3125000E+00  0.3125000E+00  0.1171875E-01
    1        2.182297      3.263656   1.000000   1.000000
    2        2.721788      4.312420   1.000000   1.000000
    3        5.390190      6.981408   1.000000   0.735234
    4        5.390190      6.981408   1.000386   0.062465
    5        6.251150      8.004989   1.154662  -0.000039
    6        9.246144     10.578333  -0.016240   0.000000
    7       22.254262     22.951773   0.000000   0.000000
    8       22.254262     22.951773   0.000000   0.000000
    9       24.427953     25.380387   0.000000   0.000000
   10       26.823045     27.423440   0.000000   0.000000
   11       39.615288     40.349340   0.000000   0.000000
   12       44.040666     44.620111   0.000000   0.000000
 
 -0.4375000E+00  0.4375000E+00  0.3125000E+00  0.4687500E-01
    1        2.034158      3.419367   1.000000   1.000000
    2        2.189525      3.635713   1.000000   1.000000
    3        5.557068      7.179113   1.000000   0.414770
    4        5.895730      7.533612   1.019475  -0.006769
    5        7.092958      8.916645   0.060208   0.000000
    6       12.508642     13.467781   0.000000   0.000000
    7       17.612088     18.421492   0.000000   0.000000
    8       20.252716     20.879137   0.000000   0.000000
    9       24.704417     25.611056   0.000000   0.000000
   10       27.718744     28.411819   0.000000   0.000000
   11       34.930044     35.701912   0.000000   0.000000
   12       43.514581     44.063961   0.000000   0.000000
 
 -0.4375000E+00 -0.4375000E+00  0.3125000E+00  0.1562500E-01
    1        1.866601      3.300823   1.000000   1.000000
    2        1.866601      3.300823   1.000000   1.000000
    3        5.682237      7.289955   1.000000   0.219835
    4        6.900609      8.683708   0.865526   0.000000
    5        6.900609      8.683708   0.080386   0.000000
    6       16.064080     16.850488   0.000000   0.000000
    7       16.064080     16.850488   0.000000   0.000000
    8       17.361935     18.023528   0.000000   0.000000
    9       26.173262     26.999951   0.000000   0.000000
   10       26.173262     26.999951   0.000000   0.000000
   11       32.486630     33.278521   0.000000   0.000000
   12       44.128736     44.669857   0.000000   0.000000
 
 -0.4375000E+00  0.4375000E+00  0.4375000E+00  0.1171875E-01
    1        1.554079      2.974379   1.000000   1.000000
    2        1.559242      3.002012   1.000000   1.000000
    3        6.849940      8.621437   1.000000  -0.045247
    4        6.849940      8.621437   0.942199   0.000000
    5        7.051719      8.876124   0.015714   0.000000
    6       15.379604     16.030429   0.000000   0.000000
    7       18.001985     18.511337   0.000000   0.000000
    8       18.001985     18.511337   0.000000   0.000000
    9       23.638971     24.753785   0.000000   0.000000
   10       24.860766     25.806316   0.000000   0.000000
   11       30.929112     31.743246   0.000000   0.000000
   12       47.199665     47.647140   0.000000   0.000000
