 running on    4 total cores
 distrk:  each k-point on    4 cores,    1 groups
 distr:  one band on    1 cores,    4 groups
 using from now: INCAR     
 vasp.5.4.1 24Jun15 (build Jul 19 2016 16:50:41) complex                        
  
 POSCAR found type information on POSCAR  Fe
 POSCAR found :  1 types and       1 ions
 LDA part: xc-table for Ceperly-Alder, standard interpolation
 POSCAR, INCAR and KPOINTS ok, starting setup
 WARNING: small aliasing (wrap around) errors must be expected
 FFT: planning ...
 WAVECAR not read
 entering main loop
       N       E                     dE             d eps       ncg     rms          rms(c)
DAV:   1     0.151939883364E+02    0.15194E+02   -0.35252E+03  1408   0.766E+02
DAV:   2    -0.918590460200E+01   -0.24380E+02   -0.22346E+02  1328   0.118E+02
DAV:   3    -0.975243258663E+01   -0.56653E+00   -0.56480E+00  1448   0.210E+01
DAV:   4    -0.975442680935E+01   -0.19942E-02   -0.19921E-02  1400   0.108E+00
DAV:   5    -0.975443983114E+01   -0.13022E-04   -0.13009E-04  1432   0.896E-02    0.149E+01
DAV:   6    -0.927388529378E+01    0.48055E+00   -0.82863E+00  1392   0.411E+01    0.419E+00
DAV:   7    -0.924903419943E+01    0.24851E-01   -0.27357E-01  1464   0.745E+00    0.258E+00
DAV:   8    -0.923463955782E+01    0.14395E-01   -0.47243E-03  1576   0.438E-01    0.122E+00
DAV:   9    -0.922489249769E+01    0.97471E-02   -0.62989E-03  1660   0.473E-01    0.200E-01
DAV:  10    -0.922502906078E+01   -0.13656E-03   -0.87021E-05  1472   0.134E-01    0.106E-01
DAV:  11    -0.922543629987E+01   -0.40724E-03   -0.12142E-04  1632   0.129E-01    0.342E-02
DAV:  12    -0.922554680086E+01   -0.11050E-03   -0.72272E-06  1284   0.211E-02    0.352E-02
DAV:  13    -0.922550571238E+01    0.41088E-04   -0.14733E-06   724   0.132E-02    0.143E-02
DAV:  14    -0.922546720609E+01    0.38506E-04   -0.82441E-07   672   0.688E-03    0.176E-03
DAV:  15    -0.922545784851E+01    0.93576E-05   -0.63520E-08   652   0.230E-03    0.343E-04
DAV:  16    -0.922545781249E+01    0.36014E-07   -0.95116E-09   644   0.793E-04
   1 F= -.92254578E+01 E0= -.92254578E+01  d E =0.000000E+00  mag=     1.9564
 writing wavefunctions
