PROCAR lm decomposed
# of k-points:   26         # of bands:  12         # of ions:   1

 k-point    1 :    0.06250000 0.06250000 0.06250000     weight = 0.01562500

band   1 # energy   -1.30261245 # occ.  1.00000000
 
ion      s     py     pz     px    dxy    dyz    dz2    dxz    dx2    tot
  1  0.741  0.025  0.025  0.025  0.003  0.003  0.000  0.003  0.000  0.825
 
band   2 # energy    4.06302734 # occ.  1.00000000
 
ion      s     py     pz     px    dxy    dyz    dz2    dxz    dx2    tot
  1  0.000  0.002  0.001  0.001  0.275  0.173  0.010  0.508  0.013  0.984
 
band   3 # energy    4.06302734 # occ.  1.00000000
 
ion      s     py     pz     px    dxy    dyz    dz2    dxz    dx2    tot
  1  0.000  0.001  0.001  0.002  0.363  0.464  0.013  0.129  0.010  0.984
 
band   4 # energy    5.01954450 # occ.  1.00000000
 
ion      s     py     pz     px    dxy    dyz    dz2    dxz    dx2    tot
  1  0.002  0.004  0.004  0.004  0.323  0.323  0.000  0.323  0.000  0.985
 
band   5 # energy    5.80470597 # occ.  1.00000000
 
ion      s     py     pz     px    dxy    dyz    dz2    dxz    dx2    tot
  1  0.000  0.000  0.000  0.000  0.001  0.014  0.034  0.011  0.910  0.970
 
band   6 # energy    5.80470597 # occ.  1.00281687
 
ion      s     py     pz     px    dxy    dyz    dz2    dxz    dx2    tot
  1  0.000  0.000  0.000  0.000  0.017  0.003  0.910  0.006  0.034  0.970
 
band   7 # energy   29.19552241 # occ.  0.00000000
 
ion      s     py     pz     px    dxy    dyz    dz2    dxz    dx2    tot
  1  0.000  0.024  0.057  0.015  0.177  0.048  0.201  0.075  0.026  0.624
 
band   8 # energy   29.19552241 # occ.  0.00000000
 
ion      s     py     pz     px    dxy    dyz    dz2    dxz    dx2    tot
  1  0.000  0.040  0.007  0.049  0.023  0.153  0.026  0.125  0.201  0.624
 
band   9 # energy   33.57199420 # occ.  0.00000000
 
ion      s     py     pz     px    dxy    dyz    dz2    dxz    dx2    tot
  1  0.000  0.000  0.000  0.000  0.000  0.000  0.000  0.000  0.000  0.000
 
band  10 # energy   34.16490425 # occ.  0.00000000
 
ion      s     py     pz     px    dxy    dyz    dz2    dxz    dx2    tot
  1  0.075  0.166  0.166  0.166  0.194  0.194  0.000  0.194  0.000  1.153
 
band  11 # energy   39.52209647 # occ.  0.00000000
 
ion      s     py     pz     px    dxy    dyz    dz2    dxz    dx2    tot
  1  0.000  0.025  0.099  0.115  0.072  0.084  0.070  0.018  0.043  0.524
 
band  12 # energy   39.52209647 # occ.  0.00000000
 
ion      s     py     pz     px    dxy    dyz    dz2    dxz    dx2    tot
  1  0.000  0.134  0.060  0.044  0.044  0.032  0.043  0.097  0.070  0.524
 

 k-point    2 :    0.18750000 0.06250000 0.06250000     weight = 0.04687500

band   1 # energy    0.39088415 # occ.  1.00000000
 
ion      s     py     pz     px    dxy    dyz    dz2    dxz    dx2    tot
  1  0.564  0.074  0.074  0.022  0.007  0.074  0.004  0.007  0.012  0.839
 
band   2 # energy    3.57101246 # occ.  1.00000000
 
ion      s     py     pz     px    dxy    dyz    dz2    dxz    dx2    tot
  1  0.000  0.003  0.003  0.000  0.473  0.000  0.018  0.473  0.006  0.977
 
band   3 # energy    3.82067452 # occ.  1.00000000
 
ion      s     py     pz     px    dxy    dyz    dz2    dxz    dx2    tot
  1  0.015  0.024  0.024  0.003  0.093  0.556  0.037  0.093  0.110  0.954
 
band   4 # energy    5.72032997 # occ.  1.00000000
 
ion      s     py     pz     px    dxy    dyz    dz2    dxz    dx2    tot
  1  0.002  0.000  0.000  0.000  0.016  0.147  0.198  0.016  0.595  0.974
 
band   5 # energy    5.95806694 # occ.  1.00193232
 
ion      s     py     pz     px    dxy    dyz    dz2    dxz    dx2    tot
  1  0.000  0.000  0.000  0.000  0.014  0.000  0.712  0.014  0.237  0.977
 
band   6 # energy    6.22168532 # occ.  0.85240246
 
ion      s     py     pz     px    dxy    dyz    dz2    dxz    dx2    tot
  1  0.015  0.014  0.014  0.014  0.371  0.179  0.000  0.371  0.000  0.976
 
band   7 # energy   23.80706151 # occ.  0.00000000
 
ion      s     py     pz     px    dxy    dyz    dz2    dxz    dx2    tot
  1  0.055  0.111  0.111  0.028  0.011  0.359  0.046  0.011  0.138  0.869
 
band   8 # energy   26.82918394 # occ.  0.00000000
 
ion      s     py     pz     px    dxy    dyz    dz2    dxz    dx2    tot
  1  0.000  0.101  0.101  0.000  0.175  0.000  0.098  0.175  0.033  0.682
 
band   9 # energy   29.95888170 # occ.  0.00000000
 
ion      s     py     pz     px    dxy    dyz    dz2    dxz    dx2    tot
  1  0.131  0.063  0.063  0.384  0.135  0.007  0.011  0.135  0.032  0.960
 
band  10 # energy   34.14228471 # occ.  0.00000000
 
ion      s     py     pz     px    dxy    dyz    dz2    dxz    dx2    tot
  1  0.000  0.001  0.001  0.000  0.198  0.000  0.019  0.198  0.006  0.423
 
band  11 # energy   39.18668313 # occ.  0.00000000
 
ion      s     py     pz     px    dxy    dyz    dz2    dxz    dx2    tot
  1  0.034  0.053  0.053  0.146  0.085  0.144  0.125  0.085  0.376  1.103
 
band  12 # energy   40.11997955 # occ.  0.00000000
 
ion      s     py     pz     px    dxy    dyz    dz2    dxz    dx2    tot
  1  0.000  0.095  0.095  0.000  0.186  0.000  0.001  0.186  0.000  0.563
 

 k-point    3 :    0.31250000 0.06250000 0.06250000     weight = 0.04687500

band   1 # energy    1.52211736 # occ.  1.00000000
 
ion      s     py     pz     px    dxy    dyz    dz2    dxz    dx2    tot
  1  0.233  0.027  0.027  0.021  0.001  0.416  0.044  0.001  0.131  0.900
 
band   2 # energy    3.15231491 # occ.  1.00000000
 
ion      s     py     pz     px    dxy    dyz    dz2    dxz    dx2    tot
  1  0.000  0.004  0.004  0.000  0.480  0.000  0.006  0.480  0.002  0.976
 
band   3 # energy    4.68159138 # occ.  1.00000000
 
ion      s     py     pz     px    dxy    dyz    dz2    dxz    dx2    tot
  1  0.089  0.152  0.152  0.000  0.148  0.097  0.027  0.148  0.081  0.894
 
band   4 # energy    5.88425714 # occ.  1.00000000
 
ion      s     py     pz     px    dxy    dyz    dz2    dxz    dx2    tot
  1  0.003  0.002  0.002  0.001  0.014  0.284  0.166  0.014  0.498  0.983
 
band   5 # energy    6.08270944 # occ.  1.03269382
 
ion      s     py     pz     px    dxy    dyz    dz2    dxz    dx2    tot
  1  0.000  0.000  0.000  0.000  0.005  0.000  0.731  0.005  0.244  0.983
 
band   6 # energy    7.82767201 # occ. -0.01230738
 
ion      s     py     pz     px    dxy    dyz    dz2    dxz    dx2    tot
  1  0.044  0.066  0.066  0.011  0.331  0.103  0.001  0.331  0.002  0.955
 
band   7 # energy   18.24708905 # occ.  0.00000000
 
ion      s     py     pz     px    dxy    dyz    dz2    dxz    dx2    tot
  1  0.225  0.106  0.106  0.016  0.005  0.358  0.028  0.005  0.085  0.933
 
band   8 # energy   25.01285766 # occ.  0.00000000
 
ion      s     py     pz     px    dxy    dyz    dz2    dxz    dx2    tot
  1  0.000  0.132  0.132  0.000  0.158  0.000  0.028  0.158  0.009  0.617
 
band   9 # energy   27.37597165 # occ.  0.00000000
 
ion      s     py     pz     px    dxy    dyz    dz2    dxz    dx2    tot
  1  0.131  0.011  0.011  0.546  0.046  0.011  0.015  0.046  0.044  0.860
 
band  10 # energy   33.81957145 # occ.  0.00000000
 
ion      s     py     pz     px    dxy    dyz    dz2    dxz    dx2    tot
  1  0.000  0.004  0.004  0.000  0.445  0.000  0.007  0.445  0.002  0.908
 
band  11 # energy   38.49053309 # occ.  0.00000000
 
ion      s     py     pz     px    dxy    dyz    dz2    dxz    dx2    tot
  1  0.104  0.023  0.023  0.123  0.022  0.005  0.187  0.022  0.561  1.070
 
band  12 # energy   43.52879234 # occ.  0.00000000
 
ion      s     py     pz     px    dxy    dyz    dz2    dxz    dx2    tot
  1  0.056  0.008  0.010  0.010  0.004  0.317  0.001  0.006  0.004  0.417
 

 k-point    4 :    0.43750000 0.06250000 0.06250000     weight = 0.02343750

band   1 # energy    1.54623481 # occ.  1.00000000
 
ion      s     py     pz     px    dxy    dyz    dz2    dxz    dx2    tot
  1  0.136  0.000  0.000  0.019  0.000  0.509  0.064  0.000  0.192  0.920
 
band   2 # energy    2.99234729 # occ.  1.00000000
 
ion      s     py     pz     px    dxy    dyz    dz2    dxz    dx2    tot
  1  0.000  0.005  0.005  0.000  0.483  0.000  0.000  0.483  0.000  0.976
 
band   3 # energy    5.80352286 # occ.  1.00000000
 
ion      s     py     pz     px    dxy    dyz    dz2    dxz    dx2    tot
  1  0.000  0.188  0.188  0.000  0.262  0.000  0.000  0.262  0.000  0.901
 
band   4 # energy    5.96544370 # occ.  1.00000000
 
ion      s     py     pz     px    dxy    dyz    dz2    dxz    dx2    tot
  1  0.012  0.000  0.000  0.001  0.000  0.291  0.170  0.000  0.511  0.985
 
band   5 # energy    6.13469260 # occ.  1.06132471
 
ion      s     py     pz     px    dxy    dyz    dz2    dxz    dx2    tot
  1  0.000  0.000  0.000  0.000  0.000  0.000  0.740  0.000  0.247  0.987
 
band   6 # energy    9.18897890 # occ. -0.00430085
 
ion      s     py     pz     px    dxy    dyz    dz2    dxz    dx2    tot
  1  0.000  0.205  0.205  0.000  0.245  0.000  0.000  0.245  0.000  0.899
 
band   7 # energy   15.13765167 # occ.  0.00000000
 
ion      s     py     pz     px    dxy    dyz    dz2    dxz    dx2    tot
  1  0.424  0.000  0.000  0.019  0.000  0.426  0.026  0.000  0.077  0.972
 
band   8 # energy   24.33188184 # occ.  0.00000000
 
ion      s     py     pz     px    dxy    dyz    dz2    dxz    dx2    tot
  1  0.000  0.142  0.142  0.000  0.149  0.000  0.000  0.149  0.000  0.582
 
band   9 # energy   26.40599089 # occ.  0.00000000
 
ion      s     py     pz     px    dxy    dyz    dz2    dxz    dx2    tot
  1  0.128  0.000  0.000  0.609  0.000  0.023  0.014  0.000  0.041  0.815
 
band  10 # energy   33.64449389 # occ.  0.00000000
 
ion      s     py     pz     px    dxy    dyz    dz2    dxz    dx2    tot
  1  0.000  0.004  0.004  0.000  0.523  0.000  0.000  0.523  0.000  1.054
 
band  11 # energy   38.43437226 # occ.  0.00000000
 
ion      s     py     pz     px    dxy    dyz    dz2    dxz    dx2    tot
  1  0.149  0.000  0.000  0.115  0.000  0.005  0.216  0.000  0.647  1.132
 
band  12 # energy   43.22991867 # occ.  0.00000000
 
ion      s     py     pz     px    dxy    dyz    dz2    dxz    dx2    tot
  1  0.000  0.036  0.036  0.000  0.008  0.000  0.000  0.008  0.000  0.090
 

 k-point    5 :   -0.06250000 0.06250000 0.06250000     weight = 0.01171875

band   1 # energy   -1.96825143 # occ.  1.00000000
 
ion      s     py     pz     px    dxy    dyz    dz2    dxz    dx2    tot
  1  0.795  0.000  0.000  0.027  0.000  0.000  0.000  0.000  0.001  0.823
 
band   2 # energy    4.30846914 # occ.  1.00000000
 
ion      s     py     pz     px    dxy    dyz    dz2    dxz    dx2    tot
  1  0.000  0.001  0.001  0.000  0.493  0.000  0.000  0.493  0.000  0.989
 
band   3 # energy    4.30846925 # occ.  1.00000000
 
ion      s     py     pz     px    dxy    dyz    dz2    dxz    dx2    tot
  1  0.000  0.001  0.001  0.000  0.493  0.000  0.000  0.493  0.000  0.989
 
band   4 # energy    4.41449370 # occ.  1.00000000
 
ion      s     py     pz     px    dxy    dyz    dz2    dxz    dx2    tot
  1  0.000  0.000  0.000  0.000  0.000  0.990  0.000  0.000  0.000  0.990
 
band   5 # energy    5.71263530 # occ.  1.00000000
 
ion      s     py     pz     px    dxy    dyz    dz2    dxz    dx2    tot
  1  0.000  0.000  0.000  0.000  0.000  0.000  0.724  0.000  0.241  0.965
 
band   6 # energy    5.95904970 # occ.  1.00000000
 
ion      s     py     pz     px    dxy    dyz    dz2    dxz    dx2    tot
  1  0.000  0.000  0.000  0.000  0.000  0.000  0.243  0.000  0.730  0.974
 
band   7 # energy   30.95452738 # occ.  0.00000000
 
ion      s     py     pz     px    dxy    dyz    dz2    dxz    dx2    tot
  1  0.000  0.000  0.000  0.000  0.000  0.000  0.220  0.000  0.073  0.293
 
band   8 # energy   32.39343025 # occ.  0.00000000
 
ion      s     py     pz     px    dxy    dyz    dz2    dxz    dx2    tot
  1  0.000  0.008  0.008  0.000  0.127  0.000  0.000  0.126  0.000  0.269
 
band   9 # energy   32.39343025 # occ.  0.00000000
 
ion      s     py     pz     px    dxy    dyz    dz2    dxz    dx2    tot
  1  0.000  0.008  0.008  0.000  0.126  0.000  0.000  0.127  0.000  0.269
 
band  10 # energy   36.28385656 # occ.  0.00000000
 
ion      s     py     pz     px    dxy    dyz    dz2    dxz    dx2    tot
  1  0.016  0.000  0.000  0.255  0.000  0.000  0.102  0.000  0.306  0.679
 
band  11 # energy   38.90969549 # occ.  0.00000000
 
ion      s     py     pz     px    dxy    dyz    dz2    dxz    dx2    tot
  1  0.000  0.211  0.211  0.000  0.378  0.000  0.000  0.378  0.000  1.177
 
band  12 # energy   38.90969551 # occ.  0.00000000
 
ion      s     py     pz     px    dxy    dyz    dz2    dxz    dx2    tot
  1  0.000  0.211  0.211  0.000  0.378  0.000  0.000  0.378  0.000  1.177
 

 k-point    6 :    0.18750000 0.18750000 0.06250000     weight = 0.04687500

band   1 # energy    1.94276803 # occ.  1.00000000
 
ion      s     py     pz     px    dxy    dyz    dz2    dxz    dx2    tot
  1  0.315  0.053  0.081  0.053  0.001  0.165  0.046  0.165  0.000  0.877
 
band   2 # energy    3.23701448 # occ.  1.00000000
 
ion      s     py     pz     px    dxy    dyz    dz2    dxz    dx2    tot
  1  0.000  0.026  0.000  0.026  0.000  0.354  0.000  0.354  0.191  0.950
 
band   3 # energy    3.47094877 # occ.  1.00000000
 
ion      s     py     pz     px    dxy    dyz    dz2    dxz    dx2    tot
  1  0.036  0.005  0.081  0.005  0.666  0.076  0.007  0.076  0.000  0.951
 
band   4 # energy    5.81721134 # occ.  1.00000000
 
ion      s     py     pz     px    dxy    dyz    dz2    dxz    dx2    tot
  1  0.000  0.001  0.000  0.001  0.000  0.108  0.000  0.108  0.762  0.978
 
band   5 # energy    6.11671993 # occ.  1.00149801
 
ion      s     py     pz     px    dxy    dyz    dz2    dxz    dx2    tot
  1  0.005  0.000  0.001  0.000  0.000  0.034  0.911  0.034  0.000  0.984
 
band   6 # energy    8.07545056 # occ. -0.03060605
 
ion      s     py     pz     px    dxy    dyz    dz2    dxz    dx2    tot
  1  0.064  0.034  0.064  0.034  0.310  0.216  0.019  0.216  0.000  0.958
 
band   7 # energy   21.15583887 # occ.  0.00000000
 
ion      s     py     pz     px    dxy    dyz    dz2    dxz    dx2    tot
  1  0.000  0.168  0.000  0.168  0.000  0.199  0.000  0.199  0.160  0.894
 
band   8 # energy   22.13892126 # occ.  0.00000000
 
ion      s     py     pz     px    dxy    dyz    dz2    dxz    dx2    tot
  1  0.193  0.009  0.263  0.009  0.099  0.119  0.025  0.119  0.000  0.836
 
band   9 # energy   26.34102331 # occ.  0.00000000
 
ion      s     py     pz     px    dxy    dyz    dz2    dxz    dx2    tot
  1  0.167  0.214  0.003  0.214  0.190  0.003  0.033  0.003  0.000  0.826
 
band  10 # energy   36.20435757 # occ.  0.00000000
 
ion      s     py     pz     px    dxy    dyz    dz2    dxz    dx2    tot
  1  0.000  0.012  0.000  0.012  0.000  0.108  0.000  0.108  0.141  0.380
 
band  11 # energy   40.44314231 # occ.  0.00000000
 
ion      s     py     pz     px    dxy    dyz    dz2    dxz    dx2    tot
  1  0.019  0.019  0.024  0.019  0.474  0.190  0.014  0.190  0.000  0.949
 
band  12 # energy   43.00581783 # occ.  0.00000000
 
ion      s     py     pz     px    dxy    dyz    dz2    dxz    dx2    tot
  1  0.000  0.084  0.000  0.084  0.000  0.063  0.000  0.063  0.471  0.765
 

 k-point    7 :    0.31250000 0.18750000 0.06250000     weight = 0.09375000

band   1 # energy    2.26557540 # occ.  1.00000000
 
ion      s     py     pz     px    dxy    dyz    dz2    dxz    dx2    tot
  1  0.097  0.002  0.007  0.056  0.034  0.540  0.055  0.042  0.097  0.930
 
band   2 # energy    3.03714832 # occ.  1.00000000
 
ion      s     py     pz     px    dxy    dyz    dz2    dxz    dx2    tot
  1  0.000  0.027  0.012  0.015  0.330  0.025  0.001  0.482  0.069  0.959
 
band   3 # energy    4.20136011 # occ.  1.00000000
 
ion      s     py     pz     px    dxy    dyz    dz2    dxz    dx2    tot
  1  0.023  0.106  0.147  0.001  0.364  0.010  0.069  0.142  0.054  0.916
 
band   4 # energy    5.98568877 # occ.  1.00000000
 
ion      s     py     pz     px    dxy    dyz    dz2    dxz    dx2    tot
  1  0.003  0.001  0.000  0.002  0.000  0.208  0.049  0.045  0.675  0.983
 
band   5 # energy    6.22328528 # occ.  1.01094428
 
ion      s     py     pz     px    dxy    dyz    dz2    dxz    dx2    tot
  1  0.004  0.004  0.006  0.000  0.048  0.014  0.785  0.072  0.054  0.987
 
band   6 # energy   10.67252240 # occ. -0.00260385
 
ion      s     py     pz     px    dxy    dyz    dz2    dxz    dx2    tot
  1  0.065  0.128  0.189  0.020  0.213  0.079  0.033  0.188  0.000  0.917
 
band   7 # energy   16.46878860 # occ.  0.00000000
 
ion      s     py     pz     px    dxy    dyz    dz2    dxz    dx2    tot
  1  0.243  0.119  0.026  0.082  0.013  0.339  0.006  0.021  0.076  0.924
 
band   8 # energy   20.43415707 # occ.  0.00000000
 
ion      s     py     pz     px    dxy    dyz    dz2    dxz    dx2    tot
  1  0.180  0.055  0.113  0.141  0.113  0.001  0.000  0.200  0.031  0.834
 
band   9 # energy   24.90977884 # occ.  0.00000000
 
ion      s     py     pz     px    dxy    dyz    dz2    dxz    dx2    tot
  1  0.153  0.111  0.049  0.264  0.121  0.043  0.010  0.042  0.004  0.799
 
band  10 # energy   36.71608993 # occ.  0.00000000
 
ion      s     py     pz     px    dxy    dyz    dz2    dxz    dx2    tot
  1  0.007  0.002  0.001  0.023  0.165  0.010  0.013  0.260  0.156  0.636
 
band  11 # energy   41.34515631 # occ.  0.00000000
 
ion      s     py     pz     px    dxy    dyz    dz2    dxz    dx2    tot
  1  0.004  0.056  0.002  0.000  0.185  0.070  0.114  0.008  0.112  0.551
 
band  12 # energy   43.79174991 # occ.  0.00000000
 
ion      s     py     pz     px    dxy    dyz    dz2    dxz    dx2    tot
  1  0.051  0.009  0.005  0.124  0.079  0.002  0.278  0.036  0.385  0.969
 

 k-point    8 :   -0.18750000 0.18750000 0.06250000     weight = 0.04687500

band   1 # energy   -0.68685961 # occ.  1.00000000
 
ion      s     py     pz     px    dxy    dyz    dz2    dxz    dx2    tot
  1  0.682  0.022  0.000  0.097  0.016  0.000  0.006  0.000  0.005  0.828
 
band   2 # energy    3.98513161 # occ.  1.00000000
 
ion      s     py     pz     px    dxy    dyz    dz2    dxz    dx2    tot
  1  0.000  0.000  0.003  0.000  0.000  0.381  0.000  0.600  0.000  0.984
 
band   3 # energy    4.21604920 # occ.  1.00000000
 
ion      s     py     pz     px    dxy    dyz    dz2    dxz    dx2    tot
  1  0.005  0.016  0.000  0.009  0.827  0.000  0.101  0.000  0.010  0.969
 
band   4 # energy    5.14432895 # occ.  1.00000000
 
ion      s     py     pz     px    dxy    dyz    dz2    dxz    dx2    tot
  1  0.000  0.000  0.009  0.000  0.000  0.603  0.000  0.373  0.000  0.984
 
band   5 # energy    5.40911833 # occ.  1.00000000
 
ion      s     py     pz     px    dxy    dyz    dz2    dxz    dx2    tot
  1  0.000  0.000  0.000  0.000  0.120  0.000  0.661  0.000  0.180  0.961
 
band   6 # energy    6.08027144 # occ.  1.00631892
 
ion      s     py     pz     px    dxy    dyz    dz2    dxz    dx2    tot
  1  0.006  0.000  0.000  0.001  0.005  0.000  0.187  0.000  0.779  0.978
 
band   7 # energy   26.69740476 # occ.  0.00000000
 
ion      s     py     pz     px    dxy    dyz    dz2    dxz    dx2    tot
  1  0.023  0.112  0.000  0.048  0.313  0.000  0.268  0.000  0.022  0.786
 
band   8 # energy   30.05547098 # occ.  0.00000000
 
ion      s     py     pz     px    dxy    dyz    dz2    dxz    dx2    tot
  1  0.023  0.000  0.000  0.130  0.079  0.000  0.041  0.000  0.172  0.444
 
band   9 # energy   31.22294699 # occ.  0.00000000
 
ion      s     py     pz     px    dxy    dyz    dz2    dxz    dx2    tot
  1  0.000  0.000  0.158  0.000  0.000  0.042  0.000  0.684  0.000  0.884
 
band  10 # energy   35.63828361 # occ.  0.00000000
 
ion      s     py     pz     px    dxy    dyz    dz2    dxz    dx2    tot
  1  0.003  0.211  0.000  0.090  0.283  0.000  0.110  0.000  0.006  0.702
 
band  11 # energy   35.95494390 # occ.  0.00000000
 
ion      s     py     pz     px    dxy    dyz    dz2    dxz    dx2    tot
  1  0.000  0.000  0.386  0.000  0.000  0.547  0.000  0.037  0.000  0.970
 
band  12 # energy   37.54625321 # occ.  0.00000000
 
ion      s     py     pz     px    dxy    dyz    dz2    dxz    dx2    tot
  1  0.094  0.166  0.000  0.113  0.022  0.000  0.137  0.000  0.004  0.537
 

 k-point    9 :    0.31250000 0.31250000 0.06250000     weight = 0.01562500

band   1 # energy    2.61898168 # occ.  1.00000000
 
ion      s     py     pz     px    dxy    dyz    dz2    dxz    dx2    tot
  1  0.045  0.009  0.009  0.009  0.296  0.296  0.000  0.296  0.000  0.958
 
band   2 # energy    3.46235464 # occ.  1.00000000
 
ion      s     py     pz     px    dxy    dyz    dz2    dxz    dx2    tot
  1  0.000  0.030  0.118  0.030  0.365  0.091  0.204  0.091  0.000  0.928
 
band   3 # energy    3.46235470 # occ.  1.00000000
 
ion      s     py     pz     px    dxy    dyz    dz2    dxz    dx2    tot
  1  0.000  0.089  0.000  0.089  0.000  0.274  0.000  0.274  0.204  0.928
 
band   4 # energy    6.15336788 # occ.  1.00000000
 
ion      s     py     pz     px    dxy    dyz    dz2    dxz    dx2    tot
  1  0.000  0.001  0.005  0.001  0.155  0.039  0.746  0.039  0.000  0.986
 
band   5 # energy    6.15336792 # occ.  1.00597873
 
ion      s     py     pz     px    dxy    dyz    dz2    dxz    dx2    tot
  1  0.000  0.004  0.000  0.004  0.000  0.116  0.000  0.116  0.746  0.986
 
band   6 # energy   14.37748241 # occ.  0.00000000
 
ion      s     py     pz     px    dxy    dyz    dz2    dxz    dx2    tot
  1  0.000  0.077  0.307  0.077  0.250  0.062  0.070  0.062  0.000  0.905
 
band   7 # energy   14.37748244 # occ.  0.00000000
 
ion      s     py     pz     px    dxy    dyz    dz2    dxz    dx2    tot
  1  0.000  0.230  0.000  0.230  0.000  0.187  0.000  0.187  0.070  0.905
 
band   8 # energy   17.28684213 # occ.  0.00000000
 
ion      s     py     pz     px    dxy    dyz    dz2    dxz    dx2    tot
  1  0.585  0.003  0.003  0.003  0.094  0.094  0.000  0.094  0.000  0.876
 
band   9 # energy   24.40909228 # occ.  0.00000000
 
ion      s     py     pz     px    dxy    dyz    dz2    dxz    dx2    tot
  1  0.149  0.133  0.133  0.133  0.092  0.092  0.000  0.092  0.000  0.825
 
band  10 # energy   39.27073202 # occ.  0.00000000
 
ion      s     py     pz     px    dxy    dyz    dz2    dxz    dx2    tot
  1  0.000  0.012  0.026  0.011  0.065  0.027  0.254  0.030  0.062  0.485
 
band  11 # energy   39.27073202 # occ.  0.00000000
 
ion      s     py     pz     px    dxy    dyz    dz2    dxz    dx2    tot
  1  0.000  0.020  0.006  0.021  0.016  0.054  0.062  0.051  0.254  0.485
 
band  12 # energy   47.33870675 # occ.  0.00000000
 
ion      s     py     pz     px    dxy    dyz    dz2    dxz    dx2    tot
  1  0.018  0.048  0.048  0.048  0.421  0.421  0.000  0.421  0.000  1.425
 

 k-point   10 :   -0.31250000 0.31250000 0.06250000     weight = 0.04687500

band   1 # energy    1.00551507 # occ.  1.00000000
 
ion      s     py     pz     px    dxy    dyz    dz2    dxz    dx2    tot
  1  0.403  0.032  0.000  0.106  0.214  0.000  0.099  0.000  0.010  0.865
 
band   2 # energy    3.50859683 # occ.  1.00000000
 
ion      s     py     pz     px    dxy    dyz    dz2    dxz    dx2    tot
  1  0.000  0.000  0.003  0.000  0.000  0.442  0.000  0.534  0.000  0.979
 
band   3 # energy    4.27397451 # occ.  1.00000000
 
ion      s     py     pz     px    dxy    dyz    dz2    dxz    dx2    tot
  1  0.068  0.083  0.000  0.091  0.283  0.000  0.253  0.000  0.130  0.908
 
band   4 # energy    5.63054909 # occ.  1.00000000
 
ion      s     py     pz     px    dxy    dyz    dz2    dxz    dx2    tot
  1  0.001  0.011  0.000  0.012  0.430  0.000  0.488  0.000  0.032  0.975
 
band   5 # energy    6.28334430 # occ.  1.01206739
 
ion      s     py     pz     px    dxy    dyz    dz2    dxz    dx2    tot
  1  0.033  0.009  0.000  0.019  0.002  0.000  0.106  0.000  0.807  0.976
 
band   6 # energy    6.34945245 # occ.  0.65577234
 
ion      s     py     pz     px    dxy    dyz    dz2    dxz    dx2    tot
  1  0.000  0.000  0.011  0.000  0.000  0.538  0.000  0.433  0.000  0.983
 
band   7 # energy   20.88107622 # occ.  0.00000000
 
ion      s     py     pz     px    dxy    dyz    dz2    dxz    dx2    tot
  1  0.139  0.172  0.000  0.091  0.360  0.000  0.154  0.000  0.008  0.924
 
band   8 # energy   27.49547076 # occ.  0.00000000
 
ion      s     py     pz     px    dxy    dyz    dz2    dxz    dx2    tot
  1  0.025  0.055  0.000  0.141  0.006  0.000  0.077  0.000  0.085  0.390
 
band   9 # energy   29.25200110 # occ.  0.00000000
 
ion      s     py     pz     px    dxy    dyz    dz2    dxz    dx2    tot
  1  0.000  0.000  0.447  0.000  0.000  0.025  0.000  0.565  0.000  1.037
 
band  10 # energy   33.84252416 # occ.  0.00000000
 
ion      s     py     pz     px    dxy    dyz    dz2    dxz    dx2    tot
  1  0.000  0.000  0.223  0.000  0.000  0.704  0.000  0.155  0.000  1.082
 
band  11 # energy   35.98670447 # occ.  0.00000000
 
ion      s     py     pz     px    dxy    dyz    dz2    dxz    dx2    tot
  1  0.075  0.237  0.000  0.000  0.047  0.000  0.530  0.000  0.008  0.897
 
band  12 # energy   38.86586363 # occ.  0.00000000
 
ion      s     py     pz     px    dxy    dyz    dz2    dxz    dx2    tot
  1  0.125  0.009  0.000  0.067  0.189  0.000  0.066  0.000  0.118  0.574
 

 k-point   11 :   -0.18750000 0.31250000 0.06250000     weight = 0.04687500

band   1 # energy    0.84507591 # occ.  1.00000000
 
ion      s     py     pz     px    dxy    dyz    dz2    dxz    dx2    tot
  1  0.493  0.015  0.015  0.165  0.043  0.000  0.017  0.043  0.052  0.843
 
band   2 # energy    3.73329022 # occ.  1.00000000
 
ion      s     py     pz     px    dxy    dyz    dz2    dxz    dx2    tot
  1  0.000  0.014  0.014  0.000  0.292  0.000  0.252  0.292  0.084  0.947
 
band   3 # energy    3.96451089 # occ.  1.00000000
 
ion      s     py     pz     px    dxy    dyz    dz2    dxz    dx2    tot
  1  0.012  0.006  0.006  0.026  0.223  0.474  0.000  0.223  0.000  0.970
 
band   4 # energy    5.23909416 # occ.  1.00000000
 
ion      s     py     pz     px    dxy    dyz    dz2    dxz    dx2    tot
  1  0.000  0.002  0.002  0.000  0.181  0.000  0.449  0.181  0.150  0.965
 
band   5 # energy    6.04680209 # occ.  1.00436193
 
ion      s     py     pz     px    dxy    dyz    dz2    dxz    dx2    tot
  1  0.000  0.006  0.006  0.003  0.181  0.393  0.053  0.181  0.160  0.982
 
band   6 # energy    6.49125460 # occ.  0.68306070
 
ion      s     py     pz     px    dxy    dyz    dz2    dxz    dx2    tot
  1  0.050  0.007  0.007  0.026  0.032  0.113  0.177  0.032  0.531  0.974
 
band   7 # energy   23.83553450 # occ.  0.00000000
 
ion      s     py     pz     px    dxy    dyz    dz2    dxz    dx2    tot
  1  0.000  0.124  0.124  0.000  0.158  0.000  0.246  0.158  0.082  0.891
 
band   8 # energy   25.03585229 # occ.  0.00000000
 
ion      s     py     pz     px    dxy    dyz    dz2    dxz    dx2    tot
  1  0.139  0.060  0.060  0.180  0.179  0.024  0.002  0.179  0.007  0.830
 
band   9 # energy   31.54303571 # occ.  0.00000000
 
ion      s     py     pz     px    dxy    dyz    dz2    dxz    dx2    tot
  1  0.000  0.056  0.056  0.000  0.178  0.000  0.205  0.178  0.068  0.740
 
band  10 # energy   32.18522696 # occ.  0.00000000
 
ion      s     py     pz     px    dxy    dyz    dz2    dxz    dx2    tot
  1  0.002  0.231  0.231  0.050  0.031  0.100  0.004  0.031  0.012  0.693
 
band  11 # energy   36.06162330 # occ.  0.00000000
 
ion      s     py     pz     px    dxy    dyz    dz2    dxz    dx2    tot
  1  0.100  0.003  0.003  0.059  0.134  0.423  0.015  0.134  0.045  0.916
 
band  12 # energy   40.90504234 # occ.  0.00000000
 
ion      s     py     pz     px    dxy    dyz    dz2    dxz    dx2    tot
  1  0.000  0.152  0.152  0.000  0.000  0.000  0.133  0.000  0.044  0.482
 

 k-point   12 :   -0.43750000 0.43750000 0.06250000     weight = 0.04687500

band   1 # energy    1.41553030 # occ.  1.00000000
 
ion      s     py     pz     px    dxy    dyz    dz2    dxz    dx2    tot
  1  0.165  0.000  0.000  0.019  0.447  0.000  0.280  0.000  0.001  0.912
 
band   2 # energy    3.18750216 # occ.  1.00000000
 
ion      s     py     pz     px    dxy    dyz    dz2    dxz    dx2    tot
  1  0.000  0.000  0.003  0.000  0.000  0.474  0.000  0.501  0.000  0.977
 
band   3 # energy    5.21242048 # occ.  1.00000000
 
ion      s     py     pz     px    dxy    dyz    dz2    dxz    dx2    tot
  1  0.022  0.098  0.000  0.106  0.000  0.000  0.091  0.000  0.599  0.916
 
band   4 # energy    5.84861764 # occ.  1.00000000
 
ion      s     py     pz     px    dxy    dyz    dz2    dxz    dx2    tot
  1  0.009  0.007  0.000  0.006  0.344  0.000  0.555  0.000  0.059  0.980
 
band   5 # energy    7.32712827 # occ.  0.22786987
 
ion      s     py     pz     px    dxy    dyz    dz2    dxz    dx2    tot
  1  0.000  0.000  0.002  0.000  0.000  0.511  0.000  0.478  0.000  0.992
 
band   6 # energy    7.54572127 # occ.  0.00332819
 
ion      s     py     pz     px    dxy    dyz    dz2    dxz    dx2    tot
  1  0.049  0.206  0.000  0.248  0.050  0.000  0.008  0.000  0.331  0.892
 
band   7 # energy   16.04347743 # occ.  0.00000000
 
ion      s     py     pz     px    dxy    dyz    dz2    dxz    dx2    tot
  1  0.354  0.083  0.000  0.021  0.389  0.000  0.115  0.000  0.003  0.965
 
band   8 # energy   26.00662755 # occ.  0.00000000
 
ion      s     py     pz     px    dxy    dyz    dz2    dxz    dx2    tot
  1  0.023  0.105  0.000  0.130  0.002  0.000  0.077  0.000  0.010  0.347
 
band   9 # energy   27.54318135 # occ.  0.00000000
 
ion      s     py     pz     px    dxy    dyz    dz2    dxz    dx2    tot
  1  0.000  0.000  0.628  0.000  0.000  0.060  0.000  0.228  0.000  0.916
 
band  10 # energy   33.09613239 # occ.  0.00000000
 
ion      s     py     pz     px    dxy    dyz    dz2    dxz    dx2    tot
  1  0.000  0.000  0.132  0.000  0.000  0.663  0.000  0.484  0.000  1.278
 
band  11 # energy   36.40080982 # occ.  0.00000000
 
ion      s     py     pz     px    dxy    dyz    dz2    dxz    dx2    tot