<?xml version="1.0" encoding="ISO-8859-1"?>
<modeling>
 <generator>
  <i name="program" type="string">vasp </i>
  <i name="version" type="string">5.4.1  </i>
  <i name="subversion" type="string">24Jun15 (build Jul 19 2016 16:50:41) complex                          parallel </i>
  <i name="platform" type="string">IFC91_ompi </i>
  <i name="date" type="string">2019 10 17 </i>
  <i name="time" type="string">12:37:06 </i>
 </generator>
 <incar>
  <i type="string" name="SYSTEM"> Fe BCC</i>
  <i type="string" name="PREC">accurate</i>
  <i type="int" name="ISPIN">     2</i>
  <i name="EDIFF">      0.00000100</i>
  <i name="ENMAX">    400.00000000</i>
  <v name="MAGMOM">      4.00000000</v>
  <i type="int" name="ISMEAR">    -5</i>
  <i type="logical" name="LORBIT"> F  </i>
  <v type="int" name="KPOINT_BSE">    -1     0     0     0</v>
 </incar>
 <kpoints>
  <generation param="Monkhorst-Pack">
   <v type="int" name="divisions">       8        8        8 </v>
   <v name="usershift">      0.00000000       0.00000000       0.00000000 </v>
   <v name="genvec1">      0.12500000       0.00000000       0.00000000 </v>
   <v name="genvec2">      0.00000000       0.12500000       0.00000000 </v>
   <v name="genvec3">      0.00000000       0.00000000       0.12500000 </v>
   <v name="shift">      0.50000000       0.50000000       0.50000000 </v>
  </generation>
  <varray name="kpointlist" >
   <v>       0.06250000       0.06250000       0.06250000 </v>
   <v>       0.18750000       0.06250000       0.06250000 </v>
   <v>       0.31250000       0.06250000       0.06250000 </v>
   <v>       0.43750000       0.06250000       0.06250000 </v>
   <v>      -0.06250000       0.06250000       0.06250000 </v>
   <v>       0.18750000       0.18750000       0.06250000 </v>
   <v>       0.31250000       0.18750000       0.06250000 </v>
   <v>      -0.18750000       0.18750000       0.06250000 </v>
   <v>       0.31250000       0.31250000       0.06250000 </v>
   <v>      -0.31250000       0.31250000       0.06250000 </v>
   <v>      -0.18750000       0.31250000       0.06250000 </v>
   <v>      -0.43750000       0.43750000       0.06250000 </v>
   <v>      -0.31250000       0.43750000       0.06250000 </v>
   <v>      -0.43750000      -0.43750000       0.06250000 </v>
   <v>      -0.31250000      -0.43750000       0.06250000 </v>
   <v>       0.18750000       0.18750000       0.18750000 </v>
   <v>       0.31250000       0.18750000       0.18750000 </v>
   <v>      -0.18750000       0.18750000       0.18750000 </v>
   <v>      -0.31250000       0.31250000       0.18750000 </v>
   <v>      -0.43750000       0.43750000       0.18750000 </v>
   <v>      -0.31250000       0.43750000       0.18750000 </v>
   <v>      -0.43750000      -0.43750000       0.18750000 </v>
   <v>      -0.31250000       0.31250000       0.31250000 </v>
   <v>      -0.43750000       0.43750000       0.31250000 </v>
   <v>      -0.43750000      -0.43750000       0.31250000 </v>
   <v>      -0.43750000       0.43750000       0.43750000 </v>
  </varray>
  <varray name="weights" >
   <v>       0.01562500 </v>
   <v>       0.04687500 </v>
   <v>       0.04687500 </v>
   <v>       0.02343750 </v>
   <v>       0.01171875 </v>
   <v>       0.04687500 </v>
   <v>       0.09375000 </v>
   <v>       0.04687500 </v>
   <v>       0.01562500 </v>
   <v>       0.04687500 </v>
   <v>       0.04687500 </v>
   <v>       0.04687500 </v>
   <v>       0.09375000 </v>
   <v>       0.04687500 </v>
   <v>       0.04687500 </v>
   <v>       0.01562500 </v>
   <v>       0.02343750 </v>
   <v>       0.01171875 </v>
   <v>       0.04687500 </v>
   <v>       0.04687500 </v>
   <v>       0.04687500 </v>
   <v>       0.04687500 </v>
   <v>       0.01171875 </v>
   <v>       0.04687500 </v>
   <v>       0.01562500 </v>
   <v>       0.01171875 </v>
  </varray>
  <varray name="tetrahedronlist"  type="int" >
   <v type="int" >        4        1        2        2        6 </v>
   <v type="int" >        8        2        2        6        6 </v>
   <v type="int" >        4        2        6        6       16 </v>
   <v type="int" >        4        2        3        6        7 </v>
   <v type="int" >        4        2        6        6        7 </v>
   <v type="int" >       12        6        6        7       16 </v>
   <v type="int" >        8        3        6        7        7 </v>
   <v type="int" >        8        6        7        7       17 </v>
   <v type="int" >        8        6        7       16       17 </v>
   <v type="int" >        4        3        4        7        7 </v>
   <v type="int" >        4        3        7        7        7 </v>
   <v type="int" >       16        7        7        7       17 </v>
   <v type="int" >        8        4        7        7        7 </v>
   <v type="int" >        4        7        7        7       16 </v>
   <v type="int" >       20        7        7       16       17 </v>
   <v type="int" >        4        3        4        6        7 </v>
   <v type="int" >        4        4        6        7        7 </v>
   <v type="int" >       16        6        7        7       16 </v>
   <v type="int" >        8        3        6        6        7 </v>
   <v type="int" >        4        6        6        6        7 </v>
   <v type="int" >        4        2        2        3        6 </v>
   <v type="int" >        8        2        3        6        6 </v>
   <v type="int" >        4        2        6        6        6 </v>
   <v type="int" >        4        2        2        2        6 </v>
   <v type="int" >        8        2        2        6       11 </v>
   <v type="int" >        4        2        6        6       11 </v>
   <v type="int" >       16        1        2        2        8 </v>
   <v type="int" >        4        2        2        2        8 </v>
   <v type="int" >       12        2        2        8       11 </v>
   <v type="int" >       16        1        2        8        8 </v>
   <v type="int" >        4        2        8        8       18 </v>
   <v type="int" >        4        2        8       11       18 </v>
   <v type="int" >       20        1        5        8        8 </v>
   <v type="int" >        4        1        8        8        8 </v>
   <v type="int" >        4        8        8        8       18 </v>
   <v type="int" >        8        5        8        8        8 </v>
   <v type="int" >        4        8        8        8       11 </v>
   <v type="int" >        4        8        8       11       18 </v>
   <v type="int" >        8        1        2        5        8 </v>
   <v type="int" >        8        2        5        8        8 </v>
   <v type="int" >        8        2        8        8       11 </v>
   <v type="int" >        4        2        2        6        8 </v>
   <v type="int" >        4        2        6        8       11 </v>
   <v type="int" >        4        6        7        9       16 </v>
   <v type="int" >       16        7        9       16       17 </v>
   <v type="int" >       12        9       16       17       17 </v>
   <v type="int" >       20        7        7        9       17 </v>
   <v type="int" >       12        7        9       17       17 </v>
   <v type="int" >        8        7        7       17       17 </v>
   <v type="int" >       12        3        6        7       16 </v>
   <v type="int" >        8        3        7        7       16 </v>
   <v type="int" >        8        3        6        6       16 </v>
   <v type="int" >        4        3        6       13       16 </v>
   <v type="int" >        4        3        7       13       16 </v>
   <v type="int" >        4        2        6        6       10 </v>
   <v type="int" >        4        3        6        6       10 </v>
   <v type="int" >        8        3        6       10       13 </v>
   <v type="int" >       12        2        6       10       11 </v>
   <v type="int" >        4        6       10       11       19 </v>
   <v type="int" >        4        6       10       13       19 </v>
   <v type="int" >        4        2        8       11       11 </v>
   <v type="int" >        4        2       10       11       11 </v>
   <v type="int" >        4       10       11       11       19 </v>
   <v type="int" >        8        8       11       11       18 </v>
   <v type="int" >        8       11       11       18       19 </v>
   <v type="int" >        4       11       11       19       19 </v>
   <v type="int" >        4        8        8       10       18 </v>
   <v type="int" >       12        8       10       11       18 </v>
   <v type="int" >       12       10       11       18       19 </v>
   <v type="int" >        4       10       11       13       18 </v>
   <v type="int" >        4       10       13       18       19 </v>
   <v type="int" >        4        2        3        8       11 </v>
   <v type="int" >        4        3        8       10       11 </v>
   <v type="int" >        8        3       10       11       13 </v>
   <v type="int" >       16        2        3        6       11 </v>
   <v type="int" >        4        3        6        7       11 </v>
   <v type="int" >        4        3        7       11       13 </v>
   <v type="int" >        4        4        7        9       17 </v>
   <v type="int" >        8        4        7        7       17 </v>
   <v type="int" >        4        4        7       14       17 </v>
   <v type="int" >        4        3        7        7       12 </v>
   <v type="int" >        8        4        7        7       12 </v>
   <v type="int" >        8        4        7       12       14 </v>
   <v type="int" >        8        3        7       12       13 </v>
   <v type="int" >        4        7       12       13       20 </v>
   <v type="int" >        4        7       12       14       20 </v>
   <v type="int" >        4        3       10       13       13 </v>
   <v type="int" >        4        3       12       13       13 </v>
   <v type="int" >        4       12       13       13       20 </v>
   <v type="int" >        8       10       13       13       19 </v>
   <v type="int" >       12       13       13       19       21 </v>
   <v type="int" >        4       13       13       20       21 </v>
   <v type="int" >        8       10       11       13       19 </v>
   <v type="int" >        8       11       13       19       19 </v>
   <v type="int" >        4       13       19       19       20 </v>
   <v type="int" >        8       13       19       20       21 </v>
   <v type="int" >        4       10       11       12       19 </v>
   <v type="int" >        4       11       12       13       19 </v>
   <v type="int" >        8       12       13       19       20 </v>
   <v type="int" >        8       10       12       13       19 </v>
   <v type="int" >        4       12       13       14       19 </v>
   <v type="int" >        4       12       14       19       20 </v>
   <v type="int" >        4        3        4       10       13 </v>
   <v type="int" >        4        4       10       12       13 </v>
   <v type="int" >       12        4       12       13       14 </v>
   <v type="int" >       12        3        4        7       13 </v>
   <v type="int" >        8        4        7        7       13 </v>
   <v type="int" >       12        4        7       13       14 </v>
   <v type="int" >        4        4       12       14       14 </v>
   <v type="int" >        4       12       14       14       20 </v>
   <v type="int" >        4       14       14       20       22 </v>
   <v type="int" >        4       12       13       15       20 </v>
   <v type="int" >        4       12       14       15       20 </v>
   <v type="int" >        8       14       15       20       22 </v>
   <v type="int" >       12       13       15       20       21 </v>
   <v type="int" >       12       15       20       21       22 </v>
   <v type="int" >        4       15       20       22       22 </v>
   <v type="int" >        4       13       13       14       21 </v>
   <v type="int" >       12       13       14       15       21 </v>
   <v type="int" >       16       14       15       21       22 </v>
   <v type="int" >        8       13       14       20       21 </v>
   <v type="int" >        4       14       20       20       21 </v>
   <v type="int" >       12       14       20       21       22 </v>
   <v type="int" >        4       12       12       13       20 </v>
   <v type="int" >        8       12       13       14       20 </v>
   <v type="int" >        8       12       14       20       20 </v>
   <v type="int" >        8       12       12       14       20 </v>
   <v type="int" >        4       12       13       20       20 </v>
   <v type="int" >       16        3        4       12       14 </v>
   <v type="int" >        8        3       12       12       14 </v>
   <v type="int" >        8        3       12       13       14 </v>
   <v type="int" >       16        3        4        7       14 </v>
   <v type="int" >        4        3        6        7       14 </v>
   <v type="int" >        4        3        6       13       14 </v>
   <v type="int" >        8       14       15       15       22 </v>
   <v type="int" >        8       15       15       22       22 </v>
   <v type="int" >        8       15       21       22       22 </v>
   <v type="int" >       12       13       14       15       22 </v>
   <v type="int" >        4       13       15       15       22 </v>
   <v type="int" >        8       13       15       21       22 </v>
   <v type="int" >       12       13       14       20       22 </v>
   <v type="int" >        4       13       19       20       22 </v>
   <v type="int" >        4       13       19       21       22 </v>
   <v type="int" >        4       10       12       14       20 </v>
   <v type="int" >        4       10       13       14       20 </v>
   <v type="int" >        8       10       13       19       20 </v>
   <v type="int" >        8       10       12       13       20 </v>
   <v type="int" >        4       10       11       13       20 </v>
   <v type="int" >        4       10       11       19       20 </v>
   <v type="int" >        4        2        3       12       13 </v>
   <v type="int" >        4        2       10       12       13 </v>
   <v type="int" >        8        2       10       11       13 </v>
   <v type="int" >       12        2        3        6       13 </v>
   <v type="int" >        4        2        2        6       13 </v>
   <v type="int" >        4        2        2       11       13 </v>
   <v type="int" >        4       11       13       15       21 </v>
   <v type="int" >        8       11       13       19       21 </v>
   <v type="int" >        4       11       18       19       21 </v>
   <v type="int" >        4        8       10       13       19 </v>
   <v type="int" >        4        8       11       13       19 </v>
   <v type="int" >        8        8       11       18       19 </v>
   <v type="int" >        8        8       10       11       19 </v>
   <v type="int" >        4        8        8       11       19 </v>
   <v type="int" >        4        8        8       18       19 </v>
   <v type="int" >        4        1        2       10       11 </v>
   <v type="int" >        4        1        8       10       11 </v>
   <v type="int" >        8        1        8        8       11 </v>
   <v type="int" >        8        1        2        2       11 </v>
   <v type="int" >       12        1        2        8       11 </v>
   <v type="int" >        4        5        8       11       18 </v>
   <v type="int" >        4        5        8        8       18 </v>
   <v type="int" >        4        1        5        8       18 </v>
   <v type="int" >        4        5        5        8        8 </v>
   <v type="int" >       12        1        5        5        8 </v>
   <v type="int" >        6        1        1        5        5 </v>
   <v type="int" >        8        1        1        5        8 </v>
   <v type="int" >        4        1        1        2        8 </v>
   <v type="int" >        4        2        3        6       16 </v>
   <v type="int" >        4        3        7       16       17 </v>
   <v type="int" >       12        7       16       17       17 </v>
   <v type="int" >        8        7       17       17       17 </v>
   <v type="int" >       12        7        7        9       16 </v>
   <v type="int" >        4        6        6        7        7 </v>
   <v type="int" >       16        3        6        7       13 </v>
   <v type="int" >       12        6        7        7       13 </v>
   <v type="int" >        4        3        6        6       11 </v>
   <v type="int" >       12        3        6       11       13 </v>
   <v type="int" >       12        2        3       10       11 </v>
   <v type="int" >        4        3       10       11       19 </v>
   <v type="int" >        4        3       11       13       19 </v>
   <v type="int" >        4        2        8       10       18 </v>
   <v type="int" >        4        2       10       11       18 </v>
   <v type="int" >        4       10       18       19       19 </v>
   <v type="int" >        4        8        8       11       11 </v>
   <v type="int" >        4        8       10       11       11 </v>
   <v type="int" >        4       10       11       11       13 </v>
   <v type="int" >        4       11       11       13       19 </v>
   <v type="int" >        4        2        6        8       10 </v>
   <v type="int" >        4        6        8       10       11 </v>
   <v type="int" >       12        6       10       11       13 </v>
   <v type="int" >        8        2        3        6       10 </v>
   <v type="int" >        4        3        6        7       10 </v>
   <v type="int" >        4        6        7       10       13 </v>
   <v type="int" >        4       16       17       17       17 </v>
   <v type="int" >        4       17       17       17       17 </v>
   <v type="int" >        4        9       17       17       17 </v>
   <v type="int" >        8        7        7       15       17 </v>
   <v type="int" >        8        7        9       15       17 </v>
   <v type="int" >        4        6        7       13       16 </v>
   <v type="int" >        4        7        7       13       16 </v>
   <v type="int" >       12        7        7       13       15 </v>
   <v type="int" >        8        6        7       13       13 </v>
   <v type="int" >        4        7       13       13       21 </v>
   <v type="int" >        4        7       13       15       21 </v>
   <v type="int" >        4        6       11       13       19 </v>
   <v type="int" >        4        6       13       13       19 </v>
   <v type="int" >        4       13       19       19       23 </v>
   <v type="int" >        4       13       19       21       23 </v>
   <v type="int" >        4       11       18       19       19 </v>
   <v type="int" >        4       11       19       19       19 </v>
   <v type="int" >        4       19       19       19       23 </v>
   <v type="int" >        4       18       19       19       19 </v>
   <v type="int" >        4       19       19       19       21 </v>
   <v type="int" >        4       19       19       21       23 </v>
   <v type="int" >        4       11       13       18       19 </v>
   <v type="int" >        4       13       18       19       19 </v>
   <v type="int" >        8       13       19       19       21 </v>
   <v type="int" >       12       11       13       13       19 </v>
   <v type="int" >        4       13       13       15       19 </v>
   <v type="int" >        4       13       15       19       21 </v>
   <v type="int" >        4        6        7       11       13 </v>
   <v type="int" >        4        7       11       13       13 </v>
   <v type="int" >        8        7       13       13       15 </v>
   <v type="int" >        4        7        7        9       13 </v>
   <v type="int" >        4        7        9       13       15 </v>
   <v type="int" >        4        7        9       14       17 </v>
   <v type="int" >       12        7        9       14       15 </v>
   <v type="int" >        4        9       14       15       22 </v>
   <v type="int" >        4        7       13       15       20 </v>
   <v type="int" >        4        7       14       15       20 </v>
   <v type="int" >        4       15       20       21       24 </v>
   <v type="int" >        4       15       20       22       24 </v>
   <v type="int" >        4       13       19       21       21 </v>
   <v type="int" >        4       13       20       21       21 </v>
   <v type="int" >        4       20       21       21       24 </v>
   <v type="int" >        8       19       21       21       23 </v>
   <v type="int" >        8       21       21       23       24 </v>
   <v type="int" >        4       21       21       24       24 </v>
   <v type="int" >        4       19       19       20       23 </v>
   <v type="int" >       12       19       20       21       23 </v>
   <v type="int" >       12       20       21       23       24 </v>
   <v type="int" >        4       20       21       22       23 </v>
   <v type="int" >        4       20       22       23       24 </v>
   <v type="int" >        4       13       14       19       21 </v>
   <v type="int" >        4       14       19       20       21 </v>
   <v type="int" >        4       14       15       15       21 </v>
   <v type="int" >       16        7       13       14       15 </v>
   <v type="int" >        8        7       14       15       15 </v>
   <v type="int" >       16        7        7        9       15 </v>
   <v type="int" >        4        7        7       15       15 </v>
   <v type="int" >        4       14       20       22       22 </v>
   <v type="int" >        8       20       22       22       24 </v>
   <v type="int" >       16       22       22       24       25 </v>
   <v type="int" >       16       20       21       22       24 </v>
   <v type="int" >        8       21       22       24       24 </v>
   <v type="int" >        4       22       24       24       24 </v>
   <v type="int" >       16       22       24       24       25 </v>
   <v type="int" >        4       20       20       21       24 </v>
   <v type="int" >       12       20       22       24       24 </v>
   <v type="int" >        8       20       20       22       24 </v>
   <v type="int" >        4       20       21       24       24 </v>
   <v type="int" >        4       13       20       20       22 </v>
   <v type="int" >        8       13       20       21       22 </v>
   <v type="int" >        4       13       13       15       22 </v>
   <v type="int" >        4       13       13       21       22 </v>
   <v type="int" >        4        6        7       14       15 </v>
   <v type="int" >        4        6       13       14       15 </v>
   <v type="int" >        4        6       13       13       15 </v>
   <v type="int" >        4        6        7        7       15 </v>
   <v type="int" >        4        3        6        7       15 </v>
   <v type="int" >        4        3        6       13       15 </v>
   <v type="int" >        8       21       22       22       25 </v>
   <v type="int" >       12       21       22       24       25 </v>
   <v type="int" >        4       21       23       24       25 </v>
   <v type="int" >        4       19       20       22       24 </v>
   <v type="int" >        4       19       21       22       24 </v>
   <v type="int" >        8       19       21       23       24 </v>
   <v type="int" >        8       19       20       21       24 </v>
   <v type="int" >        4       19       19       21       24 </v>
   <v type="int" >        4       19       19       23       24 </v>
   <v type="int" >        4       11       13       20       21 </v>
   <v type="int" >        4       11       19       20       21 </v>
   <v type="int" >        4       11       19       19       21 </v>
   <v type="int" >        4       11       13       13       21 </v>
   <v type="int" >        4       10       11       13       21 </v>
   <v type="int" >        4       10       11       19       21 </v>
   <v type="int" >        4        2        6       13       13 </v>
   <v type="int" >        4        2       11       13       13 </v>
   <v type="int" >       12        2        3       10       13 </v>
   <v type="int" >        4        2       10       10       13 </v>
   <v type="int" >        4       18       19       21       23 </v>
   <v type="int" >        4       18       19       19       23 </v>
   <v type="int" >        4       11       18       19       23 </v>
   <v type="int" >        4        8       11       19       19 </v>
   <v type="int" >        4        8       18       19       19 </v>
   <v type="int" >        4        2        8       10       19 </v>
   <v type="int" >        4        2        8       11       19 </v>
   <v type="int" >       16        2        8       10       11 </v>
   <v type="int" >        4        8        8       10       11 </v>
   <v type="int" >       12        2        8        8       10 </v>
   <v type="int" >        8        2        8       10       10 </v>
   <v type="int" >        4        8       10       10       11 </v>
   <v type="int" >        4        1        8       11       18 </v>
   <v type="int" >        4        2        8        8        8 </v>
   <v type="int" >        8        2        2        8       10 </v>
   <v type="int" >        4        2        2        3       10 </v>
   <v type="int" >        4        3        4        7       17 </v>
   <v type="int" >        4        4        7       16       17 </v>
   <v type="int" >        4        7        7        7        9 </v>
   <v type="int" >        4        4        7        7       14 </v>
   <v type="int" >        4        7        7        7       14 </v>
   <v type="int" >       12        3        4       12       13 </v>
   <v type="int" >        4        4       12       13       20 </v>
   <v type="int" >        4        4       13       14       20 </v>
   <v type="int" >        4        3       10       12       19 </v>
   <v type="int" >        4        3       12       13       19 </v>
   <v type="int" >        4       12       13       19       21 </v>
   <v type="int" >        4       12       19       20       21 </v>
   <v type="int" >        4       10       13       19       19 </v>
   <v type="int" >        8       13       13       19       20 </v>
   <v type="int" >        4       10       11       13       13 </v>
   <v type="int" >        4       10       12       13       13 </v>
   <v type="int" >        4       12       13       13       14 </v>
   <v type="int" >        4       13       13       14       20 </v>
   <v type="int" >        4        3        7       10       12 </v>
   <v type="int" >        4        7       10       12       13 </v>
   <v type="int" >        8        7       12       13       14 </v>
   <v type="int" >        8        3        4        7       12 </v>
   <v type="int" >        4        7        7       12       14 </v>
   <v type="int" >        4        7        9       15       16 </v>
   <v type="int" >       12        7        9       15       15 </v>
   <v type="int" >        8        7        7       14       15 </v>
   <v type="int" >        4        7       14       15       22 </v>
   <v type="int" >        4        7       15       15       22 </v>
   <v type="int" >        4        7       13       14       21 </v>
   <v type="int" >        4        7       14       15       21 </v>
   <v type="int" >        4       14       20       21       24 </v>
   <v type="int" >        4       14       21       22       24 </v>
   <v type="int" >        4       13       19       20       23 </v>
   <v type="int" >        4       13       20       21       23 </v>
   <v type="int" >        4       20       23       24       24 </v>
   <v type="int" >        4       19       19       21       21 </v>
   <v type="int" >        4       19       20       21       21 </v>
   <v type="int" >        4       20       21       21       22 </v>
   <v type="int" >        4       21       21       22       24 </v>
   <v type="int" >        4       13       15       19       20 </v>
   <v type="int" >        4       15       19       20       21 </v>
   <v type="int" >        8       13       14       15       20 </v>
   <v type="int" >        4       14       15       15       20 </v>
   <v type="int" >        4       15       15       20       22 </v>
   <v type="int" >        4        7        9       13       14 </v>
   <v type="int" >        4        9       13       14       15 </v>
   <v type="int" >        8        9       14       15       15 </v>
   <v type="int" >        8        7        7        9       14 </v>
   <v type="int" >        4        9       15       15       22 </v>
   <v type="int" >        4       15       22       22       25 </v>
   <v type="int" >        4       15       21       22       24 </v>
   <v type="int" >        4       15       22       22       24 </v>
   <v type="int" >        8       22       24       24       26 </v>
   <v type="int" >        8       22       24       25       26 </v>
   <v type="int" >        4       21       23       24       24 </v>
   <v type="int" >        4       21       24       24       24 </v>
   <v type="int" >        8       24       24       24       26 </v>
   <v type="int" >        4       23       24       24       24 </v>
   <v type="int" >        4       24       24       24       25 </v>
   <v type="int" >       20       24       24       25       26 </v>
   <v type="int" >        4       21       22       23       24 </v>
   <v type="int" >        4       22       23       24       24 </v>
   <v type="int" >       12       21       22       22       24 </v>
   <v type="int" >        4       22       22       22       24 </v>
   <v type="int" >        4       15       15       21       22 </v>
   <v type="int" >        4       15       22       22       22 </v>
   <v type="int" >        4       15       15       15       22 </v>
   <v type="int" >        4       14       15       22       22 </v>
   <v type="int" >        4        7       15       15       15 </v>
   <v type="int" >        4        4        7        7       15 </v>
   <v type="int" >        4        4        7       14       15 </v>
   <v type="int" >        4       22       24       25       25 </v>
   <v type="int" >        8       24       25       25       26 </v>
   <v type="int" >        6       25       25       26       26 </v>
   <v type="int" >       12       24       25       26       26 </v>
   <v type="int" >        4       24       24       26       26 </v>
   <v type="int" >        8       21       24       24       25 </v>
   <v type="int" >        4       20       21       22       25 </v>
   <v type="int" >        4       20       21       24       25 </v>
   <v type="int" >        4       13       15       22       22 </v>
   <v type="int" >        4       13       21       22       22 </v>
   <v type="int" >        4       12       13       14       22 </v>
   <v type="int" >        4       12       13       20       22 </v>
   <v type="int" >        4        3        7       14       15 </v>
   <v type="int" >        4        3       13       14       15 </v>
   <v type="int" >        4       23       24       25       26 </v>
   <v type="int" >        4       23       24       24       26 </v>
   <v type="int" >        4       21       23       24       26 </v>
   <v type="int" >        4       19       21       24       24 </v>
   <v type="int" >        4       19       23       24       24 </v>
   <v type="int" >        4       13       19       20       24 </v>
   <v type="int" >        4       13       19       21       24 </v>
   <v type="int" >        4       10       13       20       21 </v>
   <v type="int" >        4       10       19       20       21 </v>
   <v type="int" >        4        3       10       12       20 </v>
   <v type="int" >        4        3       10       13       20 </v>
   <v type="int" >        8        3       10       12       13 </v>
   <v type="int" >        4       10       10       12       13 </v>
   <v type="int" >        8        3       10       10       12 </v>
   <v type="int" >        8        3       10       12       12 </v>
   <v type="int" >        4       10       12       12       13 </v>
   <v type="int" >        4       11       19       21       23 </v>
   <v type="int" >        4        6       11       13       21 </v>
   <v type="int" >        4        2       10       13       19 </v>
   <v type="int" >        4        2       11       13       19 </v>
   <v type="int" >        8        2        6       11       13 </v>
   <v type="int" >        4        2        6        6       13 </v>
   <v type="int" >        4        3       10       10       11 </v>
   <v type="int" >        4        3       11       13       13 </v>
   <v type="int" >        4        2        2        6       10 </v>
   <v type="int" >        4        6       10       12       13 </v>
   <v type="int" >        4        3        6       10       12 </v>
   <v type="int" >        4        2        3        3       10 </v>
   <v type="int" >        4        3        3       10       12 </v>
   <v type="int" >        4        3        3        4       12 </v>
   <v type="int" >        4        3        4        7       16 </v>
   <v type="int" >        4        6        7        7        7 </v>
   <v type="int" >        4        6        6        7       13 </v>
   <v type="int" >        8        3        7        7       14 </v>
   <v type="int" >        8        3        7       13       14 </v>
   <v type="int" >        4        3       12       14       20 </v>
   <v type="int" >        4        3       13       14       20 </v>
   <v type="int" >        4        4       12       12       20 </v>
   <v type="int" >        4        4       12       14       20 </v>
   <v type="int" >        4       12       14       20       22 </v>
   <v type="int" >        4       12       20       20       22 </v>
   <v type="int" >        4       12       13       14       21 </v>
   <v type="int" >        4       12       14       20       21 </v>
   <v type="int" >        4       14       21       22       22 </v>
   <v type="int" >        4       13       13       15       20 </v>
   <v type="int" >        4       14       15       20       20 </v>
   <v type="int" >        4       15       20       20       22 </v>
   <v type="int" >        4       12       13       14       14 </v>
   <v type="int" >        4       13       14       14       20 </v>
   <v type="int" >        2       14       14       20       20 </v>
   <v type="int" >        2       12       12       14       14 </v>
   <v type="int" >        8        4        7       12       12 </v>
   <v type="int" >        4        7       12       12       14 </v>
   <v type="int" >        4        3        6        7       12 </v>
   <v type="int" >        4        6        7       12       13 </v>
   <v type="int" >        4        6        7       15       16 </v>
   <v type="int" >        8        6        7       13       15 </v>
   <v type="int" >        4        6       13       15       21 </v>
   <v type="int" >        4        7       13       14       22 </v>
   <v type="int" >        4        7       13       15       22 </v>
   <v type="int" >        4       13       20       22       24 </v>
   <v type="int" >        4       13       21       22       24 </v>
   <v type="int" >        4       14       20       20       24 </v>
   <v type="int" >        4       14       20       22       24 </v>
   <v type="int" >        4       20       22       24       25 </v>
   <v type="int" >        4       20       24       24       25 </v>
   <v type="int" >        6       22       22       24       24 </v>
   <v type="int" >        4       20       21       22       22 </v>
   <v type="int" >        2       20       20       22       22 </v>
   <v type="int" >        4        7        7       13       14 </v>
   <v type="int" >        4        3        7       13       13 </v>
   <v type="int" >        4       15       21       22       25 </v>
   <v type="int" >        4       21       24       25       26 </v>
   <v type="int" >        4       24       26       26       26 </v>
   <v type="int" >        6       24       24       25       25 </v>
   <v type="int" >        4        4        7       13       15 </v>
   <v type="int" >        4        4       13       14       15 </v>
   <v type="int" >        8        4       12       12       13 </v>
   <v type="int" >        4       25       26       26       26 </v>
   <v type="int" >        2       26       26       26       26 </v>
   <v type="int" >        4        4       12       12       14 </v>
   <v type="int" >        4       12       12       12       14 </v>
   <v type="int" >        8        4       12       12       12 </v>
   <v type="int" >        4        3        4        4       12 </v>
   <v type="int" >        4        4        4       12       12 </v>
   <v type="int" >        4        1        5        8       11 </v>
   <v type="int" >        4        1        2        6       11 </v>
   <v type="int" >        4        2        8       10       13 </v>
   <v type="int" >        4        2        8       11       13 </v>
   <v type="int" >        4        2        3        7       13 </v>
   <v type="int" >        4        2        6        7       13 </v>
   <v type="int" >        4        3       10       12       14 </v>
   <v type="int" >        4        3       10       13       14 </v>
   <v type="int" >        4        3        4        6       13 </v>
   <v type="int" >        4        4        6        7       13 </v>
   <v type="int" >        4        3       10       11       12 </v>
   <v type="int" >        4        3       11       12       13 </v>
   <v type="int" >        4        2        2        3       11 </v>
   <v type="int" >        6        2        2        8        8 </v>
   <v type="int" >        6        1        1        8        8 </v>
   <v type="int" >        4        5        5        5        8 </v>
   <v type="int" >        4        6       11       13       15 </v>
   <v type="int" >        4        6        7        9       15 </v>
   <v type="int" >        4        7       13       15       15 </v>
   <v type="int" >        4        7        7        7       15 </v>
   <v type="int" >        4        7       13       13       14 </v>
   <v type="int" >        4        3        7        7       13 </v>
   <v type="int" >        4        6       10       13       13 </v>
   <v type="int" >        4        2        6       10       10 </v>
   <v type="int" >        4        3        6       10       10 </v>
   <v type="int" >        4        2        2       10       11 </v>
   <v type="int" >        2        2        2       10       10 </v>
   <v type="int" >        4        1        8        8       10 </v>
   <v type="int" >        4        1        2        8       10 </v>
   <v type="int" >        4        2        3        8       10 </v>
   <v type="int" >        4        3        8       10       10 </v>
   <v type="int" >        4        4        7        9       14 </v>
   <v type="int" >        4        7       12       13       15 </v>
   <v type="int" >        4        7       12       14       15 </v>
   <v type="int" >        4        3        7       12       12 </v>
   <v type="int" >        4        3        3       10       13 </v>
   <v type="int" >        4        3        3       12       13 </v>
   <v type="int" >        2        3        3       12       12 </v>
   <v type="int" >        2        3        3       10       10 </v>
   <v type="int" >        4        2       10       10       12 </v>
   <v type="int" >        4        2        3       10       12 </v>
   <v type="int" >        4        3        4       10       12 </v>
   <v type="int" >        4        4       10       12       12 </v>
   <v type="int" >        4        4        4       12       14 </v>
   <v type="int" >        4        3       12       12       12 </v>
   <v type="int" >        4        3        4       12       12 </v>
   <v type="int" >        4        1        5        5        5 </v>
   <v type="int" >        2        5        5        5        5 </v>
  </varray>
  <i name="volumeweight">      0.00032552 </i>
 </kpoints>
 <parameters>
  <separator name="general" >
   <i type="string" name="SYSTEM">Fe BCC</i>
   <i type="logical" name="LCOMPAT"> F  </i>
  </separator>
  <separator name="electronic" >
   <i type="string" name="PREC">accura</i>
   <i name="ENMAX">    400.00000000</i>
   <i name="ENAUG">    511.36800000</i>
   <i name="EDIFF">      0.00000100</i>
   <i type="int" name="IALGO">    38</i>
   <i type="int" name="IWAVPR">    10</i>
   <i type="int" name="NBANDS">    12</i>
   <i name="NELECT">      8.00000000</i>
   <i type="int" name="TURBO">     0</i>
   <i type="int" name="IRESTART">     0</i>
   <i type="int" name="NREBOOT">     0</i>
   <i type="int" name="NMIN">     0</i>
   <i name="EREF">      0.00000000</i>
   <separator name="electronic smearing" >
    <i type="int" name="ISMEAR">    -5</i>
    <i name="SIGMA">      0.20000000</i>
    <i name="KSPACING">      0.50000000</i>
    <i type="logical" name="KGAMMA"> T  </i>
   </separator>
   <separator name="electronic projectors" >
    <i type="logical" name="LREAL"> F  </i>
    <v name="ROPT">      0.00000000</v>
    <i type="int" name="LMAXPAW">  -100</i>
    <i type="int" name="LMAXMIX">     2</i>
    <i type="logical" name="NLSPLINE"> F  </i>
   </separator>
   <separator name="electronic startup" >
    <i type="int" name="ISTART">     0</i>
    <i type="int" name="ICHARG">     2</i>
    <i type="int" name="INIWAV">     1</i>
   </separator>
   <separator name="electronic spin" >
    <i type="int" name="ISPIN">     2</i>
    <i type="logical" name="LNONCOLLINEAR"> F  </i>
    <v name="MAGMOM">      4.00000000</v>
    <i name="NUPDOWN">     -1.00000000</i>
    <i type="logical" name="LSORBIT"> F  </i>
    <v name="SAXIS">      0.00000000      0.00000000      1.00000000</v>
    <i type="logical" name="LSPIRAL"> F  </i>
    <v name="QSPIRAL">      0.00000000      0.00000000      0.00000000</v>
    <i type="logical" name="LZEROZ"> F  </i>
   </separator>
   <separator name="electronic exchange-correlation" >
    <i type="logical" name="LASPH"> F  </i>
    <i type="logical" name="LMETAGGA"> F  </i>
   </separator>
   <separator name="electronic convergence" >
    <i type="int" name="NELM">    60</i>
    <i type="int" name="NELMDL">    -5</i>
    <i type="int" name="NELMIN">     2</i>
    <i name="ENINI">    400.00000000</i>
    <separator name="electronic convergence detail" >
     <i type="logical" name="LDIAG"> T  </i>
     <i type="logical" name="LSUBROT"> F  </i>
     <i name="WEIMIN">      0.00000000</i>
     <i name="EBREAK">      0.00000002</i>
     <i name="DEPER">      0.30000000</i>
     <i type="int" name="NRMM">     4</i>
     <i name="TIME">      0.40000000</i>
    </separator>
   </separator>
   <separator name="electronic mixer" >
    <i name="AMIX">      0.40000000</i>
    <i name="BMIX">      1.00000000</i>
    <i name="AMIN">      0.10000000</i>
    <i name="AMIX_MAG">      1.60000000</i>
    <i name="BMIX_MAG">      1.00000000</i>
    <separator name="electronic mixer details" >
     <i type="int" name="IMIX">     4</i>
     <i type="logical" name="MIXFIRST"> F  </i>
     <i type="int" name="MAXMIX">   -45</i>
     <i name="WC">    100.00000000</i>
     <i type="int" name="INIMIX">     1</i>
     <i type="int" name="MIXPRE">     1</i>
     <i type="int" name="MREMOVE">     5</i>
    </separator>
   </separator>
   <separator name="electronic dipolcorrection" >
    <i type="logical" name="LDIPOL"> F  </i>
    <i type="logical" name="LMONO"> F  </i>
    <i type="int" name="IDIPOL">     0</i>
    <i name="EPSILON">      1.00000000</i>
    <v name="DIPOL">   -100.00000000   -100.00000000   -100.00000000</v>
    <i name="EFIELD">      0.00000000</i>
   </separator>
  </separator>
  <separator name="grids" >
   <i type="int" name="NGX">    16</i>
   <i type="int" name="NGY">    16</i>
   <i type="int" name="NGZ">    16</i>
   <i type="int" name="NGXF">    32</i>
   <i type="int" name="NGYF">    32</i>
   <i type="int" name="NGZF">    32</i>
   <i type="logical" name="ADDGRID"> F  </i>
  </separator>
  <separator name="ionic" >
   <i type="int" name="NSW">     0</i>
   <i type="int" name="IBRION">    -1</i>
   <i type="int" name="ISIF">     2</i>
   <i name="PSTRESS">      0.00000000</i>
   <i name="EDIFFG">      0.00001000</i>
   <i type="int" name="NFREE">     0</i>
   <i name="POTIM">      0.50000000</i>
   <i name="SMASS">     -3.00000000</i>
   <i name="SCALEE">      1.00000000</i>
  </separator>
  <separator name="ionic md" >
   <i name="TEBEG">      0.00010000</i>
   <i name="TEEND">      0.00010000</i>
   <i type="int" name="NBLOCK">     1</i>
   <i type="int" name="KBLOCK">     1</i>
   <i type="int" name="NPACO">   256</i>
   <i name="APACO">     16.00000000</i>
  </separator>
  <separator name="symmetry" >
   <i type="int" name="ISYM">     2</i>
   <i name="SYMPREC">      0.00001000</i>
  </separator>
  <separator name="dos" >
   <i type="logical" name="LORBIT"> F  </i>
   <v name="RWIGS">     -1.00000000</v>
   <i type="int" name="NEDOS">   301</i>
   <i name="EMIN">     10.00000000</i>
   <i name="EMAX">    -10.00000000</i>
   <i name="EFERMI">      0.00000000</i>
  </separator>
  <separator name="writing" >
   <i type="int" name="NWRITE">     2</i>
   <i type="logical" name="LWAVE"> T  </i>
   <i type="logical" name="LCHARG"> T  </i>
   <i type="logical" name="LPARD"> F  </i>
   <i type="logical" name="LVTOT"> F  </i>
   <i type="logical" name="LVHAR"> F  </i>
   <i type="logical" name="LELF"> F  </i>
   <i type="logical" name="LOPTICS"> F  </i>
   <v name="STM">      0.00000000      0.00000000      0.00000000      0.00000000      0.00000000      0.00000000      0.00000000</v>
  </separator>
  <separator name="performance" >
   <i type="int" name="NPAR">     4</i>
   <i type="int" name="NSIM">     4</i>
   <i type="int" name="NBLK">    -1</i>
   <i type="logical" name="LPLANE"> T  </i>
   <i type="logical" name="LSCALAPACK"> F  </i>
   <i type="logical" name="LSCAAWARE"> F  </i>
   <i type="logical" name="LSCALU"> F  </i>
   <i type="logical" name="LASYNC"> F  </i>
   <i type="logical" name="LORBITALREAL"> F  </i>
  </separator>
  <separator name="miscellaneous" >
   <i type="int" name="IDIOT">     3</i>
   <i type="logical" name="LMUSIC"> F  </i>
   <v name="POMASS">     55.84700000</v>
   <v name="DARWINR">      0.00000000</v>
   <v name="DARWINV">      1.00000000</v>
   <i type="logical" name="LCORR"> T  </i>
  </separator>
  <i type="logical" name="GGA_COMPAT"> T  </i>
  <i type="logical" name="LBERRY"> F  </i>
  <i type="int" name="ICORELEVEL">     0</i>
  <i type="logical" name="LDAU"> F  </i>
  <i type="int" name="I_CONSTRAINED_M">     0</i>
  <separator name="electronic exchange-correlation" >
   <i type="string" name="GGA">--</i>
   <i type="int" name="VOSKOWN">     0</i>
   <i type="logical" name="LHFCALC"> F  </i>
   <i type="string" name="PRECFOCK"></i>
   <i type="logical" name="LSYMGRAD"> F  </i>
   <i type="logical" name="LHFONE"> F  </i>
   <i type="logical" name="LRHFCALC"> F  </i>
   <i type="logical" name="LTHOMAS"> F  </i>
   <i type="logical" name="LMODELHF"> F  </i>
   <i name="ENCUT4O">     -1.00000000</i>
   <i type="int" name="EXXOEP">     0</i>
   <i type="int" name="FOURORBIT">     0</i>
   <i name="AEXX">      0.00000000</i>
   <i name="HFALPHA">      0.00000000</i>
   <i name="MCALPHA">      0.00000000</i>
   <i name="ALDAX">      1.00000000</i>
   <i name="AGGAX">      1.00000000</i>
   <i name="ALDAC">      1.00000000</i>
   <i name="AGGAC">      1.00000000</i>
   <i type="int" name="NKREDX">     1</i>
   <i type="int" name="NKREDY">     1</i>
   <i type="int" name="NKREDZ">     1</i>
   <i type="logical" name="SHIFTRED"> F  </i>
   <i type="logical" name="ODDONLY"> F  </i>
   <i type="logical" name="EVENONLY"> F  </i>
   <i type="int" name="LMAXFOCK">     0</i>
   <i type="int" name="NMAXFOCKAE">     0</i>
   <i type="logical" name="LFOCKAEDFT"> F  </i>
   <i name="HFSCREEN">      0.00000000</i>
   <i name="HFSCREENC">      0.00000000</i>
   <i type="int" name="NBANDSGWLOW">     0</i>
  </separator>
  <separator name="vdW DFT" >
   <i type="logical" name="LUSE_VDW"> F  </i>
   <i name="Zab_VDW">     -0.84910000</i>
   <i name="PARAM1">      0.12340000</i>
   <i name="PARAM2">      1.00000000</i>
   <i name="PARAM3">      0.00000000</i>
  </separator>
  <separator name="model GW" >
   <i type="int" name="MODEL_GW">     0</i>
   <i name="MODEL_EPS0">      6.17124720</i>
   <i name="MODEL_ALPHA">      1.00000000</i>
  </separator>
  <separator name="linear response parameters" >
   <i type="logical" name="LEPSILON"> F  </i>
   <i type="logical" name="LRPA"> F  </i>
   <i type="logical" name="LNABLA"> F  </i>
   <i type="logical" name="LVEL"> F  </i>
   <i type="int" name="KINTER">     0</i>
   <i name="CSHIFT">      0.10000000</i>
   <i name="OMEGAMAX">     -1.00000000</i>
   <i name="DEG_THRESHOLD">      0.00200000</i>
  </separator>
  <separator name="orbital magnetization" >
   <i type="logical" name="NUCIND"> F  </i>
   <v name="MAGPOS">      0.00000000      0.00000000      0.00000000</v>
   <i type="logical" name="LNICSALL"> T  </i>
   <i type="logical" name="ORBITALMAG"> F  </i>
   <i type="logical" name="LMAGBLOCH"> F  </i>
   <i type="logical" name="LCHIMAG"> F  </i>
   <i type="logical" name="LGAUGE"> T  </i>
   <i type="int" name="MAGATOM">     0</i>
   <v name="MAGDIPOL">      0.00000000      0.00000000      0.00000000</v>
   <v name="AVECCONST">      0.00000000      0.00000000      0.00000000</v>
  </separator>
  <separator name="response functions" >
   <i type="logical" name="LADDER"> F  </i>
   <i type="logical" name="LFXC"> F  </i>
   <i type="logical" name="LHARTREE"> T  </i>
   <i type="int" name="IBSE">     0</i>
   <v type="int" name="KPOINT">    -1     0     0     0</v>
   <i type="logical" name="LTCTE"> F  </i>
   <i type="logical" name="LTETE"> F  </i>
   <i type="logical" name="LTRIPLET"> F  </i>
   <i type="logical" name="LFXCEPS"> F  </i>
   <i type="logical" name="LFXHEG"> F  </i>
   <i type="int" name="NATURALO">     0</i>
   <i type="logical" name="L2ORDER"> F  </i>
   <i type="logical" name="LUSEW"> F  </i>
   <i name="ENCUTGW">     -2.00000000</i>
   <i name="ENCUTGWSOFT">     -2.00000000</i>
   <i name="ENCUTLF">     -1.00000000</i>
   <i type="int" name="LMAXMP2">    -1</i>
   <i name="SCISSOR">      0.00000000</i>
   <i type="int" name="NOMEGA">     0</i>
   <i type="int" name="NOMEGAR">     0</i>
   <i type="int" name="NBANDSGW">    -1</i>
   <i type="int" name="NBANDSO">    -1</i>
   <i type="int" name="NBANDSV">    -1</i>
   <i type="int" name="NELM">     1</i>
   <i type="int" name="NELMHF">     1</i>
   <i type="int" name="DIM">     3</i>
   <i type="int" name="ANTIRES">     0</i>
   <i name="OMEGAMAX">    -30.00000000</i>
   <i name="OMEGAMIN">    -30.00000000</i>
   <i name="OMEGATL">   -200.00000000</i>
   <i type="int" name="OMEGAGRID">     0</i>
   <i name="CSHIFT">     -0.10000000</i>
   <i type="logical" name="SELFENERGY"> F  </i>
   <i type="logical" name="LSPECTRAL"> F  </i>
   <i type="logical" name="LSPECTRALGW"> F  </i>
   <i type="logical" name="LSINGLES"> F  </i>
   <i type="logical" name="LFERMIGW"> F  </i>
   <i type="logical" name="ODDONLYGW"> F  </i>
   <i type="logical" name="EVENONLYGW"> F  </i>
   <i type="int" name="NKREDLFX">     1</i>
   <i type="int" name="NKREDLFY">     1</i>
   <i type="int" name="NKREDLFZ">     1</i>
   <i type="int" name="MAXMEM">  1800</i>
   <i type="int" name="TELESCOPE">     0</i>
   <i type="int" name="TAUPAR">     1</i>
   <i type="int" name="OMEGAPAR">    -1</i>
   <i name="LAMBDA">      1.00000000</i>
  </separator>
  <separator name="External order field" >
   <i name="OFIELD_KAPPA">      0.00000000</i>
   <v name="OFIELD_K">      0.00000000      0.00000000      0.00000000</v>
   <i name="OFIELD_Q6_NEAR">      0.00000000</i>
   <i name="OFIELD_Q6_FAR">      0.00000000</i>
   <i name="OFIELD_A">      0.00000000</i>
  </separator>
 </parameters>
 <atominfo>
  <atoms>       1 </atoms>
  <types>       1 </types>
  <array name="atoms" >
   <dimension dim="1">ion</dimension>
   <field type="string">element</field>
   <field type="int">atomtype</field>
   <set>
    <rc><c>Fe</c><c>   1</c></rc>
   </set>
  </array>
  <array name="atomtypes" >
   <dimension dim="1">type</dimension>
   <field type="int">atomspertype</field>
   <field type="string">element</field>
   <field>mass</field>
   <field>valence</field>
   <field type="string">pseudopotential</field>
   <set>
    <rc><c>   1</c><c>Fe</c><c>     55.84700000</c><c>      8.00000000</c><c>  PAW Fe 03Mar1998                      </c></rc>
   </set>
  </array>
 </atominfo>
 <structure name="initialpos" >
  <crystal>
   <varray name="basis" >
    <v>      -1.37000000       1.37000000       1.37000000 </v>
    <v>       1.37000000      -1.37000000       1.37000000 </v>
    <v>       1.37000000       1.37000000      -1.37000000 </v>
   </varray>
   <i name="volume">     10.28541200 </i>
   <varray name="rec_basis" >
    <v>       0.00000000       0.36496350       0.36496350 </v>
    <v>       0.36496350       0.00000000       0.36496350 </v>
    <v>       0.36496350       0.36496350       0.00000000 </v>
   </varray>
  </crystal>
  <varray name="positions" >
   <v>       0.00000000       0.00000000       0.00000000 </v>
  </varray>
 </structure>
 <calculation>
  <scstep>
   <time name="dav">    3.31    3.22</time>
   <time name="total">    3.43    3.34</time>
   <energy>
    <i name="alphaZ">     65.11789319 </i>
    <i name="ewald">   -612.01970355 </i>
    <i name="hartreedc">   -103.52712628 </i>
    <i name="XCdc">      6.77232267 </i>
    <i name="pawpsdc">    552.76102510 </i>
    <i name="pawaedc">   -562.19386350 </i>
    <i name="eentropy">      0.00000000 </i>
    <i name="bandstr">     70.93151349 </i>
    <i name="atom">    597.35192723 </i>
    <i name="e_fr_energy">     15.19398834 </i>
    <i name="e_wo_entrp">     15.19398834 </i>
    <i name="e_0_energy">     15.19398834 </i>
   </energy>
  </scstep>
  <scstep>
   <time name="dav">    3.57    3.54</time>
   <time name="total">    3.66    3.62</time>
   <energy>
    <i name="e_fr_energy">     -9.18590460 </i>
    <i name="e_wo_entrp">     -9.18590460 </i>
    <i name="e_0_energy">     -9.18590460 </i>
   </energy>
  </scstep>
  <scstep>
   <time name="dav">    3.12    3.14</time>
   <time name="total">    3.21    3.24</time>
   <energy>
    <i name="e_fr_energy">     -9.75243259 </i>
    <i name="e_wo_entrp">     -9.75243259 </i>
    <i name="e_0_energy">     -9.75243259 </i>
   </energy>
  </scstep>
  <scstep>
   <time name="dav">    3.36    3.37</time>
   <time name="total">    3.46    3.47</time>
   <energy>
    <i name="e_fr_energy">     -9.75442681 </i>
    <i name="e_wo_entrp">     -9.75442681 </i>
    <i name="e_0_energy">     -9.75442681 </i>
   </energy>
  </scstep>
  <scstep>
   <time name="dav">    2.96    2.96</time>
   <time name="total">    3.10    3.11</time>
   <energy>
    <i name="e_fr_energy">     -9.75443983 </i>
    <i name="e_wo_entrp">     -9.75443983 </i>
    <i name="e_0_energy">     -9.75443983 </i>
   </energy>
  </scstep>
  <scstep>
   <time name="dav">    3.26    3.25</time>
   <time name="total">    3.43    3.41</time>
   <energy>
    <i name="e_fr_energy">     -9.27388529 </i>
    <i name="e_wo_entrp">     -9.27388529 </i>
    <i name="e_0_energy">     -9.27388529 </i>
   </energy>
  </scstep>
  <scstep>
   <time name="dav">    3.19    3.16</time>
   <time name="total">    3.35    3.32</time>
   <energy>
    <i name="e_fr_energy">     -9.24903420 </i>
    <i name="e_wo_entrp">     -9.24903420 </i>
    <i name="e_0_energy">     -9.24903420 </i>
   </energy>
  </scstep>
  <scstep>
   <time name="dav">    3.44    3.45</time>
   <time name="total">    3.61    3.61</time>
   <energy>
    <i name="e_fr_energy">     -9.23463956 </i>
    <i name="e_wo_entrp">     -9.23463956 </i>
    <i name="e_0_energy">     -9.23463956 </i>
   </energy>
  </scstep>
  <scstep>
   <time name="dav">    3.78    3.77</time>
   <time name="total">    3.92    3.92</time>
   <energy>
    <i name="e_fr_energy">     -9.22489250 </i>
    <i name="e_wo_entrp">     -9.22489250 </i>
    <i name="e_0_energy">     -9.22489250 </i>
   </energy>
  </scstep>
  <scstep>
   <time name="dav">    3.24    3.20</time>
   <time name="total">    3.41    3.37</time>
   <energy>
    <i name="e_fr_energy">     -9.22502906 </i>
    <i name="e_wo_entrp">     -9.22502906 </i>
    <i name="e_0_energy">     -9.22502906 </i>
   </energy>
  </scstep>
  <scstep>
   <time name="dav">    3.56    3.56</time>
   <time name="total">    3.72    3.72</time>
   <energy>
    <i name="e_fr_energy">     -9.22543630 </i>
    <i name="e_wo_entrp">     -9.22543630 </i>
    <i name="e_0_energy">     -9.22543630 </i>
   </energy>
  </scstep>
  <scstep>
   <time name="dav">    2.75    2.71</time>
   <time name="total">    2.91    2.88</time>
   <energy>
    <i name="e_fr_energy">     -9.22554680 </i>
    <i name="e_wo_entrp">     -9.22554680 </i>
    <i name="e_0_energy">     -9.22554680 </i>
   </energy>
  </scstep>
  <scstep>
   <time name="dav">    1.85    1.86</time>
   <time name="total">    2.00    2.01</time>
   <energy>
    <i name="e_fr_energy">     -9.22550571 </i>
    <i name="e_wo_entrp">     -9.22550571 </i>
    <i name="e_0_energy">     -9.22550571 </i>
   </energy>
  </scstep>
  <scstep>
   <time name="dav">    1.81    1.81</time>
   <time name="total">    1.96    1.96</time>
   <energy>
    <i name="e_fr_energy">     -9.22546721 </i>
    <i name="e_wo_entrp">     -9.22546721 </i>
    <i name="e_0_energy">     -9.22546721 </i>
   </energy>
  </scstep>
  <scstep>
   <time name="dav">    1.73    1.73</time>
   <time name="total">    1.87    1.87</time>
   <energy>
    <i name="e_fr_energy">     -9.22545785 </i>
    <i name="e_wo_entrp">     -9.22545785 </i>
    <i name="e_0_energy">     -9.22545785 </i>
   </energy>
  </scstep>
  <scstep>
   <time name="dav">    1.94    1.89</time>
   <time name="total">    2.05    2.00</time>
   <energy>
    <i name="alphaZ">     65.11789319 </i>
    <i name="ewald">   -612.01970355 </i>
    <i name="hartreedc">    -87.33198309 </i>
    <i name="XCdc">      4.69125781 </i>
    <i name="pawpsdc">    761.82449536 </i>
    <i name="pawaedc">   -772.82502914 </i>
    <i name="eentropy">      0.00000000 </i>
    <i name="bandstr">     33.96568438 </i>
    <i name="atom">    597.35192723 </i>
    <i name="e_fr_energy">     -9.22545781 </i>
    <i name="e_wo_entrp">     -9.22545781 </i>
    <i name="e_0_energy">     -9.22545781 </i>
   </energy>
  </scstep>
  <structure>
   <crystal>
    <varray name="basis" >
     <v>      -1.37000000       1.37000000       1.37000000 </v>
     <v>       1.37000000      -1.37000000       1.37000000 </v>
     <v>       1.37000000       1.37000000      -1.37000000 </v>
    </varray>
    <i name="volume">     10.28541200 </i>
    <varray name="rec_basis" >
     <v>       0.00000000       0.36496350       0.36496350 </v>
     <v>       0.36496350       0.00000000       0.36496350 </v>
     <v>       0.36496350       0.36496350       0.00000000 </v>
    </varray>
   </crystal>
   <varray name="positions" >
    <v>       0.00000000       0.00000000       0.00000000 </v>
   </varray>
  </structure>
  <varray name="forces" >
   <v>      -0.00000000      -0.00000000      -0.00000000 </v>
  </varray>
  <varray name="stress" >
   <v>      20.21238831      -0.00000000       0.00000000 </v>
   <v>       0.00000000      20.21238831      -0.00000000 </v>
   <v>       0.00000000      -0.00000000      20.21238831 </v>
  </varray>
  <energy>
   <i name="e_fr_energy">     -9.22545781 </i>
   <i name="e_wo_entrp">     -9.22545781 </i>
   <i name="e_0_energy">      0.00000000 </i>
  </energy>
  <time name="totalsc">   49.39   49.42</time>
  <eigenvalues>
   <array>
    <dimension dim="1">band</dimension>
    <dimension dim="2">kpoint</dimension>
    <dimension dim="3">spin</dimension>
    <field>eigene</field>
    <field>occ</field>
    <set>
     <set comment="spin 1">
      <set comment="kpoint 1">
       <r>   -1.3026    1.0000 </r>
       <r>    4.0630    1.0000 </r>
       <r>    4.0630    1.0000 </r>
       <r>    5.0195    1.0000 </r>
       <r>    5.8047    1.0000 </r>
       <r>    5.8047    1.0028 </r>
       <r>   29.1955    0.0000 </r>
       <r>   29.1955    0.0000 </r>
       <r>   33.5720    0.0000 </r>
       <r>   34.1649    0.0000 </r>
       <r>   39.5221    0.0000 </r>
       <r>   39.5221    0.0000 </r>
      </set>
      <set comment="kpoint 2">
       <r>    0.3909    1.0000 </r>
       <r>    3.5710    1.0000 </r>
       <r>    3.8207    1.0000 </r>
       <r>    5.7203    1.0000 </r>
       <r>    5.9581    1.0019 </r>
       <r>    6.2217    0.8524 </r>
       <r>   23.8071    0.0000 </r>
       <r>   26.8292    0.0000 </r>
       <r>   29.9589    0.0000 </r>
       <r>   34.1423    0.0000 </r>
       <r>   39.1867    0.0000 </r>
       <r>   40.1200    0.0000 </r>
      </set>
      <set comment="kpoint 3">
       <r>    1.5221    1.0000 </r>
       <r>    3.1523    1.0000 </r>
       <r>    4.6816    1.0000 </r>
       <r>    5.8843    1.0000 </r>
       <r>    6.0827    1.0327 </r>
       <r>    7.8277   -0.0123 </r>
       <r>   18.2471    0.0000 </r>
       <r>   25.0129    0.0000 </r>
       <r>   27.3760    0.0000 </r>
       <r>   33.8196    0.0000 </r>
       <r>   38.4905    0.0000 </r>
       <r>   43.5288    0.0000 </r>
      </set>
      <set comment="kpoint 4">
       <r>    1.5462    1.0000 </r>
       <r>    2.9923    1.0000 </r>
       <r>    5.8035    1.0000 </r>
       <r>    5.9654    1.0000 </r>
       <r>    6.1347    1.0613 </r>
       <r>    9.1890   -0.0043 </r>
       <r>   15.1377    0.0000 </r>
       <r>   24.3319    0.0000 </r>
       <r>   26.4060    0.0000 </r>
       <r>   33.6445    0.0000 </r>
       <r>   38.4344    0.0000 </r>
       <r>   43.2299    0.0000 </r>
      </set>
      <set comment="kpoint 5">
       <r>   -1.9683    1.0000 </r>
       <r>    4.3085    1.0000 </r>
       <r>    4.3085    1.0000 </r>
       <r>    4.4145    1.0000 </r>
       <r>    5.7126    1.0000 </r>
       <r>    5.9590    1.0000 </r>
       <r>   30.9545    0.0000 </r>
       <r>   32.3934    0.0000 </r>
       <r>   32.3934    0.0000 </r>
       <r>   36.2839    0.0000 </r>
       <r>   38.9097    0.0000 </r>
       <r>   38.9097    0.0000 </r>
      </set>
      <set comment="kpoint 6">
       <r>    1.9428    1.0000 </r>
       <r>    3.2370    1.0000 </r>
       <r>    3.4709    1.0000 </r>
       <r>    5.8172    1.0000 </r>
       <r>    6.1167    1.0015 </r>
       <r>    8.0755   -0.0306 </r>
       <r>   21.1558    0.0000 </r>
       <r>   22.1389    0.0000 </r>
       <r>   26.3410    0.0000 </r>
       <r>   36.2044    0.0000 </r>
       <r>   40.4431    0.0000 </r>
       <r>   43.0058    0.0000 </r>
      </set>
      <set comment="kpoint 7">
       <r>    2.2656    1.0000 </r>
       <r>    3.0371    1.0000 </r>
       <r>    4.2014    1.0000 </r>
       <r>    5.9857    1.0000 </r>
       <r>    6.2233    1.0109 </r>
       <r>   10.6725   -0.0026 </r>
       <r>   16.4688    0.0000 </r>
       <r>   20.4342    0.0000 </r>
       <r>   24.9098    0.0000 </r>
       <r>   36.7161    0.0000 </r>
       <r>   41.3452    0.0000 </r>
       <r>   43.7917    0.0000 </r>
      </set>
      <set comment="kpoint 8">
       <r>   -0.6869    1.0000 </r>
       <r>    3.9851    1.0000 </r>
       <r>    4.2160    1.0000 </r>
       <r>    5.1443    1.0000 </r>
       <r>    5.4091    1.0000 </r>
       <r>    6.0803    1.0063 </r>
       <r>   26.6974    0.0000 </r>
       <r>   30.0555    0.0000 </r>
       <r>   31.2229    0.0000 </r>
       <r>   35.6383    0.0000 </r>
       <r>   35.9549    0.0000 </r>
       <r>   37.5463    0.0000 </r>
      </set>
      <set comment="kpoint 9">
       <r>    2.6190    1.0000 </r>
       <r>    3.4624    1.0000 </r>
       <r>    3.4624    1.0000 </r>
       <r>    6.1534    1.0000 </r>
       <r>    6.1534    1.0060 </r>
       <r>   14.3775    0.0000 </r>
       <r>   14.3775    0.0000 </r>
       <r>   17.2868    0.0000 </r>
       <r>   24.4091    0.0000 </r>
       <r>   39.2707    0.0000 </r>
       <r>   39.2707    0.0000 </r>
       <r>   47.3387    0.0000 </r>
      </set>
      <set comment="kpoint 10">
       <r>    1.0055    1.0000 </r>
       <r>    3.5086    1.0000 </r>
       <r>    4.2740    1.0000 </r>
       <r>    5.6305    1.0000 </r>
       <r>    6.2833    1.0121 </r>
       <r>    6.3495    0.6558 </r>
       <r>   20.8811    0.0000 </r>
       <r>   27.4955    0.0000 </r>
       <r>   29.2520    0.0000 </r>
       <r>   33.8425    0.0000 </r>
       <r>   35.9867    0.0000 </r>
       <r>   38.8659    0.0000 </r>
      </set>
      <set comment="kpoint 11">
       <r>    0.8451    1.0000 </r>
       <r>    3.7333    1.0000 </r>
       <r>    3.9645    1.0000 </r>
       <r>    5.2391    1.0000 </r>
       <r>    6.0468    1.0044 </r>
       <r>    6.4913    0.6831 </r>
       <r>   23.8355    0.0000 </r>
       <r>   25.0359    0.0000 </r>
       <r>   31.5430    0.0000 </r>
       <r>   32.1852    0.0000 </r>
       <r>   36.0616    0.0000 </r>
       <r>   40.9050    0.0000 </r>
      </set>
      <set comment="kpoint 12">
       <r>    1.4155    1.0000 </r>
       <r>    3.1875    1.0000 </r>
       <r>    5.2124    1.0000 </r>
       <r>    5.8486    1.0000 </r>
       <r>    7.3271    0.2279 </r>
       <r>    7.5457    0.0033 </r>
       <r>   16.0435    0.0000 </r>
       <r>   26.0066    0.0000 </r>
       <r>   27.5432    0.0000 </r>
       <r>   33.0961    0.0000 </r>
       <r>   36.4008    0.0000 </r>
       <r>   40.3876    0.0000 </r>
      </set>
      <set comment="kpoint 13">
       <r>    1.9100    1.0000 </r>
       <r>    3.3665    1.0000 </r>
       <r>    4.0431    1.0000 </r>
       <r>    5.5927    1.0000 </r>
       <r>    6.5273    0.9932 </r>
       <r>    8.3556   -0.0385 </r>
       <r>   18.6163    0.0000 </r>
       <r>   22.6322    0.0000 </r>
       <r>   29.4246    0.0000 </r>
       <r>   32.7945    0.0000 </r>
       <r>   36.6093    0.0000 </r>
       <r>   41.5802    0.0000 </r>
      </set>
      <set comment="kpoint 14">
       <r>    1.9176    1.0000 </r>
       <r>    3.3482    1.0000 </r>
       <r>    4.2568    1.0000 </r>
       <r>    5.7280    1.0000 </r>
       <r>    6.9155    0.6101 </r>
       <r>   10.3818   -0.0015 </r>
       <r>   15.2056    0.0000 </r>
       <r>   21.8823    0.0000 </r>
       <r>   28.4993    0.0000 </r>
       <r>   33.2456    0.0000 </r>
       <r>   37.3810    0.0000 </r>
       <r>   40.8941    0.0000 </r>
      </set>
      <set comment="kpoint 15">
       <r>    2.7145    1.0000 </r>
       <r>    3.0192    1.0000 </r>
       <r>    3.6488    1.0000 </r>
       <r>    5.9445    1.0000 </r>
       <r>    6.4867    1.0520 </r>
       <r>   11.8123   -0.0003 </r>
       <r>   16.4733    0.0000 </r>
       <r>   18.0804    0.0000 </r>
       <r>   30.0043    0.0000 </r>
       <r>   33.0010    0.0000 </r>
       <r>   35.3694    0.0000 </r>
       <r>   43.6472    0.0000 </r>
      </set>
      <set comment="kpoint 16">
       <r>    3.0170    1.0000 </r>
       <r>    3.0170    1.0000 </r>
       <r>    3.2280    1.0000 </r>
       <r>    6.0989    1.0000 </r>
       <r>    6.0989    1.0000 </r>
       <r>   10.7118   -0.0035 </r>
       <r>   19.4229    0.0000 </r>
       <r>   19.4229    0.0000 </r>
       <r>   21.2142    0.0000 </r>
       <r>   41.0474    0.0000 </r>
       <r>   44.1982    0.0000 </r>
       <r>   44.1982    0.0000 </r>
      </set>
      <set comment="kpoint 17">
       <r>    2.8865    1.0000 </r>
       <r>    2.9696    1.0000 </r>
       <r>    3.7329    1.0000 </r>
       <r>    6.1393    1.0000 </r>
       <r>    6.1661    1.0000 </r>
       <r>   13.6112    0.0000 </r>
       <r>   15.6996    0.0000 </r>
       <r>   18.8238    0.0000 </r>
       <r>   20.1694    0.0000 </r>
       <r>   42.2828    0.0000 </r>
       <r>   45.9472    0.0000 </r>
       <r>   46.6589    0.0000 </r>
      </set>
      <set comment="kpoint 18">
       <r>    0.4250    1.0000 </r>
       <r>    4.4540    1.0000 </r>
       <r>    4.4786    1.0000 </r>
       <r>    4.4786    1.0000 </r>
       <r>    5.1589    1.0000 </r>
       <r>    6.5089    0.8212 </r>
       <r>   26.6355    0.0000 </r>
       <r>   28.1323    0.0000 </r>
       <r>   28.1323    0.0000 </r>
       <r>   30.1158    0.0000 </r>
       <r>   39.9797    0.0000 </r>
       <r>   39.9797    0.0000 </r>
      </set>
      <set comment="kpoint 19">
       <r>    1.7819    1.0000 </r>
       <r>    3.5196    1.0000 </r>
       <r>    4.3097    1.0000 </r>
       <r>    5.1142    1.0000 </r>
       <r>    6.2079    1.0452 </r>
       <r>    7.4237    0.0431 </r>
       <r>   21.7575    0.0000 </r>
       <r>   25.4150    0.0000 </r>
       <r>   26.3475    0.0000 </r>
       <r>   30.6808    0.0000 </r>
       <r>   39.0418    0.0000 </r>
       <r>   40.9620    0.0000 </r>
      </set>
      <set comment="kpoint 20">
       <r>    2.0371    1.0000 </r>
       <r>    3.4369    1.0000 </r>
       <r>    4.0724    1.0000 </r>
       <r>    5.3896    1.0000 </r>
       <r>    7.2286    0.0904 </r>
       <r>    9.9799   -0.0092 </r>
       <r>   16.5128    0.0000 </r>
       <r>   23.6674    0.0000 </r>
       <r>   25.4595    0.0000 </r>
       <r>   33.1650    0.0000 </r>
       <r>   38.0607    0.0000 </r>
       <r>   39.0042    0.0000 </r>
      </set>
      <set comment="kpoint 21">
       <r>    2.4229    1.0000 </r>
       <r>    2.7741    1.0000 </r>
       <r>    4.4065    1.0000 </r>
       <r>    5.5798    1.0001 </r>
       <r>    6.7227    0.8248 </r>
       <r>    9.9226   -0.0115 </r>
       <r>   19.4655    0.0000 </r>
       <r>   20.2035    0.0000 </r>
       <r>   27.8600    0.0000 </r>
       <r>   29.6138    0.0000 </r>
       <r>   37.7749    0.0000 </r>
       <r>   41.2230    0.0000 </r>
      </set>
      <set comment="kpoint 22">
       <r>    2.3469    1.0000 </r>
       <r>    2.7916    1.0000 </r>
       <r>    4.1721    1.0000 </r>
       <r>    5.9552    1.0004 </r>
       <r>    6.9958    0.2057 </r>
       <r>   13.0376    0.0000 </r>
       <r>   15.5747    0.0000 </r>
       <r>   19.1097    0.0000 </r>
       <r>   27.8966    0.0000 </r>
       <r>   31.1192    0.0000 </r>
       <r>   35.4239    0.0000 </r>
       <r>   40.1385    0.0000 </r>
      </set>
      <set comment="kpoint 23">
       <r>    2.1823    1.0000 </r>
       <r>    2.7218    1.0000 </r>
       <r>    5.3902    1.0000 </r>
       <r>    5.3902    1.0004 </r>
       <r>    6.2511    1.1547 </r>
       <r>    9.2461   -0.0162 </r>
       <r>   22.2543    0.0000 </r>
       <r>   22.2543    0.0000 </r>
       <r>   24.4280    0.0000 </r>
       <r>   26.8230    0.0000 </r>
       <r>   39.6153    0.0000 </r>
       <r>   44.0407    0.0000 </r>
      </set>
      <set comment="kpoint 24">
       <r>    2.0342    1.0000 </r>
       <r>    2.1895    1.0000 </r>
       <r>    5.5571    1.0000 </r>
       <r>    5.8957    1.0195 </r>
       <r>    7.0930    0.0602 </r>
       <r>   12.5086    0.0000 </r>
       <r>   17.6121    0.0000 </r>
       <r>   20.2527    0.0000 </r>
       <r>   24.7044    0.0000 </r>
       <r>   27.7187    0.0000 </r>
       <r>   34.9300    0.0000 </r>
       <r>   43.5146    0.0000 </r>
      </set>
      <set comment="kpoint 25">
       <r>    1.8666    1.0000 </r>
       <r>    1.8666    1.0000 </r>
       <r>    5.6822    1.0000 </r>
       <r>    6.9006    0.8655 </r>
       <r>    6.9006    0.0804 </r>
       <r>   16.0641    0.0000 </r>
       <r>   16.0641    0.0000 </r>
       <r>   17.3619    0.0000 </r>
       <r>   26.1733    0.0000 </r>
       <r>   26.1733    0.0000 </r>
       <r>   32.4866    0.0000 </r>
       <r>   44.1287    0.0000 </r>
      </set>
      <set comment="kpoint 26">
       <r>    1.5541    1.0000 </r>
       <r>    1.5592    1.0000 </r>
       <r>    6.8499    1.0000 </r>
       <r>    6.8499    0.9422 </r>
       <r>    7.0517    0.0157 </r>
       <r>   15.3796    0.0000 </r>
       <r>   18.0020    0.0000 </r>
       <r>   18.0020    0.0000 </r>
       <r>   23.6390    0.0000 </r>
       <r>   24.8608    0.0000 </r>
       <r>   30.9291    0.0000 </r>
       <r>   47.1997    0.0000 </r>
      </set>
     </set>
     <set comment="spin 2">
      <set comment="kpoint 1">
       <r>   -0.9318    1.0000 </r>
       <r>    5.6268    1.0000 </r>
       <r>    5.6268    1.0000 </r>
       <r>    6.6592    0.7547 </r>
       <r>    7.8877   -0.0001 </r>
       <r>    7.8877    0.0000 </r>
       <r>   29.6693    0.0000 </r>
       <r>   29.6693    0.0000 </r>
       <r>   33.7286    0.0000 </r>
       <r>   34.9507    0.0000 </r>
       <r>   39.9705    0.0000 </r>
       <r>   39.9705    0.0000 </r>
      </set>
      <set comment="kpoint 2">
       <r>    0.8375    1.0000 </r>
       <r>    5.0708    1.0000 </r>
       <r>    5.2861    1.0000 </r>
       <r>    7.7412   -0.0700 </r>
       <r>    7.9017   -0.0000 </r>
       <r>    8.0705    0.0000 </r>
       <r>   24.5437    0.0000 </r>
       <r>   27.3660    0.0000 </r>
       <r>   30.6775    0.0000 </r>
       <r>   34.4492    0.0000 </r>
       <r>   39.8574    0.0000 </r>
       <r>   40.5573    0.0000 </r>
      </set>
      <set comment="kpoint 3">
       <r>    2.4308    1.0000 </r>
       <r>    4.5977    1.0000 </r>
       <r>    5.7049    1.0000 </r>
       <r>    7.8838   -0.0005 </r>
       <r>    8.2299    0.0000 </r>
       <r>    9.4326    0.0000 </r>
       <r>   19.2092    0.0000 </r>
       <r>   25.5186    0.0000 </r>
       <r>   28.0323    0.0000 </r>
       <r>   34.3096    0.0000 </r>
       <r>   39.1636    0.0000 </r>
       <r>   43.9243    0.0000 </r>
      </set>
      <set comment="kpoint 4">
       <r>    2.6791    1.0000 </r>
       <r>    4.4176    1.0000 </r>
       <r>    6.7369    1.0000 </r>
       <r>    7.9727    0.0000 </r>
       <r>    8.2988    0.0000 </r>
       <r>   10.4803    0.0000 </r>
       <r>   16.3368    0.0000 </r>
       <r>   24.8136    0.0000 </r>
       <r>   27.0245    0.0000 </r>
       <r>   34.1923    0.0000 </r>
       <r>   39.1329    0.0000 </r>
       <r>   43.5413    0.0000 </r>
      </set>
      <set comment="kpoint 5">
       <r>   -1.6052    1.0000 </r>
       <r>    5.9009    1.0000 </r>
       <r>    5.9009    1.0000 </r>
       <r>    6.0230    1.0381 </r>
       <r>    7.7853   -0.0002 </r>
       <r>    8.0771    0.0000 </r>
       <r>   31.2526    0.0000 </r>
       <r>   32.6513    0.0000 </r>
       <r>   32.6513    0.0000 </r>
       <r>   36.7944    0.0000 </r>
       <r>   39.6612    0.0000 </r>
       <r>   39.6612    0.0000 </r>
      </set>
      <set comment="kpoint 6">
       <r>    2.6252    1.0000 </r>
       <r>    4.6543    1.0000 </r>
       <r>    4.8113    1.0000 </r>
       <r>    7.8440   -0.0009 </r>
       <r>    8.2379    0.0000 </r>
       <r>    9.6679    0.0000 </r>
       <r>   21.9806    0.0000 </r>
       <r>   22.8455    0.0000 </r>
       <r>   26.9823    0.0000 </r>
       <r>   36.5015    0.0000 </r>
       <r>   40.9411    0.0000 </r>
       <r>   43.5099    0.0000 </r>
      </set>
      <set comment="kpoint 7">
       <r>    3.4181    1.0000 </r>
       <r>    4.4085    1.0000 </r>
       <r>    5.3209    1.0000 </r>
       <r>    8.0185    0.0000 </r>
       <r>    8.3302    0.0000 </r>
       <r>   11.9470    0.0000 </r>
       <r>   17.4775    0.0000 </r>
       <r>   21.1635    0.0000 </r>
       <r>   25.5275    0.0000 </r>
       <r>   37.1058    0.0000 </r>
       <r>   41.7316    0.0000 </r>
       <r>   44.3739    0.0000 </r>
      </set>
      <set comment="kpoint 8">
       <r>   -0.2992    1.0000 </r>
       <r>    5.5349    1.0000 </r>
       <r>    5.7677    1.0000 </r>
       <r>    6.8008    0.5411 </r>
       <r>    7.3949   -0.0000 </r>
       <r>    8.2070    0.0000 </r>
       <r>   27.3225    0.0000 </r>
       <r>   30.4507    0.0000 </r>
       <r>   31.7669    0.0000 </r>
       <r>   36.1511    0.0000 </r>
       <r>   36.6040    0.0000 </r>
       <r>   38.0923    0.0000 </r>
      </set>
      <set comment="kpoint 9">
       <r>    3.9122    1.0000 </r>
       <r>    4.7005    1.0000 </r>
       <r>    4.7005    1.0000 </r>
       <r>    8.2170    0.0000 </r>
       <r>    8.2170    0.0000 </r>
       <r>   15.4227    0.0000 </r>
       <r>   15.4227    0.0000 </r>
       <r>   18.1294    0.0000 </r>
       <r>   25.0489    0.0000 </r>
       <r>   39.6254    0.0000 </r>
       <r>   39.6254    0.0000 </r>
       <r>   48.0255    0.0000 </r>
      </set>
      <set comment="kpoint 10">
       <r>    1.6367    1.0000 </r>
       <r>    5.0012    1.0000 </r>
       <r>    5.5787    1.0000 </r>
       <r>    7.5281   -0.0356 </r>
       <r>    8.1010   -0.0001 </r>
       <r>    8.3659    0.0000 </r>
       <r>   21.7467    0.0000 </r>
       <r>   27.8791    0.0000 </r>
       <r>   29.9378    0.0000 </r>
       <r>   34.4659    0.0000 </r>
       <r>   36.6128    0.0000 </r>
       <r>   39.3391    0.0000 </r>
      </set>
      <set comment="kpoint 11">
       <r>    1.3423    1.0000 </r>
       <r>    5.2707    1.0000 </r>
       <r>    5.4419    1.0001 </r>
       <r>    7.1193    0.0221 </r>
       <r>    7.7993   -0.0002 </r>
       <r>    8.5145    0.0000 </r>
       <r>   24.6100    0.0000 </r>
       <r>   25.6870    0.0000 </r>
       <r>   32.0416    0.0000 </r>
       <r>   32.7467    0.0000 </r>
       <r>   36.6201    0.0000 </r>
       <r>   41.3990    0.0000 </r>
      </set>
      <set comment="kpoint 12">
       <r>    2.5001    1.0000 </r>
       <r>    4.6442    1.0000 </r>
       <r>    6.4794    1.0000 </r>
       <r>    7.7861   -0.0011 </r>
       <r>    8.9530    0.0000 </r>
       <r>    9.1731    0.0000 </r>
       <r>   17.1693    0.0000 </r>
       <r>   26.3575    0.0000 </r>
       <r>   28.1839    0.0000 </r>
       <r>   33.7730    0.0000 </r>
       <r>   37.1028    0.0000 </r>
       <r>   40.7787    0.0000 </r>
      </set>
      <set comment="kpoint 13">
       <r>    2.8638    1.0000 </r>
       <r>    4.8111    1.0000 </r>
       <r>    5.3673    1.0003 </r>
       <r>    7.4533   -0.0118 </r>
       <r>    8.4655   -0.0000 </r>
       <r>    9.8988    0.0000 </r>
       <r>   19.5558    0.0000 </r>
       <r>   23.3321    0.0000 </r>
       <r>   29.9171    0.0000 </r>
       <r>   33.3802    0.0000 </r>
       <r>   37.1367    0.0000 </r>
       <r>   42.1625    0.0000 </r>
      </set>
      <set comment="kpoint 14">
       <r>    3.1145    1.0000 </r>
       <r>    4.7937    1.0000 </r>
       <r>    5.5711    1.0004 </r>
       <r>    7.6268   -0.0004 </r>
       <r>    8.7769    0.0000 </r>
       <r>   11.5587    0.0000 </r>
       <r>   16.3634    0.0000 </r>
       <r>   22.5700    0.0000 </r>
       <r>   28.9666    0.0000 </r>
       <r>   33.9034    0.0000 </r>
       <r>   37.7871    0.0000 </r>
       <r>   41.5341    0.0000 </r>
      </set>
[...]
       </set>
       <set comment="band 5">
        <r>  0.0082  0.0020  0.0020  0.0157  0.0959  0.3402  0.1062  0.0959  0.3187 </r>
       </set>
       <set comment="band 6">
        <r>  0.0627  0.0515  0.0515  0.2516  0.0898  0.1423  0.0489  0.0898  0.1466 </r>
       </set>
       <set comment="band 7">
        <r>  0.0000  0.2193  0.2193  0.0000  0.1456  0.0000  0.1539  0.1456  0.0513 </r>
       </set>
       <set comment="band 8">
        <r>  0.4708  0.0443  0.0443  0.0281  0.0898  0.0970  0.0015  0.0898  0.0044 </r>
       </set>
       <set comment="band 9">
        <r>  0.0277  0.1907  0.1907  0.0881  0.0604  0.0978  0.0007  0.0604  0.0022 </r>
       </set>
       <set comment="band 10">
        <r>  0.0000  0.0446  0.0446  0.0000  0.0655  0.0000  0.3548  0.0655  0.1183 </r>
       </set>
       <set comment="band 11">
        <r>  0.0252  0.0080  0.0080  0.0321  0.0250  0.1757  0.1104  0.0250  0.3313 </r>
       </set>
       <set comment="band 12">
        <r>  0.1070  0.0352  0.0352  0.1758  0.2678  0.3103  0.0232  0.2678  0.0697 </r>
       </set>
      </set>
      <set comment="kpoint 16">
       <set comment="band 1">
        <r>  0.1595  0.0967  0.0967  0.0967  0.1466  0.1466  0.0000  0.1466  0.0000 </r>
       </set>
       <set comment="band 2">
        <r>  0.0000  0.0174  0.0587  0.0122  0.5432  0.1132  0.0496  0.1610  0.0002 </r>
       </set>
       <set comment="band 3">
        <r>  0.0000  0.0415  0.0002  0.0466  0.0018  0.4317  0.0002  0.3839  0.0496 </r>
       </set>
       <set comment="band 4">
        <r>  0.0000  0.0001  0.0000  0.0000  0.0065  0.0150  0.1473  0.0400  0.7790 </r>
       </set>
       <set comment="band 5">
        <r>  0.0000  0.0000  0.0001  0.0001  0.0345  0.0260  0.7790  0.0010  0.1473 </r>
       </set>
       <set comment="band 6">
        <r>  0.0795  0.0717  0.0717  0.0717  0.2152  0.2152  0.0000  0.2152  0.0000 </r>
       </set>
       <set comment="band 7">
        <r>  0.0000  0.0379  0.0900  0.2328  0.1149  0.2972  0.0171  0.0483  0.0285 </r>
       </set>
       <set comment="band 8">
        <r>  0.0000  0.2026  0.1504  0.0077  0.1920  0.0098  0.0285  0.2586  0.0171 </r>
       </set>
       <set comment="band 9">
        <r>  0.5805  0.0830  0.0830  0.0830  0.0018  0.0018  0.0000  0.0018  0.0000 </r>
       </set>
       <set comment="band 10">
        <r>  0.0000  0.0000  0.0000  0.0000  0.0000  0.0000  0.0000  0.0000  0.0000 </r>
       </set>
       <set comment="band 11">
        <r>  0.0000  0.0002  0.0035  0.0046  0.2829  0.3678  0.0515  0.0130  0.0290 </r>
       </set>
       <set comment="band 12">
        <r>  0.0000  0.0054  0.0020  0.0009  0.1596  0.0747  0.0290  0.4295  0.0515 </r>
       </set>
      </set>
      <set comment="kpoint 17">
       <set comment="band 1">
        <r>  0.0347  0.0000  0.0000  0.1439  0.0000  0.7023  0.0139  0.0000  0.0418 </r>
       </set>
       <set comment="band 2">
        <r>  0.0000  0.0498  0.0498  0.0000  0.4289  0.0000  0.0000  0.4289  0.0000 </r>
       </set>
       <set comment="band 3">
        <r>  0.0000  0.1311  0.1311  0.0000  0.3308  0.0000  0.0000  0.3308  0.0000 </r>
       </set>
       <set comment="band 4">
        <r>  0.0005  0.0000  0.0000  0.0005  0.0000  0.0712  0.2294  0.0000  0.6882 </r>
       </set>
       <set comment="band 5">
        <r>  0.0000  0.0000  0.0000  0.0000  0.0000  0.0000  0.7433  0.0000  0.2478 </r>
       </set>
       <set comment="band 6">
        <r>  0.0000  0.2012  0.2012  0.0000  0.2472  0.0000  0.0000  0.2472  0.0000 </r>
       </set>
       <set comment="band 7">
        <r>  0.2315  0.0000  0.0000  0.2125  0.0000  0.4360  0.0075  0.0000  0.0226 </r>
       </set>
       <set comment="band 8">
        <r>  0.0000  0.1850  0.1850  0.0000  0.2450  0.0000  0.0000  0.2450  0.0000 </r>
       </set>
       <set comment="band 9">
        <r>  0.5605  0.0000  0.0000  0.2167  0.0000  0.0485  0.0020  0.0000  0.0061 </r>
       </set>
       <set comment="band 10">
        <r>  0.0000  0.0003  0.0003  0.0000  0.1474  0.0000  0.0000  0.1474  0.0000 </r>
       </set>
       <set comment="band 11">
        <r>  0.0000  0.0278  0.0278  0.0000  0.0757  0.0000  0.0000  0.0757  0.0000 </r>
       </set>
       <set comment="band 12">
        <r>  0.0135  0.0000  0.0000  0.1021  0.0000  0.1636  0.1231  0.0000  0.3693 </r>
       </set>
      </set>
      <set comment="kpoint 18">
       <set comment="band 1">
        <r>  0.5714  0.0000  0.0000  0.2045  0.0000  0.0000  0.0143  0.0000  0.0430 </r>
       </set>
       <set comment="band 2">
        <r>  0.0000  0.0140  0.0140  0.0000  0.4757  0.0000  0.0000  0.4757  0.0000 </r>
       </set>
       <set comment="band 3">
        <r>  0.0000  0.0140  0.0140  0.0000  0.4757  0.0000  0.0000  0.4757  0.0000 </r>
       </set>
       <set comment="band 4">
        <r>  0.0000  0.0000  0.0000  0.0000  0.0000  0.0000  0.6908  0.0000  0.2303 </r>
       </set>
       <set comment="band 5">
        <r>  0.0000  0.0000  0.0000  0.0000  0.0000  0.9847  0.0000  0.0000  0.0000 </r>
       </set>
       <set comment="band 6">
        <r>  0.0362  0.0000  0.0000  0.0106  0.0000  0.0000  0.2350  0.0000  0.7050 </r>
       </set>
       <set comment="band 7">
        <r>  0.0000  0.0000  0.0000  0.0000  0.0000  0.0000  0.5280  0.0000  0.1760 </r>
       </set>
       <set comment="band 8">
        <r>  0.0000  0.1758  0.1760  0.0000  0.3357  0.0000  0.0000  0.3360  0.0000 </r>
       </set>
       <set comment="band 9">
        <r>  0.0000  0.1760  0.1758  0.0000  0.3360  0.0000  0.0000  0.3357  0.0000 </r>
       </set>
       <set comment="band 10">
        <r>  0.1561  0.0000  0.0000  0.2807  0.0000  0.0000  0.0000  0.0000  0.0001 </r>
       </set>
       <set comment="band 11">
        <r>  0.0000  0.1543  0.1776  0.0000  0.0026  0.0000  0.0000  0.0030  0.0000 </r>
       </set>
       <set comment="band 12">
        <r>  0.0000  0.1776  0.1543  0.0000  0.0030  0.0000  0.0000  0.0026  0.0000 </r>
       </set>
      </set>
      <set comment="kpoint 19">
       <set comment="band 1">
        <r>  0.3334  0.0069  0.0000  0.2412  0.0647  0.0000  0.0893  0.0000  0.1167 </r>
       </set>
       <set comment="band 2">
        <r>  0.0035  0.0310  0.0000  0.0152  0.1640  0.0000  0.4381  0.0000  0.2575 </r>
       </set>
       <set comment="band 3">
        <r>  0.0000  0.0000  0.0277  0.0000  0.0000  0.2850  0.0000  0.6625  0.0000 </r>
       </set>
       <set comment="band 4">
        <r>  0.0000  0.0298  0.0000  0.0102  0.6783  0.0000  0.2403  0.0000  0.0050 </r>
       </set>
       <set comment="band 5">
        <r>  0.0000  0.0000  0.0107  0.0000  0.0000  0.6970  0.0000  0.2735  0.0000 </r>
       </set>
       <set comment="band 6">
        <r>  0.1112  0.0109  0.0000  0.0722  0.0112  0.0000  0.1620  0.0000  0.6063 </r>
       </set>
       <set comment="band 7">
        <r>  0.0908  0.2801  0.0000  0.0349  0.3188  0.0000  0.1459  0.0000  0.0613 </r>
       </set>
       <set comment="band 8">
        <r>  0.0000  0.0000  0.5065  0.0000  0.0000  0.0122  0.0000  0.4897  0.0000 </r>
       </set>
       <set comment="band 9">
        <r>  0.0916  0.0016  0.0000  0.0766  0.0366  0.0000  0.4124  0.0000  0.0561 </r>
       </set>
       <set comment="band 10">
        <r>  0.0596  0.2052  0.0000  0.0657  0.1453  0.0000  0.0435  0.0000  0.1486 </r>
       </set>
       <set comment="band 11">
        <r>  0.0000  0.0000  0.1743  0.0000  0.0000  0.6977  0.0000  0.1572  0.0000 </r>
       </set>
       <set comment="band 12">
        <r>  0.0672  0.1813  0.0000  0.0114  0.1033  0.0000  0.2176  0.0000  0.1036 </r>
       </set>
      </set>
      <set comment="kpoint 20">
       <set comment="band 1">
        <r>  0.1145  0.0021  0.0000  0.0798  0.2698  0.0000  0.4092  0.0000  0.0233 </r>
       </set>
       <set comment="band 2">
        <r>  0.0076  0.0948  0.0000  0.1065  0.0140  0.0000  0.0763  0.0000  0.5850 </r>
       </set>
       <set comment="band 3">
        <r>  0.0000  0.0000  0.0271  0.0000  0.0000  0.4237  0.0000  0.5229  0.0000 </r>
       </set>
       <set comment="band 4">
        <r>  0.0243  0.0137  0.0000  0.0004  0.5268  0.0000  0.3899  0.0000  0.0060 </r>
       </set>
       <set comment="band 5">
        <r>  0.0000  0.0000  0.0031  0.0000  0.0000  0.5560  0.0000  0.4311  0.0000 </r>
       </set>
       <set comment="band 6">
        <r>  0.0779  0.1268  0.0000  0.2621  0.0376  0.0000  0.0309  0.0000  0.3966 </r>
       </set>
       <set comment="band 7">
        <r>  0.2776  0.2067  0.0000  0.0019  0.3245  0.0000  0.1111  0.0000  0.0290 </r>
       </set>
       <set comment="band 8">
        <r>  0.0000  0.0000  0.6136  0.0000  0.0000  0.0760  0.0000  0.2496  0.0000 </r>
       </set>
       <set comment="band 9">
        <r>  0.1034  0.0230  0.0000  0.0542  0.0109  0.0000  0.4523  0.0000  0.0063 </r>
       </set>
       <set comment="band 10">
        <r>  0.0100  0.1507  0.0000  0.0002  0.0314  0.0000  0.0363  0.0000  0.4533 </r>
       </set>
       <set comment="band 11">
        <r>  0.0000  0.0000  0.1456  0.0000  0.0000  0.6055  0.0000  0.3910  0.0000 </r>
       </set>
       <set comment="band 12">
        <r>  0.0035  0.1484  0.0000  0.2115  0.0046  0.0000  0.4399  0.0000  0.1118 </r>
       </set>
      </set>
      <set comment="kpoint 21">
       <set comment="band 1">
        <r>  0.1218  0.0050  0.0050  0.1938  0.0493  0.0004  0.1131  0.0493  0.3392 </r>
       </set>
       <set comment="band 2">
        <r>  0.0000  0.0216  0.0216  0.0000  0.0571  0.0000  0.5581  0.0571  0.1860 </r>
       </set>
       <set comment="band 3">
        <r>  0.0076  0.0178  0.0178  0.0094  0.2532  0.3273  0.0189  0.2532  0.0568 </r>
       </set>
       <set comment="band 4">
        <r>  0.0000  0.0197  0.0197  0.0000  0.3928  0.0000  0.1083  0.3928  0.0361 </r>
       </set>
       <set comment="band 5">
        <r>  0.0146  0.0004  0.0004  0.0080  0.1182  0.6122  0.0276  0.1182  0.0828 </r>
       </set>
       <set comment="band 6">
        <r>  0.1473  0.0226  0.0226  0.2347  0.0444  0.0395  0.0970  0.0444  0.2909 </r>
       </set>
       <set comment="band 7">
        <r>  0.0000  0.2263  0.2263  0.0000  0.1250  0.0000  0.1939  0.1250  0.0646 </r>
       </set>
       <set comment="band 8">
        <r>  0.2408  0.1557  0.1557  0.0317  0.1239  0.0311  0.0042  0.1239  0.0125 </r>
       </set>
       <set comment="band 9">
        <r>  0.0000  0.0642  0.0642  0.0000  0.0578  0.0000  0.4672  0.0578  0.1557 </r>
       </set>
       <set comment="band 10">
        <r>  0.0809  0.1199  0.1199  0.0308  0.0127  0.0024  0.0620  0.0127  0.1861 </r>
       </set>
       <set comment="band 11">
        <r>  0.0016  0.0699  0.0699  0.1230  0.0630  0.2869  0.0661  0.0630  0.1982 </r>
       </set>
       <set comment="band 12">
        <r>  0.1618  0.0002  0.0002  0.1856  0.1328  0.2761  0.0475  0.1328  0.1425 </r>
       </set>
      </set>
      <set comment="kpoint 22">
       <set comment="band 1">
        <r>  0.0263  0.0253  0.0233  0.0253  0.1443  0.0001  0.6539  0.0001  0.0000 </r>
       </set>
       <set comment="band 2">
        <r>  0.0000  0.0763  0.0000  0.0763  0.0000  0.0162  0.0000  0.0162  0.7040 </r>
       </set>
       <set comment="band 3">
        <r>  0.0355  0.0014  0.0234  0.0014  0.1679  0.3461  0.0381  0.3461  0.0000 </r>
       </set>
       <set comment="band 4">
        <r>  0.0114  0.0084  0.0154  0.0084  0.5272  0.1119  0.1760  0.1119  0.0000 </r>
       </set>
       <set comment="band 5">
        <r>  0.0000  0.0121  0.0000  0.0121  0.0000  0.4418  0.0000  0.4418  0.0779 </r>
       </set>
       <set comment="band 6">
        <r>  0.0000  0.2726  0.0000  0.2726  0.0000  0.0475  0.0000  0.0475  0.2839 </r>
       </set>
       <set comment="band 7">
        <r>  0.2646  0.1026  0.0497  0.1026  0.2720  0.0001  0.1465  0.0001  0.0000 </r>
       </set>
       <set comment="band 8">
        <r>  0.1766  0.0022  0.4030  0.0022  0.0039  0.1068  0.0881  0.1068  0.0000 </r>
       </set>
       <set comment="band 9">
        <r>  0.0274  0.0020  0.1523  0.0020  0.0202  0.0166  0.5555  0.0166  0.0000 </r>
       </set>
       <set comment="band 10">
        <r>  0.0000  0.0485  0.0000  0.0485  0.0000  0.0070  0.0000  0.0070  0.6538 </r>
       </set>
       <set comment="band 11">
        <r>  0.0320  0.2102  0.0902  0.2102  0.0004  0.0568  0.1196  0.0568  0.0000 </r>
       </set>
       <set comment="band 12">
        <r>  0.2156  0.0279  0.0064  0.0279  0.2202  0.3351  0.0132  0.3351  0.0000 </r>
       </set>
      </set>
      <set comment="kpoint 23">
       <set comment="band 1">
        <r>  0.1283  0.0000  0.0000  0.2221  0.0000  0.0000  0.1293  0.0000  0.3878 </r>
       </set>
       <set comment="band 2">
        <r>  0.0000  0.0000  0.0000  0.0000  0.0000  0.0000  0.6713  0.0000  0.2238 </r>
       </set>
       <set comment="band 3">
        <r>  0.0000  0.0285  0.0285  0.0000  0.4556  0.0000  0.0000  0.4556  0.0000 </r>
       </set>
       <set comment="band 4">
        <r>  0.0000  0.0285  0.0285  0.0000  0.4556  0.0000  0.0000  0.4556  0.0000 </r>
       </set>
       <set comment="band 5">
        <r>  0.0000  0.0000  0.0000  0.0000  0.0000  0.9800  0.0000  0.0000  0.0000 </r>
       </set>
       <set comment="band 6">
        <r>  0.2129  0.0000  0.0000  0.2225  0.0000  0.0000  0.1264  0.0000  0.3792 </r>
       </set>
       <set comment="band 7">
        <r>  0.0000  0.3008  0.3008  0.0000  0.1748  0.0000  0.0000  0.1748  0.0000 </r>
       </set>
       <set comment="band 8">
        <r>  0.0000  0.3008  0.3008  0.0000  0.1748  0.0000  0.0000  0.1748  0.0000 </r>
       </set>
       <set comment="band 9">
        <r>  0.0000  0.0000  0.0000  0.0000  0.0000  0.0000  0.7158  0.0000  0.2386 </r>
       </set>
       <set comment="band 10">
        <r>  0.2754  0.0000  0.0000  0.0715  0.0000  0.0000  0.0662  0.0000  0.1985 </r>
       </set>
       <set comment="band 11">
        <r>  0.1310  0.0000  0.0000  0.3166  0.0000  0.0000  0.1264  0.0000  0.3793 </r>
       </set>
       <set comment="band 12">
        <r>  0.0000  0.0000  0.0000  0.0000  0.0000  1.1853  0.0000  0.0000  0.0000 </r>
       </set>
      </set>
      <set comment="kpoint 24">
       <set comment="band 1">
        <r>  0.0211  0.0001  0.0000  0.0883  0.0231  0.0000  0.5229  0.0000  0.2333 </r>
       </set>
       <set comment="band 2">
        <r>  0.0005  0.0272  0.0000  0.0188  0.0075  0.0000  0.2933  0.0000  0.5445 </r>
       </set>
       <set comment="band 3">
        <r>  0.0000  0.0000  0.0452  0.0000  0.0000  0.3366  0.0000  0.5868  0.0000 </r>
       </set>
       <set comment="band 4">
        <r>  0.0208  0.0389  0.0000  0.0074  0.8445  0.0000  0.0514  0.0000  0.0015 </r>
       </set>
       <set comment="band 5">
        <r>  0.0000  0.0000  0.0030  0.0000  0.0000  0.6388  0.0000  0.3460  0.0000 </r>
       </set>
       <set comment="band 6">
        <r>  0.1364  0.0475  0.0000  0.4237  0.0285  0.0000  0.0464  0.0000  0.2270 </r>
       </set>
       <set comment="band 7">
        <r>  0.1273  0.4753  0.0000  0.0000  0.1919  0.0000  0.0628  0.0000  0.0535 </r>
       </set>
       <set comment="band 8">
        <r>  0.0000  0.0000  0.6838  0.0000  0.0000  0.0337  0.0000  0.1729  0.0000 </r>
       </set>
       <set comment="band 9">
        <r>  0.0753  0.0036  0.0000  0.0038  0.0105  0.0000  0.8133  0.0000  0.0230 </r>
       </set>
       <set comment="band 10">
        <r>  0.0753  0.1033  0.0000  0.0006  0.0094  0.0000  0.0002  0.0000  0.6363 </r>
       </set>
       <set comment="band 11">
        <r>  0.2838  0.0663  0.0000  0.2799  0.0148  0.0000  0.0978  0.0000  0.1152 </r>
       </set>
       <set comment="band 12">
        <r>  0.0000  0.0000  0.0708  0.0000  0.0000  0.5863  0.0000  0.2793  0.0000 </r>
       </set>
      </set>
      <set comment="kpoint 25">
       <set comment="band 1">
        <r>  0.0000  0.0205  0.0000  0.0205  0.0000  0.0036  0.0000  0.0036  0.8440 </r>
       </set>
       <set comment="band 2">
        <r>  0.0000  0.0068  0.0274  0.0068  0.0048  0.0012  0.8440  0.0012  0.0000 </r>
       </set>
       <set comment="band 3">
        <r>  0.0182  0.0148  0.0148  0.0148  0.3004  0.3004  0.0000  0.3004  0.0000 </r>
       </set>
       <set comment="band 4">
        <r>  0.0000  0.0039  0.0154  0.0039  0.6292  0.1573  0.0155  0.1573  0.0000 </r>
       </set>
       <set comment="band 5">
        <r>  0.0000  0.0116  0.0000  0.0116  0.0000  0.4719  0.0000  0.4719  0.0155 </r>
       </set>
       <set comment="band 6">
        <r>  0.0000  0.3259  0.0000  0.3259  0.0000  0.0310  0.0000  0.0310  0.1853 </r>
       </set>
       <set comment="band 7">
        <r>  0.0000  0.1086  0.4345  0.1086  0.0413  0.0103  0.1853  0.0103  0.0000 </r>
       </set>
       <set comment="band 8">
        <r>  0.2601  0.1416  0.1416  0.1416  0.0577  0.0577  0.0000  0.0577  0.0000 </r>
       </set>
       <set comment="band 9">
        <r>  0.0000  0.0431  0.0000  0.0428  0.0000  0.0046  0.0000  0.0046  0.8558 </r>
       </set>
       <set comment="band 10">
        <r>  0.0000  0.0142  0.0573  0.0145  0.0061  0.0015  0.8558  0.0015  0.0000 </r>
       </set>
       <set comment="band 11">
        <r>  0.4710  0.1007  0.1007  0.1007  0.0036  0.0036  0.0000  0.0036  0.0000 </r>
       </set>
       <set comment="band 12">
        <r>  0.0380  0.0172  0.0172  0.0172  0.2469  0.2469  0.0000  0.2469  0.0000 </r>
       </set>
      </set>
      <set comment="kpoint 26">
       <set comment="band 1">
        <r>  0.0013  0.0000  0.0000  0.0279  0.0000  0.0000  0.2158  0.0000  0.6474 </r>
       </set>
       <set comment="band 2">
        <r>  0.0000  0.0000  0.0000  0.0000  0.0000  0.0000  0.6699  0.0000  0.2233 </r>
       </set>
       <set comment="band 3">
        <r>  0.0000  0.0120  0.0120  0.0000  0.4785  0.0000  0.0000  0.4785  0.0000 </r>
       </set>
       <set comment="band 4">
        <r>  0.0000  0.0120  0.0120  0.0000  0.4785  0.0000  0.0000  0.4785  0.0000 </r>
       </set>
       <set comment="band 5">
        <r>  0.0000  0.0000  0.0000  0.0000  0.0000  0.9875  0.0000  0.0000  0.0000 </r>
       </set>
       <set comment="band 6">
        <r>  0.0851  0.0000  0.0000  0.6470  0.0000  0.0000  0.0313  0.0000  0.0940 </r>
       </set>
       <set comment="band 7">
        <r>  0.0000  0.3853  0.3853  0.0000  0.0319  0.0000  0.0000  0.0319  0.0000 </r>
       </set>
       <set comment="band 8">
        <r>  0.0000  0.3853  0.3853  0.0000  0.0319  0.0000  0.0000  0.0319  0.0000 </r>
       </set>
       <set comment="band 9">
        <r>  0.0000  0.0000  0.0000  0.0000  0.0000  0.0000  0.8081  0.0000  0.2694 </r>
       </set>
       <set comment="band 10">
        <r>  0.0559  0.0000  0.0000  0.0223  0.0000  0.0000  0.2288  0.0000  0.6863 </r>
       </set>
       <set comment="band 11">
        <r>  0.6312  0.0000  0.0000  0.1212  0.0000  0.0000  0.0107  0.0000  0.0320 </r>
       </set>
       <set comment="band 12">
        <r>  0.0000  0.0000  0.0000  0.0000  0.0000  0.3056  0.0000  0.0000  0.0000 </r>
       </set>
      </set>
     </set>
    </set>
   </array>
  </projected>
 </calculation>
 <structure name="finalpos" >
  <crystal>
   <varray name="basis" >
    <v>      -1.37000000       1.37000000       1.37000000 </v>
    <v>       1.37000000      -1.37000000       1.37000000 </v>
    <v>       1.37000000       1.37000000      -1.37000000 </v>
   </varray>
   <i name="volume">     10.28541200 </i>
   <varray name="rec_basis" >
    <v>       0.00000000       0.36496350       0.36496350 </v>
    <v>       0.36496350       0.00000000       0.36496350 </v>
    <v>       0.36496350       0.36496350       0.00000000 </v>
   </varray>
  </crystal>
  <varray name="positions" >
   <v>       0.00000000       0.00000000       0.00000000 </v>
  </varray>
 </structure>
</modeling>
