Fe BCC                                  
   4.00000000000000     
    -0.500000    0.500000    0.500000
     0.500000   -0.500000    0.500000
     0.500000    0.500000   -0.500000
   Fe
     1
Direct
  0.000000  0.000000  0.000000
 
   48   48   48
  278.64      272.88      256.37      231.15      200.10      166.30      132.57      101.14      73.604      50.971    
  33.689      21.658      14.212      10.172      8.0202      6.4514      5.2370      4.3439      3.7041      3.2481    
  2.9217      2.6893      2.5312      2.4384      2.4077      2.4384      2.5312      2.6893      2.9217      3.2481    
  3.7041      4.3439      5.2370      6.4514      8.0202      10.172      14.212      21.658      33.689      50.971    
  73.604      101.14      132.57      166.30      200.10      231.15      256.37      272.88      272.88      270.98    
  258.11      235.89      206.94      174.30      140.86      109.03      80.595      56.723      38.037      24.614    
  15.973      11.094      8.5549      6.8825      5.5648      4.5824      3.8741      3.3688      3.0073      2.7485    
  2.5683      2.4550      2.4040      2.4142      2.4857      2.6206      2.8252      3.1148      3.5188      4.0844    
  4.8762      5.9651      7.4013      9.2390      12.386      18.378      28.527      43.683      64.141      89.638    
  119.37      151.98      185.45      217.19      244.22      263.56      256.37      258.11      249.20      230.79    
  205.12      174.99      143.24      112.36      84.236      60.188      40.970      26.812      17.401      11.890    
  8.9909      7.2293      5.8383      4.7855      4.0196      3.4712      3.0783      2.7957      2.5954      2.4632    
  2.3930      2.3830      2.4332      2.5445      2.7212      2.9743      3.3266      3.8173      4.5035      5.4541    
  6.7306      8.3519      10.714      15.203      23.212      35.755      53.329      75.881      102.82      133.02    
  164.76      195.74      223.18      244.22      231.15      235.89      230.79      216.53      194.88      168.29    
  139.43      110.71      84.074      60.911      42.075      27.913      18.258      12.428      9.2935      7.4678    
  6.0379      4.9392      4.1315      3.5497      3.1314      2.8288      2.6114      2.4625      2.3748      2.3459    
  2.3752      2.4634      2.6128      2.8308      3.1341      3.5535      4.1367      4.9464      6.0483      7.4831    
  9.3166      12.468      18.335      28.061      42.336      61.326      84.668      111.48      140.32      169.23    
  195.74      217.19      200.10      206.94      205.12      194.88      177.52      155.09      129.95      104.35    
  80.172      58.827      41.212      27.754      18.398      12.610      9.4218      7.5822      6.1491      5.0322    
  4.2020      3.5993      3.1633      2.8461      2.6154      2.4528      2.3499      2.3036      2.3134      2.3794    
  2.5027      2.6879      2.9464      3.3008      3.7890      4.4643      5.3901      6.6206      8.1692      10.336    
  14.314      21.311      32.186      47.322      66.592      89.363      114.49      140.32      164.76      185.45    
  166.30      174.30      174.99      168.29      155.09      137.00      116.00      94.114      73.087      54.262    
  38.538      26.376      17.800      12.398      9.3527      7.5660      6.1639      5.0574      4.2256      3.6161    
  3.1719      2.8462      2.6065      2.4337      2.3184      2.2572      2.2491      2.2943      2.3932      2.5482    
  2.7666      3.0640      3.4684      4.0228      4.7827      5.8061      7.1304      8.7692      11.321      15.952    
  23.632      34.945      50.002      68.428      89.363      111.48      133.02      151.98      132.57      140.86    
  143.24      139.43      129.95      116.00      99.202      81.267      63.742      47.858      34.461      24.011    
  16.574      11.828      9.0931      7.4226      6.0817      5.0127      4.2001      3.5984      3.1558      2.8283    
  2.5845      2.4053      2.2808      2.2072      2.1835      2.2097      2.2861      2.4137      2.5966      2.8450    
  3.1784      3.6289      4.2420      5.0711      6.1647      7.5420      9.2679      12.113      17.080      24.901    
  35.914      50.002      66.592      84.668      102.82      119.37      101.14      109.03      112.36      110.71    
  104.35      94.114      81.267      67.199      53.227      40.423      29.547      21.020      14.923      10.999    
  8.6789      7.1638      5.9095      4.9013      4.1268      3.5467      3.1152      2.7926      2.5495      2.3676    
  2.2372      2.1542      2.1175      2.1271      2.1829      2.2857      2.4375      2.6443      2.9189      3.2838    
  3.7732      4.4321      5.3087      6.4402      7.8293      9.6068      12.555      17.481      24.901      34.945    
  47.322      61.326      75.881      89.638      73.604      80.595      84.236      84.074      80.172      73.087    
  63.742      53.227      42.608      32.783      24.396      17.809      13.094      10.037      8.1602      6.8083    
  5.6600      4.7311      4.0102      3.4636      3.0518      2.7400      2.5020      2.3211      2.1881      2.0988    
  2.0519      2.0472      2.0850      2.1656      2.2900      2.4615      2.6879      2.9840      3.3739      3.8918    
  4.5793      5.4777      6.6131      7.9767      9.7276      12.555      17.080      23.632      32.186      42.336    
  53.329      64.141      50.971      56.723      60.188      60.911      58.827      54.262      47.858      40.423    
  32.783      25.649      19.541      14.747      11.318      9.0635      7.5803      6.3790      5.3503      4.5138    
  3.8578      3.3536      2.9683      2.6723      2.4433      2.2667      2.1340      2.0412      1.9870      1.9711    
  1.9934      2.0544      2.1546      2.2960      2.4830      2.7246      3.0366      3.4431      3.9762      4.6725    
  5.5655      6.6719      7.9767      9.6068      12.113      15.952      21.311      28.061      35.755      43.683    
  33.689      38.037      40.970      42.075      41.212      38.538      34.461      29.547      24.396      19.541    
  15.373      12.106      9.7579      8.1555      6.9573      5.9016      4.9999      4.2628      3.6783      3.2226    
  2.8685      2.5921      2.3752      2.2054      2.0757      1.9823      1.9236      1.8991      1.9088      1.9530    
  2.0322      2.1475      2.3017      2.5000      2.7521      3.0735      3.4866      4.0200      4.7044      5.5655    
  6.6131      7.8293      9.2679      11.321      14.314      18.335      23.212      28.527      21.658      24.614    
  26.812      27.913      27.754      26.376      24.011      21.020      17.809      14.747      12.106      10.023    
  8.4832      7.3243      6.3086      5.4018      4.6283      3.9921      3.4815      3.0768      2.7567      2.5024    
  2.2997      2.1389      2.0143      1.9226      1.8620      1.8319      1.8319      1.8621      1.9232      2.0162    
  2.1427      2.3060      2.5117      2.7691      3.0924      3.5015      4.0200      4.6725      5.4777      6.4402    
  7.5420      8.7692      10.336      12.468      15.203      18.378      14.212      15.973      17.401      18.258    
  18.398      17.800      16.574      14.923      13.094      11.318      9.7579      8.4832      7.4496      6.5223    
  5.6642      4.9033      4.2537      3.7149      3.2763      2.9225      2.6371      2.4061      2.2192      2.0690    
  1.9512      1.8631      1.8029      1.7697      1.7628      1.7822      1.8283      1.9021      2.0051      2.1395    
  2.3086      2.5176      2.7748      3.0924      3.4866      3.9762      4.5793      5.3087      6.1647      7.1304    
  8.1692      9.3166      10.714      12.386      10.172      11.094      11.890      12.428      12.610      12.398    
  11.828      10.999      10.037      9.0635      8.1555      7.3243      6.5223      5.7549      5.0500      4.4262    
  3.8910      3.4420      3.0707      2.7652      2.5137      2.3065      2.1361      1.9976      1.8879      1.8049    
  1.7470      1.7129      1.7017      1.7131      1.7473      1.8053      1.8884      1.9985      2.1379      2.3094    
  2.5176      2.7691      3.0735      3.4431      3.8918      4.4321      5.0711      5.8061      6.6206      7.4831    
  8.3519      9.2390      8.0202      8.5549      8.9909      9.2935      9.4218      9.3527      9.0931      8.6789    
  8.1602      7.5803      6.9573      6.3086      5.6642      5.0500      4.4863      3.9853      3.5512      3.1819    
  2.8708      2.6096      2.3903      2.2062      2.0526      1.9265      1.8258      1.7491      1.6949      1.6618    
  1.6486      1.6546      1.6799      1.7252      1.7919      1.8816      1.9963      2.1379      2.3086      2.5117    
  2.7521      3.0366      3.3739      3.7732      4.2420      4.7827      5.3901      6.0483      6.7306      7.4013    
  6.4514      6.8825      7.2293      7.4678      7.5822      7.5660      7.4226      7.1638      6.8083      6.3790    
  5.9016      5.4018      4.9033      4.4262      3.9853      3.5893      3.2413      2.9400      2.6812      2.4594    
  2.2695      2.1076      1.9708      1.8575      1.7665      1.6969      1.6474      1.6166      1.6032      1.6061    
  1.6252      1.6609      1.7145      1.7875      1.8816      1.9985      2.1395      2.3060      2.5000      2.7246    
  2.9840      3.2838      3.6289      4.0228      4.4643      4.9464      5.4541      5.9651      5.2370      5.5648    
  5.8383      6.0379      6.1491      6.1639      6.0817      5.9095      5.6600      5.3503      4.9999      4.6283    
  4.2537      3.8910      3.5512      3.2413      2.9640      2.7192      2.5045      2.3170      2.1538      2.0128    
  1.8924      1.7921      1.7113      1.6493      1.6052      1.5776      1.5652      1.5669      1.5822      1.6111    
  1.6548      1.7145      1.7919      1.8884      2.0051      2.1427      2.3017      2.4830      2.6879      2.9189    
  3.1784      3.4684      3.7890      4.1367      4.5035      4.8762      4.3439      4.5824      4.7855      4.9392    
  5.0322      5.0574      5.0127      4.9013      4.7311      4.5138      4.2628      3.9921      3.7149      3.4420    
  3.1819      2.9400      2.7192      2.5201      2.3423      2.1843      2.0450      1.9234      1.8190      1.7316    
  1.6611      1.6071      1.5688      1.5450      1.5347      1.5365      1.5498      1.5745      1.6111      1.6609    
  1.7252      1.8053      1.9021      2.0162      2.1475      2.2960      2.4615      2.6443      2.8450      3.0640    
  3.3008      3.5535      3.8173      4.0844      3.7041      3.8741      4.0196      4.1315      4.2020      4.2256    
  4.2001      4.1268      4.0102      3.8578      3.6783      3.4815      3.2763      3.0707      2.8708      2.6812    
  2.5045      2.3423      2.1949      2.0623      1.9443      1.8407      1.7516      1.6770      1.6168      1.5710    
  1.5387      1.5192      1.5115      1.5144      1.5272      1.5498      1.5822      1.6252      1.6799      1.7473    
  1.8283      1.9232      2.0322      2.1546      2.2900      2.4375      2.5966      2.7666      2.9464      3.1341    
  3.3266      3.5188      3.2481      3.3688      3.4712      3.5497      3.5993      3.6161      3.5984      3.5467    
  3.4636      3.3536      3.2226      3.0768      2.9225      2.7652      2.6096      2.4594      2.3170      2.1843    
  2.0623      1.9517      1.8527      1.7658      1.6912      1.6289      1.5790      1.5413      1.5154      1.5005    
  1.4959      1.5007      1.5144      1.5365      1.5669      1.6061      1.6546      1.7131      1.7822      1.8621    
  1.9530      2.0544      2.1656      2.2857      2.4137      2.5482      2.6879      2.8308      2.9743      3.1148    
  2.9217      3.0073      3.0783      3.1314      3.1633      3.1719      3.1558      3.1152      3.0518      2.9683    
  2.8685      2.7567      2.6371      2.5137      2.3903      2.2695      2.1538      2.0450      1.9443      1.8527    
  1.7709      1.6994      1.6383      1.5879      1.5480      1.5185      1.4990      1.4891      1.4882      1.4959    
  1.5115      1.5347      1.5652      1.6032      1.6486      1.7017      1.7628      1.8319      1.9088      1.9934    
  2.0850      2.1829      2.2861      2.3932      2.5027      2.6128      2.7212      2.8252      2.6893      2.7485    
  2.7957      2.8288      2.8461      2.8462      2.8283      2.7926      2.7400      2.6723      2.5921      2.5024    
  2.4061      2.3065      2.2062      2.1076      2.0128      1.9234      1.8407      1.7658      1.6994      1.6418    
  1.5934      1.5541      1.5239      1.5025      1.4898      1.4854      1.4891      1.5005      1.5192      1.5450    
  1.5776      1.6166      1.6618      1.7129      1.7697      1.8319      1.8991      1.9711      2.0472      2.1271    
  2.2097      2.2943      2.3794      2.4634      2.5445      2.6206      2.5312      2.5683      2.5954      2.6114    
  2.6154      2.6065      2.5845      2.5495      2.5020      2.4433      2.3752      2.2997      2.2192      2.1361    
  2.0526      1.9708      1.8924      1.8190      1.7516      1.6912      1.6383      1.5934      1.5565      1.5276    
  1.5067      1.4935      1.4879      1.4898      1.4990      1.5154      1.5387      1.5688      1.6052      1.6474    
  1.6949      1.7470      1.8029      1.8620      1.9236      1.9870      2.0519      2.1175      2.1835      2.2491    
  2.3134      2.3752      2.4332      2.4857      2.4384      2.4550      2.4632      2.4625      2.4528      2.4337    
  2.4053      2.3676      2.3211      2.2667      2.2054      2.1389      2.0690      1.9976      1.9265      1.8575    
  1.7921      1.7316      1.6770      1.6289      1.5879      1.5541      1.5276      1.5085      1.4964      1.4915    
  1.4935      1.5025      1.5185      1.5413      1.5710      1.6071      1.6493      1.6969      1.7491      1.8049    
  1.8631      1.9226      1.9823      2.0412      2.0988      2.1542      2.2072      2.2572      2.3036      2.3459    
  2.3830      2.4142      2.4077      2.4040      2.3930      2.3748      2.3499      2.3184      2.2808      2.2372    
  2.1881      2.1340      2.0757      2.0143      1.9512      1.8879      1.8258      1.7665      1.7113      1.6611    
  1.6168      1.5790      1.5480      1.5239      1.5067      1.4964      1.4930      1.4964      1.5067      1.5239    
  1.5480      1.5790      1.6168      1.6611      1.7113      1.7665      1.8258      1.8879      1.9512      2.0143    
  2.0757      2.1340      2.1881      2.2372      2.2808      2.3184      2.3499      2.3748      2.3930      2.4040    
  2.4384      2.4142      2.3830      2.3459      2.3036      2.2572      2.2072      2.1542      2.0988      2.0412    
  1.9823      1.9226      1.8631      1.8049      1.7491      1.6969      1.6493      1.6071      1.5710      1.5413    
  1.5185      1.5025      1.4935      1.4915      1.4964      1.5085      1.5276      1.5541      1.5879      1.6289    
  1.6770      1.7316      1.7921      1.8575      1.9265      1.9976      2.0690      2.1389      2.2054      2.2667    
  2.3211      2.3676      2.4053      2.4337      2.4528      2.4625      2.4632      2.4550      2.5312      2.4857    
  2.4332      2.3752      2.3134      2.2491      2.1835      2.1175      2.0519      1.9870      1.9236      1.8620    
  1.8029      1.7470      1.6949      1.6474      1.6052      1.5688      1.5387      1.5154      1.4990      1.4898    
  1.4879      1.4935      1.5067      1.5276      1.5565      1.5934      1.6383      1.6912      1.7516      1.8190    
  1.8924      1.9708      2.0526      2.1361      2.2192      2.2997      2.3752      2.4433      2.5020      2.5495    
  2.5845      2.6065      2.6154      2.6114      2.5954      2.5683      2.6893      2.6206      2.5445      2.4634    
  2.3794      2.2943      2.2097      2.1271      2.0472      1.9711      1.8991      1.8319      1.7697      1.7129    
  1.6618      1.6166      1.5776      1.5450      1.5192      1.5005      1.4891      1.4854      1.4898      1.5025    
  1.5239      1.5541      1.5934      1.6418      1.6994      1.7658      1.8407      1.9234      2.0128      2.1076    
  2.2062      2.3065      2.4061      2.5024      2.5921      2.6723      2.7400      2.7926      2.8283      2.8462    
  2.8461      2.8288      2.7957      2.7485      2.9217      2.8252      2.7212      2.6128      2.5027      2.3932    
  2.2861      2.1829      2.0850      1.9934      1.9088      1.8319      1.7628      1.7017      1.6486      1.6032    
  1.5652      1.5347      1.5115      1.4959      1.4882      1.4891      1.4990      1.5185      1.5480      1.5879    
  1.6383      1.6994      1.7709      1.8527      1.9443      2.0450      2.1538      2.2695      2.3903      2.5137    
  2.6371      2.7567      2.8685      2.9683      3.0518      3.1152      3.1558      3.1719      3.1633      3.1314    
  3.0783      3.0073      3.2481      3.1148      2.9743      2.8308      2.6879      2.5482      2.4137      2.2857    
  2.1656      2.0544      1.9530      1.8621      1.7822      1.7131      1.6546      1.6061      1.5669      1.5365    
  1.5144      1.5007      1.4959      1.5005      1.5154      1.5413      1.5790      1.6289      1.6912      1.7658    
  1.8527      1.9517      2.0623      2.1843      2.3170      2.4594      2.6096      2.7652      2.9225      3.0768    
  3.2226      3.3536      3.4636      3.5467      3.5984      3.6161      3.5993      3.5497      3.4712      3.3688    
  3.7041      3.5188      3.3266      3.1341      2.9464      2.7666      2.5966      2.4375      2.2900      2.1546    
  2.0322      1.9232      1.8283      1.7473      1.6799      1.6252      1.5822      1.5498      1.5272      1.5144    
  1.5115      1.5192      1.5387      1.5710      1.6168      1.6770      1.7516      1.8407      1.9443      2.0623    
  2.1949      2.3423      2.5045      2.6812      2.8708      3.0707      3.2763      3.4815      3.6783      3.8578    
  4.0102      4.1268      4.2001      4.2256      4.2020      4.1315      4.0196      3.8741      4.3439      4.0844    
  3.8173      3.5535      3.3008      3.0640      2.8450      2.6443      2.4615      2.2960      2.1475      2.0162    
  1.9021      1.8053      1.7252      1.6609      1.6111      1.5745      1.5498      1.5365      1.5347      1.5450    
  1.5688      1.6071      1.6611      1.7316      1.8190      1.9234      2.0450      2.1843      2.3423      2.5201    
  2.7192      2.9400      3.1819      3.4420      3.7149      3.9921      4.2628      4.5138      4.7311      4.9013    
  5.0127      5.0574      5.0322      4.9392      4.7855      4.5824      5.2370      4.8762      4.5035      4.1367    
  3.7890      3.4684      3.1784      2.9189      2.6879      2.4830      2.3017      2.1427      2.0051      1.8884    
  1.7919      1.7145      1.6548      1.6111      1.5822      1.5669      1.5652      1.5776      1.6052      1.6493    
  1.7113      1.7921      1.8924      2.0128      2.1538      2.3170      2.5045      2.7192      2.9640      3.2413    
  3.5512      3.8910      4.2537      4.6283      4.9999      5.3503      5.6600      5.9095      6.0817      6.1639    
  6.1491      6.0379      5.8383      5.5648      6.4514      5.9651      5.4541      4.9464      4.4643      4.0228    
  3.6289      3.2838      2.9840      2.7246      2.5000      2.3060      2.1395      1.9985      1.8816      1.7875    
  1.7145      1.6609      1.6252      1.6061      1.6032      1.6166      1.6474      1.6969      1.7665      1.8575    
  1.9708      2.1076      2.2695      2.4594      2.6812      2.9400      3.2413      3.5893      3.9853      4.4262    
  4.9033      5.4018      5.9016      6.3790      6.8083      7.1638      7.4226      7.5660      7.5822      7.4678    
  7.2293      6.8825      8.0202      7.4013      6.7306      6.0483      5.3901      4.7827      4.2420      3.7732    
  3.3739      3.0366      2.7521      2.5117      2.3086      2.1379      1.9963      1.8816      1.7919      1.7252    
  1.6799      1.6546      1.6486      1.6618      1.6949      1.7491      1.8258      1.9265      2.0526      2.2062    
  2.3903      2.6096      2.8708      3.1819      3.5512      3.9853      4.4863      5.0500      5.6642      6.3086    
  6.9573      7.5803      8.1602      8.6789      9.0931      9.3527      9.4218      9.2935      8.9909      8.5549    
  10.172      9.2390      8.3519      7.4831      6.6206      5.8061      5.0711      4.4321      3.8918      3.4431    
  3.0735      2.7691      2.5176      2.3094      2.1379      1.9985      1.8884      1.8053      1.7473      1.7131    
  1.7017      1.7129      1.7470      1.8049      1.8879      1.9976      2.1361      2.3065      2.5137      2.7652    
  3.0707      3.4420      3.8910      4.4262      5.0500      5.7549      6.5223      7.3243      8.1555      9.0635    
  10.037      10.999      11.828      12.398      12.610      12.428      11.890      11.094      14.212      12.386    
  10.714      9.3166      8.1692      7.1304      6.1647      5.3087      4.5793      3.9762      3.4866      3.0924    
  2.7748      2.5176      2.3086      2.1395      2.0051      1.9021      1.8283      1.7822      1.7628      1.7697    
  1.8029      1.8631      1.9512      2.0690      2.2192      2.4061      2.6371      2.9225      3.2763      3.7149    
  4.2537      4.9033      5.6642      6.5223      7.4496      8.4832      9.7579      11.318      13.094      14.923    
  16.574      17.800      18.398      18.258      17.401      15.973      21.658      18.378      15.203      12.468    
  10.336      8.7692      7.5420      6.4402      5.4777      4.6725      4.0200      3.5015      3.0924      2.7691    
  2.5117      2.3060      2.1427      2.0162      1.9232      1.8621      1.8319      1.8319      1.8620      1.9226    
  2.0143      2.1389      2.2997      2.5024      2.7567      3.0768      3.4815      3.9921      4.6283      5.4018    
  6.3086      7.3243      8.4832      10.023      12.106      14.747      17.809      21.020      24.011      26.376    
  27.754      27.913      26.812      24.614      33.689      28.527      23.212      18.335      14.314      11.321    
  9.2679      7.8293      6.6131      5.5655      4.7044      4.0200      3.4866      3.0735      2.7521      2.5000    
  2.3017      2.1475      2.0322      1.9530      1.9088      1.8991      1.9236      1.9823      2.0757      2.2054    
  2.3752      2.5921      2.8685      3.2226      3.6783      4.2628      4.9999      5.9016      6.9573      8.1555    
  9.7579      12.106      15.373      19.541      24.396      29.547      34.461      38.538      41.212      42.075    
  40.970      38.037      50.971      43.683      35.755      28.061      21.311      15.952      12.113      9.6068    
  7.9767      6.6719      5.5655      4.6725      3.9762      3.4431      3.0366      2.7246      2.4830      2.2960    
  2.1546      2.0544      1.9934      1.9711      1.9870      2.0412      2.1340      2.2667      2.4433      2.6723    
  2.9683      3.3536      3.8578      4.5138      5.3503      6.3790      7.5803      9.0635      11.318      14.747    
  19.541      25.649      32.783      40.423      47.858      54.262      58.827      60.911      60.188      56.723    
  73.604      64.141      53.329      42.336      32.186      23.632      17.080      12.555      9.7276      7.9767    
  6.6131      5.4777      4.5793      3.8918      3.3739      2.9840      2.6879      2.4615      2.2900      2.1656    
  2.0850      2.0472      2.0519      2.0988      2.1881      2.3211      2.5020      2.7400      3.0518      3.4636    
  4.0102      4.7311      5.6600      6.8083      8.1602      10.037      13.094      17.809      24.396      32.783    
  42.608      53.227      63.742      73.087      80.172      84.074      84.236      80.595      101.14      89.638    
  75.881      61.326      47.322      34.945      24.901      17.481      12.555      9.6068      7.8293      6.4402    
  5.3087      4.4321      3.7732      3.2838      2.9189      2.6443      2.4375      2.2857      2.1829      2.1271    
  2.1175      2.1542      2.2372      2.3676      2.5495      2.7926      3.1152      3.5467      4.1268      4.9013    
  5.9095      7.1638      8.6789      10.999      14.923      21.020      29.547      40.423      53.227      67.199    
  81.267      94.114      104.35      110.71      112.36      109.03      132.57      119.37      102.82      84.668    
  66.592      50.002      35.914      24.901      17.080      12.113      9.2679      7.5420      6.1647      5.0711    
  4.2420      3.6289      3.1784      2.8450      2.5966      2.4137      2.2861      2.2097      2.1835      2.2072    
  2.2808      2.4053      2.5845      2.8283      3.1558      3.5984      4.2001      5.0127      6.0817      7.4226    
  9.0931      11.828      16.574      24.011      34.461      47.858      63.742      81.267      99.202      116.00    
  129.95      139.43      143.24      140.86      166.30      151.98      133.02      111.48      89.363      68.428    
  50.002      34.945      23.632      15.952      11.321      8.7692      7.1304      5.8061      4.7827      4.0228    
  3.4684      3.0640      2.7666      2.5482      2.3932      2.2943      2.2491      2.2572      2.3184      2.4337    
  2.6065      2.8462      3.1719      3.6161      4.2256      5.0574      6.1639      7.5660      9.3527      12.398    
  17.800      26.376      38.538      54.262      73.087      94.114      116.00      137.00      155.09      168.29    
  174.99      174.30      200.10      185.45      164.76      140.32      114.49      89.363      66.592      47.322    
  32.186      21.311      14.314      10.336      8.1692      6.6206      5.3901      4.4643      3.7890      3.3008    
  2.9464      2.6879      2.5027      2.3794      2.3134      2.3036      2.3499      2.4528      2.6154      2.8461    
  3.1633      3.5993      4.2020      5.0322      6.1491      7.5822      9.4218      12.610      18.398      27.754    
  41.212      58.827      80.172      104.35      129.95      155.09      177.52      194.88      205.12      206.94    
  231.15      217.19      195.74      169.23      140.32      111.48      84.668      61.326      42.336      28.061    
  18.335      12.468      9.3166      7.4831      6.0483      4.9464      4.1367      3.5535      3.1341      2.8308    
  2.6128      2.4634      2.3752      2.3459      2.3748      2.4625      2.6114      2.8288      3.1314      3.5497    
  4.1315      4.9392      6.0379      7.4678      9.2935      12.428      18.258      27.913      42.075      60.911    
  84.074      110.71      139.43      168.29      194.88      216.53      230.79      235.89      256.37      244.22    
  223.18      195.74      164.76      133.02      102.82      75.881      53.329      35.755      23.212      15.203    
  10.714      8.3519      6.7306      5.4541      4.5035      3.8173      3.3266      2.9743      2.7212      2.5445    
  2.4332      2.3830      2.3930      2.4632      2.5954      2.7957      3.0783      3.4712      4.0196      4.7855    
  5.8383      7.2293      8.9909      11.890      17.401      26.812      40.970      60.188      84.236      112.36    
  143.24      174.99      205.12      230.79      249.20      258.11      272.88      263.56      244.22      217.19    
  185.45      151.98      119.37      89.638      64.141      43.683      28.527      18.378      12.386      9.2390    
  7.4013      5.9651      4.8762      4.0844      3.5188      3.1148      2.8252      2.6206      2.4857      2.4142    
  2.4040      2.4550      2.5683      2.7485      3.0073      3.3688      3.8741      4.5824      5.5648      6.8825    
  8.5549      11.094      15.973      24.614      38.037      56.723      80.595      109.03      140.86      174.30    
  206.94      235.89      258.11      270.98      272.88      270.98      258.11      235.89      206.94      174.30    
  140.86      109.03      80.595      56.723      38.037      24.614      15.973      11.094      8.5549      6.8825    
  5.5648      4.5824      3.8741      3.3688      3.0073      2.7485      2.5683      2.4550      2.4040      2.4142    
  2.4857      2.6206      2.8252      3.1148      3.5188      4.0844      4.8762      5.9651      7.4013      9.2390    
  12.386      18.378      28.527      43.683      64.141      89.638      119.37      151.98      185.45      217.19    
  244.22      263.56      270.98      272.88      263.56      244.22      217.19      185.45      151.98      119.37    
  89.638      64.141      43.683      28.527      18.378      12.386      9.2390      7.4013      5.9651      4.8762    
  4.0844      3.5188      3.1148      2.8252      2.6206      2.4857      2.4142      2.4040      2.4550      2.5683    
  2.7485      3.0073      3.3688      3.8741      4.5824      5.5648      6.8825      8.5549      11.094      15.973    
  24.614      38.037      56.723      80.595      109.03      140.86      174.30      206.94      235.89      258.11    
  258.11      263.56      258.11      242.44      218.52      189.05      156.98      124.99      95.210      69.180    
  47.853      31.650      20.448      13.574      9.8605      7.8329      6.3106      5.1355      4.2716      3.6517    
  3.2086      2.8903      2.6630      2.5080      2.4168      2.3866      2.4168      2.5079      2.6630      2.8903    
  3.2086      3.6517      4.2716      5.1355      6.3106      7.8329      9.8604      13.574      20.448      31.650    
  47.853      69.180      95.210      124.99      156.98      189.05      218.52      242.44      235.89      244.22    