Fe BCC                                  
   4.00000000000000     
    -0.500000    0.500000    0.500000
     0.500000   -0.500000    0.500000
     0.500000    0.500000   -0.500000
   Fe
     1
Direct
  0.000000  0.000000  0.000000
 
   48   48   48
 0.27863667767E+03 0.27288355700E+03 0.25637112981E+03 0.23115226107E+03 0.20009821011E+03
 0.16630046174E+03 0.13256694375E+03 0.10113581097E+03 0.73603872046E+02 0.50971255253E+02
 0.33689031391E+02 0.21657967274E+02 0.14212452954E+02 0.10171748831E+02 0.80202397539E+01
 0.64514405881E+01 0.52369597702E+01 0.43439269237E+01 0.37040685106E+01 0.32480577246E+01
 0.29216697408E+01 0.26893245921E+01 0.25312468433E+01 0.24384173101E+01 0.24076909079E+01
 0.24384173101E+01 0.25312468433E+01 0.26893245921E+01 0.29216697408E+01 0.32480577246E+01
 0.37040685106E+01 0.43439269237E+01 0.52369597702E+01 0.64514405881E+01 0.80202397539E+01
 0.10171748831E+02 0.14212452954E+02 0.21657967274E+02 0.33689031391E+02 0.50971255253E+02
 0.73603872046E+02 0.10113581097E+03 0.13256694375E+03 0.16630046174E+03 0.20009821011E+03
 0.23115226107E+03 0.25637112981E+03 0.27288355700E+03 0.27288355700E+03 0.27098184119E+03
 0.25810602503E+03 0.23588727451E+03 0.20694290035E+03 0.17430234949E+03 0.14086330908E+03
 0.10903329196E+03 0.80594980114E+02 0.56722948633E+02 0.38036632001E+02 0.24613907113E+02
 0.15972879636E+02 0.11093800142E+02 0.85548972308E+01 0.68825494958E+01 0.55648365604E+01
 0.45824401813E+01 0.38740618820E+01 0.33687797611E+01 0.30072557974E+01 0.27484520606E+01
 0.25682756491E+01 0.24549585397E+01 0.24039873634E+01 0.24141716359E+01 0.24857063834E+01
 0.26205664228E+01 0.28251682258E+01 0.31148070895E+01 0.35188007555E+01 0.40844191169E+01
 0.48761970444E+01 0.59651129660E+01 0.74013381496E+01 0.92390054557E+01 0.12385547707E+02
 0.18377583245E+02 0.28527097833E+02 0.43683412396E+02 0.64140541754E+02 0.89638018043E+02
 0.11937429390E+03 0.15197671041E+03 0.18544917933E+03 0.21719393713E+03 0.24421773552E+03
 0.26356301185E+03 0.25637112981E+03 0.25810602503E+03 0.24919864752E+03 0.23079326034E+03
 0.20512023565E+03 0.17498869022E+03 0.14324354165E+03 0.11235805062E+03 0.84236425449E+02
 0.60187963953E+02 0.40970022119E+02 0.26811671416E+02 0.17400900799E+02 0.11889502713E+02
 0.89908872884E+01 0.72293239033E+01 0.58382732501E+01 0.47854659365E+01 0.40195740285E+01
 0.34712461353E+01 0.30783326351E+01 0.27956635423E+01 0.25954054164E+01 0.24631569887E+01
 0.23929583362E+01 0.23830202469E+01 0.24331756410E+01 0.25445028044E+01 0.27211781751E+01
 0.29742549228E+01 0.33265718303E+01 0.38172972531E+01 0.45034755869E+01 0.54540923181E+01
 0.67305763281E+01 0.83519349457E+01 0.10714407142E+02 0.15203416047E+02 0.23211776315E+02
 0.35754925945E+02 0.53329175852E+02 0.75881424871E+02 0.10282348851E+03 0.13302338126E+03
 0.16476412641E+03 0.19573795282E+03 0.22318137037E+03 0.24421773552E+03 0.23115226107E+03
 0.23588727451E+03 0.23079326034E+03 0.21653415360E+03 0.19487969744E+03 0.16829336959E+03
 0.13942967410E+03 0.11070967171E+03 0.84074320080E+02 0.60911332270E+02 0.42075402620E+02
 0.27913306054E+02 0.18258417122E+02 0.12428308678E+02 0.92934782686E+01 0.74678283351E+01
 0.60378905202E+01 0.49391661675E+01 0.41315021050E+01 0.35497489590E+01 0.31313929605E+01
 0.28288309060E+01 0.26114315780E+01 0.24625425286E+01 0.23748233399E+01 0.23458687931E+01
 0.23752344569E+01 0.24633971711E+01 0.26127951095E+01 0.28308058968E+01 0.31341339613E+01
 0.35534981724E+01 0.41366582651E+01 0.49463975014E+01 0.60482953679E+01 0.74831296239E+01
 0.93165652751E+01 0.12467998044E+02 0.18335153397E+02 0.28060611390E+02 0.42335780525E+02
 0.61325955437E+02 0.84668315592E+02 0.11147719705E+03 0.14032417024E+03 0.16922766034E+03
 0.19573795282E+03 0.21719393713E+03 0.20009821011E+03 0.20694290035E+03 0.20512023565E+03
 0.19487969744E+03 0.17752197362E+03 0.15509242653E+03 0.12994742389E+03 0.10434523794E+03
 0.80171972452E+02 0.58826682074E+02 0.41212332592E+02 0.27753880631E+02 0.18398105846E+02
 0.12610094522E+02 0.94218450491E+01 0.75821689915E+01 0.61490746707E+01 0.50322249246E+01
 0.42020114889E+01 0.35992507235E+01 0.31633439611E+01 0.28461248875E+01 0.26153711666E+01
 0.24527920523E+01 0.23498778479E+01 0.23036400233E+01 0.23134211902E+01 0.23793603380E+01
 0.25027036431E+01 0.26879318030E+01 0.29464137197E+01 0.33008303935E+01 0.37889517553E+01
 0.44643485587E+01 0.53901054209E+01 0.66205536932E+01 0.81691524791E+01 0.10335536137E+02
 0.14313606514E+02 0.21310940952E+02 0.32185796802E+02 0.47321816063E+02 0.66592188635E+02
 0.89362626369E+02 0.11449030585E+03 0.14032417024E+03 0.16476412641E+03 0.18544917933E+03
 0.16630046174E+03 0.17430234949E+03 0.17498869022E+03 0.16829336959E+03 0.15509242653E+03
 0.13699649700E+03 0.11600029399E+03 0.94114361465E+02 0.73087354439E+02 0.54262118087E+02
 0.38537878991E+02 0.26375715596E+02 0.17800228410E+02 0.12397823577E+02 0.93527163458E+01
 0.75659999958E+01 0.61638527460E+01 0.50574395565E+01 0.42256441788E+01 0.36160590389E+01
 0.31718725833E+01 0.28461845570E+01 0.26065156405E+01 0.24337119840E+01 0.23184291105E+01
 0.22571785310E+01 0.22491290915E+01 0.22942743263E+01 0.23931669144E+01 0.25482422956E+01
 0.27666238464E+01 0.30639714736E+01 0.34683993921E+01 0.40227850391E+01 0.47827160226E+01
 0.58060550383E+01 0.71303501826E+01 0.87692373240E+01 0.11320908012E+02 0.15951602950E+02
 0.23632333437E+02 0.34945055981E+02 0.50002101296E+02 0.68427751550E+02 0.89362626369E+02
 0.11147719705E+03 0.13302338126E+03 0.15197671041E+03 0.13256694375E+03 0.14086330908E+03
 0.14324354165E+03 0.13942967410E+03 0.12994742389E+03 0.11600029399E+03 0.99202495248E+02
 0.81266516647E+02 0.63741892125E+02 0.47857628018E+02 0.34461443325E+02 0.24010877131E+02
 0.16573604886E+02 0.11828234250E+02 0.90931406351E+01 0.74226096418E+01 0.60817409280E+01
 0.50127160027E+01 0.42001396940E+01 0.35983893044E+01 0.31557849207E+01 0.28282991288E+01
 0.25845113642E+01 0.24052539575E+01 0.22807664312E+01 0.22071874000E+01 0.21835283517E+01
 0.22097399117E+01 0.22860614800E+01 0.24136729925E+01 0.25966456561E+01 0.28450171341E+01
 0.31783946830E+01 0.36289482734E+01 0.42419573304E+01 0.50710652361E+01 0.61647240641E+01
 0.75419902851E+01 0.92678994820E+01 0.12112630621E+02 0.17079551351E+02 0.24901326800E+02
 0.35913807626E+02 0.50002101296E+02 0.66592188635E+02 0.84668315592E+02 0.10282348851E+03
 0.11937429390E+03 0.10113581097E+03 0.10903329196E+03 0.11235805062E+03 0.11070967171E+03
 0.10434523794E+03 0.94114361465E+02 0.81266516647E+02 0.67199173564E+02 0.53226658746E+02
 0.40423093338E+02 0.29547112809E+02 0.21020037244E+02 0.14922827014E+02 0.10998832568E+02
 0.86788804822E+01 0.71638394560E+01 0.59095023625E+01 0.49012828922E+01 0.41267861680E+01
 0.35466829629E+01 0.31152400122E+01 0.27925635043E+01 0.25494579555E+01 0.23675726500E+01
 0.22371862589E+01 0.21542228610E+01 0.21175382163E+01 0.21270569151E+01 0.21829321860E+01
 0.22857118306E+01 0.24375318377E+01 0.26443436640E+01 0.29189006761E+01 0.32837817260E+01
 0.37732454845E+01 0.44320593763E+01 0.53086671363E+01 0.64401584888E+01 0.78292569501E+01
 0.96067751175E+01 0.12554942953E+02 0.17481370047E+02 0.24901326800E+02 0.34945055981E+02
 0.47321816063E+02 0.61325955437E+02 0.75881424871E+02 0.89638018043E+02 0.73603872046E+02
 0.80594980114E+02 0.84236425449E+02 0.84074320080E+02 0.80171972452E+02 0.73087354439E+02
 0.63741892125E+02 0.53226658746E+02 0.42608233570E+02 0.32782994811E+02 0.24395883967E+02
 0.17808962692E+02 0.13094229291E+02 0.10037242092E+02 0.81601604404E+01 0.68082595540E+01
 0.56599795019E+01 0.47311189197E+01 0.40102239369E+01 0.34635940768E+01 0.30518066400E+01
 0.27399569727E+01 0.25019926557E+01 0.23211089107E+01 0.21880665435E+01 0.20987500033E+01
 0.20518571698E+01 0.20472401482E+01 0.20850444944E+01 0.21655888833E+01 0.22899746504E+01
 0.24615131019E+01 0.26879408509E+01 0.29840474096E+01 0.33739456735E+01 0.38918060119E+01
 0.45793193367E+01 0.54777284436E+01 0.66130618329E+01 0.79766956114E+01 0.97275720788E+01
 0.12554942953E+02 0.17079551351E+02 0.23632333437E+02 0.32185796802E+02 0.42335780525E+02
 0.53329175852E+02 0.64140541754E+02 0.50971255253E+02 0.56722948633E+02 0.60187963953E+02
 0.60911332270E+02 0.58826682074E+02 0.54262118087E+02 0.47857628018E+02 0.40423093338E+02
 0.32782994811E+02 0.25649096551E+02 0.19540619589E+02 0.14747169106E+02 0.11317626097E+02
 0.90634858249E+01 0.75803484187E+01 0.63790163631E+01 0.53503135723E+01 0.45137605032E+01
 0.38577577555E+01 0.33536391222E+01 0.29683118806E+01 0.26723058830E+01 0.24433220372E+01
 0.22666638971E+01 0.21339620433E+01 0.20412382979E+01 0.19870383455E+01 0.19710640025E+01
 0.19934189631E+01 0.20543781757E+01 0.21546174428E+01 0.22959884105E+01 0.24829504944E+01
 0.27245628850E+01 0.30366098580E+01 0.34431162514E+01 0.39761649978E+01 0.46725221810E+01
 0.55655306842E+01 0.66719494921E+01 0.79766956114E+01 0.96067751175E+01 0.12112630621E+02
 0.15951602950E+02 0.21310940952E+02 0.28060611390E+02 0.35754925945E+02 0.43683412396E+02
 0.33689031391E+02 0.38036632001E+02 0.40970022119E+02 0.42075402620E+02 0.41212332592E+02
 0.38537878991E+02 0.34461443325E+02 0.29547112809E+02 0.24395883967E+02 0.19540619589E+02
 0.15373278227E+02 0.12106176523E+02 0.97578991561E+01 0.81554921400E+01 0.69572547758E+01
 0.59016227271E+01 0.49998971228E+01 0.42627659239E+01 0.36783493249E+01 0.32225955126E+01
 0.28685098466E+01 0.25921241722E+01 0.23751751824E+01 0.22054286846E+01 0.20756823057E+01
 0.19822608897E+01 0.19235817379E+01 0.18991202450E+01 0.19088432175E+01 0.19529983826E+01
 0.20321528921E+01 0.21475172634E+01 0.23017040234E+01 0.25000080849E+01 0.27520653716E+01
 0.30734654711E+01 0.34866329661E+01 0.40200182204E+01 0.47044214737E+01 0.55655306842E+01
 0.66130618329E+01 0.78292569501E+01 0.92678994820E+01 0.11320908012E+02 0.14313606514E+02
 0.18335153397E+02 0.23211776315E+02 0.28527097833E+02 0.21657967274E+02 0.24613907113E+02
 0.26811671416E+02 0.27913306054E+02 0.27753880631E+02 0.26375715596E+02 0.24010877131E+02
 0.21020037244E+02 0.17808962692E+02 0.14747169106E+02 0.12106176523E+02 0.10022714580E+02
 0.84831584546E+01 0.73243141402E+01 0.63086406580E+01 0.54017890041E+01 0.46283464317E+01
 0.39921291540E+01 0.34815146147E+01 0.30767939104E+01 0.27566508890E+01 0.25023648690E+01
 0.22996784814E+01 0.21389482274E+01 0.20143200038E+01 0.19225622314E+01 0.18620122006E+01
 0.18318723177E+01 0.18318685864E+01 0.18621408211E+01 0.19232328432E+01 0.20161653159E+01
 0.21427081752E+01 0.23060150748E+01 0.25116801826E+01 0.27690587005E+01 0.30924450709E+01
 0.35014847544E+01 0.40200182204E+01 0.46725221810E+01 0.54777284436E+01 0.64401584888E+01
 0.75419902851E+01 0.87692373240E+01 0.10335536137E+02 0.12467998044E+02 0.15203416047E+02
 0.18377583245E+02 0.14212452954E+02 0.15972879636E+02 0.17400900799E+02 0.18258417122E+02
 0.18398105846E+02 0.17800228410E+02 0.16573604886E+02 0.14922827014E+02 0.13094229291E+02
 0.11317626097E+02 0.97578991561E+01 0.84831584546E+01 0.74496108297E+01 0.65223449371E+01
 0.56641554086E+01 0.49033269276E+01 0.42536956102E+01 0.37148798497E+01 0.32763292641E+01
 0.29224541964E+01 0.26370511303E+01 0.24061418297E+01 0.22191789503E+01 0.20690218250E+01
 0.19512157382E+01 0.18630729741E+01 0.18029229012E+01 0.17696964042E+01 0.17628073042E+01
 0.17821801990E+01 0.18282811488E+01 0.19020967417E+01 0.20051228987E+01 0.21395165178E+01
 0.23085717772E+01 0.25175654480E+01 0.27747994706E+01 0.30924450709E+01 0.34866329661E+01
 0.39761649978E+01 0.45793193367E+01 0.53086671363E+01 0.61647240641E+01 0.71303501826E+01
 0.81691524791E+01 0.93165652751E+01 0.10714407142E+02 0.12385547707E+02 0.10171748831E+02
 0.11093800142E+02 0.11889502713E+02 0.12428308678E+02 0.12610094522E+02 0.12397823577E+02
 0.11828234250E+02 0.10998832568E+02 0.10037242092E+02 0.90634858249E+01 0.81554921400E+01
 0.73243141402E+01 0.65223449371E+01 0.57548795614E+01 0.50500376497E+01 0.44262424453E+01
 0.38909626973E+01 0.34420233076E+01 0.30706770336E+01 0.27651727931E+01 0.25137444663E+01
 0.23064827588E+01 0.21360583697E+01 0.19975643544E+01 0.18878680717E+01 0.18048711300E+01
 0.17469802130E+01 0.17129094978E+01 0.17017476446E+01 0.17131240760E+01 0.17473229034E+01
 0.18052686195E+01 0.18883980353E+01 0.19985243623E+01 0.21378671618E+01 0.23094047908E+01
 0.25175654480E+01 0.27690587005E+01 0.30734654711E+01 0.34431162514E+01 0.38918060119E+01
 0.44320593763E+01 0.50710652361E+01 0.58060550383E+01 0.66205536932E+01 0.74831296239E+01
 0.83519349457E+01 0.92390054557E+01 0.80202397539E+01 0.85548972308E+01 0.89908872884E+01
 0.92934782686E+01 0.94218450491E+01 0.93527163458E+01 0.90931406351E+01 0.86788804822E+01
 0.81601604404E+01 0.75803484187E+01 0.69572547758E+01 0.63086406580E+01 0.56641554086E+01
 0.50500376497E+01 0.44863296973E+01 0.39852818817E+01 0.35512216677E+01 0.31819017627E+01
 0.28708003850E+01 0.26096088518E+01 0.23902588998E+01 0.22061540362E+01 0.20525780297E+01
 0.19264634548E+01 0.18258146374E+01 0.17491050002E+01 0.16948984578E+01 0.16617904829E+01
 0.16485980017E+01 0.16546347303E+01 0.16799160559E+01 0.17252021877E+01 0.17918624237E+01
 0.18816197193E+01 0.19963142313E+01 0.21378671618E+01 0.23085717772E+01 0.25116801826E+01
 0.27520653716E+01 0.30366098580E+01 0.33739456735E+01 0.37732454845E+01 0.42419573304E+01
 0.47827160226E+01 0.53901054209E+01 0.60482953679E+01 0.67305763281E+01 0.74013381496E+01
 0.64514405881E+01 0.68825494958E+01 0.72293239033E+01 0.74678283351E+01 0.75821689915E+01
 0.75659999958E+01 0.74226096418E+01 0.71638394560E+01 0.68082595540E+01 0.63790163631E+01
 0.59016227271E+01 0.54017890041E+01 0.49033269276E+01 0.44262424453E+01 0.39852818817E+01
 0.35892500110E+01 0.32412846656E+01 0.29400001988E+01 0.26811526002E+01 0.24593654632E+01
 0.22695178431E+01 0.21075673457E+01 0.19707757200E+01 0.18574627926E+01 0.17665147692E+01
 0.16969008231E+01 0.16473974456E+01 0.16165991526E+01 0.16031602375E+01 0.16061278642E+01
 0.16252180409E+01 0.16609308895E+01 0.17144642945E+01 0.17874515231E+01 0.18816197193E+01
 0.19985243623E+01 0.21395165178E+01 0.23060150748E+01 0.25000080849E+01 0.27245628850E+01
 0.29840474096E+01 0.32837817260E+01 0.36289482734E+01 0.40227850391E+01 0.44643485587E+01
 0.49463975014E+01 0.54540923181E+01 0.59651129660E+01 0.52369597702E+01 0.55648365604E+01
 0.58382732501E+01 0.60378905202E+01 0.61490746707E+01 0.61638527460E+01 0.60817409280E+01
 0.59095023625E+01 0.56599795019E+01 0.53503135723E+01 0.49998971228E+01 0.46283464317E+01
 0.42536956102E+01 0.38909626973E+01 0.35512216677E+01 0.32412846656E+01 0.29640148421E+01
 0.27191635524E+01 0.25045103221E+01 0.23170304581E+01 0.21538396265E+01 0.20127523465E+01
 0.18924135063E+01 0.17920848817E+01 0.17112564303E+01 0.16492769316E+01 0.16051551240E+01
 0.15775935779E+01 0.15652220251E+01 0.15669294072E+01 0.15821705870E+01 0.16111413609E+01
 0.16547612426E+01 0.17144642945E+01 0.17918624237E+01 0.18883980353E+01 0.20051228987E+01
 0.21427081752E+01 0.23017040234E+01 0.24829504944E+01 0.26879408509E+01 0.29189006761E+01
 0.31783946830E+01 0.34683993921E+01 0.37889517553E+01 0.41366582651E+01 0.45034755869E+01
 0.48761970444E+01 0.43439269237E+01 0.45824401813E+01 0.47854659365E+01 0.49391661675E+01
 0.50322249246E+01 0.50574395565E+01 0.50127160027E+01 0.49012828922E+01 0.47311189197E+01
 0.45137605032E+01 0.42627659239E+01 0.39921291540E+01 0.37148798497E+01 0.34420233076E+01
 0.31819017627E+01 0.29400001988E+01 0.27191635524E+01 0.25201350581E+01 0.23422789696E+01
 0.21843275402E+01 0.20449984078E+01 0.19233680977E+01 0.18189595545E+01 0.17315901203E+01
 0.16610971771E+01 0.16070802214E+01 0.15687661508E+01 0.15450434182E+01 0.15346501984E+01
 0.15364565837E+01 0.15497534121E+01 0.15744544393E+01 0.16111413609E+01 0.16609308895E+01
 0.17252021877E+01 0.18052686195E+01 0.19020967417E+01 0.20161653159E+01 0.21475172634E+01
 0.22959884105E+01 0.24615131019E+01 0.26443436640E+01 0.28450171341E+01 0.30639714736E+01
 0.33008303935E+01 0.35534981724E+01 0.38172972531E+01 0.40844191169E+01 0.37040685106E+01
 0.38740618820E+01 0.40195740285E+01 0.41315021050E+01 0.42020114889E+01 0.42256441788E+01
 0.42001396940E+01 0.41267861680E+01 0.40102239369E+01 0.38577577555E+01 0.36783493249E+01
 0.34815146147E+01 0.32763292641E+01 0.30706770336E+01 0.28708003850E+01 0.26811526002E+01
 0.25045103221E+01 0.23422789696E+01 0.21949079529E+01 0.20623263742E+01 0.19443127583E+01
 0.18407290211E+01 0.17515860185E+01 0.16769614124E+01 0.16168386396E+01 0.15709534111E+01
 0.15387155902E+01 0.15192372701E+01 0.15114638781E+01 0.15143799697E+01 0.15272394765E+01
 0.15497534121E+01 0.15821705870E+01 0.16252180409E+01 0.16799160559E+01 0.17473229034E+01
 0.18282811488E+01 0.19232328432E+01 0.20321528921E+01 0.21546174428E+01 0.22899746504E+01
 0.24375318377E+01 0.25966456561E+01 0.27666238464E+01 0.29464137197E+01 0.31341339613E+01
 0.33265718303E+01 0.35188007555E+01 0.32480577246E+01 0.33687797611E+01 0.34712461353E+01
 0.35497489590E+01 0.35992507235E+01 0.36160590389E+01 0.35983893044E+01 0.35466829629E+01
 0.34635940768E+01 0.33536391222E+01 0.32225955126E+01 0.30767939104E+01 0.29224541964E+01
 0.27651727931E+01 0.26096088518E+01 0.24593654632E+01 0.23170304581E+01 0.21843275402E+01
 0.20623263742E+01 0.19516641763E+01 0.18527375573E+01 0.17658322399E+01 0.16911738667E+01
 0.16289066130E+01 0.15790298859E+01 0.15413344861E+01 0.15153731438E+01 0.15004838813E+01
 0.14958692717E+01 0.15007227924E+01 0.15143799697E+01 0.15364565837E+01 0.15669294072E+01
 0.16061278642E+01 0.16546347303E+01 0.17131240760E+01 0.17821801990E+01 0.18621408211E+01
 0.19529983826E+01 0.20543781757E+01 0.21655888833E+01 0.22857118306E+01 0.24136729925E+01
 0.25482422956E+01 0.26879318030E+01 0.28308058968E+01 0.29742549228E+01 0.31148070895E+01
 0.29216697408E+01 0.30072557974E+01 0.30783326351E+01 0.31313929605E+01 0.31633439611E+01
 0.31718725833E+01 0.31557849207E+01 0.31152400122E+01 0.30518066400E+01 0.29683118806E+01
 0.28685098466E+01 0.27566508890E+01 0.26370511303E+01 0.25137444663E+01 0.23902588998E+01
 0.22695178431E+01 0.21538396265E+01 0.20449984078E+01 0.19443127583E+01 0.18527375573E+01
 0.17709445554E+01 0.16993840938E+01 0.16383253720E+01 0.15878770959E+01 0.15479947390E+01
 0.15184835855E+01 0.14990070209E+01 0.14891079014E+01 0.14882483457E+01 0.14958692717E+01
 0.15114638781E+01 0.15346501984E+01 0.15652220251E+01 0.16031602375E+01 0.16485980017E+01
 0.17017476446E+01 0.17628073042E+01 0.18318685864E+01 0.19088432175E+01 0.19934189631E+01
 0.20850444944E+01 0.21829321860E+01 0.22860614800E+01 0.23931669144E+01 0.25027036431E+01
 0.26127951095E+01 0.27211781751E+01 0.28251682258E+01 0.26893245921E+01 0.27484520606E+01
 0.27956635423E+01 0.28288309060E+01 0.28461248875E+01 0.28461845570E+01 0.28282991288E+01
 0.27925635043E+01 0.27399569727E+01 0.26723058830E+01 0.25921241722E+01 0.25023648690E+01
 0.24061418297E+01 0.23064827588E+01 0.22061540362E+01 0.21075673457E+01 0.20127523465E+01
 0.19233680977E+01 0.18407290211E+01 0.17658322399E+01 0.16993840938E+01 0.16418296536E+01
 0.15933893687E+01 0.15541032262E+01 0.15238777760E+01 0.15025284197E+01 0.14898108845E+01
 0.14854411092E+01 0.14891079014E+01 0.15004838813E+01 0.15192372701E+01 0.15450434182E+01
 0.15775935779E+01 0.16165991526E+01 0.16617904829E+01 0.17129094978E+01 0.17696964042E+01
 0.18318723177E+01 0.18991202450E+01 0.19710640025E+01 0.20472401482E+01 0.21270569151E+01
 0.22097399117E+01 0.22942743263E+01 0.23793603380E+01 0.24633971711E+01 0.25445028044E+01
 0.26205664228E+01 0.25312468433E+01 0.25682756491E+01 0.25954054164E+01 0.26114315780E+01
 0.26153711666E+01 0.26065156405E+01 0.25845113642E+01 0.25494579555E+01 0.25019926557E+01
 0.24433220372E+01 0.23751751824E+01 0.22996784814E+01 0.22191789503E+01 0.21360583697E+01
 0.20525780297E+01 0.19707757200E+01 0.18924135063E+01 0.18189595545E+01 0.17515860185E+01
 0.16911738667E+01 0.16383253720E+01 0.15933893687E+01 0.15565026096E+01 0.15276451958E+01
 0.15067019656E+01 0.14935177831E+01 0.14879354668E+01 0.14898108845E+01 0.14990070209E+01
 0.15153731438E+01 0.15387155902E+01 0.15687661508E+01 0.16051551240E+01 0.16473974456E+01
 0.16948984578E+01 0.17469802130E+01 0.18029229012E+01 0.18620122006E+01 0.19235817379E+01
 0.19870383455E+01 0.20518571698E+01 0.21175382163E+01 0.21835283517E+01 0.22491290915E+01
 0.23134211902E+01 0.23752344569E+01 0.24331756410E+01 0.24857063834E+01 0.24384173101E+01
 0.24549585397E+01 0.24631569887E+01 0.24625425286E+01 0.24527920523E+01 0.24337119840E+01
 0.24052539575E+01 0.23675726500E+01 0.23211089107E+01 0.22666638971E+01 0.22054286846E+01
 0.21389482274E+01 0.20690218250E+01 0.19975643544E+01 0.19264634548E+01 0.18574627926E+01
 0.17920848817E+01 0.17315901203E+01 0.16769614124E+01 0.16289066130E+01 0.15878770959E+01
 0.15541032262E+01 0.15276451958E+01 0.15084533776E+01 0.14964288316E+01 0.14914731086E+01
 0.14935177831E+01 0.15025284197E+01 0.15184835855E+01 0.15413344861E+01 0.15709534111E+01
 0.16070802214E+01 0.16492769316E+01 0.16969008231E+01 0.17491050002E+01 0.18048711300E+01
 0.18630729741E+01 0.19225622314E+01 0.19822608897E+01 0.20412382979E+01 0.20987500033E+01
 0.21542228610E+01 0.22071874000E+01 0.22571785310E+01 0.23036400233E+01 0.23458687931E+01
 0.23830202469E+01 0.24141716359E+01 0.24076909079E+01 0.24039873634E+01 0.23929583362E+01
 0.23748233399E+01 0.23498778479E+01 0.23184291105E+01 0.22807664312E+01 0.22371862589E+01
 0.21880665435E+01 0.21339620433E+01 0.20756823057E+01 0.20143200038E+01 0.19512157382E+01
 0.18878680717E+01 0.18258146374E+01 0.17665147692E+01 0.17112564303E+01 0.16610971771E+01
 0.16168386396E+01 0.15790298859E+01 0.15479947390E+01 0.15238777760E+01 0.15067019656E+01
 0.14964288316E+01 0.14930111254E+01 0.14964288316E+01 0.15067019656E+01 0.15238777760E+01
 0.15479947390E+01 0.15790298859E+01 0.16168386396E+01 0.16610971771E+01 0.17112564303E+01
 0.17665147692E+01 0.18258146374E+01 0.18878680717E+01 0.19512157382E+01 0.20143200038E+01
 0.20756823057E+01 0.21339620433E+01 0.21880665435E+01 0.22371862589E+01 0.22807664312E+01
 0.23184291105E+01 0.23498778479E+01 0.23748233399E+01 0.23929583362E+01 0.24039873634E+01
 0.24384173101E+01 0.24141716359E+01 0.23830202469E+01 0.23458687931E+01 0.23036400233E+01
 0.22571785310E+01 0.22071874000E+01 0.21542228610E+01 0.20987500033E+01 0.20412382979E+01
 0.19822608897E+01 0.19225622314E+01 0.18630729741E+01 0.18048711300E+01 0.17491050002E+01
 0.16969008231E+01 0.16492769316E+01 0.16070802214E+01 0.15709534111E+01 0.15413344861E+01
 0.15184835855E+01 0.15025284197E+01 0.14935177831E+01 0.14914731086E+01 0.14964288316E+01
 0.15084533776E+01 0.15276451958E+01 0.15541032262E+01 0.15878770959E+01 0.16289066130E+01
 0.16769614124E+01 0.17315901203E+01 0.17920848817E+01 0.18574627926E+01 0.19264634548E+01
 0.19975643544E+01 0.20690218250E+01 0.21389482274E+01 0.22054286846E+01 0.22666638971E+01
 0.23211089107E+01 0.23675726500E+01 0.24052539575E+01 0.24337119840E+01 0.24527920523E+01
 0.24625425286E+01 0.24631569887E+01 0.24549585397E+01 0.25312468433E+01 0.24857063834E+01
 0.24331756410E+01 0.23752344569E+01 0.23134211902E+01 0.22491290915E+01 0.21835283517E+01
 0.21175382163E+01 0.20518571698E+01 0.19870383455E+01 0.19235817379E+01 0.18620122006E+01
 0.18029229012E+01 0.17469802130E+01 0.16948984578E+01 0.16473974456E+01 0.16051551240E+01
 0.15687661508E+01 0.15387155902E+01 0.15153731438E+01 0.14990070209E+01 0.14898108845E+01
 0.14879354668E+01 0.14935177831E+01 0.15067019656E+01 0.15276451958E+01 0.15565026096E+01
 0.15933893687E+01 0.16383253720E+01 0.16911738667E+01 0.17515860185E+01 0.18189595545E+01
 0.18924135063E+01 0.19707757200E+01 0.20525780297E+01 0.21360583697E+01 0.22191789503E+01
 0.22996784814E+01 0.23751751824E+01 0.24433220372E+01 0.25019926557E+01 0.25494579555E+01
 0.25845113642E+01 0.26065156405E+01 0.26153711666E+01 0.26114315780E+01 0.25954054164E+01
 0.25682756491E+01 0.26893245921E+01 0.26205664228E+01 0.25445028044E+01 0.24633971711E+01
 0.23793603380E+01 0.22942743263E+01 0.22097399117E+01 0.21270569151E+01 0.20472401482E+01
 0.19710640025E+01 0.18991202450E+01 0.18318723177E+01 0.17696964042E+01 0.17129094978E+01
 0.16617904829E+01 0.16165991526E+01 0.15775935779E+01 0.15450434182E+01 0.15192372701E+01
 0.15004838813E+01 0.14891079014E+01 0.14854411092E+01 0.14898108845E+01 0.15025284197E+01
 0.15238777760E+01 0.15541032262E+01 0.15933893687E+01 0.16418296536E+01 0.16993840938E+01
 0.17658322399E+01 0.18407290211E+01 0.19233680977E+01 0.20127523465E+01 0.21075673457E+01
 0.22061540362E+01 0.23064827588E+01 0.24061418297E+01 0.25023648690E+01 0.25921241722E+01
 0.26723058830E+01 0.27399569727E+01 0.27925635043E+01 0.28282991288E+01 0.28461845570E+01
 0.28461248875E+01 0.28288309060E+01 0.27956635423E+01 0.27484520606E+01 0.29216697408E+01
 0.28251682258E+01 0.27211781751E+01 0.26127951095E+01 0.25027036431E+01 0.23931669144E+01
 0.22860614800E+01 0.21829321860E+01 0.20850444944E+01 0.19934189631E+01 0.19088432175E+01
 0.18318685864E+01 0.17628073042E+01 0.17017476446E+01 0.16485980017E+01 0.16031602375E+01
 0.15652220251E+01 0.15346501984E+01 0.15114638781E+01 0.14958692717E+01 0.14882483457E+01
 0.14891079014E+01 0.14990070209E+01 0.15184835855E+01 0.15479947390E+01 0.15878770959E+01
 0.16383253720E+01 0.16993840938E+01 0.17709445554E+01 0.18527375573E+01 0.19443127583E+01
 0.20449984078E+01 0.21538396265E+01 0.22695178431E+01 0.23902588998E+01 0.25137444663E+01
 0.26370511303E+01 0.27566508890E+01 0.28685098466E+01 0.29683118806E+01 0.30518066400E+01
 0.31152400122E+01 0.31557849207E+01 0.31718725833E+01 0.31633439611E+01 0.31313929605E+01
 0.30783326351E+01 0.30072557974E+01 0.32480577246E+01 0.31148070895E+01 0.29742549228E+01
 0.28308058968E+01 0.26879318030E+01 0.25482422956E+01 0.24136729925E+01 0.22857118306E+01
 0.21655888833E+01 0.20543781757E+01 0.19529983826E+01 0.18621408211E+01 0.17821801990E+01
 0.17131240760E+01 0.16546347303E+01 0.16061278642E+01 0.15669294072E+01 0.15364565837E+01
 0.15143799697E+01 0.15007227924E+01 0.14958692717E+01 0.15004838813E+01 0.15153731438E+01
 0.15413344861E+01 0.15790298859E+01 0.16289066130E+01 0.16911738667E+01 0.17658322399E+01
 0.18527375573E+01 0.19516641763E+01 0.20623263742E+01 0.21843275402E+01 0.23170304581E+01
 0.24593654632E+01 0.26096088518E+01 0.27651727931E+01 0.29224541964E+01 0.30767939104E+01
 0.32225955126E+01 0.33536391222E+01 0.34635940768E+01 0.35466829629E+01 0.35983893044E+01
 0.36160590389E+01 0.35992507235E+01 0.35497489590E+01 0.34712461353E+01 0.33687797611E+01
 0.37040685106E+01 0.35188007555E+01 0.33265718303E+01 0.31341339613E+01 0.29464137197E+01
 0.27666238464E+01 0.25966456561E+01 0.24375318377E+01 0.22899746504E+01 0.21546174428E+01
 0.20321528921E+01 0.19232328432E+01 0.18282811488E+01 0.17473229034E+01 0.16799160559E+01
 0.16252180409E+01 0.15821705870E+01 0.15497534121E+01 0.15272394765E+01 0.15143799697E+01
 0.15114638781E+01 0.15192372701E+01 0.15387155902E+01 0.15709534111E+01 0.16168386396E+01
 0.16769614124E+01 0.17515860185E+01 0.18407290211E+01 0.19443127583E+01 0.20623263742E+01
 0.21949079529E+01 0.23422789696E+01 0.25045103221E+01 0.26811526002E+01 0.28708003850E+01
 0.30706770336E+01 0.32763292641E+01 0.34815146147E+01 0.36783493249E+01 0.38577577555E+01
 0.40102239369E+01 0.41267861680E+01 0.42001396940E+01 0.42256441788E+01 0.42020114889E+01
 0.41315021050E+01 0.40195740285E+01 0.38740618820E+01 0.43439269237E+01 0.40844191169E+01
 0.38172972531E+01 0.35534981724E+01 0.33008303935E+01 0.30639714736E+01 0.28450171341E+01
 0.26443436640E+01 0.24615131019E+01 0.22959884105E+01 0.21475172634E+01 0.20161653159E+01
 0.19020967417E+01 0.18052686195E+01 0.17252021877E+01 0.16609308895E+01 0.16111413609E+01
 0.15744544393E+01 0.15497534121E+01 0.15364565837E+01 0.15346501984E+01 0.15450434182E+01
 0.15687661508E+01 0.16070802214E+01 0.16610971771E+01 0.17315901203E+01 0.18189595545E+01
 0.19233680977E+01 0.20449984078E+01 0.21843275402E+01 0.23422789696E+01 0.25201350581E+01
 0.27191635524E+01 0.29400001988E+01 0.31819017627E+01 0.34420233076E+01 0.37148798497E+01
 0.39921291540E+01 0.42627659239E+01 0.45137605032E+01 0.47311189197E+01 0.49012828922E+01
 0.50127160027E+01 0.50574395565E+01 0.50322249246E+01 0.49391661675E+01 0.47854659365E+01
 0.45824401813E+01 0.52369597702E+01 0.48761970444E+01 0.45034755869E+01 0.41366582651E+01
 0.37889517553E+01 0.34683993921E+01 0.31783946830E+01 0.29189006761E+01 0.26879408509E+01
 0.24829504944E+01 0.23017040234E+01 0.21427081752E+01 0.20051228987E+01 0.18883980353E+01
 0.17918624237E+01 0.17144642945E+01 0.16547612426E+01 0.16111413609E+01 0.15821705870E+01
 0.15669294072E+01 0.15652220251E+01 0.15775935779E+01 0.16051551240E+01 0.16492769316E+01
 0.17112564303E+01 0.17920848817E+01 0.18924135063E+01 0.20127523465E+01 0.21538396265E+01
 0.23170304581E+01 0.25045103221E+01 0.27191635524E+01 0.29640148421E+01 0.32412846656E+01
 0.35512216677E+01 0.38909626973E+01 0.42536956102E+01 0.46283464317E+01 0.49998971228E+01
 0.53503135723E+01 0.56599795019E+01 0.59095023625E+01 0.60817409280E+01 0.61638527460E+01
 0.61490746707E+01 0.60378905202E+01 0.58382732501E+01 0.55648365604E+01 0.64514405881E+01
 0.59651129660E+01 0.54540923181E+01 0.49463975014E+01 0.44643485587E+01 0.40227850391E+01
 0.36289482734E+01 0.32837817260E+01 0.29840474096E+01 0.27245628850E+01 0.25000080849E+01
 0.23060150748E+01 0.21395165178E+01 0.19985243623E+01 0.18816197193E+01 0.17874515231E+01
 0.17144642945E+01 0.16609308895E+01 0.16252180409E+01 0.16061278642E+01 0.16031602375E+01
 0.16165991526E+01 0.16473974456E+01 0.16969008231E+01 0.17665147692E+01 0.18574627926E+01
 0.19707757200E+01 0.21075673457E+01 0.22695178431E+01 0.24593654632E+01 0.26811526002E+01
 0.29400001988E+01 0.32412846656E+01 0.35892500110E+01 0.39852818817E+01 0.44262424453E+01
 0.49033269276E+01 0.54017890041E+01 0.59016227271E+01 0.63790163631E+01 0.68082595540E+01
 0.71638394560E+01 0.74226096418E+01 0.75659999958E+01 0.75821689915E+01 0.74678283351E+01