   1   1   1   0
  0.3200000E+02  0.3464102E-09  0.3464102E-09  0.3464102E-09  0.5000000E-15
  1.000000000000000E-004
  CAR 
 Fe BCC                                  
     23.33453147     -6.71281533  301     -0.19734603      1.00000000
     -6.713  0.0000E+00  0.0000E+00  0.0000E+00  0.0000E+00
     -6.613  0.0000E+00  0.0000E+00  0.0000E+00  0.0000E+00
     -6.512  0.0000E+00  0.0000E+00  0.0000E+00  0.0000E+00
     -6.412  0.0000E+00  0.0000E+00  0.0000E+00  0.0000E+00
     -6.312  0.0000E+00  0.0000E+00  0.0000E+00  0.0000E+00
     -6.212  0.0000E+00  0.0000E+00  0.0000E+00  0.0000E+00
     -6.112  0.0000E+00  0.0000E+00  0.0000E+00  0.0000E+00
     -6.012  0.0000E+00  0.0000E+00  0.0000E+00  0.0000E+00
     -5.912  0.0000E+00  0.0000E+00  0.0000E+00  0.0000E+00
     -5.811  0.0000E+00  0.0000E+00  0.0000E+00  0.0000E+00
     -5.711  0.0000E+00  0.0000E+00  0.0000E+00  0.0000E+00
     -5.611  0.0000E+00  0.0000E+00  0.0000E+00  0.0000E+00
     -5.511  0.0000E+00  0.0000E+00  0.0000E+00  0.0000E+00
     -5.411  0.0000E+00  0.0000E+00  0.0000E+00  0.0000E+00
     -5.311  0.0000E+00  0.0000E+00  0.0000E+00  0.0000E+00
     -5.210  0.0000E+00  0.0000E+00  0.0000E+00  0.0000E+00
     -5.110  0.0000E+00  0.0000E+00  0.0000E+00  0.0000E+00
     -5.010  0.0000E+00  0.0000E+00  0.0000E+00  0.0000E+00
     -4.910  0.0000E+00  0.0000E+00  0.0000E+00  0.0000E+00
     -4.810  0.0000E+00  0.0000E+00  0.0000E+00  0.0000E+00
     -4.710  0.2049E-01  0.0000E+00  0.7148E-03  0.0000E+00
     -4.610  0.3685E-01  0.0000E+00  0.3614E-02  0.0000E+00
     -4.509  0.4989E-01  0.0000E+00  0.7986E-02  0.0000E+00
     -4.409  0.6061E-01  0.0000E+00  0.1350E-01  0.0000E+00
     -4.309  0.7889E-01  0.2663E-01  0.2053E-01  0.1650E-02
     -4.209  0.9238E-01  0.4083E-01  0.2914E-01  0.5056E-02
     -4.109  0.9568E-01  0.5171E-01  0.3874E-01  0.9718E-02
     -4.009  0.1092E+00  0.6405E-01  0.4898E-01  0.1541E-01
     -3.908  0.1245E+00  0.7826E-01  0.6067E-01  0.2258E-01
     -3.808  0.1415E+00  0.8725E-01  0.7397E-01  0.3091E-01
     -3.708  0.1604E+00  0.8504E-01  0.8908E-01  0.3956E-01
     -3.608  0.1847E+00  0.9255E-01  0.1062E+00  0.4845E-01
     -3.508  0.2437E+00  0.1005E+00  0.1275E+00  0.5811E-01
     -3.408  0.3199E+00  0.1088E+00  0.1556E+00  0.6859E-01
     -3.307  0.4612E+00  0.1175E+00  0.1936E+00  0.7992E-01
     -3.207  0.7702E+00  0.1267E+00  0.2540E+00  0.9214E-01
     -3.107  0.2205E+01  0.1326E+00  0.4033E+00  0.1051E+00
     -3.007  0.4868E+01  0.1405E+00  0.7908E+00  0.1188E+00
     -2.907  0.1861E+01  0.1472E+00  0.1102E+01  0.1332E+00
     -2.807  0.4002E+01  0.1521E+00  0.1855E+01  0.1482E+00
     -2.707  0.7488E+01  0.1581E+00  0.2288E+01  0.1637E+00
     -2.606  0.4199E+01  0.1659E+00  0.2858E+01  0.1799E+00
     -2.506  0.9279E+01  0.1758E+00  0.3930E+01  0.1970E+00
     -2.406  0.4450E+01  0.1867E+00  0.4519E+01  0.2151E+00
     -2.306  0.4458E+01  0.1984E+00  0.4946E+01  0.2344E+00
     -2.206  0.2301E+00  0.2111E+00  0.5151E+01  0.2549E+00
     -2.106  0.2284E+00  0.2247E+00  0.5174E+01  0.2767E+00
     -2.005  0.2278E+00  0.2397E+00  0.5197E+01  0.3000E+00
     -1.905  0.2283E+00  0.2589E+00  0.5220E+01  0.3249E+00
     -1.805  0.2221E+00  0.2879E+00  0.5243E+01  0.3522E+00
     -1.705  0.2235E+00  0.3218E+00  0.5265E+01  0.3827E+00
     -1.605  0.2166E+00  0.3624E+00  0.5287E+01  0.4169E+00
     -1.505  0.2091E+00  0.4180E+00  0.5308E+01  0.4558E+00
     -1.404  0.2056E+00  0.5028E+00  0.5329E+01  0.5025E+00
     -1.304  0.2034E+00  0.5286E+00  0.5350E+01  0.5543E+00
     -1.204  0.2031E+00  0.5418E+00  0.5370E+01  0.6079E+00
     -1.104  0.2063E+00  0.5679E+00  0.5390E+01  0.6633E+00
     -1.004  0.2107E+00  0.6953E+00  0.5411E+01  0.7316E+00
     -0.904  0.2163E+00  0.6808E+00  0.5433E+01  0.8009E+00
     -0.804  0.2230E+00  0.6249E+00  0.5455E+01  0.8666E+00
     -0.703  0.2309E+00  0.4726E+00  0.5477E+01  0.9220E+00
     -0.603  0.2418E+00  0.4614E+00  0.5501E+01  0.1005E+01
     -0.503  0.2469E+00  0.5538E+00  0.5526E+01  0.1044E+01
     -0.403  0.2509E+00  0.5161E+01  0.5551E+01  0.1313E+01
     -0.303  0.2554E+00  0.4332E+01  0.5576E+01  0.1881E+01
     -0.203  0.2632E+00  0.6295E+01  0.5602E+01  0.2366E+01
     -0.102  0.2767E+00  0.1656E+01  0.5629E+01  0.2808E+01
     -0.002  0.3084E+00  0.8719E+00  0.5658E+01  0.2919E+01
      0.098  0.3037E+00  0.1178E+01  0.5689E+01  0.3005E+01
      0.198  0.2971E+00  0.3585E+01  0.5719E+01  0.3227E+01
      0.298  0.2886E+00  0.8018E+01  0.5748E+01  0.3756E+01
      0.398  0.2782E+00  0.1152E+02  0.5776E+01  0.4402E+01
      0.499  0.2653E+00  0.5446E+01  0.5804E+01  0.5121E+01
      0.599  0.2377E+00  0.9507E+00  0.5829E+01  0.5300E+01
      0.699  0.2168E+00  0.5790E+00  0.5852E+01  0.5377E+01
      0.799  0.2016E+00  0.5541E+00  0.5872E+01  0.5434E+01
      0.899  0.1918E+00  0.5252E+00  0.5892E+01  0.5488E+01
      0.999  0.1945E+00  0.4926E+00  0.5911E+01  0.5539E+01
      1.099  0.1891E+00  0.4781E+00  0.5930E+01  0.5588E+01
      1.200  0.1849E+00  0.4702E+00  0.5949E+01  0.5635E+01
      1.300  0.1818E+00  0.4804E+00  0.5967E+01  0.5682E+01
      1.400  0.1679E+00  0.4143E+00  0.5987E+01  0.5727E+01
      1.500  0.1527E+00  0.3704E+00  0.6002E+01  0.5766E+01
      1.600  0.1672E+00  0.3308E+00  0.6018E+01  0.5801E+01
      1.700  0.1833E+00  0.2844E+00  0.6036E+01  0.5832E+01
      1.801  0.1877E+00  0.2537E+00  0.6055E+01  0.5859E+01
      1.901  0.1976E+00  0.2317E+00  0.6074E+01  0.5883E+01
      2.001  0.2278E+00  0.2037E+00  0.6096E+01  0.5905E+01
      2.101  0.3095E+00  0.1990E+00  0.6123E+01  0.5925E+01
      2.201  0.3774E+00  0.1965E+00  0.6157E+01  0.5945E+01
      2.301  0.4625E+00  0.2094E+00  0.6199E+01  0.5966E+01
      2.402  0.3918E+00  0.1792E+00  0.6241E+01  0.5985E+01
      2.502  0.3596E+00  0.1955E+00  0.6279E+01  0.6003E+01
      2.602  0.3499E+00  0.2403E+00  0.6315E+01  0.6025E+01
      2.702  0.2644E+00  0.2660E+00  0.6344E+01  0.6051E+01
      2.802  0.2587E+00  0.2897E+00  0.6370E+01  0.6078E+01
      2.902  0.2537E+00  0.3873E+00  0.6396E+01  0.6114E+01
      3.002  0.2496E+00  0.4628E+00  0.6421E+01  0.6157E+01
      3.103  0.2464E+00  0.4884E+00  0.6446E+01  0.6207E+01
      3.203  0.2440E+00  0.4295E+00  0.6470E+01  0.6252E+01
      3.303  0.2425E+00  0.3580E+00  0.6495E+01  0.6295E+01
      3.403  0.2877E+00  0.2971E+00  0.6524E+01  0.6327E+01
      3.503  0.2840E+00  0.2880E+00  0.6552E+01  0.6357E+01
      3.603  0.2845E+00  0.2800E+00  0.6581E+01  0.6385E+01
      3.704  0.2870E+00  0.2732E+00  0.6610E+01  0.6413E+01
      3.804  0.2910E+00  0.2676E+00  0.6638E+01  0.6440E+01
      3.904  0.2964E+00  0.2740E+00  0.6668E+01  0.6467E+01
      4.004  0.3140E+00  0.3108E+00  0.6699E+01  0.6496E+01
      4.104  0.3218E+00  0.3093E+00  0.6731E+01  0.6527E+01
      4.204  0.3286E+00  0.3048E+00  0.6764E+01  0.6558E+01
      4.305  0.3351E+00  0.3046E+00  0.6797E+01  0.6589E+01
      4.405  0.3348E+00  0.3068E+00  0.6832E+01  0.6619E+01
      4.505  0.3404E+00  0.3106E+00  0.6866E+01  0.6650E+01
      4.605  0.3453E+00  0.3158E+00  0.6900E+01  0.6681E+01
      4.705  0.3667E+00  0.3324E+00  0.6937E+01  0.6715E+01
      4.805  0.3846E+00  0.3299E+00  0.6974E+01  0.6750E+01
      4.905  0.3667E+00  0.3373E+00  0.7011E+01  0.6783E+01
      5.006  0.3631E+00  0.3438E+00  0.7048E+01  0.6817E+01
      5.106  0.3368E+00  0.3494E+00  0.7084E+01  0.6852E+01
      5.206  0.3329E+00  0.3540E+00  0.7117E+01  0.6887E+01
      5.306  0.3355E+00  0.3576E+00  0.7151E+01  0.6923E+01
      5.406  0.3331E+00  0.3847E+00  0.7185E+01  0.6962E+01
      5.506  0.3281E+00  0.3852E+00  0.7218E+01  0.7001E+01
      5.607  0.3247E+00  0.3440E+00  0.7250E+01  0.7039E+01
      5.707  0.3257E+00  0.3405E+00  0.7283E+01  0.7073E+01
      5.807  0.3259E+00  0.3369E+00  0.7316E+01  0.7107E+01
      5.907  0.3206E+00  0.3333E+00  0.7348E+01  0.7140E+01
      6.007  0.3177E+00  0.3353E+00  0.7380E+01  0.7174E+01
      6.107  0.3167E+00  0.3275E+00  0.7412E+01  0.7207E+01
      6.208  0.3157E+00  0.3216E+00  0.7443E+01  0.7240E+01
      6.308  0.3149E+00  0.3268E+00  0.7475E+01  0.7273E+01
      6.408  0.3141E+00  0.3272E+00  0.7506E+01  0.7306E+01
      6.508  0.3148E+00  0.3223E+00  0.7538E+01  0.7338E+01
      6.608  0.3203E+00  0.3182E+00  0.7570E+01  0.7370E+01
      6.708  0.3362E+00  0.3167E+00  0.7602E+01  0.7402E+01
      6.808  0.3338E+00  0.3155E+00  0.7636E+01  0.7434E+01
      6.909  0.3359E+00  0.3145E+00  0.7669E+01  0.7465E+01
      7.009  0.3375E+00  0.3142E+00  0.7703E+01  0.7497E+01
      7.109  0.3403E+00  0.3140E+00  0.7737E+01  0.7528E+01
      7.209  0.3478E+00  0.3161E+00  0.7774E+01  0.7560E+01
      7.309  0.3509E+00  0.3182E+00  0.7809E+01  0.7591E+01
      7.409  0.3570E+00  0.3275E+00  0.7844E+01  0.7624E+01
      7.510  0.3622E+00  0.3348E+00  0.7880E+01  0.7657E+01
      7.610  0.3668E+00  0.3406E+00  0.7917E+01  0.7691E+01
      7.710  0.3782E+00  0.3483E+00  0.7955E+01  0.7726E+01
      7.810  0.3811E+00  0.3577E+00  0.7993E+01  0.7764E+01
      7.910  0.3875E+00  0.3613E+00  0.8032E+01  0.7800E+01
      8.010  0.3757E+00  0.3636E+00  0.8069E+01  0.7836E+01
      8.111  0.3879E+00  0.3688E+00  0.8107E+01  0.7873E+01
      8.211  0.4055E+00  0.3743E+00  0.8147E+01  0.7910E+01
      8.311  0.4475E+00  0.3803E+00  0.8190E+01  0.7948E+01
      8.411  0.4612E+00  0.3899E+00  0.8236E+01  0.7987E+01
      8.511  0.4809E+00  0.3768E+00  0.8283E+01  0.8026E+01
      8.611  0.5043E+00  0.3892E+00  0.8332E+01  0.8064E+01
      8.711  0.5294E+00  0.4068E+00  0.8385E+01  0.8104E+01
      8.812  0.5521E+00  0.4269E+00  0.8439E+01  0.8146E+01
      8.912  0.5807E+00  0.4774E+00  0.8496E+01  0.8191E+01
      9.012  0.6231E+00  0.4890E+00  0.8555E+01  0.8239E+01
      9.112  0.6016E+00  0.5090E+00  0.8617E+01  0.8289E+01
      9.212  0.5756E+00  0.5361E+00  0.8676E+01  0.8342E+01
      9.312  0.5484E+00  0.5632E+00  0.8733E+01  0.8398E+01
      9.413  0.5100E+00  0.5875E+00  0.8786E+01  0.8455E+01
      9.513  0.4422E+00  0.6166E+00  0.8834E+01  0.8515E+01
      9.613  0.3428E+00  0.6589E+00  0.8873E+01  0.8580E+01
      9.713  0.2854E+00  0.5940E+00  0.8904E+01  0.8642E+01
      9.813  0.2682E+00  0.5727E+00  0.8932E+01  0.8700E+01
      9.913  0.2527E+00  0.5398E+00  0.8958E+01  0.8756E+01
     10.014  0.2450E+00  0.4822E+00  0.8983E+01  0.8807E+01
     10.114  0.2334E+00  0.3979E+00  0.9006E+01  0.8852E+01
     10.214  0.2273E+00  0.2929E+00  0.9030E+01  0.8885E+01
     10.314  0.2232E+00  0.2768E+00  0.9052E+01  0.8913E+01
     10.414  0.2197E+00  0.2623E+00  0.9074E+01  0.8940E+01
     10.514  0.2176E+00  0.2492E+00  0.9098E+01  0.8966E+01
     10.614  0.2319E+00  0.2389E+00  0.9120E+01  0.8990E+01
     10.715  0.1968E+00  0.2427E+00  0.9143E+01  0.9014E+01
     10.815  0.1948E+00  0.2396E+00  0.9163E+01  0.9038E+01
     10.915  0.1934E+00  0.2435E+00  0.9182E+01  0.9062E+01
     11.015  0.1925E+00  0.2245E+00  0.9201E+01  0.9087E+01
     11.115  0.1922E+00  0.2352E+00  0.9221E+01  0.9109E+01
     11.215  0.1953E+00  0.2356E+00  0.9240E+01  0.9133E+01
     11.316  0.1983E+00  0.1977E+00  0.9260E+01  0.9155E+01
     11.416  0.2028E+00  0.1976E+00  0.9280E+01  0.9174E+01
     11.516  0.2086E+00  0.1980E+00  0.9300E+01  0.9194E+01
     11.616  0.1999E+00  0.1987E+00  0.9323E+01  0.9214E+01
     11.716  0.2130E+00  0.2032E+00  0.9344E+01  0.9234E+01
     11.816  0.2270E+00  0.2062E+00  0.9366E+01  0.9255E+01
     11.917  0.2420E+00  0.2112E+00  0.9389E+01  0.9276E+01
     12.017  0.4351E+00  0.2175E+00  0.9425E+01  0.9297E+01
     12.117  0.3376E+00  0.2250E+00  0.9465E+01  0.9319E+01
     12.217  0.3381E+00  0.2338E+00  0.9499E+01  0.9342E+01
     12.317  0.3590E+00  0.2407E+00  0.9534E+01  0.9367E+01
     12.417  0.3759E+00  0.2398E+00  0.9571E+01  0.9392E+01
     12.517  0.3977E+00  0.4204E+00  0.9610E+01  0.9420E+01
     12.618  0.4151E+00  0.3978E+00  0.9650E+01  0.9465E+01
     12.718  0.4330E+00  0.3469E+00  0.9693E+01  0.9501E+01
     12.818  0.4604E+00  0.3412E+00  0.9738E+01  0.9535E+01
     12.918  0.4827E+00  0.3700E+00  0.9785E+01  0.9571E+01
     13.018  0.5084E+00  0.3916E+00  0.9835E+01  0.9609E+01
     13.118  0.5357E+00  0.4107E+00  0.9887E+01  0.9650E+01
     13.219  0.5602E+00  0.4423E+00  0.9942E+01  0.9693E+01
     13.319  0.5851E+00  0.4603E+00  0.9999E+01  0.9738E+01
     13.419  0.6109E+00  0.4818E+00  0.1006E+02  0.9785E+01
     13.519  0.6386E+00  0.5082E+00  0.1012E+02  0.9834E+01
     13.619  0.6422E+00  0.5321E+00  0.1019E+02  0.9887E+01
     13.719  0.6366E+00  0.5585E+00  0.1025E+02  0.9942E+01
     13.820  0.6196E+00  0.5817E+00  0.1031E+02  0.9999E+01
     13.920  0.5877E+00  0.6190E+00  0.1037E+02  0.1006E+02
     14.020  0.5203E+00  0.6316E+00  0.1043E+02  0.1012E+02
     14.120  0.4635E+00  0.6356E+00  0.1048E+02  0.1019E+02
     14.220  0.4266E+00  0.6318E+00  0.1052E+02  0.1025E+02
     14.320  0.4453E+00  0.6184E+00  0.1057E+02  0.1031E+02
     14.420  0.4238E+00  0.5905E+00  0.1061E+02  0.1037E+02
     14.521  0.4418E+00  0.5190E+00  0.1066E+02  0.1043E+02
     14.621  0.4632E+00  0.5551E+00  0.1070E+02  0.1048E+02
     14.721  0.4867E+00  0.4779E+00  0.1075E+02  0.1054E+02
     14.821  0.4950E+00  0.4501E+00  0.1080E+02  0.1058E+02
     14.921  0.5018E+00  0.4236E+00  0.1085E+02  0.1063E+02
     15.021  0.4933E+00  0.4668E+00  0.1090E+02  0.1067E+02
     15.122  0.5059E+00  0.4936E+00  0.1095E+02  0.1072E+02
     15.222  0.5129E+00  0.5193E+00  0.1100E+02  0.1077E+02
     15.322  0.5227E+00  0.5220E+00  0.1105E+02  0.1082E+02
     15.422  0.5341E+00  0.5233E+00  0.1111E+02  0.1088E+02
     15.522  0.5690E+00  0.5128E+00  0.1116E+02  0.1093E+02
     15.622  0.5585E+00  0.5241E+00  0.1122E+02  0.1098E+02
     15.723  0.5367E+00  0.5226E+00  0.1127E+02  0.1103E+02
     15.823  0.5020E+00  0.5300E+00  0.1132E+02  0.1108E+02
     15.923  0.4016E+00  0.5440E+00  0.1137E+02  0.1114E+02
     16.023  0.3863E+00  0.5605E+00  0.1141E+02  0.1120E+02
     16.123  0.3727E+00  0.5406E+00  0.1145E+02  0.1125E+02
     16.223  0.3606E+00  0.5073E+00  0.1149E+02  0.1130E+02
     16.323  0.3512E+00  0.4100E+00  0.1152E+02  0.1135E+02
     16.424  0.3371E+00  0.3934E+00  0.1156E+02  0.1139E+02
     16.524  0.3392E+00  0.3786E+00  0.1159E+02  0.1143E+02
     16.624  0.3149E+00  0.3655E+00  0.1162E+02  0.1147E+02
     16.724  0.3004E+00  0.3566E+00  0.1165E+02  0.1150E+02
     16.824  0.2861E+00  0.3429E+00  0.1168E+02  0.1154E+02
     16.924  0.2891E+00  0.3297E+00  0.1171E+02  0.1157E+02
     17.025  0.2824E+00  0.3309E+00  0.1174E+02  0.1161E+02
     17.125  0.2609E+00  0.3075E+00  0.1177E+02  0.1164E+02
     17.225  0.2080E+00  0.2937E+00  0.1179E+02  0.1167E+02
     17.325  0.1919E+00  0.3030E+00  0.1181E+02  0.1170E+02
     17.425  0.1767E+00  0.3034E+00  0.1183E+02  0.1173E+02
     17.525  0.1625E+00  0.2964E+00  0.1185E+02  0.1176E+02
     17.626  0.1493E+00  0.2166E+00  0.1186E+02  0.1178E+02
     17.726  0.2261E+00  0.1995E+00  0.1188E+02  0.1180E+02
     17.826  0.1272E+00  0.1834E+00  0.1189E+02  0.1182E+02
     17.926  0.1132E+00  0.1683E+00  0.1190E+02  0.1184E+02
     18.026  0.1016E+00  0.1542E+00  0.1192E+02  0.1186E+02
     18.126  0.9218E-01  0.1412E+00  0.1192E+02  0.1187E+02
     18.226  0.8494E-01  0.1336E+00  0.1193E+02  0.1189E+02
     18.327  0.7884E-01  0.1182E+00  0.1194E+02  0.1190E+02
     18.427  0.7390E-01  0.1051E+00  0.1195E+02  0.1191E+02
     18.527  0.4052E-01  0.9449E-01  0.1196E+02  0.1192E+02
     18.627  0.3778E-01  0.8619E-01  0.1196E+02  0.1193E+02
     18.727  0.3523E-01  0.7944E-01  0.1197E+02  0.1194E+02
     18.827  0.3287E-01  0.7485E-01  0.1197E+02  0.1195E+02
     18.928  0.3071E-01  0.5780E-01  0.1197E+02  0.1195E+02
     19.028  0.2866E-01  0.5869E-01  0.1198E+02  0.1196E+02
     19.128  0.2668E-01  0.3394E-01  0.1198E+02  0.1197E+02
     19.228  0.2477E-01  0.3186E-01  0.1198E+02  0.1197E+02
     19.328  0.2294E-01  0.2985E-01  0.1198E+02  0.1197E+02
     19.428  0.2118E-01  0.2791E-01  0.1199E+02  0.1197E+02
     19.529  0.1950E-01  0.2603E-01  0.1199E+02  0.1198E+02
     19.629  0.1789E-01  0.2422E-01  0.1199E+02  0.1198E+02
     19.729  0.1635E-01  0.2248E-01  0.1199E+02  0.1198E+02
     19.829  0.1488E-01  0.2080E-01  0.1199E+02  0.1198E+02
     19.929  0.5879E-02  0.1918E-01  0.1199E+02  0.1199E+02
     20.029  0.5503E-02  0.1764E-01  0.1200E+02  0.1199E+02
     20.129  0.5139E-02  0.1616E-01  0.1200E+02  0.1199E+02
     20.230  0.4787E-02  0.1474E-01  0.1200E+02  0.1199E+02
     20.330  0.4447E-02  0.1339E-01  0.1200E+02  0.1199E+02
     20.430  0.4118E-02  0.1211E-01  0.1200E+02  0.1199E+02
     20.530  0.3800E-02  0.5146E-02  0.1200E+02  0.1200E+02
     20.630  0.3494E-02  0.4768E-02  0.1200E+02  0.1200E+02
     20.730  0.3200E-02  0.4403E-02  0.1200E+02  0.1200E+02
     20.831  0.2918E-02  0.4051E-02  0.1200E+02  0.1200E+02
     20.931  0.2647E-02  0.3713E-02  0.1200E+02  0.1200E+02
     21.031  0.2387E-02  0.3388E-02  0.1200E+02  0.1200E+02
     21.131  0.0000E+00  0.3077E-02  0.1200E+02  0.1200E+02
     21.231  0.0000E+00  0.2779E-02  0.1200E+02  0.1200E+02
     21.331  0.0000E+00  0.2494E-02  0.1200E+02  0.1200E+02
     21.432  0.0000E+00  0.0000E+00  0.1200E+02  0.1200E+02
     21.532  0.0000E+00  0.0000E+00  0.1200E+02  0.1200E+02
     21.632  0.0000E+00  0.0000E+00  0.1200E+02  0.1200E+02
     21.732  0.0000E+00  0.0000E+00  0.1200E+02  0.1200E+02
     21.832  0.0000E+00  0.0000E+00  0.1200E+02  0.1200E+02
     21.932  0.0000E+00  0.0000E+00  0.1200E+02  0.1200E+02
     22.032  0.0000E+00  0.0000E+00  0.1200E+02  0.1200E+02
     22.133  0.0000E+00  0.0000E+00  0.1200E+02  0.1200E+02
     22.233  0.0000E+00  0.0000E+00  0.1200E+02  0.1200E+02
     22.333  0.0000E+00  0.0000E+00  0.1200E+02  0.1200E+02
     22.433  0.0000E+00  0.0000E+00  0.1200E+02  0.1200E+02
     22.533  0.0000E+00  0.0000E+00  0.1200E+02  0.1200E+02
     22.633  0.0000E+00  0.0000E+00  0.1200E+02  0.1200E+02
     22.734  0.0000E+00  0.0000E+00  0.1200E+02  0.1200E+02
     22.834  0.0000E+00  0.0000E+00  0.1200E+02  0.1200E+02
     22.934  0.0000E+00  0.0000E+00  0.1200E+02  0.1200E+02
     23.034  0.0000E+00  0.0000E+00  0.1200E+02  0.1200E+02
     23.134  0.0000E+00  0.0000E+00  0.1200E+02  0.1200E+02
     23.234  0.0000E+00  0.0000E+00  0.1200E+02  0.1200E+02
     23.335  0.0000E+00  0.0000E+00  0.1200E+02  0.1200E+02
     23.33453147     -6.71281533  301     -0.19734603      1.00000000
     -6.713  0.0000E+00  0.0000E+00  0.0000E+00  0.0000E+00  0.0000E+00  0.0000E+00  0.0000E+00  0.0000E+00  0.0000E+00  0.0000E+00  0.0000E+00  0.0000E+00  0.0000E+00  0.0000E+00  0.0000E+00  0.0000E+00  0.0000E+00  0.0000E+00
     -6.613  0.0000E+00  0.0000E+00  0.0000E+00  0.0000E+00  0.0000E+00  0.0000E+00  0.0000E+00  0.0000E+00  0.0000E+00  0.0000E+00  0.0000E+00  0.0000E+00  0.0000E+00  0.0000E+00  0.0000E+00  0.0000E+00  0.0000E+00  0.0000E+00
     -6.512  0.0000E+00  0.0000E+00  0.0000E+00  0.0000E+00  0.0000E+00  0.0000E+00  0.0000E+00  0.0000E+00  0.0000E+00  0.0000E+00  0.0000E+00  0.0000E+00  0.0000E+00  0.0000E+00  0.0000E+00  0.0000E+00  0.0000E+00  0.0000E+00
     -6.412  0.0000E+00  0.0000E+00  0.0000E+00  0.0000E+00  0.0000E+00  0.0000E+00  0.0000E+00  0.0000E+00  0.0000E+00  0.0000E+00  0.0000E+00  0.0000E+00  0.0000E+00  0.0000E+00  0.0000E+00  0.0000E+00  0.0000E+00  0.0000E+00
     -6.312  0.0000E+00  0.0000E+00  0.0000E+00  0.0000E+00  0.0000E+00  0.0000E+00  0.0000E+00  0.0000E+00  0.0000E+00  0.0000E+00  0.0000E+00  0.0000E+00  0.0000E+00  0.0000E+00  0.0000E+00  0.0000E+00  0.0000E+00  0.0000E+00
     -6.212  0.0000E+00  0.0000E+00  0.0000E+00  0.0000E+00  0.0000E+00  0.0000E+00  0.0000E+00  0.0000E+00  0.0000E+00  0.0000E+00  0.0000E+00  0.0000E+00  0.0000E+00  0.0000E+00  0.0000E+00  0.0000E+00  0.0000E+00  0.0000E+00
     -6.112  0.0000E+00  0.0000E+00  0.0000E+00  0.0000E+00  0.0000E+00  0.0000E+00  0.0000E+00  0.0000E+00  0.0000E+00  0.0000E+00  0.0000E+00  0.0000E+00  0.0000E+00  0.0000E+00  0.0000E+00  0.0000E+00  0.0000E+00  0.0000E+00
     -6.012  0.0000E+00  0.0000E+00  0.0000E+00  0.0000E+00  0.0000E+00  0.0000E+00  0.0000E+00  0.0000E+00  0.0000E+00  0.0000E+00  0.0000E+00  0.0000E+00  0.0000E+00  0.0000E+00  0.0000E+00  0.0000E+00  0.0000E+00  0.0000E+00
     -5.912  0.0000E+00  0.0000E+00  0.0000E+00  0.0000E+00  0.0000E+00  0.0000E+00  0.0000E+00  0.0000E+00  0.0000E+00  0.0000E+00  0.0000E+00  0.0000E+00  0.0000E+00  0.0000E+00  0.0000E+00  0.0000E+00  0.0000E+00  0.0000E+00
     -5.811  0.0000E+00  0.0000E+00  0.0000E+00  0.0000E+00  0.0000E+00  0.0000E+00  0.0000E+00  0.0000E+00  0.0000E+00  0.0000E+00  0.0000E+00  0.0000E+00  0.0000E+00  0.0000E+00  0.0000E+00  0.0000E+00  0.0000E+00  0.0000E+00
     -5.711  0.0000E+00  0.0000E+00  0.0000E+00  0.0000E+00  0.0000E+00  0.0000E+00  0.0000E+00  0.0000E+00  0.0000E+00  0.0000E+00  0.0000E+00  0.0000E+00  0.0000E+00  0.0000E+00  0.0000E+00  0.0000E+00  0.0000E+00  0.0000E+00
     -5.611  0.0000E+00  0.0000E+00  0.0000E+00  0.0000E+00  0.0000E+00  0.0000E+00  0.0000E+00  0.0000E+00  0.0000E+00  0.0000E+00  0.0000E+00  0.0000E+00  0.0000E+00  0.0000E+00  0.0000E+00  0.0000E+00  0.0000E+00  0.0000E+00
     -5.511  0.0000E+00  0.0000E+00  0.0000E+00  0.0000E+00  0.0000E+00  0.0000E+00  0.0000E+00  0.0000E+00  0.0000E+00  0.0000E+00  0.0000E+00  0.0000E+00  0.0000E+00  0.0000E+00  0.0000E+00  0.0000E+00  0.0000E+00  0.0000E+00
     -5.411  0.0000E+00  0.0000E+00  0.0000E+00  0.0000E+00  0.0000E+00  0.0000E+00  0.0000E+00  0.0000E+00  0.0000E+00  0.0000E+00  0.0000E+00  0.0000E+00  0.0000E+00  0.0000E+00  0.0000E+00  0.0000E+00  0.0000E+00  0.0000E+00
     -5.311  0.0000E+00  0.0000E+00  0.0000E+00  0.0000E+00  0.0000E+00  0.0000E+00  0.0000E+00  0.0000E+00  0.0000E+00  0.0000E+00  0.0000E+00  0.0000E+00  0.0000E+00  0.0000E+00  0.0000E+00  0.0000E+00  0.0000E+00  0.0000E+00
     -5.210  0.0000E+00  0.0000E+00  0.0000E+00  0.0000E+00  0.0000E+00  0.0000E+00  0.0000E+00  0.0000E+00  0.0000E+00  0.0000E+00  0.0000E+00  0.0000E+00  0.0000E+00  0.0000E+00  0.0000E+00  0.0000E+00  0.0000E+00  0.0000E+00
     -5.110  0.0000E+00  0.0000E+00  0.0000E+00  0.0000E+00  0.0000E+00  0.0000E+00  0.0000E+00  0.0000E+00  0.0000E+00  0.0000E+00  0.0000E+00  0.0000E+00  0.0000E+00  0.0000E+00  0.0000E+00  0.0000E+00  0.0000E+00  0.0000E+00
     -5.010  0.0000E+00  0.0000E+00  0.0000E+00  0.0000E+00  0.0000E+00  0.0000E+00  0.0000E+00  0.0000E+00  0.0000E+00  0.0000E+00  0.0000E+00  0.0000E+00  0.0000E+00  0.0000E+00  0.0000E+00  0.0000E+00  0.0000E+00  0.0000E+00
     -4.910  0.0000E+00  0.0000E+00  0.0000E+00  0.0000E+00  0.0000E+00  0.0000E+00  0.0000E+00  0.0000E+00  0.0000E+00  0.0000E+00  0.0000E+00  0.0000E+00  0.0000E+00  0.0000E+00  0.0000E+00  0.0000E+00  0.0000E+00  0.0000E+00
     -4.810  0.0000E+00  0.0000E+00  0.0000E+00  0.0000E+00  0.0000E+00  0.0000E+00  0.0000E+00  0.0000E+00  0.0000E+00  0.0000E+00  0.0000E+00  0.0000E+00  0.0000E+00  0.0000E+00  0.0000E+00  0.0000E+00  0.0000E+00  0.0000E+00
     -4.710  0.6122E-02  0.0000E+00  0.1947E-04  0.0000E+00  0.1330E-04  0.0000E+00  0.9936E-04  0.0000E+00  0.2413E-04  0.0000E+00  0.5758E-05  0.0000E+00  0.8025E-05  0.0000E+00  0.5751E-05  0.0000E+00  0.9745E-05  0.0000E+00
     -4.610  0.1089E-01  0.0000E+00  0.6312E-04  0.0000E+00  0.3966E-04  0.0000E+00  0.2204E-03  0.0000E+00  0.9118E-04  0.0000E+00  0.2888E-04  0.0000E+00  0.3133E-04  0.0000E+00  0.2124E-04  0.0000E+00  0.3947E-04  0.0000E+00
     -4.509  0.1460E-01  0.0000E+00  0.1077E-03  0.0000E+00  0.6002E-04  0.0000E+00  0.3571E-03  0.0000E+00  0.1840E-03  0.0000E+00  0.7148E-04  0.0000E+00  0.6912E-04  0.0000E+00  0.4186E-04  0.0000E+00  0.9656E-04  0.0000E+00
     -4.409  0.1754E-01  0.0000E+00  0.1567E-03  0.0000E+00  0.7708E-04  0.0000E+00  0.5162E-03  0.0000E+00  0.3070E-03  0.0000E+00  0.1399E-03  0.0000E+00  0.1228E-03  0.0000E+00  0.6926E-04  0.0000E+00  0.1828E-03  0.0000E+00
     -4.309  0.2248E-01  0.7476E-02  0.2488E-03  0.3677E-04  0.1286E-03  0.2423E-04  0.7418E-03  0.1426E-03  0.5695E-03  0.8748E-05  0.3729E-03  0.2621E-05  0.2321E-03  0.2798E-05  0.1578E-03  0.2482E-05  0.3392E-03  0.3666E-05
     -4.209  0.2581E-01  0.1138E-01  0.3427E-03  0.8053E-04  0.1906E-03  0.4795E-04  0.9355E-03  0.2654E-03  0.9705E-03  0.2172E-04  0.7570E-03  0.6965E-05  0.4015E-03  0.7319E-05  0.3193E-03  0.5434E-05  0.5635E-03  0.9673E-05
     -4.109  0.2561E-01  0.1430E-01  0.4296E-03  0.1256E-03  0.2722E-03  0.6629E-04  0.1103E-02  0.4029E-03  0.1660E-02  0.3810E-04  0.1399E-02  0.1289E-04  0.7598E-03  0.1375E-04  0.6507E-03  0.8469E-05  0.1099E-02  0.1890E-04
     -4.009  0.2817E-01  0.1757E-01  0.5117E-03  0.1904E-03  0.3379E-03  0.9448E-04  0.1316E-02  0.5840E-03  0.2951E-02  0.6208E-04  0.1939E-02  0.2523E-04  0.1483E-02  0.2313E-04  0.1009E-02  0.1362E-04  0.1693E-02  0.3271E-04
     -3.908  0.3092E-01  0.2128E-01  0.5966E-03  0.2829E-03  0.4059E-03  0.1498E-03  0.1557E-02  0.7876E-03  0.4578E-02  0.9817E-04  0.2627E-02  0.5418E-04  0.2427E-02  0.3618E-04  0.1479E-02  0.2579E-04  0.2423E-02  0.5253E-04
     -3.808  0.3386E-01  0.2350E-01  0.6845E-03  0.3781E-03  0.4763E-03  0.2161E-03  0.1824E-02  0.9608E-03  0.6541E-02  0.1418E-03  0.3462E-02  0.9650E-04  0.3592E-02  0.5160E-04  0.2061E-02  0.4389E-04  0.3288E-02  0.7683E-04
     -3.708  0.3698E-01  0.2247E-01  0.7752E-03  0.4601E-03  0.5491E-03  0.2992E-03  0.2119E-02  0.1104E-02  0.8840E-02  0.2015E-03  0.4444E-02  0.1576E-03  0.4977E-02  0.7866E-04  0.2754E-02  0.7569E-04  0.4290E-02  0.1308E-03
     -3.608  0.4027E-01  0.2420E-01  0.8890E-03  0.5425E-03  0.6540E-03  0.3610E-03  0.2440E-02  0.1301E-02  0.1199E-01  0.2921E-03  0.6772E-02  0.2026E-03  0.7057E-02  0.1158E-03  0.4350E-02  0.1044E-03  0.5598E-02  0.1821E-03
     -3.508  0.4730E-01  0.2601E-01  0.1139E-02  0.6277E-03  0.8981E-03  0.4248E-03  0.3037E-02  0.1518E-02  0.2031E-01  0.3992E-03  0.1423E-01  0.2554E-03  0.1301E-01  0.1603E-03  0.7986E-02  0.1392E-03  0.9171E-02  0.2416E-03
     -3.408  0.5435E-01  0.2789E-01  0.1349E-02  0.7157E-03  0.1118E-02  0.4905E-03  0.3827E-02  0.1757E-02  0.3287E-01  0.5229E-03  0.2426E-01  0.3160E-03  0.2307E-01  0.2120E-03  0.1280E-01  0.1800E-03  0.1539E-01  0.3093E-03
     -3.307  0.6393E-01  0.2985E-01  0.1504E-02  0.8064E-03  0.1242E-02  0.5583E-03  0.5117E-02  0.2017E-02  0.6474E-01  0.6631E-03  0.4152E-01  0.3845E-03  0.4768E-01  0.2711E-03  0.1984E-01  0.2268E-03  0.2777E-01  0.3852E-03
     -3.207  0.8050E-01  0.3189E-01  0.1733E-02  0.8999E-03  0.1357E-02  0.6280E-03  0.6889E-02  0.2298E-02  0.1478E+00  0.8198E-03  0.8297E-01  0.4607E-03  0.1109E+00  0.3376E-03  0.3011E-01  0.2796E-03  0.4997E-01  0.4693E-03
     -3.107  0.1063E+00  0.3283E-01  0.1964E-02  0.9910E-03  0.1991E-02  0.7256E-03  0.9466E-02  0.2576E-02  0.4226E+00  0.1077E-02  0.3038E+00  0.6633E-03  0.5390E+00  0.4523E-03  0.7370E-01  0.4059E-03  0.2695E+00  0.5825E-03
     -3.007  0.9965E-01  0.3416E-01  0.2865E-02  0.1110E-02  0.2693E-02  0.8482E-03  0.1765E-01  0.2878E-02  0.7245E+00  0.1416E-02  0.5050E+00  0.9469E-03  0.1549E+01  0.6119E-03  0.3006E+00  0.5397E-03  0.8981E+00  0.7583E-03
     -2.907  0.6121E-02  0.3512E-01  0.2369E-02  0.1216E-02  0.1350E-02  0.9710E-03  0.2593E-02  0.3176E-02  0.1923E+00  0.1802E-02  0.1591E+00  0.1273E-02  0.3352E+00  0.8066E-03  0.2419E+00  0.6858E-03  0.7098E+00  0.9895E-03
     -2.807  0.2997E-02  0.3552E-01  0.2560E-02  0.1284E-02  0.2067E-02  0.1072E-02  0.2558E-02  0.3445E-02  0.5576E+00  0.2272E-02  0.5605E+00  0.1623E-02  0.6587E+00  0.1047E-02  0.1219E+01  0.8478E-03  0.6329E+00  0.1270E-02
     -2.707  0.4069E-01  0.3617E-01  0.8819E-02  0.1356E-02  0.1024E-01  0.1169E-02  0.1170E-01  0.3723E-02  0.1288E+01  0.2864E-02  0.1745E+01  0.2001E-02  0.5684E+00  0.1339E-02  0.1441E+01  0.1023E-02  0.1672E+01  0.1580E-02
     -2.606  0.1393E-01  0.3722E-01  0.3985E-02  0.1439E-02  0.4231E-02  0.1265E-02  0.2855E-02  0.4020E-02  0.7098E+00  0.3597E-02  0.5997E+00  0.2410E-02  0.8093E+00  0.1688E-02  0.5784E+00  0.1209E-02  0.1163E+01  0.1919E-02
     -2.506  0.1867E-01  0.3870E-01  0.5033E-02  0.1533E-02  0.4707E-02  0.1358E-02  0.1982E-02  0.4350E-02  0.1795E+01  0.4547E-02  0.1025E+01  0.2882E-02  0.2615E+01  0.2127E-02  0.1337E+01  0.1406E-02  0.1963E+01  0.2288E-02
     -2.406  0.2657E-01  0.4028E-01  0.4360E-02  0.1629E-02  0.3924E-02  0.1452E-02  0.4084E-02  0.4703E-02  0.8197E+00  0.5661E-02  0.1265E+01  0.3426E-02  0.4792E+00  0.2640E-02  0.1128E+01  0.1623E-02  0.4410E+00  0.2689E-02
     -2.306  0.2594E-01  0.4198E-01  0.3478E-02  0.1727E-02  0.2267E-02  0.1548E-02  0.5152E-02  0.5077E-02  0.4720E+00  0.6940E-02  0.1944E+01  0.4044E-02  0.6837E-01  0.3227E-02  0.1497E+01  0.1860E-02  0.1919E+00  0.3124E-02
     -2.206  0.1996E-01  0.4378E-01  0.1542E-02  0.1828E-02  0.1053E-02  0.1644E-02  0.3135E-02  0.5473E-02  0.3962E-01  0.8383E-02  0.2467E-01  0.4734E-02  0.1313E-01  0.3888E-02  0.2475E-01  0.2117E-02  0.4411E-01  0.3591E-02
     -2.106  0.2211E-01  0.4555E-01  0.1750E-02  0.1923E-02  0.1194E-02  0.1742E-02  0.3579E-02  0.5898E-02  0.3841E-01  0.9996E-02  0.2388E-01  0.5823E-02  0.1171E-01  0.4655E-02  0.2359E-01  0.2450E-02  0.3867E-01  0.4117E-02
     -2.005  0.2428E-01  0.4639E-01  0.1963E-02  0.1998E-02  0.1334E-02  0.1853E-02  0.4039E-02  0.6392E-02  0.3719E-01  0.1222E-01  0.2307E-01  0.7907E-02  0.1050E-01  0.6000E-02  0.2242E-01  0.3205E-02  0.3398E-01  0.5551E-02
     -1.905  0.2648E-01  0.4795E-01  0.2181E-02  0.2085E-02  0.1474E-02  0.1990E-02  0.4514E-02  0.6869E-02  0.3597E-01  0.1491E-01  0.2223E-01  0.1061E-01  0.9510E-02  0.7620E-02  0.2124E-01  0.4072E-02  0.3006E-01  0.6957E-02
     -1.805  0.2788E-01  0.5075E-01  0.2378E-02  0.2229E-02  0.1612E-02  0.2189E-02  0.4879E-02  0.7413E-02  0.3403E-01  0.1900E-01  0.2095E-01  0.1469E-01  0.7912E-02  0.9961E-02  0.1975E-01  0.5095E-02  0.2438E-01  0.8778E-02
     -1.705  0.2974E-01  0.5390E-01  0.2579E-02  0.2366E-02  0.1748E-02  0.2381E-02  0.5319E-02  0.7989E-02  0.3251E-01  0.2403E-01  0.2007E-01  0.1987E-01  0.7440E-02  0.1285E-01  0.1853E-01  0.6248E-02  0.2238E-01  0.1092E-01