    1    1    1    2
  0.3200000E+02  0.3464102E-09  0.3464102E-09  0.3464102E-09  0.5000000E-15
  1.000000000000000E-004
  CAR 
 Fe BCC                                  
      8     26     12
 
  0.6250000E-01  0.6250000E-01  0.6250000E-01  0.1562500E-01
    1       -4.417098     -4.050808   1.000000   1.000000
    2       -2.760486     -0.170867   1.000000   0.206893
    3       -2.760486     -0.170867   1.000000   0.078812
    4       -2.608682      0.037215   1.000000   0.000000
    5       -2.550033      0.350115   1.000000   0.000000
    6       -2.550033      0.350115   1.000000   0.000000
    7        9.578749     10.332620   0.000000   0.000000
    8       10.501080     11.059858   0.000000   0.000000
    9       10.501080     11.059858   0.000000   0.000000
   10       14.067030     14.575078   0.000000   0.000000
   11       14.067030     14.575078   0.000000   0.000000
   12       15.402143     15.388167   0.000000   0.000000
 
  0.1875000E+00  0.6250000E-01  0.6250000E-01  0.4687500E-01
    1       -3.625197     -3.175642   1.000000   1.000000
    2       -2.826835     -0.281920   1.000000   1.062908
    3       -2.753509     -0.233919   1.000000   0.899649
    4       -2.556832      0.292661   1.000000   0.000000
    5       -2.534711      0.312995   1.000000   0.000000
    6       -2.363075      0.378530   1.000191   0.000000
    7        6.438265      7.101170   0.000000   0.000000
    8        8.515194      9.142897   0.000000   0.000000
    9        9.204169      9.716169   0.000000   0.000000
   10       13.806314     14.368782   0.000000   0.000000
   11       13.982534     14.460689   0.000000   0.000000
   12       15.605738     15.906223   0.000000   0.000000
 
  0.3125000E+00  0.6250000E-01  0.6250000E-01  0.4687500E-01
    1       -3.161485     -1.914300   1.000000   1.000000
    2       -2.886029     -0.383248   1.000000   1.000264
    3       -2.539989     -0.225038   1.000000   0.759315
    4       -2.524739      0.322545   1.000000   0.000000
    5       -2.441319      0.402403   1.000000   0.000000
    6       -1.491116      0.617945   1.065668   0.000000
    7        3.238741      3.985702   0.000000   0.000000
    8        7.458429      8.064585   0.000000   0.000000
    9        8.368367      8.860675   0.000000   0.000000
   10       13.282369     13.820774   0.000000   0.000000
   11       13.358676     13.887449   0.000000   0.000000
   12       17.025812     17.453683   0.000000   0.000000
 
  0.4375000E+00  0.6250000E-01  0.6250000E-01  0.2343750E-01
    1       -3.151210     -1.227934   1.000000   1.000000
    2       -2.909356     -0.423313   1.000000   1.000000
    3       -2.522461      0.071562   1.000000  -0.173622
    4       -2.521261      0.329060   1.000000   0.000000
    5       -2.314009      0.411997   1.000000   0.000000
    6        0.457569      1.116454   0.150897   0.000000
    7        0.621802      2.007720   0.000000   0.000000
    8        7.094084      7.677884   0.000000   0.000000
    9        8.082374      8.566893   0.000000   0.000000
   10       13.093653     13.596998   0.000000   0.000000
   11       13.127270     13.718004   0.000000   0.000000
   12       18.396677     18.905944   0.000000   0.000000
 
 -0.6250000E-01  0.6250000E-01  0.6250000E-01  0.1171875E-01
    1       -4.712815     -4.352266   1.000000   1.000000
    2       -2.728324     -0.119795   1.000000  -0.029371
    3       -2.728324     -0.119795   1.000000  -0.007829
    4       -2.714393     -0.094552   1.000000   0.000000
    5       -2.560019      0.335354   1.000000   0.000000
    6       -2.531747      0.383251   1.000000   0.000000
    7       11.535956     12.291674   0.000000   0.000000
    8       11.594663     12.355646   0.000000   0.000000
    9       11.594663     12.355646   0.000000   0.000000
   10       13.450164     13.593162   0.000000   0.000000
   11       14.481561     14.708655   0.000000   0.000000
   12       14.481561     14.708655   0.000000   0.000000
 
  0.1875000E+00  0.1875000E+00  0.6250000E-01  0.4687500E-01
    1       -3.043952     -2.108695   1.000000   1.000000
    2       -2.846791     -0.365874   1.000000   1.001102
    3       -2.764800     -0.354425   1.000000   1.035960
    4       -2.542931      0.327158   1.000000   0.000000
    5       -2.512914      0.398113   1.000000   0.000000
    6       -1.651813      0.653962   1.062606   0.000000
    7        4.828308      5.479238   0.000000   0.000000
    8        5.826391      6.452574   0.000000   0.000000
    9        7.802910      8.360245   0.000000   0.000000
   10       14.990332     15.497553   0.000000   0.000000
   11       15.122990     15.649095   0.000000   0.000000
   12       16.901884     17.296493   0.000000   0.000000
 
  0.3125000E+00  0.1875000E+00  0.6250000E-01  0.9375000E-01
    1       -3.004263     -1.053030   1.000000   1.000000
    2       -2.875250     -0.434833   1.000000   1.000000
    3       -2.606835     -0.309869   1.000000   0.971956
    4       -2.517193      0.350935   1.000000   0.000000
    5       -2.462882      0.411946   1.000000   0.000000
    6       -0.030098      1.324231   0.311671   0.000000
    7        2.304491      3.074266   0.000000   0.000000
    8        4.795703      5.432040   0.000000   0.000000
    9        7.207435      7.768015   0.000000   0.000000
   10       14.669787     15.168218   0.000000   0.000000
   11       16.477823     17.070360   0.000000   0.000000
   12       17.187979     17.537907   0.000000   0.000000
 
 -0.1875000E+00  0.1875000E+00  0.6250000E-01  0.4687500E-01
    1       -4.131075     -3.752772   1.000000   1.000000
    2       -2.770687     -0.189678   1.000000   0.448409
    3       -2.717691     -0.136401   1.000000  -0.066409
    4       -2.593304      0.070772   1.000000   0.000000
    5       -2.590658      0.261768   1.000000   0.000000
    6       -2.516030      0.400987   1.000000   0.000000
    7        8.210840      8.865384   0.000000   0.000000
    8        9.991419     10.690400   0.000000   0.000000
    9       10.707901     11.267499   0.000000   0.000000
   10       12.721068     13.157628   0.000000   0.000000
   11       13.466322     13.894437   0.000000   0.000000
   12       14.236450     14.554618   0.000000   0.000000
 
  0.3125000E+00  0.3125000E+00  0.6250000E-01  0.1562500E-01
    1       -2.957556     -0.658963   1.000000   1.000000
    2       -2.752192     -0.414262   1.000000   1.000000
    3       -2.752191     -0.414262   1.000000   1.006386
    4       -2.485507      0.391072   1.000000   0.000000
    5       -2.485507      0.391072   1.000000   0.000000
    6        1.448546      2.394934  -0.037669   0.000000
    7        2.387800      3.147509   0.000000   0.000000
    8        2.387800      3.147509   0.000000   0.000000
    9        6.910290      7.485726   0.000000   0.000000
   10       16.419890     16.908746   0.000000   0.000000
   11       16.613890     16.908746   0.000000   0.000000
   12       16.613890     17.242170   0.000000   0.000000
 
 -0.3125000E+00  0.3125000E+00  0.6250000E-01  0.4687500E-01
    1       -3.325561     -2.630632   1.000000   1.000000
    2       -2.836860     -0.297352   1.000000   1.031992
    3       -2.633700     -0.189668   1.000000   0.435933
    4       -2.533529      0.262626   1.000000   0.000000
    5       -2.396861      0.340675   1.000000   0.000000
    6       -2.286262      0.416079   1.010180   0.000000
    7        4.746755      5.441855   0.000000   0.000000
    8        8.652161      9.290776   0.000000   0.000000
    9        9.692771     10.165781   0.000000   0.000000
   10       12.473584     13.015448   0.000000   0.000000
   11       12.538492     13.052535   0.000000   0.000000
   12       14.776546     15.170608   0.000000   0.000000
 
 -0.1875000E+00  0.3125000E+00  0.6250000E-01  0.4687500E-01
    1       -3.407984     -2.891057   1.000000   1.000000
    2       -2.787007     -0.215956   1.000000   0.923459
    3       -2.739655     -0.211880   1.000000   0.600172
    4       -2.602944      0.196946   1.000000   0.000000
    5       -2.487281      0.279561   1.000000   0.000000
    6       -2.316210      0.432596   1.002045   0.000000
    7        6.420975      7.088405   0.000000   0.000000
    8        7.194693      7.801957   0.000000   0.000000
    9       10.252632     10.868334   0.000000   0.000000
   10       12.173571     12.554310   0.000000   0.000000
   11       13.017191     13.546984   0.000000   0.000000
   12       15.922671     16.313021   0.000000   0.000000
 
 -0.4375000E+00  0.4375000E+00  0.6250000E-01  0.4687500E-01
    1       -3.181430     -1.459193   1.000000   1.000000
    2       -2.883345     -0.372434   1.000000   1.000000
    3       -2.572387      0.001027   1.000000  -0.177661
    4       -2.530921      0.298431   1.000000   0.000000
    5       -2.249245      0.555603   1.000000   0.000000
    6       -0.686828      0.570484   0.909801   0.000000
    7        1.750806      2.678940   0.000000   0.000000
    8        7.911591      8.492246   0.000000   0.000000
    9        9.131916      9.568897   0.000000   0.000000
   10       12.078940     12.637690   0.000000   0.000000
   11       12.226345     12.821149   0.000000   0.000000
   12       16.263472     16.677309   0.000000   0.000000
 
 -0.3125000E+00  0.4375000E+00  0.6250000E-01  0.9375000E-01
    1       -3.066289     -1.669446   1.000000   1.000000
    2       -2.837775     -0.326095   1.000000   1.003825
    3       -2.684155     -0.241879   1.000000   0.815546
    4       -2.544944      0.242723   1.000000   0.000000
    5       -2.374756      0.415816   1.000000   0.000000
    6       -1.226721      0.696157   1.013230   0.000000
    7        3.505858      4.227037   0.000000   0.000000
    8        5.953242      6.573202   0.000000   0.000000
    9        9.625959     10.165736   0.000000   0.000000
   10       12.081543     12.584024   0.000000   0.000000
   11       13.527780     14.052679   0.000000   0.000000
   12       15.865684     16.316823   0.000000   0.000000
 
 -0.4375000E+00 -0.4375000E+00  0.6250000E-01  0.4687500E-01
    1       -3.071488     -1.027248   1.000000   1.000000
    2       -2.846270     -0.342267   1.000000   1.000000
    3       -2.666100     -0.185374   1.000000   0.424909
    4       -2.534302      0.261601   1.000000   0.000000
    5       -2.292260      0.488538   1.000000   0.000000
    6        0.808181      1.556577  -0.024824   0.000000
    7        0.856915      2.086260   0.000000   0.000000
    8        5.601563      6.208485   0.000000   0.000000
    9        9.352779      9.866481   0.000000   0.000000
   10       11.939747     12.494987   0.000000   0.000000
   11       14.829840     15.490049   0.000000   0.000000
   12       15.533513     15.839453   0.000000   0.000000
 
 -0.3125000E+00 -0.4375000E+00  0.6250000E-01  0.4687500E-01
    1       -2.939349     -0.795770   1.000000   1.000000
    2       -2.862045     -0.418487   1.000000   1.000000
    3       -2.756205     -0.306843   1.000000   1.066311
    4       -2.476582      0.306091   1.000000   0.000000
    5       -2.381230      0.404260   1.000000   0.000000
    6        0.516154      1.661702   0.053201   0.000000
    7        2.632991      3.360240   0.000000   0.000000
    8        3.324935      4.040405   0.000000   0.000000
    9        9.567038     10.130598   0.000000   0.000000
   10       13.058284     13.428893   0.000000   0.000000
   11       13.229148     13.840577   0.000000   0.000000
   12       15.166192     15.641399   0.000000   0.000000
 
  0.1875000E+00  0.1875000E+00  0.1875000E+00  0.1562500E-01
    1       -2.868208     -1.069104   1.000000   1.000000
    2       -2.868208     -0.456055   1.000000   1.000000
    3       -2.728827     -0.456055   1.000000   1.004707
    4       -2.520174      0.398135   1.000000   0.000000
    5       -2.520174      0.398135   1.000000   0.000000
    6       -0.298408      1.242973   0.474871   0.000000
    7        3.628298      4.242147   0.000000   0.000000
    8        4.960980      5.609240   0.000000   0.000000
    9        4.960980      5.609240   0.000000   0.000000
   10       18.073839     18.813819   0.000000   0.000000
   11       18.073839     18.813819   0.000000   0.000000
   12       18.903909     18.895079   0.000000   0.000000
 
  0.3125000E+00  0.1875000E+00  0.1875000E+00  0.2343750E-01
    1       -2.870010     -0.625167   1.000000   1.000000
    2       -2.864556     -0.484269   1.000000   1.000000
    3       -2.673854     -0.398021   1.000000   1.004100
    4       -2.517682      0.403708   1.000000   0.000000
    5       -2.513317      0.418255   1.000000   0.000000
    6        1.341673      2.286750  -0.034393   0.000000
    7        2.058130      2.830701   0.000000   0.000000
    8        3.979314      4.633814   0.000000   0.000000
    9        4.667076      5.324023   0.000000   0.000000
   10       18.451417     18.893806   0.000000   0.000000
   11       18.523518     19.039053   0.000000   0.000000
   12       19.880141     20.448251   0.000000   0.000000
 
 -0.1875000E+00  0.1875000E+00  0.1875000E+00  0.1171875E-01
    1       -3.596511     -3.166738   1.000000   1.000000
    2       -2.712432     -0.084499   1.000000  -0.274426
    3       -2.677373     -0.084499   1.000000  -0.096086
    4       -2.677372      0.073745   1.000000   0.000000
    5       -2.588334      0.081527   1.000000   0.000000
    6       -2.421288      0.444467   1.000000   0.000000
    7        8.420361      9.079668   0.000000   0.000000
    8        8.420361      9.079668   0.000000   0.000000
    9        8.572524      9.251736   0.000000   0.000000
   10       10.417850     10.747039   0.000000   0.000000
   11       15.595030     15.978396   0.000000   0.000000
   12       15.595030     15.978396   0.000000   0.000000
 
 -0.3125000E+00  0.3125000E+00  0.1875000E+00  0.4687500E-01
    1       -3.052776     -2.090498   1.000000   1.000000
    2       -2.814381     -0.202466   1.000000   0.907404
    3       -2.698721     -0.119962   1.000000  -0.050291
    4       -2.583182      0.099814   1.000000   0.000000
    5       -2.416699      0.312748   1.000000   0.000000
    6       -1.816561      0.499863   1.032217   0.000000
    7        5.263825      5.934070   0.000000   0.000000
    8        7.125792      7.743686   0.000000   0.000000
    9        8.268696      8.887827   0.000000   0.000000
   10       10.514075     10.987130   0.000000   0.000000
   11       15.003666     15.494416   0.000000   0.000000
   12       15.478004     15.930693   0.000000   0.000000
 
 -0.4375000E+00  0.4375000E+00  0.1875000E+00  0.4687500E-01
    1       -3.038468     -1.043415   1.000000   1.000000
    2       -2.792910     -0.317975   1.000000   1.000000
    3       -2.732608     -0.173433   1.000000   0.110202
    4       -2.559193      0.158249   1.000000   0.000000
    5       -2.263487      0.535207   1.000000   0.000000
    6       -0.100618      1.113535   0.400036   0.000000
    7        2.315994      3.113009   0.000000   0.000000
    8        6.412856      6.982607   0.000000   0.000000
    9        7.874370      8.490555   0.000000   0.000000
   10       11.965260     12.509085   0.000000   0.000000
   11       14.245907     14.705719   0.000000   0.000000
   12       14.499467     15.013067   0.000000   0.000000
 
 -0.3125000E+00  0.4375000E+00  0.1875000E+00  0.4687500E-01
    1       -2.938009     -1.080206   1.000000   1.000000
    2       -2.927124     -0.370998   1.000000   1.003878
    3       -2.679517     -0.097802   1.000000  -0.055485
    4       -2.500012      0.186772   1.000000   0.000000
    5       -2.338230      0.416989   1.000000   0.000000
    6       -0.419465      0.967501   0.569668   0.000000
    7        4.061418      4.732034   0.000000   0.000000
    8        4.721313      5.360865   0.000000   0.000000
    9        8.730880      9.408173   0.000000   0.000000
   10       10.125155     10.585020   0.000000   0.000000
   11       13.961578     14.450559   0.000000   0.000000
   12       14.835579     15.306856   0.000000   0.000000
 
 -0.4375000E+00 -0.4375000E+00  0.1875000E+00  0.4687500E-01
    1       -2.983386     -0.610273   1.000000   1.000000
    2       -2.899378     -0.451559   1.000000   1.000000
    3       -2.712890     -0.197763   1.000000   0.306028
    4       -2.446187      0.259470   1.000000   0.000000
    5       -2.291286      0.489248   1.000000   0.000000
    6        1.444343      2.437122  -0.061331   0.000000
    7        1.902214      2.580992   0.000000   0.000000
    8        4.130773      4.765020   0.000000   0.000000
    9        8.857788      9.517394   0.000000   0.000000
   10       11.252493     11.805895   0.000000   0.000000
   11       12.002119     12.403918   0.000000   0.000000
   12       14.454112     14.953089   0.000000   0.000000
 
 -0.3125000E+00  0.3125000E+00  0.3125000E+00  0.1171875E-01
    1       -2.970526     -1.224310   1.000000   1.000000
    2       -2.945598     -0.329095   1.000000   1.020807
    3       -2.515260      0.119071   1.000000  -0.014112
    4       -2.515259      0.119071   1.000000   0.000000
    5       -2.413065      0.327348   1.000000   0.000000
    6       -0.758283      0.717686   0.785106   0.000000
    7        5.820675      6.389387   0.000000   0.000000
    8        5.820675      6.389387   0.000000   0.000000
    9        6.524917      7.294515   0.000000   0.000000
   10        8.519766      9.053616   0.000000   0.000000
   11       13.930405     14.422572   0.000000   0.000000
   12       18.167444     18.617416   0.000000   0.000000
 
 -0.4375000E+00  0.4375000E+00  0.3125000E+00  0.4687500E-01
    1       -3.038795     -0.678779   1.000000   1.000000
    2       -3.004408     -0.506064   1.000000   1.000000
    3       -2.495224      0.162736   1.000000  -0.026991
    4       -2.440691      0.213435   1.000000   0.000000
    5       -2.283371      0.506959   1.000000   0.000000
    6        0.989849      1.849463  -0.026826   0.000000
    7        3.398479      4.037397   0.000000   0.000000
    8        5.091278      5.596282   0.000000   0.000000
    9        6.742172      7.508072   0.000000   0.000000
   10        9.000628      9.566718   0.000000   0.000000
   11       11.186430     11.690139   0.000000   0.000000
   12       17.715253     18.170717   0.000000   0.000000
 
 -0.4375000E+00 -0.4375000E+00  0.3125000E+00  0.1562500E-01
    1       -3.065049     -0.591205   1.000000   1.000000
    2       -3.065049     -0.591205   1.000000   1.000000
    3       -2.472987      0.163777   1.000000  -0.022125
    4       -2.304403      0.464394   1.000000   0.000000
    5       -2.304403      0.464395   1.000000   0.000000
    6        2.517851      3.264834  -0.011134   0.000000
    7        3.330146      3.885984   0.000000   0.000000
    8        3.330146      3.885984   0.000000   0.000000
    9        7.266274      8.027517   0.000000   0.000000
   10        9.124020      9.660589   0.000000   0.000000
   11        9.124020      9.660589   0.000000   0.000000
   12       17.768493     18.210728   0.000000   0.000000
 
 -0.4375000E+00  0.4375000E+00  0.4375000E+00  0.1171875E-01
    1       -3.122177     -0.664893   1.000000   1.000000
    2       -3.116443     -0.632088   1.000000   1.000000
    3       -2.311267      0.452090   1.000000  -0.000000
    4       -2.311266      0.452091   1.000000   0.000000
    5       -2.291176      0.498700   1.000000   0.000000
    6        2.616750      3.221412  -0.010282   0.000000
    7        4.340561      4.754406   0.000000   0.000000
    8        4.340561      4.754406   0.000000   0.000000
    9        5.403169      6.278224   0.000000   0.000000
   10        7.635803      8.312871   0.000000   0.000000
   11        8.638748      9.230646   0.000000   0.000000
   12       21.037476     21.334531   0.000000   0.000000
