 vasp.5.4.1 24Jun15 (build Jul 19 2016 16:50:41) complex                        
  
 executed on           IFC91_ompi date 2019.10.17  12:06:35
 running on    4 total cores
 distrk:  each k-point on    4 cores,    1 groups
 distr:  one band on NCORES_PER_BAND=   1 cores,    4 groups


--------------------------------------------------------------------------------------------------------


 INCAR:
 POTCAR:    PAW Fe 03Mar1998                      
 POTCAR:    PAW Fe 03Mar1998                      
   VRHFIN =Fe:  d7 s1                                                           
   LEXCH  = CA                                                                  
   EATOM  =   597.3608 eV,   43.9048 Ry                                         
                                                                                
   TITEL  = PAW Fe 03Mar1998                                                    
   LULTRA =        F    use ultrasoft PP ?                                      
   IUNSCR =        1    unscreen: 0-lin 1-nonlin 2-no                           
   RPACOR =    2.000    partial core radius                                     
   POMASS =   55.847; ZVAL   =    8.000    mass and valenz                      
   RCORE  =    2.300    outmost cutoff radius                                   
   RWIGS  =    2.460; RWIGS  =    1.302    wigner-seitz radius (au A)           
   ENMAX  =  267.969; ENMIN  =  200.977 eV                                      
   RCLOC  =    1.701    cutoff for local pot                                    
   LCOR   =        T    correct aug charges                                     
   LPAW   =        T    paw PP                                                  
   EAUG   =  511.368                                                            
   DEXC   =    0.000                                                            
   RMAX   =    2.356    core radius for proj-oper                               
   RAUG   =    1.300    factor for augmentation sphere                          
   RDEP   =    2.442    radius for radial grids                                 
   RDEPT  =    1.890    core radius for aug-charge                              
                                                                                
   Atomic configuration                                                         
    9 entries                                                                   
     n  l   j            E        occ.                                          
     1  0  0.50     -6959.8071   2.0000                                         
     2  0  0.50      -811.1996   2.0000                                         
     2  1  1.50      -692.1696   6.0000                                         
     3  0  0.50       -88.7875   2.0000                                         
     3  1  1.50       -55.4703   6.0000                                         
     3  2  2.50        -4.0733   7.0000                                         
     4  0  0.50        -4.4654   1.0000                                         
     4  1  1.50        -3.4015   0.0000                                         
     4  3  2.50        -1.3606   0.0000                                         
   Description                                                                  
     l       E           TYP  RCUT    TYP  RCUT                                 
     2     -4.0732951     23  2.300                                             
     2     -5.4338777     23  2.300                                             
     0     -4.4654423     23  2.300                                             
     0      6.8656597     23  2.300                                             
     1     -2.7211652     23  2.300                                             
     1     18.0064603     23  2.300                                             
  local pseudopotential read in
  partial core-charges read in
  partial kinetic energy density read in
  atomic valenz-charges read in
  non local Contribution for L=           2  read in
    real space projection operators read in
  non local Contribution for L=           2  read in
    real space projection operators read in
  non local Contribution for L=           0  read in
    real space projection operators read in
  non local Contribution for L=           0  read in
    real space projection operators read in
  non local Contribution for L=           1  read in
    real space projection operators read in
  non local Contribution for L=           1  read in
    real space projection operators read in
    PAW grid and wavefunctions read in
 
   number of l-projection  operators is LMAX  =           6
   number of lm-projection operators is LMMAX =          18
 
  PAW Fe 03Mar1998                      :
 energy of atom  1       EATOM= -597.3608
 kinetic energy error for atom=    0.0089 (will be added to EATOM!!)
 
 
 POSCAR: Fe BCC                                  
  positions in direct lattice
  velocities in cartesian coordinates
  No initial velocities read in
 exchange correlation table for  LEXCH =        2
   RHO(1)=    0.500       N(1)  =     2000
   RHO(2)=  100.500       N(2)  =     4000
 


--------------------------------------------------------------------------------------------------------


 ion  position               nearest neighbor table
   1  0.000  0.000  0.000-
 
  LATTYP: Found a body centered cubic cell.
 ALAT       =     4.0000000000
  
  Lattice vectors:
  
 A1 = (  -2.0000000000,   2.0000000000,   2.0000000000)
 A2 = (   2.0000000000,  -2.0000000000,   2.0000000000)
 A3 = (   2.0000000000,   2.0000000000,  -2.0000000000)


Analysis of symmetry for initial positions (statically):
=====================================================================
 Subroutine PRICEL returns:
 Original cell was already a primitive cell.
 

 Routine SETGRP: Setting up the symmetry group for a 
 body centered cubic supercell.


 Subroutine GETGRP returns: Found 48 space group operations
 (whereof 48 operations were pure point group operations)
 out of a pool of 48 trial point group operations.


The static configuration has the point symmetry O_h .


Analysis of symmetry for dynamics (positions and initial velocities):
=====================================================================
 Subroutine PRICEL returns:
 Original cell was already a primitive cell.
 

 Routine SETGRP: Setting up the symmetry group for a 
 body centered cubic supercell.


 Subroutine GETGRP returns: Found 48 space group operations
 (whereof 48 operations were pure point group operations)
 out of a pool of 48 trial point group operations.


The dynamic configuration has the point symmetry O_h .


Analysis of structural, dynamic, and magnetic symmetry:
=====================================================================
 Subroutine PRICEL returns:
 Original cell was already a primitive cell.
 

 Routine SETGRP: Setting up the symmetry group for a 
 body centered cubic supercell.


 Subroutine GETGRP returns: Found 48 space group operations
 (whereof 48 operations were pure point group operations)
 out of a pool of 48 trial point group operations.


The magnetic configuration has the point symmetry O_h .


 Subroutine INISYM returns: Found 48 space group operations
 (whereof 48 operations are pure point group operations),
 and found     1 'primitive' translations

 
 
 KPOINTS: K-Points                                

Automatic generation of k-mesh.
Space group operators:
 irot       det(A)        alpha          n_x          n_y          n_z        tau_x        tau_y        tau_z
    1     1.000000     0.000000     1.000000     0.000000     0.000000     0.000000     0.000000     0.000000
    2    -1.000000     0.000000     1.000000     0.000000     0.000000     0.000000     0.000000     0.000000
    3     1.000000   120.000000    -0.577350    -0.577350    -0.577350     0.000000     0.000000     0.000000
    4    -1.000000   120.000000    -0.577350    -0.577350    -0.577350     0.000000     0.000000     0.000000
    5     1.000000   120.000000     0.577350     0.577350     0.577350     0.000000     0.000000     0.000000
    6    -1.000000   120.000000     0.577350     0.577350     0.577350     0.000000     0.000000     0.000000
    7     1.000000    90.000000     0.000000     0.000000    -1.000000     0.000000     0.000000     0.000000
    8    -1.000000    90.000000     0.000000     0.000000    -1.000000     0.000000     0.000000     0.000000
    9     1.000000   180.000000     0.000000     0.707107     0.707107     0.000000     0.000000     0.000000
   10    -1.000000   180.000000     0.000000     0.707107     0.707107     0.000000     0.000000     0.000000
   11     1.000000    90.000000     0.000000     1.000000     0.000000     0.000000     0.000000     0.000000
   12    -1.000000    90.000000     0.000000     1.000000     0.000000     0.000000     0.000000     0.000000
   13     1.000000   180.000000     0.000000     0.000000     1.000000     0.000000     0.000000     0.000000
   14    -1.000000   180.000000     0.000000     0.000000     1.000000     0.000000     0.000000     0.000000
   15     1.000000   120.000000    -0.577350     0.577350     0.577350     0.000000     0.000000     0.000000
   16    -1.000000   120.000000    -0.577350     0.577350     0.577350     0.000000     0.000000     0.000000
   17     1.000000   120.000000    -0.577350     0.577350    -0.577350     0.000000     0.000000     0.000000
   18    -1.000000   120.000000    -0.577350     0.577350    -0.577350     0.000000     0.000000     0.000000
   19     1.000000    90.000000     0.000000     0.000000     1.000000     0.000000     0.000000     0.000000
   20    -1.000000    90.000000     0.000000     0.000000     1.000000     0.000000     0.000000     0.000000
   21     1.000000    90.000000    -1.000000     0.000000     0.000000     0.000000     0.000000     0.000000
   22    -1.000000    90.000000    -1.000000     0.000000     0.000000     0.000000     0.000000     0.000000
   23     1.000000   180.000000     0.707107     0.000000     0.707107     0.000000     0.000000     0.000000
   24    -1.000000   180.000000     0.707107     0.000000     0.707107     0.000000     0.000000     0.000000
   25     1.000000   120.000000     0.577350    -0.577350     0.577350     0.000000     0.000000     0.000000
   26    -1.000000   120.000000     0.577350    -0.577350     0.577350     0.000000     0.000000     0.000000
   27     1.000000   120.000000    -0.577350    -0.577350     0.577350     0.000000     0.000000     0.000000
   28    -1.000000   120.000000    -0.577350    -0.577350     0.577350     0.000000     0.000000     0.000000
   29     1.000000   180.000000     1.000000     0.000000     0.000000     0.000000     0.000000     0.000000
   30    -1.000000   180.000000     1.000000     0.000000     0.000000     0.000000     0.000000     0.000000
   31     1.000000    90.000000     0.000000    -1.000000     0.000000     0.000000     0.000000     0.000000
   32    -1.000000    90.000000     0.000000    -1.000000     0.000000     0.000000     0.000000     0.000000
   33     1.000000   180.000000     0.707107     0.707107     0.000000     0.000000     0.000000     0.000000
   34    -1.000000   180.000000     0.707107     0.707107     0.000000     0.000000     0.000000     0.000000
   35     1.000000    90.000000     1.000000     0.000000     0.000000     0.000000     0.000000     0.000000
   36    -1.000000    90.000000     1.000000     0.000000     0.000000     0.000000     0.000000     0.000000
   37     1.000000   120.000000     0.577350    -0.577350    -0.577350     0.000000     0.000000     0.000000
   38    -1.000000   120.000000     0.577350    -0.577350    -0.577350     0.000000     0.000000     0.000000
   39     1.000000   180.000000     0.000000     1.000000     0.000000     0.000000     0.000000     0.000000
   40    -1.000000   180.000000     0.000000     1.000000     0.000000     0.000000     0.000000     0.000000
   41     1.000000   120.000000     0.577350     0.577350    -0.577350     0.000000     0.000000     0.000000
   42    -1.000000   120.000000     0.577350     0.577350    -0.577350     0.000000     0.000000     0.000000
   43     1.000000   180.000000     0.000000    -0.707107     0.707107     0.000000     0.000000     0.000000
   44    -1.000000   180.000000     0.000000    -0.707107     0.707107     0.000000     0.000000     0.000000
   45     1.000000   180.000000     0.707107    -0.707107     0.000000     0.000000     0.000000     0.000000
   46    -1.000000   180.000000     0.707107    -0.707107     0.000000     0.000000     0.000000     0.000000
   47     1.000000   180.000000     0.707107     0.000000    -0.707107     0.000000     0.000000     0.000000
   48    -1.000000   180.000000     0.707107     0.000000    -0.707107     0.000000     0.000000     0.000000
 
 Subroutine IBZKPT returns following result:
 ===========================================
 
 Found     26 irreducible k-points:
 
 Following reciprocal coordinates:
            Coordinates               Weight
  0.062500  0.062500  0.062500      8.000000
  0.187500  0.062500  0.062500     24.000000
  0.312500  0.062500  0.062500     24.000000
  0.437500  0.062500  0.062500     12.000000
 -0.062500  0.062500  0.062500      6.000000
  0.187500  0.187500  0.062500     24.000000
  0.312500  0.187500  0.062500     48.000000
 -0.187500  0.187500  0.062500     24.000000
  0.312500  0.312500  0.062500      8.000000
 -0.312500  0.312500  0.062500     24.000000
 -0.187500  0.312500  0.062500     24.000000
 -0.437500  0.437500  0.062500     24.000000
 -0.312500  0.437500  0.062500     48.000000
 -0.437500 -0.437500  0.062500     24.000000
 -0.312500 -0.437500  0.062500     24.000000
  0.187500  0.187500  0.187500      8.000000
  0.312500  0.187500  0.187500     12.000000
 -0.187500  0.187500  0.187500      6.000000
 -0.312500  0.312500  0.187500     24.000000
 -0.437500  0.437500  0.187500     24.000000
 -0.312500  0.437500  0.187500     24.000000
 -0.437500 -0.437500  0.187500     24.000000
 -0.312500  0.312500  0.312500      6.000000
 -0.437500  0.437500  0.312500     24.000000
 -0.437500 -0.437500  0.312500      8.000000
 -0.437500  0.437500  0.437500      6.000000
 
 Following cartesian coordinates:
            Coordinates               Weight
  0.125000  0.125000  0.125000      8.000000
  0.125000  0.250000  0.250000     24.000000
  0.125000  0.375000  0.375000     24.000000
  0.125000  0.500000  0.500000     12.000000
  0.125000  0.000000  0.000000      6.000000
  0.250000  0.250000  0.375000     24.000000
  0.250000  0.375000  0.500000     48.000000
  0.250000 -0.125000  0.000000     24.000000
  0.375000  0.375000  0.625000      8.000000
  0.375000 -0.250000  0.000000     24.000000
  0.375000 -0.125000  0.125000     24.000000
  0.500000 -0.375000  0.000000     24.000000
  0.500000 -0.250000  0.125000     48.000000
 -0.375000 -0.375000 -0.875000     24.000000
 -0.375000 -0.250000 -0.750000     24.000000
  0.375000  0.375000  0.375000      8.000000
  0.375000  0.500000  0.500000     12.000000
  0.375000  0.000000  0.000000      6.000000
  0.500000 -0.125000  0.000000     24.000000
  0.625000 -0.250000  0.000000     24.000000
  0.625000 -0.125000  0.125000     24.000000
 -0.250000 -0.250000 -0.875000     24.000000
  0.625000  0.000000  0.000000      6.000000
  0.750000 -0.125000  0.000000     24.000000
 -0.125000 -0.125000 -0.875000      8.000000
  0.875000  0.000000  0.000000      6.000000
 
 TETIRR: Found    534 inequivalent tetrahedra from     3072


--------------------------------------------------------------------------------------------------------




 Dimension of arrays:
   k-points           NKPTS =     26   k-points in BZ     NKDIM =     26   number of bands    NBANDS=     12
   number of dos      NEDOS =    301   number of ions     NIONS =      1
   non local maximal  LDIM  =      6   non local SUM 2l+1 LMDIM =     18
   total plane-waves  NPLWV =  13824
   max r-space proj   IRMAX =      1   max aug-charges    IRDMAX=  15586
   dimension x,y,z NGX =    24 NGY =   24 NGZ =   24
   dimension x,y,z NGXF=    48 NGYF=   48 NGZF=   48
   support grid    NGXF=    48 NGYF=   48 NGZF=   48
   ions per type =               1
 NGX,Y,Z   is equivalent  to a cutoff of  11.52, 11.52, 11.52 a.u.
 NGXF,Y,Z  is equivalent  to a cutoff of  23.04, 23.04, 23.04 a.u.


 I would recommend the setting:
   dimension x,y,z NGX =    23 NGY =   23 NGZ =   23
 SYSTEM =  Fe BCC                                  
 POSCAR =  Fe BCC                                  

 Startparameter for this run:
   NWRITE =      2    write-flag & timer
   PREC   = accura    normal or accurate (medium, high low for compatibility)
   ISTART =      0    job   : 0-new  1-cont  2-samecut
   ICHARG =      2    charge: 1-file 2-atom 10-const
   ISPIN  =      2    spin polarized calculation?
   LNONCOLLINEAR =      F non collinear calculations
   LSORBIT =      F    spin-orbit coupling
   INIWAV =      1    electr: 0-lowe 1-rand  2-diag
   LASPH  =      F    aspherical Exc in radial PAW
   METAGGA=      F    non-selfconsistent MetaGGA calc.

 Electronic Relaxation 1
   ENCUT  =  400.0 eV  29.40 Ry    5.42 a.u.   5.65  5.65  5.65*2*pi/ulx,y,z
   ENINI  =  400.0     initial cutoff
   ENAUG  =  511.4 eV  augmentation charge cutoff
   NELM   =     60;   NELMIN=  2; NELMDL= -5     # of ELM steps 
   EDIFF  = 0.1E-05   stopping-criterion for ELM
   LREAL  =      F    real-space projection
   NLSPLINE    = F    spline interpolate recip. space projectors
   LCOMPAT=      F    compatible to vasp.4.4
   GGA_COMPAT  = T    GGA compatible to vasp.4.4-vasp.4.6
   LMAXPAW     = -100 max onsite density
   LMAXMIX     =    2 max onsite mixed and CHGCAR
   VOSKOWN=      0    Vosko Wilk Nusair interpolation
   ROPT   =    0.00000
 Ionic relaxation
   EDIFFG = 0.1E-04   stopping-criterion for IOM
   NSW    =      0    number of steps for IOM
   NBLOCK =      1;   KBLOCK =      1    inner block; outer block 
   IBRION =     -1    ionic relax: 0-MD 1-quasi-New 2-CG
   NFREE  =      0    steps in history (QN), initial steepest desc. (CG)
   ISIF   =      2    stress and relaxation
   IWAVPR =     10    prediction:  0-non 1-charg 2-wave 3-comb
   ISYM   =      2    0-nonsym 1-usesym 2-fastsym
   LCORR  =      T    Harris-Foulkes like correction to forces

   POTIM  = 0.5000    time-step for ionic-motion
   TEIN   =    0.0    initial temperature
   TEBEG  =    0.0;   TEEND  =   0.0 temperature during run
   SMASS  =  -3.00    Nose mass-parameter (am)
   estimated Nose-frequenzy (Omega)   =  0.10E-29 period in steps =****** mass=  -0.274E-27a.u.
   SCALEE = 1.0000    scale energy and forces
   NPACO  =    256;   APACO  = 16.0  distance and # of slots for P.C.
   PSTRESS=    0.0 pullay stress

  Mass of Ions in am
   POMASS =  55.85
  Ionic Valenz
   ZVAL   =   8.00
  Atomic Wigner-Seitz radii
   RWIGS  =  -1.00
  virtual crystal weights 
   VCA    =   1.00
   NELECT =       8.0000    total number of electrons
   NUPDOWN=      -1.0000    fix difference up-down

 DOS related values:
   EMIN   =  10.00;   EMAX   =-10.00  energy-range for DOS
   EFERMI =   0.00
   ISMEAR =    -5;   SIGMA  =   0.20  broadening in eV -4-tet -1-fermi 0-gaus

 Electronic relaxation 2 (details)
   IALGO  =     38    algorithm
   LDIAG  =      T    sub-space diagonalisation (order eigenvalues)
   LSUBROT=      F    optimize rotation matrix (better conditioning)
   TURBO    =      0    0=normal 1=particle mesh
   IRESTART =      0    0=no restart 2=restart with 2 vectors
   NREBOOT  =      0    no. of reboots
   NMIN     =      0    reboot dimension
   EREF     =   0.00    reference energy to select bands
   IMIX   =      4    mixing-type and parameters
     AMIX     =   0.40;   BMIX     =  1.00
     AMIX_MAG =   1.60;   BMIX_MAG =  1.00
     AMIN     =   0.10
     WC   =   100.;   INIMIX=   1;  MIXPRE=   1;  MAXMIX= -45

 Intra band minimization:
   WEIMIN = 0.0000     energy-eigenvalue tresh-hold
   EBREAK =  0.21E-07  absolut break condition
   DEPER  =   0.30     relativ break condition  

   TIME   =   0.40     timestep for ELM

  volume/ion in A,a.u.               =      32.00       215.95
  Fermi-wavevector in a.u.,A,eV,Ry     =   1.031307  1.948889 14.471090  1.063595
  Thomas-Fermi vector in A             =   2.165449
 
 Write flags
   LWAVE  =      T    write WAVECAR
   LCHARG =      T    write CHGCAR
   LVTOT  =      F    write LOCPOT, total local potential
   LVHAR  =      F    write LOCPOT, Hartree potential only
   LELF   =      F    write electronic localiz. function (ELF)
   LORBIT =     11    0 simple, 1 ext, 2 COOP (PROOUT)


 Dipole corrections
   LMONO  =      F    monopole corrections only (constant potential shift)
   LDIPOL =      F    correct potential (dipole corrections)
   IDIPOL =      0    1-x, 2-y, 3-z, 4-all directions 
   EPSILON=  1.0000000 bulk dielectric constant

 Exchange correlation treatment:
   GGA     =    --    GGA type
   LEXCH   =     2    internal setting for exchange type
   VOSKOWN=      0    Vosko Wilk Nusair interpolation
   LHFCALC =     F    Hartree Fock is set to
   LHFONE  =     F    Hartree Fock one center treatment
   AEXX    =    0.0000 exact exchange contribution

 Linear response parameters
   LEPSILON=     F    determine dielectric tensor
   LRPA    =     F    only Hartree local field effects (RPA)
   LNABLA  =     F    use nabla operator in PAW spheres
   LVEL    =     F    velocity operator in full k-point grid
   LINTERFAST=   F  fast interpolation
   KINTER  =     0    interpolate to denser k-point grid
   CSHIFT  =0.1000    complex shift for real part using Kramers Kronig
   OMEGAMAX=  -1.0    maximum frequency
   DEG_THRESHOLD= 0.2000000E-02 threshold for treating states as degnerate
   RTIME   =    0.100 relaxation time in fs

 Orbital magnetization related:
   ORBITALMAG=     F  switch on orbital magnetization
   LCHIMAG   =     F  perturbation theory with respect to B field
   DQ        =  0.001000  dq finite difference perturbation B field



--------------------------------------------------------------------------------------------------------


 Static calculation
 charge density and potential will be updated during run
 spin polarized calculation
 Variant of blocked Davidson
 Davidson routine will perform the subspace rotation
 perform sub-space diagonalisation
    after iterative eigenvector-optimisation
 modified Broyden-mixing scheme, WC =      100.0
 initial mixing is a Kerker type mixing with AMIX =  0.4000 and BMIX =      1.0000
 Hartree-type preconditioning will be used
 using additional bands            8
 reciprocal scheme for non local part
 use partial core corrections
 calculate Harris-corrections to forces 
   (improved forces if not selfconsistent)
 use of overlap-Matrix (Vanderbilt PP)
 Fermi weights with tetrahedron method with Bloechl corrections


--------------------------------------------------------------------------------------------------------


  energy-cutoff  :      400.00
  volume of cell :       32.00
      direct lattice vectors                 reciprocal lattice vectors
    -2.000000000  2.000000000  2.000000000     0.000000000  0.250000000  0.250000000
     2.000000000 -2.000000000  2.000000000     0.250000000  0.000000000  0.250000000
     2.000000000  2.000000000 -2.000000000     0.250000000  0.250000000  0.000000000

  length of vectors
     3.464101615  3.464101615  3.464101615     0.353553391  0.353553391  0.353553391


 
 k-points in units of 2pi/SCALE and weight: K-Points                                
   0.12500000  0.12500000  0.12500000       0.016
   0.12500000  0.25000000  0.25000000       0.047
   0.12500000  0.37500000  0.37500000       0.047
   0.12500000  0.50000000  0.50000000       0.023
   0.12500000  0.00000000  0.00000000       0.012
   0.25000000  0.25000000  0.37500000       0.047
   0.25000000  0.37500000  0.50000000       0.094
   0.25000000 -0.12500000  0.00000000       0.047
   0.37500000  0.37500000  0.62500000       0.016
   0.37500000 -0.25000000  0.00000000       0.047
   0.37500000 -0.12500000  0.12500000       0.047
   0.50000000 -0.37500000  0.00000000       0.047
   0.50000000 -0.25000000  0.12500000       0.094
  -0.37500000 -0.37500000 -0.87500000       0.047
  -0.37500000 -0.25000000 -0.75000000       0.047
   0.37500000  0.37500000  0.37500000       0.016
   0.37500000  0.50000000  0.50000000       0.023
   0.37500000  0.00000000  0.00000000       0.012
   0.50000000 -0.12500000  0.00000000       0.047
   0.62500000 -0.25000000  0.00000000       0.047
   0.62500000 -0.12500000  0.12500000       0.047
  -0.25000000 -0.25000000 -0.87500000       0.047
   0.62500000  0.00000000  0.00000000       0.012
   0.75000000 -0.12500000  0.00000000       0.047
  -0.12500000 -0.12500000 -0.87500000       0.016
   0.87500000  0.00000000  0.00000000       0.012
 
 k-points in reciprocal lattice and weights: K-Points                                
   0.06250000  0.06250000  0.06250000       0.016
   0.18750000  0.06250000  0.06250000       0.047
   0.31250000  0.06250000  0.06250000       0.047
   0.43750000  0.06250000  0.06250000       0.023
  -0.06250000  0.06250000  0.06250000       0.012
   0.18750000  0.18750000  0.06250000       0.047
   0.31250000  0.18750000  0.06250000       0.094
  -0.18750000  0.18750000  0.06250000       0.047
   0.31250000  0.31250000  0.06250000       0.016
  -0.31250000  0.31250000  0.06250000       0.047
  -0.18750000  0.31250000  0.06250000       0.047
  -0.43750000  0.43750000  0.06250000       0.047
  -0.31250000  0.43750000  0.06250000       0.094
  -0.43750000 -0.43750000  0.06250000       0.047
  -0.31250000 -0.43750000  0.06250000       0.047
   0.18750000  0.18750000  0.18750000       0.016
   0.31250000  0.18750000  0.18750000       0.023
  -0.18750000  0.18750000  0.18750000       0.012
  -0.31250000  0.31250000  0.18750000       0.047
  -0.43750000  0.43750000  0.18750000       0.047
  -0.31250000  0.43750000  0.18750000       0.047
  -0.43750000 -0.43750000  0.18750000       0.047
  -0.31250000  0.31250000  0.31250000       0.012
  -0.43750000  0.43750000  0.31250000       0.047
  -0.43750000 -0.43750000  0.31250000       0.016
  -0.43750000  0.43750000  0.43750000       0.012
 
 position of ions in fractional coordinates (direct lattice) 
   0.00000000  0.00000000  0.00000000
 
 position of ions in cartesian coordinates  (Angst):
   0.00000000  0.00000000  0.00000000
 


--------------------------------------------------------------------------------------------------------


 k-point  1 :   0.0625 0.0625 0.0625  plane waves:     600
 k-point  2 :   0.1875 0.0625 0.0625  plane waves:     586
 k-point  3 :   0.3125 0.0625 0.0625  plane waves:     576
 k-point  4 :   0.4375 0.0625 0.0625  plane waves:     586
 k-point  5 :  -0.0625 0.0625 0.0625  plane waves:     591
 k-point  6 :   0.1875 0.1875 0.0625  plane waves:     589
 k-point  7 :   0.3125 0.1875 0.0625  plane waves:     581
 k-point  8 :  -0.1875 0.1875 0.0625  plane waves:     582
 k-point  9 :   0.3125 0.3125 0.0625  plane waves:     571
 k-point 10 :  -0.3125 0.3125 0.0625  plane waves:     582
 k-point 11 :  -0.1875 0.3125 0.0625  plane waves:     584
 k-point 12 :  -0.4375 0.4375 0.0625  plane waves:     576
 k-point 13 :  -0.3125 0.4375 0.0625  plane waves:     577
 k-point 14 :  -0.4375-0.4375 0.0625  plane waves:     588
 k-point 15 :  -0.3125-0.4375 0.0625  plane waves:     584
 k-point 16 :   0.1875 0.1875 0.1875  plane waves:     577
 k-point 17 :   0.3125 0.1875 0.1875  plane waves:     566
 k-point 18 :  -0.1875 0.1875 0.1875  plane waves:     583
 k-point 19 :  -0.3125 0.3125 0.1875  plane waves:     586
 k-point 20 :  -0.4375 0.4375 0.1875  plane waves:     578
 k-point 21 :  -0.3125 0.4375 0.1875  plane waves:     579
 k-point 22 :  -0.4375-0.4375 0.1875  plane waves:     574
 k-point 23 :  -0.3125 0.3125 0.3125  plane waves:     582
 k-point 24 :  -0.4375 0.4375 0.3125  plane waves:     581
 k-point 25 :  -0.4375-0.4375 0.3125  plane waves:     580
 k-point 26 :  -0.4375 0.4375 0.4375  plane waves:     598

 maximum and minimum number of plane-waves per node :       600      566

 maximum number of plane-waves:       600
 maximum index in each direction: 
   IXMAX=    6   IYMAX=    6   IZMAX=    5
   IXMIN=   -6   IYMIN=   -6   IZMIN=   -6

 WARNING: aliasing errors must be expected set NGX to  26 to avoid them
 WARNING: aliasing errors must be expected set NGY to  26 to avoid them
 NGZ is ok and might be reduce to  24
 aliasing errors are usually negligible using standard VASP settings
 and one can safely disregard these warnings

 serial   3D FFT for wavefunctions
 parallel 3D FFT for charge:
    minimum data exchange during FFTs selected (reduces bandwidth)


 total amount of memory used by VASP on root node    38038. kBytes
========================================================================

   base      :      30000. kBytes
   nonl-proj :       2256. kBytes
   fftplans  :       1025. kBytes
   grid      :       3179. kBytes
   one-center:         31. kBytes
   wavefun   :       1547. kBytes
 
     INWAV:  cpu time    0.0000: real time    0.0000
 Broyden mixing: mesh for mixing (old mesh)
   NGX = 11   NGY = 11   NGZ = 11
  (NGX  = 48   NGY  = 48   NGZ  = 48)
  gives a total of   1331 points

 initial charge density was supplied:
 charge density of overlapping atoms calculated
 number of electron       8.0000000 magnetization       4.0000000
 keeping initial charge density in first step


--------------------------------------------------------------------------------------------------------


 Maximum index for augmentation-charges         3777 (set IRDMAX)


--------------------------------------------------------------------------------------------------------


 First call to EWALD:  gamma=   0.558
 Maximum number of real-space cells 3x 3x 3
 Maximum number of reciprocal cells 3x 3x 3

 FEWALD executed in parallel
    FEWALD:  cpu time    0.0040: real time    0.0022


----------------------------------------- Iteration    1(   1)  ---------------------------------------


    POTLOK:  cpu time    0.0410: real time    0.0205
    SETDIJ:  cpu time    0.0430: real time    0.0211
     EDDAV:  cpu time    1.2398: real time    0.6208
 BZINTS: Fermi energy:  6.503405;  8.000000 electrons
         Band energy:  22.085909;  BLOECHL correction: -0.493094
       DOS:  cpu time    0.1060: real time    0.0532
    --------------------------------------------
      LOOP:  cpu time    1.4408: real time    0.7216

 eigenvalue-minimisations  :  1288
 total energy-change (2. order) : 0.2020378E+02  (-0.3068230E+03)
 number of electron       8.0000000 magnetization       4.0000000
 augmentation part        8.0000000 magnetization       4.0000000

 Free energy of the ion-electron system (eV)
  ---------------------------------------------------
  alpha Z        PSCENC =        20.93013625
  Ewald energy   TEWEN  =      -419.23349694
  -Hartree energ DENC   =      -196.23822442
  -exchange      EXHF   =         0.00000000
  -V(xc)+E(xc)   XCENC  =         4.74037069
  PAW double counting   =       552.76102510     -562.19386350
  entropy T*S    EENTRO =         0.00000000
  eigenvalues    EBANDS =        22.08590924
  atomic energy  EATOM  =       597.35192723
  Solvation  Ediel_sol  =         0.00000000
  ---------------------------------------------------
  free energy    TOTEN  =        20.20378365 eV

  energy without entropy =       20.20378365  energy(sigma->0) =       20.20378365


--------------------------------------------------------------------------------------------------------




----------------------------------------- Iteration    1(   2)  ---------------------------------------


     EDDAV:  cpu time    1.0648: real time    0.5331
 BZINTS: Fermi energy:  1.561982;  8.000000 electrons
         Band energy:  -3.716686;  BLOECHL correction: -0.041462
       DOS:  cpu time    0.0950: real time    0.0479
    --------------------------------------------
      LOOP:  cpu time    1.1778: real time    0.5904

 eigenvalue-minimisations  :  1284
 total energy-change (2. order) :-0.2580260E+02  (-0.2208530E+02)
 number of electron       8.0000000 magnetization       4.0000000
 augmentation part        8.0000000 magnetization       4.0000000

 Free energy of the ion-electron system (eV)
  ---------------------------------------------------
  alpha Z        PSCENC =        20.93013625
  Ewald energy   TEWEN  =      -419.23349694
  -Hartree energ DENC   =      -196.23822442
  -exchange      EXHF   =         0.00000000
  -V(xc)+E(xc)   XCENC  =         4.74037069
  PAW double counting   =       552.76102510     -562.19386350
  entropy T*S    EENTRO =         0.00000000
  eigenvalues    EBANDS =        -3.71668606
  atomic energy  EATOM  =       597.35192723
  Solvation  Ediel_sol  =         0.00000000
  ---------------------------------------------------
  free energy    TOTEN  =        -5.59881165 eV

  energy without entropy =       -5.59881165  energy(sigma->0) =       -5.59881165


--------------------------------------------------------------------------------------------------------




----------------------------------------- Iteration    1(   3)  ---------------------------------------


     EDDAV:  cpu time    1.2268: real time    0.6146
 BZINTS: Fermi energy:  1.446060;  8.000000 electrons
         Band energy:  -4.365319;  BLOECHL correction: -0.037839
       DOS:  cpu time    0.1230: real time    0.0620
    --------------------------------------------
      LOOP:  cpu time    1.3678: real time    0.6850

 eigenvalue-minimisations  :  1532
 total energy-change (2. order) :-0.6486333E+00  (-0.6440818E+00)
 number of electron       8.0000000 magnetization       4.0000000
 augmentation part        8.0000000 magnetization       4.0000000

 Free energy of the ion-electron system (eV)
  ---------------------------------------------------
  alpha Z        PSCENC =        20.93013625
  Ewald energy   TEWEN  =      -419.23349694
  -Hartree energ DENC   =      -196.23822442
  -exchange      EXHF   =         0.00000000
  -V(xc)+E(xc)   XCENC  =         4.74037069
  PAW double counting   =       552.76102510     -562.19386350
  entropy T*S    EENTRO =         0.00000000
  eigenvalues    EBANDS =        -4.36531931
  atomic energy  EATOM  =       597.35192723
  Solvation  Ediel_sol  =         0.00000000
  ---------------------------------------------------
  free energy    TOTEN  =        -6.24744490 eV

  energy without entropy =       -6.24744490  energy(sigma->0) =       -6.24744490


--------------------------------------------------------------------------------------------------------




----------------------------------------- Iteration    1(   4)  ---------------------------------------


     EDDAV:  cpu time    1.4698: real time    0.7353
 BZINTS: Fermi energy:  1.445472;  8.000000 electrons
         Band energy:  -4.369645;  BLOECHL correction: -0.037824
       DOS:  cpu time    0.0980: real time    0.0491
    --------------------------------------------
      LOOP:  cpu time    1.5808: real time    0.7909

 eigenvalue-minimisations  :  1368
 total energy-change (2. order) :-0.4325764E-02  (-0.4339043E-02)
 number of electron       8.0000000 magnetization       4.0000000
 augmentation part        8.0000000 magnetization       4.0000000

 Free energy of the ion-electron system (eV)
  ---------------------------------------------------
  alpha Z        PSCENC =        20.93013625
  Ewald energy   TEWEN  =      -419.23349694
  -Hartree energ DENC   =      -196.23822442
  -exchange      EXHF   =         0.00000000
  -V(xc)+E(xc)   XCENC  =         4.74037069
  PAW double counting   =       552.76102510     -562.19386350
  entropy T*S    EENTRO =         0.00000000
  eigenvalues    EBANDS =        -4.36964508
  atomic energy  EATOM  =       597.35192723
  Solvation  Ediel_sol  =         0.00000000
  ---------------------------------------------------
  free energy    TOTEN  =        -6.25177066 eV

  energy without entropy =       -6.25177066  energy(sigma->0) =       -6.25177066


--------------------------------------------------------------------------------------------------------




----------------------------------------- Iteration    1(   5)  ---------------------------------------


     EDDAV:  cpu time    1.2218: real time    0.6116
 BZINTS: Fermi energy:  1.445464;  8.000000 electrons
         Band energy:  -4.369708;  BLOECHL correction: -0.037824
       DOS:  cpu time    0.0930: real time    0.0470
    CHARGE:  cpu time    0.0880: real time    0.0438
    MIXING:  cpu time    0.0040: real time    0.0019
    --------------------------------------------
      LOOP:  cpu time    1.4188: real time    0.7105

 eigenvalue-minimisations  :  1524
 total energy-change (2. order) :-0.6269193E-04  (-0.6288861E-04)
 number of electron       8.0000010 magnetization       3.8007963
 augmentation part        3.6293212 magnetization       2.5031327

 Broyden mixing:
  rms(total) = 0.83452E+00    rms(broyden)= 0.83450E+00
  rms(prec ) = 0.26792E+01
  weight for this iteration     100.00

 Free energy of the ion-electron system (eV)
  ---------------------------------------------------
  alpha Z        PSCENC =        20.93013625
  Ewald energy   TEWEN  =      -419.23349694
  -Hartree energ DENC   =      -196.23822442
  -exchange      EXHF   =         0.00000000
  -V(xc)+E(xc)   XCENC  =         4.74037069
  PAW double counting   =       552.76102510     -562.19386350
  entropy T*S    EENTRO =         0.00000000
  eigenvalues    EBANDS =        -4.36970777
  atomic energy  EATOM  =       597.35192723
  Solvation  Ediel_sol  =         0.00000000
  ---------------------------------------------------
  free energy    TOTEN  =        -6.25183336 eV

  energy without entropy =       -6.25183336  energy(sigma->0) =       -6.25183336


--------------------------------------------------------------------------------------------------------




----------------------------------------- Iteration    1(   6)  ---------------------------------------


    POTLOK:  cpu time    0.0270: real time    0.0136
    SETDIJ:  cpu time    0.0280: real time    0.0142
     EDDAV:  cpu time    1.1888: real time    0.5951
 BZINTS: Fermi energy: -1.652247;  8.000000 electrons
         Band energy: -30.337890;  BLOECHL correction: -0.061733
       DOS:  cpu time    0.0990: real time    0.0494
    CHARGE:  cpu time    0.1350: real time    0.0677
    MIXING:  cpu time    0.0040: real time    0.0020
    --------------------------------------------
      LOOP:  cpu time    1.4968: real time    0.7496

 eigenvalue-minimisations  :  1476
 total energy-change (2. order) :-0.2394811E+00  (-0.2013635E+01)
 number of electron       8.0000014 magnetization       3.1342265
 augmentation part        4.9364278 magnetization       2.5216425

 Broyden mixing:
  rms(total) = 0.15664E+01    rms(broyden)= 0.15662E+01
  rms(prec ) = 0.28424E+01
  weight for this iteration     100.00

 eigenvalues of (default mixing * dielectric matrix)
  average eigenvalue GAMMA=   0.2554
  0.2554

 Free energy of the ion-electron system (eV)
  ---------------------------------------------------
  alpha Z        PSCENC =        20.93013625
  Ewald energy   TEWEN  =      -419.23349694
  -Hartree energ DENC   =      -172.88021466
  -exchange      EXHF   =         0.00000000
  -V(xc)+E(xc)   XCENC  =         4.38465713
  PAW double counting   =       509.31604555     -516.02247935
  entropy T*S    EENTRO =         0.00000000
  eigenvalues    EBANDS =       -30.33788970
  atomic energy  EATOM  =       597.35192723
  Solvation  Ediel_sol  =         0.00000000
  ---------------------------------------------------
  free energy    TOTEN  =        -6.49131448 eV

  energy without entropy =       -6.49131448  energy(sigma->0) =       -6.49131448


--------------------------------------------------------------------------------------------------------




----------------------------------------- Iteration    1(   7)  ---------------------------------------


    POTLOK:  cpu time    0.0560: real time    0.0279
    SETDIJ:  cpu time    0.0210: real time    0.0103
     EDDAV:  cpu time    1.3538: real time    0.6777
 BZINTS: Fermi energy: -0.210701;  8.000000 electrons
         Band energy: -16.618676;  BLOECHL correction: -0.075825
       DOS:  cpu time    0.0950: real time    0.0477
    CHARGE:  cpu time    0.0780: real time    0.0393
    MIXING:  cpu time    0.0040: real time    0.0018
    --------------------------------------------
      LOOP:  cpu time    1.6228: real time    0.8124

 eigenvalue-minimisations  :  1452
 total energy-change (2. order) : 0.1014858E+01  (-0.5351717E+00)
 number of electron       8.0000012 magnetization       3.2021081
 augmentation part        4.3041823 magnetization       2.4083556

 Broyden mixing:
  rms(total) = 0.31532E+00    rms(broyden)= 0.31530E+00
  rms(prec ) = 0.34718E+00
  weight for this iteration     100.00

 eigenvalues of (default mixing * dielectric matrix)
  average eigenvalue GAMMA=   0.5468
  0.5468  0.5468

 Free energy of the ion-electron system (eV)
  ---------------------------------------------------
  alpha Z        PSCENC =        20.93013625
  Ewald energy   TEWEN  =      -419.23349694
  -Hartree energ DENC   =      -183.14707353
  -exchange      EXHF   =         0.00000000
  -V(xc)+E(xc)   XCENC  =         4.10020503
  PAW double counting   =       543.44416529     -552.30364391
  entropy T*S    EENTRO =         0.00000000
  eigenvalues    EBANDS =       -16.61867569
  atomic energy  EATOM  =       597.35192723
  Solvation  Ediel_sol  =         0.00000000
  ---------------------------------------------------
  free energy    TOTEN  =        -5.47645626 eV

  energy without entropy =       -5.47645626  energy(sigma->0) =       -5.47645626


--------------------------------------------------------------------------------------------------------




----------------------------------------- Iteration    1(   8)  ---------------------------------------


    POTLOK:  cpu time    0.0270: real time    0.0135
    SETDIJ:  cpu time    0.0280: real time    0.0142
     EDDAV:  cpu time    1.2298: real time    0.6157
 BZINTS: Fermi energy: -0.119866;  8.000000 electrons
         Band energy: -16.061760;  BLOECHL correction: -0.075967
       DOS:  cpu time    0.1000: real time    0.0501
    CHARGE:  cpu time    0.0860: real time    0.0428
    MIXING:  cpu time    0.0030: real time    0.0018
    --------------------------------------------
      LOOP:  cpu time    1.4878: real time    0.7450

 eigenvalue-minimisations  :  1536
 total energy-change (2. order) : 0.4097811E-02  (-0.3540902E-02)
 number of electron       8.0000012 magnetization       3.2254739
 augmentation part        4.2560228 magnetization       2.4185611

 Broyden mixing:
  rms(total) = 0.10908E+00    rms(broyden)= 0.10907E+00
  rms(prec ) = 0.17416E+00
  weight for this iteration     100.00

 eigenvalues of (default mixing * dielectric matrix)
  average eigenvalue GAMMA=   0.8647
  1.4966  0.5487  0.5487

 Free energy of the ion-electron system (eV)
  ---------------------------------------------------
  alpha Z        PSCENC =        20.93013625
  Ewald energy   TEWEN  =      -419.23349694
  -Hartree energ DENC   =      -183.35509531
  -exchange      EXHF   =         0.00000000
  -V(xc)+E(xc)   XCENC  =         4.25628887
  PAW double counting   =       547.13702102     -556.49737932
  entropy T*S    EENTRO =         0.00000000
  eigenvalues    EBANDS =       -16.06176026
  atomic energy  EATOM  =       597.35192723
  Solvation  Ediel_sol  =         0.00000000
  ---------------------------------------------------
  free energy    TOTEN  =        -5.47235845 eV

  energy without entropy =       -5.47235845  energy(sigma->0) =       -5.47235845


--------------------------------------------------------------------------------------------------------




----------------------------------------- Iteration    1(   9)  ---------------------------------------


    POTLOK:  cpu time    0.0270: real time    0.0136
    SETDIJ:  cpu time    0.0280: real time    0.0140
     EDDAV:  cpu time    1.5518: real time    0.7767
 BZINTS: Fermi energy: -0.132020;  8.000000 electrons
         Band energy: -16.420473;  BLOECHL correction: -0.076310
       DOS:  cpu time    0.0900: real time    0.0453
    CHARGE:  cpu time    0.0880: real time    0.0442
    MIXING:  cpu time    0.0050: real time    0.0019
    --------------------------------------------
      LOOP:  cpu time    1.8027: real time    0.9022

 eigenvalue-minimisations  :  1400
 total energy-change (2. order) : 0.3388012E-02  (-0.2456864E-03)
 number of electron       8.0000012 magnetization       3.2113839
 augmentation part        4.2525255 magnetization       2.4020178

 Broyden mixing:
  rms(total) = 0.28472E-01    rms(broyden)= 0.28470E-01
  rms(prec ) = 0.95264E-01
  weight for this iteration     100.00

 eigenvalues of (default mixing * dielectric matrix)
  average eigenvalue GAMMA=   0.9365
  1.8036  0.8445  0.5489  0.5489

 Free energy of the ion-electron system (eV)
  ---------------------------------------------------
  alpha Z        PSCENC =        20.93013625
  Ewald energy   TEWEN  =      -419.23349694
  -Hartree energ DENC   =      -182.59507807
  -exchange      EXHF   =         0.00000000
  -V(xc)+E(xc)   XCENC  =         4.26809495
  PAW double counting   =       550.53039242     -560.30047323
  entropy T*S    EENTRO =         0.00000000
  eigenvalues    EBANDS =       -16.42047306
  atomic energy  EATOM  =       597.35192723
  Solvation  Ediel_sol  =         0.00000000
  ---------------------------------------------------
  free energy    TOTEN  =        -5.46897044 eV

  energy without entropy =       -5.46897044  energy(sigma->0) =       -5.46897044


--------------------------------------------------------------------------------------------------------




----------------------------------------- Iteration    1(  10)  ---------------------------------------


    POTLOK:  cpu time    0.0270: real time    0.0139
    SETDIJ:  cpu time    0.0290: real time    0.0140
     EDDAV:  cpu time    1.3668: real time    0.6846
 BZINTS: Fermi energy: -0.205756;  8.000000 electrons
         Band energy: -16.870203;  BLOECHL correction: -0.076215
       DOS:  cpu time    0.0900: real time    0.0454
    CHARGE:  cpu time    0.0890: real time    0.0444
    MIXING:  cpu time    0.0050: real time    0.0022
    --------------------------------------------
      LOOP:  cpu time    1.6218: real time    0.8121

 eigenvalue-minimisations  :  1712
 total energy-change (2. order) : 0.1477507E-02  (-0.6978963E-03)
 number of electron       8.0000012 magnetization       3.1998664
 augmentation part        4.2772775 magnetization       2.3976265

 Broyden mixing:
  rms(total) = 0.13893E-01    rms(broyden)= 0.13870E-01
  rms(prec ) = 0.24875E-01
  weight for this iteration     100.00

 eigenvalues of (default mixing * dielectric matrix)
  average eigenvalue GAMMA=   1.0328
  1.7706  1.4472  0.5038  0.7213  0.7213

 Free energy of the ion-electron system (eV)
  ---------------------------------------------------
  alpha Z        PSCENC =        20.93013625
  Ewald energy   TEWEN  =      -419.23349694
  -Hartree energ DENC   =      -181.94746171
  -exchange      EXHF   =         0.00000000
  -V(xc)+E(xc)   XCENC  =         4.21971849
  PAW double counting   =       551.70102039     -561.61913383
  entropy T*S    EENTRO =         0.00000000
  eigenvalues    EBANDS =       -16.87020281
  atomic energy  EATOM  =       597.35192723
  Solvation  Ediel_sol  =         0.00000000
  ---------------------------------------------------
  free energy    TOTEN  =        -5.46749293 eV

  energy without entropy =       -5.46749293  energy(sigma->0) =       -5.46749293


--------------------------------------------------------------------------------------------------------




----------------------------------------- Iteration    1(  11)  ---------------------------------------


    POTLOK:  cpu time    0.0270: real time    0.0139
    SETDIJ:  cpu time    0.0290: real time    0.0142
     EDDAV:  cpu time    1.2038: real time    0.6028
 BZINTS: Fermi energy: -0.196310;  8.000000 electrons
         Band energy: -16.754517;  BLOECHL correction: -0.076181
       DOS:  cpu time    0.1000: real time    0.0502
    CHARGE:  cpu time    0.0800: real time    0.0399
    MIXING:  cpu time    0.0050: real time    0.0022
    --------------------------------------------
      LOOP:  cpu time    1.4598: real time    0.7309

 eigenvalue-minimisations  :  1492
 total energy-change (2. order) :-0.3303395E-04  (-0.5591466E-04)
 number of electron       8.0000012 magnetization       3.2087567
 augmentation part        4.2718094 magnetization       2.4032660

 Broyden mixing:
  rms(total) = 0.10176E-01    rms(broyden)= 0.10172E-01
  rms(prec ) = 0.10830E-01
  weight for this iteration     100.00

 eigenvalues of (default mixing * dielectric matrix)
  average eigenvalue GAMMA=   1.0090
  2.0124  0.5047  1.1102  0.6740  0.8764  0.8764

 Free energy of the ion-electron system (eV)
  ---------------------------------------------------
  alpha Z        PSCENC =        20.93013625
  Ewald energy   TEWEN  =      -419.23349694
  -Hartree energ DENC   =      -182.02796623
  -exchange      EXHF   =         0.00000000
  -V(xc)+E(xc)   XCENC  =         4.20130052
  PAW double counting   =       552.07214108     -562.00705048
  entropy T*S    EENTRO =         0.00000000
  eigenvalues    EBANDS =       -16.75451739
  atomic energy  EATOM  =       597.35192723
  Solvation  Ediel_sol  =         0.00000000
  ---------------------------------------------------
  free energy    TOTEN  =        -5.46752596 eV

  energy without entropy =       -5.46752596  energy(sigma->0) =       -5.46752596


--------------------------------------------------------------------------------------------------------




----------------------------------------- Iteration    1(  12)  ---------------------------------------


    POTLOK:  cpu time    0.0270: real time    0.0139
    SETDIJ:  cpu time    0.0290: real time    0.0140
     EDDAV:  cpu time    1.7627: real time    0.8852
 BZINTS: Fermi energy: -0.206910;  8.000000 electrons
         Band energy: -16.837233;  BLOECHL correction: -0.076175
       DOS:  cpu time    0.0990: real time    0.0498
    CHARGE:  cpu time    0.0830: real time    0.0417
    MIXING:  cpu time    0.0060: real time    0.0024
    --------------------------------------------
      LOOP:  cpu time    2.0197: real time    1.0136

 eigenvalue-minimisations  :  1508
 total energy-change (2. order) : 0.4174497E-05  (-0.2040409E-04)
 number of electron       8.0000012 magnetization       3.2063790
 augmentation part        4.2760162 magnetization       2.4029440

 Broyden mixing:
  rms(total) = 0.86950E-02    rms(broyden)= 0.86946E-02
  rms(prec ) = 0.16989E-01
  weight for this iteration     100.00

 eigenvalues of (default mixing * dielectric matrix)
  average eigenvalue GAMMA=   1.2047
  2.5967  2.1945  1.0129  0.8574  0.5025  0.6344  0.6344

 Free energy of the ion-electron system (eV)
  ---------------------------------------------------
  alpha Z        PSCENC =        20.93013625
  Ewald energy   TEWEN  =      -419.23349694
  -Hartree energ DENC   =      -181.95638959
  -exchange      EXHF   =         0.00000000
  -V(xc)+E(xc)   XCENC  =         4.21538593
  PAW double counting   =       551.99297312     -561.93082502
  entropy T*S    EENTRO =         0.00000000
  eigenvalues    EBANDS =       -16.83723276
  atomic energy  EATOM  =       597.35192723
  Solvation  Ediel_sol  =         0.00000000
  ---------------------------------------------------
  free energy    TOTEN  =        -5.46752179 eV

  energy without entropy =       -5.46752179  energy(sigma->0) =       -5.46752179


--------------------------------------------------------------------------------------------------------




----------------------------------------- Iteration    1(  13)  ---------------------------------------


    POTLOK:  cpu time    0.0270: real time    0.0139
    SETDIJ:  cpu time    0.0290: real time    0.0142
     EDDAV:  cpu time    1.1968: real time    0.5994
 BZINTS: Fermi energy: -0.197479;  8.000000 electrons
         Band energy: -16.783737;  BLOECHL correction: -0.076201
       DOS:  cpu time    0.0990: real time    0.0497
    CHARGE:  cpu time    0.0810: real time    0.0406
    MIXING:  cpu time    0.0050: real time    0.0024
    --------------------------------------------
      LOOP:  cpu time    1.4518: real time    0.7272

 eigenvalue-minimisations  :  1488
 total energy-change (2. order) :-0.6126907E-05  (-0.1503543E-04)
 number of electron       8.0000012 magnetization       3.2066803
 augmentation part        4.2722997 magnetization       2.4017458

 Broyden mixing:
  rms(total) = 0.73511E-03    rms(broyden)= 0.73459E-03
  rms(prec ) = 0.93359E-03
  weight for this iteration     100.00

 eigenvalues of (default mixing * dielectric matrix)
  average eigenvalue GAMMA=   1.1804
  2.7576  2.2473  1.1010  0.8311  0.5026  0.7255  0.6391  0.6391

 Free energy of the ion-electron system (eV)
  ---------------------------------------------------
  alpha Z        PSCENC =        20.93013625
  Ewald energy   TEWEN  =      -419.23349694
  -Hartree energ DENC   =      -182.01896000
  -exchange      EXHF   =         0.00000000
  -V(xc)+E(xc)   XCENC  =         4.21341161
  PAW double counting   =       551.99394014     -561.92074908
  entropy T*S    EENTRO =         0.00000000
  eigenvalues    EBANDS =       -16.78373713
  atomic energy  EATOM  =       597.35192723
  Solvation  Ediel_sol  =         0.00000000
  ---------------------------------------------------
  free energy    TOTEN  =        -5.46752792 eV

  energy without entropy =       -5.46752792  energy(sigma->0) =       -5.46752792


--------------------------------------------------------------------------------------------------------




----------------------------------------- Iteration    1(  14)  ---------------------------------------


    POTLOK:  cpu time    0.0270: real time    0.0135
    SETDIJ:  cpu time    0.0280: real time    0.0142
     EDDAV:  cpu time    0.8659: real time    0.4332
 BZINTS: Fermi energy: -0.197346;  8.000000 electrons
         Band energy: -16.783081;  BLOECHL correction: -0.076203
       DOS:  cpu time    0.0980: real time    0.0497
    --------------------------------------------
      LOOP:  cpu time    1.0348: real time    0.5187

 eigenvalue-minimisations  :   924
 total energy-change (2. order) :-0.4333457E-06  (-0.8904625E-07)
 number of electron       8.0000012 magnetization       3.2066803
 augmentation part        4.2722997 magnetization       2.4017458

 Free energy of the ion-electron system (eV)
  ---------------------------------------------------
  alpha Z        PSCENC =        20.93013625
  Ewald energy   TEWEN  =      -419.23349694
  -Hartree energ DENC   =      -182.02320991
  -exchange      EXHF   =         0.00000000
  -V(xc)+E(xc)   XCENC  =         4.21425782
  PAW double counting   =       551.96513515     -561.88919723
  entropy T*S    EENTRO =         0.00000000
  eigenvalues    EBANDS =       -16.78308073
  atomic energy  EATOM  =       597.35192723
  Solvation  Ediel_sol  =         0.00000000
  ---------------------------------------------------
  free energy    TOTEN  =        -5.46752835 eV

  energy without entropy =       -5.46752835  energy(sigma->0) =       -5.46752835


--------------------------------------------------------------------------------------------------------




 average (electrostatic) potential at core
  the test charge radii are     1.0103
  (the norm of the test charge is              1.0000)
       1 -50.2469
 
 
 
 E-fermi :  -0.1973     XC(G=0):  -8.5600     alpha+bet : -4.8176


 spin component 1

 k-point     1 :       0.0625    0.0625    0.0625
  band No.  band energies     occupation 
      1      -4.4171      1.00000
      2      -2.7605      1.00000
      3      -2.7605      1.00000
      4      -2.6087      1.00000
      5      -2.5500      1.00000
      6      -2.5500      1.00000
      7       9.5787      0.00000
      8      10.5011      0.00000
      9      10.5011      0.00000
     10      14.0670      0.00000
     11      14.0670      0.00000
     12      15.4021      0.00000

 k-point     2 :       0.1875    0.0625    0.0625
  band No.  band energies     occupation 
      1      -3.6252      1.00000
      2      -2.8268      1.00000
      3      -2.7535      1.00000
      4      -2.5568      1.00000
      5      -2.5347      1.00000
      6      -2.3631      1.00019
      7       6.4383      0.00000
      8       8.5152      0.00000
      9       9.2042      0.00000
     10      13.8063      0.00000
     11      13.9825      0.00000
     12      15.6057      0.00000

 k-point     3 :       0.3125    0.0625    0.0625
  band No.  band energies     occupation 
      1      -3.1615      1.00000
      2      -2.8860      1.00000
      3      -2.5400      1.00000
      4      -2.5247      1.00000
      5      -2.4413      1.00000
      6      -1.4911      1.06567
      7       3.2387      0.00000
      8       7.4584      0.00000
      9       8.3684      0.00000
     10      13.2824      0.00000
     11      13.3587      0.00000
     12      17.0258      0.00000

 k-point     4 :       0.4375    0.0625    0.0625
  band No.  band energies     occupation 
      1      -3.1512      1.00000
      2      -2.9094      1.00000
      3      -2.5225      1.00000
      4      -2.5213      1.00000
      5      -2.3140      1.00000
      6       0.4576      0.15090
      7       0.6218      0.00000
      8       7.0941      0.00000
      9       8.0824      0.00000
     10      13.0937      0.00000
     11      13.1273      0.00000
     12      18.3967      0.00000

 k-point     5 :      -0.0625    0.0625    0.0625
  band No.  band energies     occupation 
      1      -4.7128      1.00000
      2      -2.7283      1.00000
      3      -2.7283      1.00000
      4      -2.7144      1.00000
      5      -2.5600      1.00000
      6      -2.5317      1.00000
      7      11.5360      0.00000
      8      11.5947      0.00000
      9      11.5947      0.00000
     10      13.4502      0.00000
     11      14.4816      0.00000
     12      14.4816      0.00000

 k-point     6 :       0.1875    0.1875    0.0625
  band No.  band energies     occupation 
      1      -3.0440      1.00000
      2      -2.8468      1.00000
      3      -2.7648      1.00000
      4      -2.5429      1.00000
      5      -2.5129      1.00000
      6      -1.6518      1.06261
      7       4.8283      0.00000
      8       5.8264      0.00000
      9       7.8029      0.00000
     10      14.9903      0.00000
     11      15.1230      0.00000
     12      16.9019      0.00000

 k-point     7 :       0.3125    0.1875    0.0625
  band No.  band energies     occupation 
      1      -3.0043      1.00000
      2      -2.8753      1.00000
      3      -2.6068      1.00000
      4      -2.5172      1.00000
      5      -2.4629      1.00000
      6      -0.0301      0.31167
      7       2.3045      0.00000
      8       4.7957      0.00000
      9       7.2074      0.00000
     10      14.6698      0.00000
     11      16.4778      0.00000
     12      17.1880      0.00000

 k-point     8 :      -0.1875    0.1875    0.0625
  band No.  band energies     occupation 
      1      -4.1311      1.00000
      2      -2.7707      1.00000
      3      -2.7177      1.00000
      4      -2.5933      1.00000
      5      -2.5907      1.00000
      6      -2.5160      1.00000
      7       8.2108      0.00000
      8       9.9914      0.00000
      9      10.7079      0.00000
     10      12.7211      0.00000
     11      13.4663      0.00000
     12      14.2364      0.00000

 k-point     9 :       0.3125    0.3125    0.0625
  band No.  band energies     occupation 
      1      -2.9576      1.00000
      2      -2.7522      1.00000
      3      -2.7522      1.00000
      4      -2.4855      1.00000
      5      -2.4855      1.00000
      6       1.4485     -0.03767
      7       2.3878      0.00000
      8       2.3878      0.00000
      9       6.9103      0.00000
     10      16.4199      0.00000
     11      16.6139      0.00000
     12      16.6139      0.00000

 k-point    10 :      -0.3125    0.3125    0.0625
  band No.  band energies     occupation 
      1      -3.3256      1.00000
      2      -2.8369      1.00000
      3      -2.6337      1.00000
      4      -2.5335      1.00000
      5      -2.3969      1.00000
      6      -2.2863      1.01018
      7       4.7468      0.00000
      8       8.6522      0.00000
      9       9.6928      0.00000
     10      12.4736      0.00000
     11      12.5385      0.00000
     12      14.7765      0.00000

 k-point    11 :      -0.1875    0.3125    0.0625
  band No.  band energies     occupation 
      1      -3.4080      1.00000
      2      -2.7870      1.00000
      3      -2.7397      1.00000
      4      -2.6029      1.00000
      5      -2.4873      1.00000
      6      -2.3162      1.00205
      7       6.4210      0.00000
      8       7.1947      0.00000
      9      10.2526      0.00000
     10      12.1736      0.00000
     11      13.0172      0.00000
     12      15.9227      0.00000

 k-point    12 :      -0.4375    0.4375    0.0625
  band No.  band energies     occupation 
      1      -3.1814      1.00000
      2      -2.8833      1.00000
      3      -2.5724      1.00000
      4      -2.5309      1.00000
      5      -2.2492      1.00000
      6      -0.6868      0.90980
      7       1.7508      0.00000
      8       7.9116      0.00000
      9       9.1319      0.00000
     10      12.0789      0.00000
     11      12.2263      0.00000
     12      16.2635      0.00000

 k-point    13 :      -0.3125    0.4375    0.0625
  band No.  band energies     occupation 
      1      -3.0663      1.00000
      2      -2.8378      1.00000
      3      -2.6842      1.00000
      4      -2.5449      1.00000
      5      -2.3748      1.00000
      6      -1.2267      1.01323
      7       3.5059      0.00000
      8       5.9532      0.00000
      9       9.6260      0.00000
     10      12.0815      0.00000
     11      13.5278      0.00000
     12      15.8657      0.00000

 k-point    14 :      -0.4375   -0.4375    0.0625
  band No.  band energies     occupation 
      1      -3.0715      1.00000
      2      -2.8463      1.00000
      3      -2.6661      1.00000
      4      -2.5343      1.00000
      5      -2.2923      1.00000
      6       0.8082     -0.02482
      7       0.8569      0.00000
      8       5.6016      0.00000
      9       9.3528      0.00000
     10      11.9397      0.00000
     11      14.8298      0.00000
     12      15.5335      0.00000

 k-point    15 :      -0.3125   -0.4375    0.0625
  band No.  band energies     occupation 
      1      -2.9393      1.00000
      2      -2.8620      1.00000
      3      -2.7562      1.00000
      4      -2.4766      1.00000
      5      -2.3812      1.00000
      6       0.5162      0.05320
      7       2.6330      0.00000
      8       3.3249      0.00000
      9       9.5670      0.00000
     10      13.0583      0.00000
     11      13.2291      0.00000
     12      15.1662      0.00000

 k-point    16 :       0.1875    0.1875    0.1875
  band No.  band energies     occupation 
      1      -2.8682      1.00000
      2      -2.8682      1.00000
      3      -2.7288      1.00000
      4      -2.5202      1.00000
      5      -2.5202      1.00000
      6      -0.2984      0.47487
      7       3.6283      0.00000
      8       4.9610      0.00000
      9       4.9610      0.00000
     10      18.0738      0.00000
     11      18.0738      0.00000
     12      18.9039      0.00000

 k-point    17 :       0.3125    0.1875    0.1875
  band No.  band energies     occupation 
      1      -2.8700      1.00000
      2      -2.8646      1.00000
      3      -2.6739      1.00000
      4      -2.5177      1.00000
      5      -2.5133      1.00000
      6       1.3417     -0.03439
      7       2.0581      0.00000
      8       3.9793      0.00000
      9       4.6671      0.00000
     10      18.4514      0.00000
     11      18.5235      0.00000
     12      19.8801      0.00000

 k-point    18 :      -0.1875    0.1875    0.1875
  band No.  band energies     occupation 
      1      -3.5965      1.00000
      2      -2.7124      1.00000
      3      -2.6774      1.00000
      4      -2.6774      1.00000
      5      -2.5883      1.00000
      6      -2.4213      1.00000
      7       8.4204      0.00000
      8       8.4204      0.00000
      9       8.5725      0.00000
     10      10.4178      0.00000
     11      15.5950      0.00000
     12      15.5950      0.00000

 k-point    19 :      -0.3125    0.3125    0.1875
  band No.  band energies     occupation 
      1      -3.0528      1.00000
      2      -2.8144      1.00000
      3      -2.6987      1.00000
      4      -2.5832      1.00000
      5      -2.4167      1.00000
      6      -1.8166      1.03222
      7       5.2638      0.00000
      8       7.1258      0.00000
      9       8.2687      0.00000
     10      10.5141      0.00000
     11      15.0037      0.00000
     12      15.4780      0.00000

 k-point    20 :      -0.4375    0.4375    0.1875
  band No.  band energies     occupation 
      1      -3.0385      1.00000
      2      -2.7929      1.00000
      3      -2.7326      1.00000
      4      -2.5592      1.00000
      5      -2.2635      1.00000
      6      -0.1006      0.40004
      7       2.3160      0.00000
      8       6.4129      0.00000
      9       7.8744      0.00000
     10      11.9653      0.00000
     11      14.2459      0.00000
     12      14.4995      0.00000

 k-point    21 :      -0.3125    0.4375    0.1875
  band No.  band energies     occupation 
      1      -2.9380      1.00000
      2      -2.9271      1.00000
      3      -2.6795      1.00000
      4      -2.5000      1.00000
      5      -2.3382      1.00000
      6      -0.4195      0.56967
      7       4.0614      0.00000
      8       4.7213      0.00000
      9       8.7309      0.00000
     10      10.1252      0.00000
     11      13.9616      0.00000
     12      14.8356      0.00000

 k-point    22 :      -0.4375   -0.4375    0.1875
  band No.  band energies     occupation 
      1      -2.9834      1.00000
      2      -2.8994      1.00000
      3      -2.7129      1.00000
      4      -2.4462      1.00000
      5      -2.2913      1.00000
      6       1.4443     -0.06133
      7       1.9022      0.00000
      8       4.1308      0.00000
      9       8.8578      0.00000
     10      11.2525      0.00000
     11      12.0021      0.00000
     12      14.4541      0.00000

 k-point    23 :      -0.3125    0.3125    0.3125
  band No.  band energies     occupation 
      1      -2.9705      1.00000
      2      -2.9456      1.00000
      3      -2.5153      1.00000
      4      -2.5153      1.00000
      5      -2.4131      1.00000
      6      -0.7583      0.78511
      7       5.8207      0.00000
      8       5.8207      0.00000
      9       6.5249      0.00000
     10       8.5198      0.00000
     11      13.9304      0.00000
     12      18.1674      0.00000

 k-point    24 :      -0.4375    0.4375    0.3125
  band No.  band energies     occupation 
      1      -3.0388      1.00000
      2      -3.0044      1.00000
      3      -2.4952      1.00000
      4      -2.4407      1.00000
      5      -2.2834      1.00000
      6       0.9898     -0.02683
      7       3.3985      0.00000
      8       5.0913      0.00000
      9       6.7422      0.00000
     10       9.0006      0.00000
     11      11.1864      0.00000
     12      17.7153      0.00000

 k-point    25 :      -0.4375   -0.4375    0.3125
  band No.  band energies     occupation 
      1      -3.0650      1.00000
      2      -3.0650      1.00000
      3      -2.4730      1.00000
      4      -2.3044      1.00000
      5      -2.3044      1.00000
      6       2.5179     -0.01113
      7       3.3301      0.00000
      8       3.3301      0.00000
      9       7.2663      0.00000
     10       9.1240      0.00000
     11       9.1240      0.00000
     12      17.7685      0.00000

 k-point    26 :      -0.4375    0.4375    0.4375
  band No.  band energies     occupation 
      1      -3.1222      1.00000
      2      -3.1164      1.00000
      3      -2.3113      1.00000
      4      -2.3113      1.00000
      5      -2.2912      1.00000
      6       2.6167     -0.01028
      7       4.3406      0.00000
      8       4.3406      0.00000
      9       5.4032      0.00000
     10       7.6358      0.00000
     11       8.6387      0.00000
     12      21.0375      0.00000

 spin component 2

 k-point     1 :       0.0625    0.0625    0.0625
  band No.  band energies     occupation 
      1      -4.0508      1.00000
      2      -0.1709      0.20689
      3      -0.1709      0.07881
      4       0.0372      0.00000
      5       0.3501      0.00000
      6       0.3501      0.00000
      7      10.3326      0.00000
      8      11.0599      0.00000
      9      11.0599      0.00000
     10      14.5751      0.00000
     11      14.5751      0.00000
     12      15.3882      0.00000

 k-point     2 :       0.1875    0.0625    0.0625
  band No.  band energies     occupation 
      1      -3.1756      1.00000
      2      -0.2819      1.06291
      3      -0.2339      0.89965
      4       0.2927      0.00000
      5       0.3130      0.00000
      6       0.3785      0.00000
      7       7.1012      0.00000
      8       9.1429      0.00000
      9       9.7162      0.00000
     10      14.3688      0.00000
     11      14.4607      0.00000
     12      15.9062      0.00000

 k-point     3 :       0.3125    0.0625    0.0625
  band No.  band energies     occupation 
      1      -1.9143      1.00000
      2      -0.3832      1.00026
      3      -0.2250      0.75932
      4       0.3225      0.00000
      5       0.4024      0.00000
      6       0.6179      0.00000
      7       3.9857      0.00000
      8       8.0646      0.00000
      9       8.8607      0.00000
     10      13.8208      0.00000
     11      13.8874      0.00000
     12      17.4537      0.00000

 k-point     4 :       0.4375    0.0625    0.0625
  band No.  band energies     occupation 
      1      -1.2279      1.00000
      2      -0.4233      1.00000
      3       0.0716     -0.17362
      4       0.3291      0.00000
      5       0.4120      0.00000
      6       1.1165      0.00000
      7       2.0077      0.00000
      8       7.6779      0.00000
      9       8.5669      0.00000
     10      13.5970      0.00000
     11      13.7180      0.00000
     12      18.9059      0.00000

 k-point     5 :      -0.0625    0.0625    0.0625
  band No.  band energies     occupation 
      1      -4.3523      1.00000
      2      -0.1198     -0.02937
      3      -0.1198     -0.00783
      4      -0.0946      0.00000
      5       0.3354      0.00000
      6       0.3833      0.00000
      7      12.2917      0.00000
      8      12.3556      0.00000
      9      12.3556      0.00000
     10      13.5932      0.00000
     11      14.7087      0.00000
     12      14.7087      0.00000

 k-point     6 :       0.1875    0.1875    0.0625
  band No.  band energies     occupation 
      1      -2.1087      1.00000
      2      -0.3659      1.00110
      3      -0.3544      1.03596
      4       0.3272      0.00000
      5       0.3981      0.00000
      6       0.6540      0.00000
      7       5.4792      0.00000
      8       6.4526      0.00000
      9       8.3602      0.00000
     10      15.4976      0.00000
     11      15.6491      0.00000
     12      17.2965      0.00000

 k-point     7 :       0.3125    0.1875    0.0625
  band No.  band energies     occupation 
      1      -1.0530      1.00000
      2      -0.4348      1.00000
      3      -0.3099      0.97196
      4       0.3509      0.00000
      5       0.4119      0.00000
      6       1.3242      0.00000
      7       3.0743      0.00000
      8       5.4320      0.00000
      9       7.7680      0.00000
     10      15.1682      0.00000
     11      17.0704      0.00000
     12      17.5379      0.00000

 k-point     8 :      -0.1875    0.1875    0.0625
  band No.  band energies     occupation 
      1      -3.7528      1.00000
      2      -0.1897      0.44841
      3      -0.1364     -0.06641
      4       0.0708      0.00000
      5       0.2618      0.00000
      6       0.4010      0.00000
      7       8.8654      0.00000
      8      10.6904      0.00000
      9      11.2675      0.00000
     10      13.1576      0.00000
     11      13.8944      0.00000
     12      14.5546      0.00000

 k-point     9 :       0.3125    0.3125    0.0625
  band No.  band energies     occupation 
      1      -0.6590      1.00000
      2      -0.4143      1.00000
      3      -0.4143      1.00639
      4       0.3911      0.00000
      5       0.3911      0.00000
      6       2.3949      0.00000
      7       3.1475      0.00000
      8       3.1475      0.00000
      9       7.4857      0.00000
     10      16.9087      0.00000
     11      16.9087      0.00000
     12      17.2422      0.00000

 k-point    10 :      -0.3125    0.3125    0.0625
  band No.  band energies     occupation 
      1      -2.6306      1.00000
      2      -0.2974      1.03199
      3      -0.1897      0.43593
      4       0.2626      0.00000
      5       0.3407      0.00000
      6       0.4161      0.00000
      7       5.4419      0.00000
      8       9.2908      0.00000
      9      10.1658      0.00000
     10      13.0154      0.00000
     11      13.0525      0.00000
     12      15.1706      0.00000

 k-point    11 :      -0.1875    0.3125    0.0625
  band No.  band energies     occupation 
      1      -2.8911      1.00000
      2      -0.2160      0.92346
      3      -0.2119      0.60017
      4       0.1969      0.00000
      5       0.2796      0.00000
      6       0.4326      0.00000
      7       7.0884      0.00000
      8       7.8020      0.00000
      9      10.8683      0.00000
     10      12.5543      0.00000
     11      13.5470      0.00000
     12      16.3130      0.00000

 k-point    12 :      -0.4375    0.4375    0.0625
  band No.  band energies     occupation 
      1      -1.4592      1.00000
      2      -0.3724      1.00000
      3       0.0010     -0.17766
      4       0.2984      0.00000
      5       0.5556      0.00000
      6       0.5705      0.00000
      7       2.6789      0.00000
      8       8.4922      0.00000
      9       9.5689      0.00000
     10      12.6377      0.00000
     11      12.8211      0.00000
     12      16.6773      0.00000

 k-point    13 :      -0.3125    0.4375    0.0625
  band No.  band energies     occupation 
      1      -1.6694      1.00000
      2      -0.3261      1.00383
      3      -0.2419      0.81555
      4       0.2427      0.00000
      5       0.4158      0.00000
      6       0.6962      0.00000
      7       4.2270      0.00000
      8       6.5732      0.00000
      9      10.1657      0.00000
     10      12.5840      0.00000
     11      14.0527      0.00000
     12      16.3168      0.00000

 k-point    14 :      -0.4375   -0.4375    0.0625
  band No.  band energies     occupation 
      1      -1.0272      1.00000
      2      -0.3423      1.00000
      3      -0.1854      0.42491
      4       0.2616      0.00000
      5       0.4885      0.00000
      6       1.5566      0.00000
      7       2.0863      0.00000
      8       6.2085      0.00000
      9       9.8665      0.00000
     10      12.4950      0.00000
     11      15.4900      0.00000
     12      15.8395      0.00000

 k-point    15 :      -0.3125   -0.4375    0.0625
  band No.  band energies     occupation 
      1      -0.7958      1.00000
      2      -0.4185      1.00000
      3      -0.3068      1.06631
      4       0.3061      0.00000
      5       0.4043      0.00000
      6       1.6617      0.00000
      7       3.3602      0.00000
      8       4.0404      0.00000
      9      10.1306      0.00000
     10      13.4289      0.00000
     11      13.8406      0.00000
     12      15.6414      0.00000

 k-point    16 :       0.1875    0.1875    0.1875
  band No.  band energies     occupation 
      1      -1.0691      1.00000
      2      -0.4561      1.00000
      3      -0.4561      1.00471
      4       0.3981      0.00000
      5       0.3981      0.00000
      6       1.2430      0.00000
      7       4.2421      0.00000
      8       5.6092      0.00000
      9       5.6092      0.00000
     10      18.8138      0.00000
     11      18.8138      0.00000
     12      18.8951      0.00000

 k-point    17 :       0.3125    0.1875    0.1875
  band No.  band energies     occupation 
      1      -0.6252      1.00000
      2      -0.4843      1.00000
      3      -0.3980      1.00410
      4       0.4037      0.00000
      5       0.4183      0.00000
      6       2.2868      0.00000
      7       2.8307      0.00000
      8       4.6338      0.00000
      9       5.3240      0.00000
     10      18.8938      0.00000
     11      19.0391      0.00000
     12      20.4483      0.00000

 k-point    18 :      -0.1875    0.1875    0.1875
  band No.  band energies     occupation 
      1      -3.1667      1.00000
      2      -0.0845     -0.27443
      3      -0.0845     -0.09609
      4       0.0737      0.00000
      5       0.0815      0.00000
      6       0.4445      0.00000
      7       9.0797      0.00000
      8       9.0797      0.00000
      9       9.2517      0.00000
     10      10.7470      0.00000
     11      15.9784      0.00000
     12      15.9784      0.00000

 k-point    19 :      -0.3125    0.3125    0.1875
  band No.  band energies     occupation 
      1      -2.0905      1.00000
      2      -0.2025      0.90740
      3      -0.1200     -0.05029
      4       0.0998      0.00000
      5       0.3127      0.00000
      6       0.4999      0.00000
      7       5.9341      0.00000
      8       7.7437      0.00000
      9       8.8878      0.00000
     10      10.9871      0.00000
     11      15.4944      0.00000
     12      15.9307      0.00000

 k-point    20 :      -0.4375    0.4375    0.1875
  band No.  band energies     occupation 
      1      -1.0434      1.00000
      2      -0.3180      1.00000
      3      -0.1734      0.11020
      4       0.1582      0.00000
      5       0.5352      0.00000
      6       1.1135      0.00000
      7       3.1130      0.00000
      8       6.9826      0.00000
      9       8.4906      0.00000
     10      12.5091      0.00000
     11      14.7057      0.00000
     12      15.0131      0.00000

 k-point    21 :      -0.3125    0.4375    0.1875
  band No.  band energies     occupation 
      1      -1.0802      1.00000
      2      -0.3710      1.00388
      3      -0.0978     -0.05549
      4       0.1868      0.00000
      5       0.4170      0.00000
      6       0.9675      0.00000
      7       4.7320      0.00000
      8       5.3609      0.00000
      9       9.4082      0.00000
     10      10.5850      0.00000
     11      14.4506      0.00000
     12      15.3069      0.00000

 k-point    22 :      -0.4375   -0.4375    0.1875
  band No.  band energies     occupation 
      1      -0.6103      1.00000
      2      -0.4516      1.00000
      3      -0.1978      0.30603
      4       0.2595      0.00000
      5       0.4892      0.00000
      6       2.4371      0.00000
      7       2.5810      0.00000
      8       4.7650      0.00000
      9       9.5174      0.00000
     10      11.8059      0.00000
     11      12.4039      0.00000
     12      14.9531      0.00000

 k-point    23 :      -0.3125    0.3125    0.3125
  band No.  band energies     occupation 
      1      -1.2243      1.00000
      2      -0.3291      1.02081
      3       0.1191     -0.01411
      4       0.1191      0.00000
      5       0.3273      0.00000
      6       0.7177      0.00000
      7       6.3894      0.00000
      8       6.3894      0.00000
      9       7.2945      0.00000
     10       9.0536      0.00000
     11      14.4226      0.00000
     12      18.6174      0.00000

 k-point    24 :      -0.4375    0.4375    0.3125
  band No.  band energies     occupation 
      1      -0.6788      1.00000
      2      -0.5061      1.00000
      3       0.1627     -0.02699
      4       0.2134      0.00000
      5       0.5070      0.00000
      6       1.8495      0.00000
      7       4.0374      0.00000
      8       5.5963      0.00000
      9       7.5081      0.00000
     10       9.5667      0.00000
     11      11.6901      0.00000
     12      18.1707      0.00000

 k-point    25 :      -0.4375   -0.4375    0.3125
  band No.  band energies     occupation 
      1      -0.5912      1.00000
      2      -0.5912      1.00000
      3       0.1638     -0.02212
      4       0.4644      0.00000
      5       0.4644      0.00000
      6       3.2648      0.00000
      7       3.8860      0.00000
      8       3.8860      0.00000
      9       8.0275      0.00000
     10       9.6606      0.00000
     11       9.6606      0.00000
     12      18.2107      0.00000

 k-point    26 :      -0.4375    0.4375    0.4375
  band No.  band energies     occupation 
      1      -0.6649      1.00000
      2      -0.6321      1.00000
      3       0.4521     -0.00000
      4       0.4521      0.00000
      5       0.4987      0.00000
      6       3.2214      0.00000
      7       4.7544      0.00000
      8       4.7544      0.00000
      9       6.2782      0.00000
     10       8.3129      0.00000
     11       9.2306      0.00000
     12      21.3345      0.00000


--------------------------------------------------------------------------------------------------------


 soft charge-density along one line, spin component           1
         0         1         2         3         4         5         6         7         8         9
 total charge-density along one line
 
 soft charge-density along one line, spin component           2
         0         1         2         3         4         5         6         7         8         9
 total charge-density along one line
 
 pseudopotential strength for first ion, spin component:           1
 -9.919  -0.000  -0.000  -0.000  -0.000 -10.327  -0.000  -0.000
 -0.000  -9.919   0.000  -0.000  -0.000  -0.000 -10.327   0.000
 -0.000   0.000 -10.004   0.000   0.000  -0.000   0.000 -10.410
 -0.000  -0.000   0.000  -9.919   0.000  -0.000  -0.000   0.000
 -0.000  -0.000   0.000   0.000 -10.004  -0.000  -0.000   0.000
-10.327  -0.000  -0.000  -0.000  -0.000 -10.696  -0.000  -0.000
 -0.000 -10.327   0.000  -0.000  -0.000  -0.000 -10.696   0.000
 -0.000   0.000 -10.410   0.000   0.000  -0.000   0.000 -10.776
 -0.000  -0.000   0.000 -10.327   0.000  -0.000  -0.000   0.000
 -0.000  -0.000   0.000   0.000 -10.410  -0.000  -0.000   0.000
 -0.000  -0.000  -0.000  -0.000   0.000  -0.000  -0.000  -0.000
 -0.000  -0.000   0.000  -0.000   0.000  -0.000  -0.000  -0.000
  0.000  -0.000  -0.000  -0.000  -0.000   0.000  -0.000  -0.000
 -0.000   0.000  -0.000   0.000   0.000  -0.000   0.000  -0.000
  0.000  -0.000  -0.000  -0.000   0.000   0.000  -0.000  -0.000
  0.000  -0.000  -0.000  -0.000  -0.000   0.000  -0.000  -0.000
 -0.000   0.000  -0.000   0.000   0.000  -0.000   0.000  -0.000
  0.000  -0.000  -0.000  -0.000   0.000   0.000  -0.000  -0.000
 pseudopotential strength for first ion, spin component:           2
 -7.985   0.000  -0.000   0.000  -0.000  -8.458   0.000  -0.000
  0.000  -7.985   0.000   0.000  -0.000   0.000  -8.458   0.000
 -0.000   0.000  -7.943   0.000   0.000  -0.000   0.000  -8.418
  0.000   0.000   0.000  -7.985   0.000   0.000   0.000   0.000
 -0.000  -0.000   0.000   0.000  -7.943  -0.000  -0.000   0.000
 -8.458   0.000  -0.000   0.000  -0.000  -8.890   0.000  -0.000
  0.000  -8.458   0.000   0.000  -0.000   0.000  -8.890   0.000
 -0.000   0.000  -8.418   0.000   0.000  -0.000   0.000  -8.851
  0.000   0.000   0.000  -8.458   0.000   0.000   0.000   0.000
 -0.000  -0.000   0.000   0.000  -8.418  -0.000  -0.000   0.000
 -0.000  -0.000   0.000  -0.000   0.000  -0.000  -0.000   0.000
 -0.000  -0.000   0.000  -0.000   0.000  -0.000  -0.000   0.000
  0.000  -0.000  -0.000  -0.000  -0.000   0.000  -0.000  -0.000
 -0.000   0.000  -0.000   0.000   0.000  -0.000   0.000  -0.000
  0.000  -0.000  -0.000  -0.000   0.000   0.000  -0.000  -0.000
  0.000  -0.000  -0.000  -0.000  -0.000   0.000  -0.000  -0.000
 -0.000   0.000  -0.000   0.000   0.000  -0.000   0.000  -0.000
  0.000  -0.000  -0.000  -0.000   0.000   0.000  -0.000  -0.000
 total augmentation occupancy for first ion, spin component:           1
  2.772   0.000  -0.000   0.000   0.000  -0.917   0.000   0.000  -0.000   0.000   0.000   0.000   0.000   0.000   0.000   0.000
  0.000   2.772  -0.000   0.000   0.000   0.000  -0.917   0.000  -0.000  -0.000  -0.000   0.000   0.000   0.000   0.000   0.000
  0.000  -0.000   2.835   0.000   0.000   0.000   0.000  -1.030   0.000   0.000  -0.000  -0.000   0.000   0.000   0.000   0.000
  0.000   0.000  -0.000   2.772   0.000   0.000   0.000   0.000  -0.917   0.000   0.000  -0.000   0.000   0.000   0.000   0.000
  0.000   0.000   0.000   0.000   2.835  -0.000   0.000   0.000  -0.000  -1.030   0.000  -0.000   0.000   0.000   0.000   0.000
 -0.917   0.000  -0.000   0.000   0.000   0.451   0.000   0.000   0.000   0.000  -0.000   0.000   0.000   0.000   0.000   0.000
 -0.000  -0.917   0.000  -0.000   0.000  -0.000   0.451  -0.000  -0.000   0.000  -0.000   0.000   0.000   0.000   0.000   0.000
  0.000   0.000  -1.030   0.000   0.000   0.000  -0.000   0.493  -0.000   0.000   0.000   0.000   0.000   0.000   0.000   0.000
  0.000   0.000  -0.000  -0.917   0.000  -0.000   0.000  -0.000   0.451  -0.000   0.000   0.000   0.000   0.000   0.000   0.000
  0.000   0.000   0.000  -0.000  -1.030   0.000  -0.000   0.000  -0.000   0.493  -0.000  -0.000   0.000   0.000   0.000   0.000
 -0.000  -0.000  -0.000   0.000  -0.000  -0.000   0.000   0.000  -0.000  -0.000   1.061  -0.030   0.000   0.000   0.000   0.000
 -0.000   0.000  -0.000  -0.000  -0.000  -0.000  -0.000   0.000   0.000  -0.000  -0.030   0.006   0.000   0.000   0.000   0.000
  0.000   0.000   0.000   0.000   0.000   0.000   0.000   0.000   0.000   0.000   0.000   0.000   0.048   0.000  -0.000  -0.003
  0.000   0.000   0.000   0.000   0.000   0.000   0.000   0.000   0.000   0.000   0.000   0.000   0.000   0.048   0.000   0.000
  0.000   0.000   0.000   0.000   0.000   0.000   0.000   0.000   0.000   0.000   0.000   0.000   0.000   0.000   0.048   0.000
  0.000   0.000   0.000   0.000   0.000   0.000   0.000   0.000   0.000   0.000   0.000   0.000  -0.003   0.000   0.000   0.000
  0.000   0.000   0.000   0.000   0.000   0.000   0.000   0.000   0.000   0.000   0.000   0.000  -0.000  -0.003  -0.000   0.000
  0.000   0.000   0.000   0.000   0.000   0.000   0.000   0.000   0.000   0.000   0.000   0.000   0.000   0.000  -0.003   0.000
 total augmentation occupancy for first ion, spin component:           2
  2.378   0.000  -0.000   0.000   0.000  -1.027  -0.000  -0.000   0.000  -0.000   0.000   0.000   0.000   0.000   0.000   0.000
  0.000   2.378  -0.000  -0.000   0.000  -0.000  -1.027  -0.000   0.000   0.000  -0.000   0.000   0.000   0.000   0.000   0.000
 -0.000  -0.000   2.653  -0.000   0.000   0.000  -0.000  -1.114  -0.000   0.000   0.000  -0.000   0.000   0.000   0.000   0.000
  0.000  -0.000   0.000   2.378   0.000  -0.000   0.000   0.000  -1.027   0.000  -0.000   0.000   0.000   0.000   0.000   0.000
  0.000  -0.000   0.000  -0.000   2.653   0.000   0.000  -0.000  -0.000  -1.114   0.000   0.000   0.000   0.000   0.000   0.000
 -1.027  -0.000   0.000   0.000  -0.000   0.341  -0.000   0.000   0.000  -0.000   0.000  -0.000   0.000   0.000   0.000   0.000
 -0.000  -1.027  -0.000   0.000   0.000   0.000   0.341  -0.000  -0.000  -0.000   0.000  -0.000   0.000   0.000   0.000   0.000
  0.000   0.000  -1.114  -0.000   0.000   0.000  -0.000   0.385  -0.000  -0.000  -0.000  -0.000   0.000   0.000   0.000   0.000
  0.000   0.000  -0.000  -1.027   0.000   0.000   0.000  -0.000   0.341   0.000   0.000   0.000   0.000   0.000   0.000   0.000
 -0.000   0.000   0.000   0.000  -1.114  -0.000  -0.000   0.000   0.000   0.385   0.000  -0.000   0.000   0.000   0.000   0.000
  0.000   0.000  -0.000   0.000   0.000  -0.000   0.000  -0.000   0.000   0.000  -0.167   0.060   0.000   0.000   0.000   0.000
  0.000  -0.000  -0.000   0.000   0.000  -0.000  -0.000   0.000   0.000   0.000   0.060  -0.002   0.000   0.000   0.000   0.000
  0.000   0.000   0.000   0.000   0.000   0.000   0.000   0.000   0.000   0.000   0.000   0.000  -0.005   0.000   0.000   0.001
  0.000   0.000   0.000   0.000   0.000   0.000   0.000   0.000   0.000   0.000   0.000   0.000  -0.000  -0.005   0.000  -0.000
  0.000   0.000   0.000   0.000   0.000   0.000   0.000   0.000   0.000   0.000   0.000   0.000   0.000   0.000  -0.005  -0.000
  0.000   0.000   0.000   0.000   0.000   0.000   0.000   0.000   0.000   0.000   0.000   0.000   0.001  -0.000  -0.000  -0.000
  0.000   0.000   0.000   0.000   0.000   0.000   0.000   0.000   0.000   0.000   0.000   0.000   0.000   0.001   0.000  -0.000
  0.000   0.000   0.000   0.000   0.000   0.000   0.000   0.000   0.000   0.000   0.000   0.000   0.000   0.000   0.001  -0.000


------------------------ aborting loop because EDIFF is reached ----------------------------------------


 


 total charge     
 
# of ion     s       p       d       tot
----------------------------------------
  1        0.309   0.096   6.045   6.450
 


 magnetization (x)
 
# of ion     s       p       d       tot
----------------------------------------
  1        0.010  -0.006   3.186   3.190
 
    CHARGE:  cpu time    0.1720: real time    0.0749
    FORLOC:  cpu time    0.0020: real time    0.0006
    FORNL :  cpu time    0.1570: real time    0.0807
    STRESS:  cpu time    0.1870: real time    0.1263
    FORCOR:  cpu time    0.0070: real time    0.0070
    FORHAR:  cpu time    0.0030: real time    0.0033
    MIXING:  cpu time    0.0010: real time    0.0011
    OFIELD:  cpu time    0.0000: real time    0.0000

  FORCE on cell =-STRESS in cart. coord.  units (eV):
  Direction    XX          YY          ZZ          XY          YZ          ZX
  --------------------------------------------------------------------------------------
  Alpha Z    20.93014    20.93014    20.93014
  Ewald    -139.74449  -139.74449  -139.74449    -0.00000    -0.00000    -0.00000
  Hartree    60.67692    60.67692    60.67692    -0.00000    -0.00000    -0.00000
  E(xc)     -37.70835   -37.70835   -37.70835    -0.00000    -0.00000    -0.00000
  Local      15.04862    15.04862    15.04862    -0.00000    -0.00000    -0.00000
  n-local   -30.19636   -30.07050   -29.29512     1.30422    -0.91527    -0.84962
  augment    38.84620    38.84620    38.84620     0.00000     0.00000     0.00000
  Kinetic    69.20118    67.75121    67.13003    -1.81526     1.39471     1.47344
  Fock        0.00000     0.00000     0.00000     0.00000     0.00000     0.00000
  -------------------------------------------------------------------------------------
  Total      -3.77749    -3.77749    -3.77749    -0.00000     0.00000    -0.00000
  in kB    -189.13164  -189.13164  -189.13164    -0.00000     0.00000    -0.00000
  external pressure =     -189.13 kB  Pullay stress =        0.00 kB


 VOLUME and BASIS-vectors are now :
 -----------------------------------------------------------------------------
  energy-cutoff  :      400.00
  volume of cell :       32.00
      direct lattice vectors                 reciprocal lattice vectors
    -2.000000000  2.000000000  2.000000000     0.000000000  0.250000000  0.250000000
     2.000000000 -2.000000000  2.000000000     0.250000000  0.000000000  0.250000000
     2.000000000  2.000000000 -2.000000000     0.250000000  0.250000000  0.000000000

  length of vectors
     3.464101615  3.464101615  3.464101615     0.353553391  0.353553391  0.353553391


 FORCES acting on ions
    electron-ion (+dipol)            ewald-force                    non-local-force                 convergence-correction
 -----------------------------------------------------------------------------------------------
   -.611E-14 -.895E-14 0.613E-14   0.182E-15 0.440E-15 -.761E-15   0.331E-23 0.000E+00 0.662E-23   -.675E-14 -.940E-14 0.471E-14
 -----------------------------------------------------------------------------------------------
   -.611E-14 -.895E-14 0.613E-14   0.182E-15 0.440E-15 -.761E-15   0.331E-23 0.000E+00 0.662E-23   -.675E-14 -.940E-14 0.471E-14
 
 
 POSITION                                       TOTAL-FORCE (eV/Angst)
 -----------------------------------------------------------------------------------
      0.00000      0.00000      0.00000        -0.000000     -0.000000      0.000000
 -----------------------------------------------------------------------------------
    total drift:                               -0.000000     -0.000000      0.000000


--------------------------------------------------------------------------------------------------------



  FREE ENERGIE OF THE ION-ELECTRON SYSTEM (eV)
  ---------------------------------------------------
  free  energy   TOTEN  =        -5.46752835 eV

  energy  without entropy=       -5.46752835  energy(sigma->0) =       -5.46752835
 


--------------------------------------------------------------------------------------------------------


    POTLOK:  cpu time    0.0130: real time    0.0122


--------------------------------------------------------------------------------------------------------


 writing wavefunctions
     LOOP+:  cpu time   21.7767: real time   11.0940
    4ORBIT:  cpu time    0.0000: real time    0.0000
 


 total charge     
 
# of ion     s       p       d       tot
----------------------------------------
  1        0.309   0.096   6.045   6.450
 


 magnetization (x)
 
# of ion     s       p       d       tot
----------------------------------------
  1        0.010  -0.006   3.186   3.190
 
 BZINTS: Fermi energy: -0.197346;  8.000000 electrons
         Band energy: -16.783081;  BLOECHL correction: -0.076203

 total amount of memory used by VASP on root node    38038. kBytes
========================================================================

   base      :      30000. kBytes
   nonl-proj :       2256. kBytes
   fftplans  :       1025. kBytes
   grid      :       3179. kBytes
   one-center:         31. kBytes
   wavefun   :       1547. kBytes
 
  
  
 General timing and accounting informations for this job:
 ========================================================
  
                  Total CPU time used (sec):       22.591
                            User time (sec):       21.285
                          System time (sec):        1.306
                         Elapsed time (sec):       12.826
  
                   Maximum memory used (kb):       43244.
                   Average memory used (kb):           0.
  
                          Minor page faults:        32005
                          Major page faults:            9
                 Voluntary context switches:          768
