 running on    4 total cores
 distrk:  each k-point on    4 cores,    1 groups
 distr:  one band on    1 cores,    4 groups
 using from now: INCAR     
 vasp.5.4.1 24Jun15 (build Jul 19 2016 16:50:41) complex                        
  
 POSCAR found type information on POSCAR  Fe
 POSCAR found :  1 types and       1 ions
 LDA part: xc-table for Ceperly-Alder, standard interpolation
 POSCAR, INCAR and KPOINTS ok, starting setup
 WARNING: small aliasing (wrap around) errors must be expected
 FFT: planning ...
 WAVECAR not read
 entering main loop
       N       E                     dE             d eps       ncg     rms          rms(c)
DAV:   1     0.202037836477E+02    0.20204E+02   -0.30682E+03  1288   0.536E+02
DAV:   2    -0.559881164592E+01   -0.25803E+02   -0.22085E+02  1284   0.966E+01
DAV:   3    -0.624744490109E+01   -0.64863E+00   -0.64408E+00  1532   0.199E+01
DAV:   4    -0.625177066464E+01   -0.43258E-02   -0.43390E-02  1368   0.154E+00
DAV:   5    -0.625183335657E+01   -0.62692E-04   -0.62889E-04  1524   0.196E-01    0.835E+00
DAV:   6    -0.649131447972E+01   -0.23948E+00   -0.20136E+01  1476   0.522E+01    0.157E+01
DAV:   7    -0.547645625965E+01    0.10149E+01   -0.53517E+00  1452   0.237E+01    0.315E+00
DAV:   8    -0.547235844856E+01    0.40978E-02   -0.35409E-02  1536   0.208E+00    0.109E+00
DAV:   9    -0.546897043611E+01    0.33880E-02   -0.24569E-03  1400   0.515E-01    0.285E-01
DAV:  10    -0.546749292888E+01    0.14775E-02   -0.69790E-03  1712   0.461E-01    0.139E-01
DAV:  11    -0.546752596283E+01   -0.33034E-04   -0.55915E-04  1492   0.300E-01    0.102E-01
DAV:  12    -0.546752178834E+01    0.41745E-05   -0.20404E-04  1508   0.137E-01    0.870E-02
DAV:  13    -0.546752791524E+01   -0.61269E-05   -0.15035E-04  1488   0.111E-01    0.735E-03
DAV:  14    -0.546752834859E+01   -0.43335E-06   -0.89046E-07   924   0.806E-03
   1 F= -.54675283E+01 E0= -.54675283E+01  d E =0.000000E+00  mag=     3.2066
 writing wavefunctions
