PROCAR lm decomposed
# of k-points:   26         # of bands:  12         # of ions:   1

 k-point    1 :    0.06250000 0.06250000 0.06250000     weight = 0.01562500

band   1 # energy   -4.41709842 # occ.  1.00000000
 
ion      s     py     pz     px    dxy    dyz    dz2    dxz    dx2    tot
  1  0.294  0.004  0.004  0.004  0.002  0.002  0.000  0.002  0.000  0.310
 
band   2 # energy   -2.76048619 # occ.  1.00000000
 
ion      s     py     pz     px    dxy    dyz    dz2    dxz    dx2    tot
  1  0.000  0.000  0.000  0.000  0.418  0.007  0.017  0.474  0.007  0.924
 
band   3 # energy   -2.76048619 # occ.  1.00000000
 
ion      s     py     pz     px    dxy    dyz    dz2    dxz    dx2    tot
  1  0.000  0.000  0.000  0.000  0.182  0.593  0.007  0.125  0.017  0.924
 
band   4 # energy   -2.60868236 # occ.  1.00000000
 
ion      s     py     pz     px    dxy    dyz    dz2    dxz    dx2    tot
  1  0.001  0.000  0.000  0.000  0.311  0.311  0.000  0.311  0.000  0.934
 
band   5 # energy   -2.55003305 # occ.  1.00000000
 
ion      s     py     pz     px    dxy    dyz    dz2    dxz    dx2    tot
  1  0.000  0.000  0.000  0.000  0.010  0.000  0.552  0.015  0.373  0.950
 
band   6 # energy   -2.55003305 # occ.  1.00000000
 
ion      s     py     pz     px    dxy    dyz    dz2    dxz    dx2    tot
  1  0.000  0.000  0.000  0.000  0.007  0.016  0.373  0.002  0.552  0.950
 
band   7 # energy    9.57874871 # occ.  0.00000000
 
ion      s     py     pz     px    dxy    dyz    dz2    dxz    dx2    tot
  1  0.096  0.126  0.126  0.126  0.011  0.011  0.000  0.011  0.000  0.507
 
band   8 # energy   10.50108013 # occ.  0.00000000
 
ion      s     py     pz     px    dxy    dyz    dz2    dxz    dx2    tot
  1  0.000  0.009  0.110  0.181  0.022  0.036  0.009  0.002  0.007  0.375
 
band   9 # energy   10.50108013 # occ.  0.00000000
 
ion      s     py     pz     px    dxy    dyz    dz2    dxz    dx2    tot
  1  0.000  0.191  0.090  0.019  0.018  0.004  0.007  0.038  0.009  0.375
 
band  10 # energy   14.06703026 # occ.  0.00000000
 
ion      s     py     pz     px    dxy    dyz    dz2    dxz    dx2    tot
  1  0.000  0.059  0.027  0.166  0.005  0.032  0.006  0.011  0.030  0.336
 
band  11 # energy   14.06703026 # occ.  0.00000000
 
ion      s     py     pz     px    dxy    dyz    dz2    dxz    dx2    tot
  1  0.000  0.109  0.141  0.002  0.027  0.000  0.030  0.021  0.006  0.336
 
band  12 # energy   15.40214332 # occ.  0.00000000
 
ion      s     py     pz     px    dxy    dyz    dz2    dxz    dx2    tot
  1  0.000  0.000  0.000  0.000  0.000  0.000  0.000  0.000  0.000  0.000
 

 k-point    2 :    0.18750000 0.06250000 0.06250000     weight = 0.04687500

band   1 # energy   -3.62519689 # occ.  1.00000000
 
ion      s     py     pz     px    dxy    dyz    dz2    dxz    dx2    tot
  1  0.245  0.011  0.011  0.003  0.009  0.075  0.003  0.009  0.010  0.378
 
band   2 # energy   -2.82683482 # occ.  1.00000000
 
ion      s     py     pz     px    dxy    dyz    dz2    dxz    dx2    tot
  1  0.000  0.000  0.000  0.000  0.445  0.000  0.019  0.445  0.006  0.915
 
band   3 # energy   -2.75350868 # occ.  1.00000000
 
ion      s     py     pz     px    dxy    dyz    dz2    dxz    dx2    tot
  1  0.010  0.002  0.002  0.000  0.125  0.455  0.043  0.125  0.130  0.892
 
band   4 # energy   -2.55683160 # occ.  1.00000000
 
ion      s     py     pz     px    dxy    dyz    dz2    dxz    dx2    tot
  1  0.000  0.000  0.000  0.000  0.016  0.162  0.188  0.016  0.565  0.949
 
band   5 # energy   -2.53471103 # occ.  1.00000000
 
ion      s     py     pz     px    dxy    dyz    dz2    dxz    dx2    tot
  1  0.000  0.000  0.000  0.000  0.013  0.000  0.695  0.013  0.232  0.953
 
band   6 # energy   -2.36307481 # occ.  1.00019091
 
ion      s     py     pz     px    dxy    dyz    dz2    dxz    dx2    tot
  1  0.021  0.003  0.003  0.001  0.321  0.230  0.001  0.321  0.002  0.902
 
band   7 # energy    6.43826530 # occ.  0.00000000
 
ion      s     py     pz     px    dxy    dyz    dz2    dxz    dx2    tot
  1  0.126  0.117  0.117  0.002  0.000  0.045  0.002  0.000  0.005  0.413
 
band   8 # energy    8.51519434 # occ.  0.00000000
 
ion      s     py     pz     px    dxy    dyz    dz2    dxz    dx2    tot
  1  0.036  0.000  0.000  0.305  0.016  0.015  0.003  0.016  0.010  0.402
 
band   9 # energy    9.20416906 # occ.  0.00000000
 
ion      s     py     pz     px    dxy    dyz    dz2    dxz    dx2    tot
  1  0.000  0.123  0.123  0.000  0.034  0.000  0.009  0.034  0.003  0.326
 
band  10 # energy   13.80631362 # occ.  0.00000000
 
ion      s     py     pz     px    dxy    dyz    dz2    dxz    dx2    tot
  1  0.053  0.029  0.029  0.132  0.001  0.019  0.024  0.001  0.072  0.360
 
band  11 # energy   13.98253448 # occ.  0.00000000
 
ion      s     py     pz     px    dxy    dyz    dz2    dxz    dx2    tot
  1  0.000  0.073  0.073  0.000  0.088  0.000  0.000  0.088  0.000  0.323
 
band  12 # energy   15.60573843 # occ.  0.00000000
 
ion      s     py     pz     px    dxy    dyz    dz2    dxz    dx2    tot
  1  0.000  0.066  0.066  0.000  0.000  0.000  0.045  0.000  0.015  0.192
 

 k-point    3 :    0.31250000 0.06250000 0.06250000     weight = 0.04687500

band   1 # energy   -3.16148465 # occ.  1.00000000
 
ion      s     py     pz     px    dxy    dyz    dz2    dxz    dx2    tot
  1  0.064  0.002  0.002  0.002  0.001  0.482  0.051  0.001  0.152  0.756
 
band   2 # energy   -2.88602888 # occ.  1.00000000
 
ion      s     py     pz     px    dxy    dyz    dz2    dxz    dx2    tot
  1  0.000  0.000  0.000  0.000  0.449  0.000  0.006  0.449  0.002  0.907
 
band   3 # energy   -2.53998878 # occ.  1.00000000
 
ion      s     py     pz     px    dxy    dyz    dz2    dxz    dx2    tot
  1  0.006  0.000  0.000  0.000  0.004  0.209  0.179  0.004  0.536  0.940
 
band   4 # energy   -2.52473919 # occ.  1.00000000
 
ion      s     py     pz     px    dxy    dyz    dz2    dxz    dx2    tot
  1  0.000  0.000  0.000  0.000  0.004  0.000  0.710  0.004  0.237  0.955
 
band   5 # energy   -2.44131901 # occ.  1.00000000
 
ion      s     py     pz     px    dxy    dyz    dz2    dxz    dx2    tot
  1  0.013  0.004  0.004  0.000  0.414  0.046  0.000  0.414  0.000  0.897
 
band   6 # energy   -1.49111603 # occ.  1.06566789
 
ion      s     py     pz     px    dxy    dyz    dz2    dxz    dx2    tot
  1  0.162  0.028  0.028  0.002  0.060  0.171  0.004  0.060  0.013  0.529
 
band   7 # energy    3.23874109 # occ.  0.00000000
 
ion      s     py     pz     px    dxy    dyz    dz2    dxz    dx2    tot
  1  0.163  0.081  0.081  0.000  0.002  0.055  0.002  0.002  0.007  0.393
 
band   8 # energy    7.45842852 # occ.  0.00000000
 
ion      s     py     pz     px    dxy    dyz    dz2    dxz    dx2    tot
  1  0.052  0.000  0.000  0.315  0.005  0.014  0.003  0.005  0.009  0.405
 
band   9 # energy    8.36836736 # occ.  0.00000000
 
ion      s     py     pz     px    dxy    dyz    dz2    dxz    dx2    tot
  1  0.000  0.115  0.115  0.000  0.037  0.000  0.003  0.037  0.001  0.308
 
band  10 # energy   13.28236878 # occ.  0.00000000
 
ion      s     py     pz     px    dxy    dyz    dz2    dxz    dx2    tot
  1  0.103  0.007  0.007  0.108  0.001  0.027  0.029  0.001  0.088  0.371
 
band  11 # energy   13.35867616 # occ.  0.00000000
 
ion      s     py     pz     px    dxy    dyz    dz2    dxz    dx2    tot
  1  0.000  0.042  0.042  0.000  0.101  0.000  0.000  0.101  0.000  0.286
 
band  12 # energy   17.02581210 # occ.  0.00000000
 
ion      s     py     pz     px    dxy    dyz    dz2    dxz    dx2    tot
  1  0.000  0.107  0.107  0.000  0.002  0.000  0.050  0.002  0.017  0.283
 

 k-point    4 :    0.43750000 0.06250000 0.06250000     weight = 0.02343750

band   1 # energy   -3.15121048 # occ.  1.00000000
 
ion      s     py     pz     px    dxy    dyz    dz2    dxz    dx2    tot
  1  0.034  0.000  0.000  0.001  0.000  0.513  0.067  0.000  0.201  0.817
 
band   2 # energy   -2.90935564 # occ.  1.00000000
 
ion      s     py     pz     px    dxy    dyz    dz2    dxz    dx2    tot
  1  0.000  0.000  0.000  0.000  0.452  0.000  0.000  0.452  0.000  0.904
 
band   3 # energy   -2.52246107 # occ.  1.00000000
 
ion      s     py     pz     px    dxy    dyz    dz2    dxz    dx2    tot
  1  0.004  0.000  0.000  0.000  0.000  0.294  0.163  0.000  0.488  0.948
 
band   4 # energy   -2.52126106 # occ.  1.00000000
 
ion      s     py     pz     px    dxy    dyz    dz2    dxz    dx2    tot
  1  0.000  0.000  0.000  0.000  0.000  0.000  0.717  0.000  0.239  0.956
 
band   5 # energy   -2.31400854 # occ.  1.00000000
 
ion      s     py     pz     px    dxy    dyz    dz2    dxz    dx2    tot
  1  0.000  0.002  0.002  0.000  0.469  0.000  0.000  0.469  0.000  0.943
 
band   6 # energy    0.45756914 # occ.  0.15089668
 
ion      s     py     pz     px    dxy    dyz    dz2    dxz    dx2    tot
  1  0.000  0.109  0.109  0.000  0.016  0.000  0.000  0.016  0.000  0.251
 
band   7 # energy    0.62180163 # occ.  0.00000000
 
ion      s     py     pz     px    dxy    dyz    dz2    dxz    dx2    tot
  1  0.373  0.000  0.000  0.002  0.000  0.154  0.006  0.000  0.018  0.554
 
band   8 # energy    7.09408382 # occ.  0.00000000
 
ion      s     py     pz     px    dxy    dyz    dz2    dxz    dx2    tot
  1  0.056  0.000  0.000  0.319  0.000  0.015  0.003  0.000  0.009  0.401
 
band   9 # energy    8.08237380 # occ.  0.00000000
 
ion      s     py     pz     px    dxy    dyz    dz2    dxz    dx2    tot
  1  0.000  0.114  0.114  0.000  0.038  0.000  0.000  0.038  0.000  0.303
 
band  10 # energy   13.09365346 # occ.  0.00000000
 
ion      s     py     pz     px    dxy    dyz    dz2    dxz    dx2    tot
  1  0.120  0.000  0.000  0.101  0.000  0.032  0.031  0.000  0.093  0.376
 
band  11 # energy   13.12726976 # occ.  0.00000000
 
ion      s     py     pz     px    dxy    dyz    dz2    dxz    dx2    tot
  1  0.000  0.037  0.037  0.000  0.105  0.000  0.000  0.105  0.000  0.282
 
band  12 # energy   18.39667748 # occ.  0.00000000
 
ion      s     py     pz     px    dxy    dyz    dz2    dxz    dx2    tot
  1  0.000  0.158  0.158  0.000  0.003  0.000  0.000  0.003  0.000  0.322
 

 k-point    5 :   -0.06250000 0.06250000 0.06250000     weight = 0.01171875

band   1 # energy   -4.71281533 # occ.  1.00000000
 
ion      s     py     pz     px    dxy    dyz    dz2    dxz    dx2    tot
  1  0.302  0.000  0.000  0.004  0.000  0.000  0.000  0.000  0.000  0.306
 
band   2 # energy   -2.72832442 # occ.  1.00000000
 
ion      s     py     pz     px    dxy    dyz    dz2    dxz    dx2    tot
  1  0.000  0.000  0.000  0.000  0.464  0.000  0.000  0.464  0.000  0.929
 
band   3 # energy   -2.72832419 # occ.  1.00000000
 
ion      s     py     pz     px    dxy    dyz    dz2    dxz    dx2    tot
  1  0.000  0.000  0.000  0.000  0.464  0.000  0.000  0.464  0.000  0.929
 
band   4 # energy   -2.71439279 # occ.  1.00000000
 
ion      s     py     pz     px    dxy    dyz    dz2    dxz    dx2    tot
  1  0.000  0.000  0.000  0.000  0.000  0.931  0.000  0.000  0.000  0.931
 
band   5 # energy   -2.56001853 # occ.  1.00000000
 
ion      s     py     pz     px    dxy    dyz    dz2    dxz    dx2    tot
  1  0.000  0.000  0.000  0.000  0.000  0.000  0.712  0.000  0.237  0.949
 
band   6 # energy   -2.53174696 # occ.  1.00000000
 
ion      s     py     pz     px    dxy    dyz    dz2    dxz    dx2    tot
  1  0.000  0.000  0.000  0.000  0.000  0.000  0.238  0.000  0.714  0.952
 
band   7 # energy   11.53595595 # occ.  0.00000000
 
ion      s     py     pz     px    dxy    dyz    dz2    dxz    dx2    tot
  1  0.055  0.000  0.000  0.475  0.000  0.000  0.001  0.000  0.002  0.533
 
band   8 # energy   11.59466284 # occ.  0.00000000
 
ion      s     py     pz     px    dxy    dyz    dz2    dxz    dx2    tot
  1  0.000  0.234  0.235  0.000  0.025  0.000  0.000  0.025  0.000  0.519
 
band   9 # energy   11.59466284 # occ.  0.00000000
 
ion      s     py     pz     px    dxy    dyz    dz2    dxz    dx2    tot
  1  0.000  0.235  0.234  0.000  0.025  0.000  0.000  0.025  0.000  0.519
 
band  10 # energy   13.45016367 # occ.  0.00000000
 
ion      s     py     pz     px    dxy    dyz    dz2    dxz    dx2    tot
  1  0.000  0.000  0.000  0.000  0.000  0.000  0.070  0.000  0.023  0.094
 
band  11 # energy   14.48156054 # occ.  0.00000000
 
ion      s     py     pz     px    dxy    dyz    dz2    dxz    dx2    tot
  1  0.000  0.037  0.036  0.000  0.046  0.000  0.000  0.045  0.000  0.165
 
band  12 # energy   14.48156055 # occ.  0.00000000
 
ion      s     py     pz     px    dxy    dyz    dz2    dxz    dx2    tot
  1  0.000  0.036  0.037  0.000  0.045  0.000  0.000  0.046  0.000  0.165
 

 k-point    6 :    0.18750000 0.18750000 0.06250000     weight = 0.04687500

band   1 # energy   -3.04395175 # occ.  1.00000000
 
ion      s     py     pz     px    dxy    dyz    dz2    dxz    dx2    tot
  1  0.084  0.004  0.005  0.004  0.016  0.263  0.073  0.263  0.000  0.712
 
band   2 # energy   -2.84679114 # occ.  1.00000000
 
ion      s     py     pz     px    dxy    dyz    dz2    dxz    dx2    tot
  1  0.000  0.002  0.000  0.002  0.000  0.332  0.000  0.332  0.234  0.901
 
band   3 # energy   -2.76480014 # occ.  1.00000000
 
ion      s     py     pz     px    dxy    dyz    dz2    dxz    dx2    tot
  1  0.030  0.001  0.008  0.001  0.780  0.007  0.003  0.007  0.000  0.836
 
band   4 # energy   -2.54293118 # occ.  1.00000000
 
ion      s     py     pz     px    dxy    dyz    dz2    dxz    dx2    tot
  1  0.000  0.000  0.000  0.000  0.000  0.122  0.000  0.122  0.707  0.950
 
band   5 # energy   -2.51291351 # occ.  1.00000000
 
ion      s     py     pz     px    dxy    dyz    dz2    dxz    dx2    tot
  1  0.003  0.000  0.000  0.000  0.003  0.041  0.861  0.041  0.000  0.950
 
band   6 # energy   -1.65181295 # occ.  1.06260643
 
ion      s     py     pz     px    dxy    dyz    dz2    dxz    dx2    tot
  1  0.138  0.009  0.020  0.009  0.132  0.158  0.016  0.158  0.000  0.639
 
band   7 # energy    4.82830830 # occ.  0.00000000
 
ion      s     py     pz     px    dxy    dyz    dz2    dxz    dx2    tot
  1  0.214  0.042  0.117  0.042  0.005  0.007  0.000  0.007  0.000  0.434
 
band   8 # energy    5.82639133 # occ.  0.00000000
 
ion      s     py     pz     px    dxy    dyz    dz2    dxz    dx2    tot
  1  0.000  0.108  0.000  0.108  0.000  0.042  0.000  0.042  0.020  0.320
 
band   9 # energy    7.80291036 # occ.  0.00000000
 
ion      s     py     pz     px    dxy    dyz    dz2    dxz    dx2    tot
  1  0.015  0.086  0.074  0.086  0.049  0.011  0.006  0.011  0.000  0.339
 
band  10 # energy   14.99033184 # occ.  0.00000000
 
ion      s     py     pz     px    dxy    dyz    dz2    dxz    dx2    tot
  1  0.050  0.056  0.097  0.056  0.056  0.047  0.022  0.047  0.000  0.430
 
band  11 # energy   15.12299009 # occ.  0.00000000
 
ion      s     py     pz     px    dxy    dyz    dz2    dxz    dx2    tot
  1  0.000  0.067  0.000  0.067  0.000  0.002  0.000  0.002  0.128  0.266
 
band  12 # energy   16.90188364 # occ.  0.00000000
 
ion      s     py     pz     px    dxy    dyz    dz2    dxz    dx2    tot
  1  0.000  0.076  0.000  0.076  0.000  0.052  0.000  0.052  0.012  0.266
 

 k-point    7 :    0.31250000 0.18750000 0.06250000     weight = 0.09375000

band   1 # energy   -3.00426284 # occ.  1.00000000
 
ion      s     py     pz     px    dxy    dyz    dz2    dxz    dx2    tot
  1  0.021  0.000  0.000  0.003  0.072  0.522  0.058  0.073  0.098  0.848
 
band   2 # energy   -2.87525004 # occ.  1.00000000
 
ion      s     py     pz     px    dxy    dyz    dz2    dxz    dx2    tot
  1  0.000  0.001  0.001  0.001  0.291  0.061  0.005  0.416  0.117  0.895
 
band   3 # energy   -2.60683466 # occ.  1.00000000
 
ion      s     py     pz     px    dxy    dyz    dz2    dxz    dx2    tot
  1  0.003  0.003  0.004  0.000  0.277  0.000  0.375  0.092  0.154  0.908
 
band   4 # energy   -2.51719272 # occ.  1.00000000
 
ion      s     py     pz     px    dxy    dyz    dz2    dxz    dx2    tot
  1  0.001  0.000  0.000  0.000  0.000  0.247  0.139  0.044  0.519  0.951
 
band   5 # energy   -2.46288167 # occ.  1.00000000
 
ion      s     py     pz     px    dxy    dyz    dz2    dxz    dx2    tot
  1  0.003  0.002  0.002  0.000  0.254  0.005  0.367  0.255  0.049  0.936
 
band   6 # energy   -0.03009827 # occ.  0.31167075
 
ion      s     py     pz     px    dxy    dyz    dz2    dxz    dx2    tot
  1  0.217  0.025  0.045  0.008  0.026  0.077  0.010  0.041  0.001  0.451
 
band   7 # energy    2.30449120 # occ.  0.00000000
 
ion      s     py     pz     px    dxy    dyz    dz2    dxz    dx2    tot
  1  0.176  0.081  0.065  0.001  0.017  0.036  0.000  0.007  0.007  0.389
 
band   8 # energy    4.79570347 # occ.  0.00000000
 
ion      s     py     pz     px    dxy    dyz    dz2    dxz    dx2    tot
  1  0.062  0.029  0.023  0.164  0.008  0.023  0.001  0.029  0.012  0.352
 
band   9 # energy    7.20743517 # occ.  0.00000000
 
ion      s     py     pz     px    dxy    dyz    dz2    dxz    dx2    tot
  1  0.019  0.086  0.077  0.079  0.038  0.012  0.001  0.025  0.000  0.337
 
band  10 # energy   14.66978661 # occ.  0.00000000
 
ion      s     py     pz     px    dxy    dyz    dz2    dxz    dx2    tot
  1  0.045  0.007  0.022  0.093  0.036  0.013  0.016  0.044  0.056  0.333
 
band  11 # energy   16.47782327 # occ.  0.00000000
 
ion      s     py     pz     px    dxy    dyz    dz2    dxz    dx2    tot
  1  0.000  0.144  0.046  0.025  0.060  0.003  0.000  0.041  0.092  0.410
 
band  12 # energy   17.18797934 # occ.  0.00000000
 
ion      s     py     pz     px    dxy    dyz    dz2    dxz    dx2    tot
  1  0.045  0.009  0.000  0.059  0.008  0.049  0.040  0.015  0.000  0.226
 

 k-point    8 :   -0.18750000 0.18750000 0.06250000     weight = 0.04687500

band   1 # energy   -4.13107486 # occ.  1.00000000
 
ion      s     py     pz     px    dxy    dyz    dz2    dxz    dx2    tot
  1  0.283  0.003  0.000  0.015  0.010  0.000  0.004  0.000  0.003  0.318
 
band   2 # energy   -2.77068696 # occ.  1.00000000
 
ion      s     py     pz     px    dxy    dyz    dz2    dxz    dx2    tot
  1  0.000  0.000  0.000  0.000  0.000  0.372  0.000  0.551  0.000  0.923
 
band   3 # energy   -2.71769070 # occ.  1.00000000
 
ion      s     py     pz     px    dxy    dyz    dz2    dxz    dx2    tot
  1  0.003  0.001  0.000  0.001  0.762  0.000  0.127  0.000  0.022  0.916
 
band   4 # energy   -2.59330363 # occ.  1.00000000
 
ion      s     py     pz     px    dxy    dyz    dz2    dxz    dx2    tot
  1  0.000  0.000  0.000  0.000  0.151  0.000  0.629  0.000  0.164  0.944
 
band   5 # energy   -2.59065846 # occ.  1.00000000
 
ion      s     py     pz     px    dxy    dyz    dz2    dxz    dx2    tot
  1  0.000  0.000  0.001  0.000  0.000  0.562  0.000  0.376  0.000  0.939
 
band   6 # energy   -2.51603022 # occ.  1.00000000
 
ion      s     py     pz     px    dxy    dyz    dz2    dxz    dx2    tot
  1  0.002  0.000  0.000  0.000  0.001  0.000  0.184  0.000  0.763  0.951
 
band   7 # energy    8.21084020 # occ.  0.00000000
 
ion      s     py     pz     px    dxy    dyz    dz2    dxz    dx2    tot
  1  0.086  0.148  0.000  0.125  0.051  0.000  0.008  0.000  0.000  0.419
 
band   8 # energy    9.99141872 # occ.  0.00000000
 
ion      s     py     pz     px    dxy    dyz    dz2    dxz    dx2    tot
  1  0.000  0.000  0.395  0.000  0.000  0.002  0.000  0.064  0.000  0.461
 
band   9 # energy   10.70790113 # occ.  0.00000000
 
ion      s     py     pz     px    dxy    dyz    dz2    dxz    dx2    tot
  1  0.036  0.129  0.000  0.209  0.009  0.000  0.011  0.000  0.010  0.403
 
band  10 # energy   12.72106833 # occ.  0.00000000
 
ion      s     py     pz     px    dxy    dyz    dz2    dxz    dx2    tot
  1  0.010  0.156  0.000  0.008  0.000  0.000  0.089  0.000  0.009  0.272
 
band  11 # energy   13.46632161 # occ.  0.00000000
 
ion      s     py     pz     px    dxy    dyz    dz2    dxz    dx2    tot
  1  0.000  0.000  0.054  0.000  0.000  0.123  0.000  0.079  0.000  0.256
 
band  12 # energy   14.23644973 # occ.  0.00000000
 
ion      s     py     pz     px    dxy    dyz    dz2    dxz    dx2    tot
  1  0.061  0.008  0.000  0.022  0.076  0.000  0.001  0.000  0.032  0.201
 

 k-point    9 :    0.31250000 0.31250000 0.06250000     weight = 0.01562500

band   1 # energy   -2.95755623 # occ.  1.00000000
 
ion      s     py     pz     px    dxy    dyz    dz2    dxz    dx2    tot
  1  0.010  0.001  0.001  0.001  0.289  0.289  0.000  0.289  0.000  0.879
 
band   2 # energy   -2.75219169 # occ.  1.00000000
 
ion      s     py     pz     px    dxy    dyz    dz2    dxz    dx2    tot
  1  0.000  0.001  0.006  0.001  0.339  0.085  0.374  0.085  0.000  0.891
 
band   3 # energy   -2.75219135 # occ.  1.00000000
 
ion      s     py     pz     px    dxy    dyz    dz2    dxz    dx2    tot
  1  0.000  0.004  0.000  0.004  0.000  0.254  0.000  0.254  0.374  0.891
 
band   4 # energy   -2.48550732 # occ.  1.00000000
 
ion      s     py     pz     px    dxy    dyz    dz2    dxz    dx2    tot
  1  0.000  0.001  0.000  0.001  0.000  0.190  0.000  0.190  0.568  0.950
 
band   5 # energy   -2.48550726 # occ.  1.00000000
 
ion      s     py     pz     px    dxy    dyz    dz2    dxz    dx2    tot
  1  0.000  0.000  0.001  0.000  0.254  0.063  0.568  0.063  0.000  0.950
 
band   6 # energy    1.44854550 # occ. -0.03766948
 
ion      s     py     pz     px    dxy    dyz    dz2    dxz    dx2    tot
  1  0.481  0.000  0.000  0.000  0.018  0.018  0.000  0.018  0.000  0.534
 
band   7 # energy    2.38779990 # occ.  0.00000000
 
ion      s     py     pz     px    dxy    dyz    dz2    dxz    dx2    tot
  1  0.000  0.035  0.140  0.035  0.060  0.015  0.014  0.015  0.000  0.314
 
band   8 # energy    2.38779995 # occ.  0.00000000
 
ion      s     py     pz     px    dxy    dyz    dz2    dxz    dx2    tot
  1  0.000  0.105  0.000  0.105  0.000  0.045  0.000  0.045  0.014  0.314
 
band   9 # energy    6.91028997 # occ.  0.00000000
 
ion      s     py     pz     px    dxy    dyz    dz2    dxz    dx2    tot
  1  0.025  0.080  0.080  0.080  0.025  0.025  0.000  0.025  0.000  0.342
 
band  10 # energy   16.41989029 # occ.  0.00000000
 
ion      s     py     pz     px    dxy    dyz    dz2    dxz    dx2    tot
  1  0.077  0.090  0.090  0.090  0.063  0.063  0.000  0.063  0.000  0.537
 
band  11 # energy   16.61388964 # occ.  0.00000000
 
ion      s     py     pz     px    dxy    dyz    dz2    dxz    dx2    tot
  1  0.000  0.036  0.000  0.037  0.000  0.002  0.000  0.002  0.131  0.208
 
band  12 # energy   16.61388964 # occ.  0.00000000
 
ion      s     py     pz     px    dxy    dyz    dz2    dxz    dx2    tot
  1  0.000  0.012  0.049  0.012  0.003  0.001  0.131  0.001  0.000  0.208
 

 k-point   10 :   -0.31250000 0.31250000 0.06250000     weight = 0.04687500

band   1 # energy   -3.32556063 # occ.  1.00000000
 
ion      s     py     pz     px    dxy    dyz    dz2    dxz    dx2    tot
  1  0.150  0.004  0.000  0.013  0.276  0.000  0.115  0.000  0.013  0.570
 
band   2 # energy   -2.83686015 # occ.  1.00000000
 
ion      s     py     pz     px    dxy    dyz    dz2    dxz    dx2    tot
  1  0.000  0.000  0.000  0.000  0.000  0.419  0.000  0.495  0.000  0.915
 
band   3 # energy   -2.63369954 # occ.  1.00000000
 
ion      s     py     pz     px    dxy    dyz    dz2    dxz    dx2    tot
  1  0.015  0.002  0.000  0.003  0.001  0.000  0.420  0.000  0.459  0.899
 
band   4 # energy   -2.53352877 # occ.  1.00000000
 
ion      s     py     pz     px    dxy    dyz    dz2    dxz    dx2    tot
  1  0.000  0.001  0.000  0.001  0.310  0.000  0.358  0.000  0.277  0.947
 
band   5 # energy   -2.39686099 # occ.  1.00000000
 
ion      s     py     pz     px    dxy    dyz    dz2    dxz    dx2    tot
  1  0.000  0.000  0.001  0.000  0.000  0.518  0.000  0.435  0.000  0.954
 
band   6 # energy   -2.28626162 # occ.  1.01017965
 
ion      s     py     pz     px    dxy    dyz    dz2    dxz    dx2    tot
  1  0.098  0.011  0.000  0.018  0.328  0.000  0.042  0.000  0.204  0.701
 
band   7 # energy    4.74675492 # occ.  0.00000000
 
ion      s     py     pz     px    dxy    dyz    dz2    dxz    dx2    tot
  1  0.134  0.110  0.000  0.083  0.055  0.000  0.010  0.000  0.001  0.393
 
band   8 # energy    8.65216089 # occ.  0.00000000
 
ion      s     py     pz     px    dxy    dyz    dz2    dxz    dx2    tot
  1  0.000  0.000  0.388  0.000  0.000  0.000  0.000  0.043  0.000  0.431
 
band   9 # energy    9.69277135 # occ.  0.00000000
 
ion      s     py     pz     px    dxy    dyz    dz2    dxz    dx2    tot
  1  0.039  0.108  0.000  0.161  0.004  0.000  0.021  0.000  0.006  0.339
 
band  10 # energy   12.47358378 # occ.  0.00000000
 
ion      s     py     pz     px    dxy    dyz    dz2    dxz    dx2    tot
  1  0.078  0.123  0.000  0.009  0.017  0.000  0.106  0.000  0.000  0.333
 
band  11 # energy   12.53849204 # occ.  0.00000000
 
ion      s     py     pz     px    dxy    dyz    dz2    dxz    dx2    tot
  1  0.000  0.000  0.039  0.000  0.000  0.141  0.000  0.101  0.000  0.281
 
band  12 # energy   14.77654599 # occ.  0.00000000
 
ion      s     py     pz     px    dxy    dyz    dz2    dxz    dx2    tot
  1  0.060  0.040  0.000  0.029  0.064  0.000  0.004  0.000  0.051  0.247
 

 k-point   11 :   -0.18750000 0.31250000 0.06250000     weight = 0.04687500

band   1 # energy   -3.40798378 # occ.  1.00000000
 
ion      s     py     pz     px    dxy    dyz    dz2    dxz    dx2    tot
  1  0.209  0.002  0.002  0.024  0.058  0.000  0.021  0.058  0.064  0.438
 
band   2 # energy   -2.78700740 # occ.  1.00000000
 
ion      s     py     pz     px    dxy    dyz    dz2    dxz    dx2    tot
  1  0.000  0.001  0.001  0.000  0.247  0.000  0.314  0.247  0.105  0.913
 
band   3 # energy   -2.73965531 # occ.  1.00000000
 
ion      s     py     pz     px    dxy    dyz    dz2    dxz    dx2    tot
  1  0.008  0.000  0.000  0.003  0.165  0.539  0.005  0.165  0.014  0.899
 
band   4 # energy   -2.60294356 # occ.  1.00000000
 
ion      s     py     pz     px    dxy    dyz    dz2    dxz    dx2    tot
  1  0.000  0.000  0.000  0.000  0.213  0.000  0.385  0.213  0.128  0.941
 
band   5 # energy   -2.48728108 # occ.  1.00000000
 
ion      s     py     pz     px    dxy    dyz    dz2    dxz    dx2    tot
  1  0.004  0.000  0.000  0.000  0.082  0.189  0.147  0.082  0.442  0.948
 
band   6 # energy   -2.31621042 # occ.  1.00204514
 
ion      s     py     pz     px    dxy    dyz    dz2    dxz    dx2    tot
  1  0.049  0.002  0.002  0.007  0.159  0.210  0.065  0.159  0.195  0.849
 
band   7 # energy    6.42097518 # occ.  0.00000000
 
ion      s     py     pz     px    dxy    dyz    dz2    dxz    dx2    tot
  1  0.157  0.058  0.058  0.126  0.017  0.001  0.000  0.017  0.000  0.434
 
band   8 # energy    7.19469328 # occ.  0.00000000
 
ion      s     py     pz     px    dxy    dyz    dz2    dxz    dx2    tot
  1  0.000  0.120  0.120  0.000  0.036  0.000  0.021  0.036  0.007  0.339
 
band   9 # energy   10.25263170 # occ.  0.00000000
 
ion      s     py     pz     px    dxy    dyz    dz2    dxz    dx2    tot
  1  0.014  0.144  0.144  0.132  0.002  0.009  0.000  0.002  0.000  0.446
 
band  10 # energy   12.17357073 # occ.  0.00000000
 
ion      s     py     pz     px    dxy    dyz    dz2    dxz    dx2    tot
  1  0.000  0.046  0.046  0.000  0.006  0.000  0.091  0.006  0.030  0.224
 
band  11 # energy   13.01719096 # occ.  0.00000000
 
ion      s     py     pz     px    dxy    dyz    dz2    dxz    dx2    tot
  1  0.083  0.001  0.001  0.016  0.052  0.079  0.005  0.052  0.014  0.302
 
band  12 # energy   15.92267095 # occ.  0.00000000
 
ion      s     py     pz     px    dxy    dyz    dz2    dxz    dx2    tot
  1  0.000  0.085  0.085  0.000  0.048  0.000  0.004  0.048  0.001  0.270
 

 k-point   12 :   -0.43750000 0.43750000 0.06250000     weight = 0.04687500

band   1 # energy   -3.18143005 # occ.  1.00000000
 
ion      s     py     pz     px    dxy    dyz    dz2    dxz    dx2    tot
  1  0.043  0.000  0.000  0.001  0.463  0.000  0.292  0.000  0.001  0.800
 
band   2 # energy   -2.88334546 # occ.  1.00000000
 
ion      s     py     pz     px    dxy    dyz    dz2    dxz    dx2    tot
  1  0.000  0.000  0.000  0.000  0.000  0.443  0.000  0.466  0.000  0.909
 
band   3 # energy   -2.57238693 # occ.  1.00000000
 
ion      s     py     pz     px    dxy    dyz    dz2    dxz    dx2    tot
  1  0.002  0.001  0.000  0.001  0.052  0.000  0.154  0.000  0.730  0.940
 
band   4 # energy   -2.53092142 # occ.  1.00000000
 
ion      s     py     pz     px    dxy    dyz    dz2    dxz    dx2    tot
  1  0.003  0.000  0.000  0.000  0.273  0.000  0.463  0.000  0.209  0.948
 
band   5 # energy   -2.24924469 # occ.  1.00000000
 
ion      s     py     pz     px    dxy    dyz    dz2    dxz    dx2    tot
  1  0.000  0.000  0.000  0.000  0.000  0.496  0.000  0.471  0.000  0.967
 
band   6 # energy   -0.68682837 # occ.  0.90980112
 
ion      s     py     pz     px    dxy    dyz    dz2    dxz    dx2    tot
  1  0.172  0.039  0.000  0.060  0.104  0.000  0.018  0.000  0.013  0.405
 
band   7 # energy    1.75080551 # occ.  0.00000000
 
ion      s     py     pz     px    dxy    dyz    dz2    dxz    dx2    tot
  1  0.187  0.077  0.000  0.051  0.073  0.000  0.013  0.000  0.003  0.404
 
band   8 # energy    7.91159102 # occ.  0.00000000
 
ion      s     py     pz     px    dxy    dyz    dz2    dxz    dx2    tot
  1  0.000  0.000  0.390  0.000  0.000  0.003  0.000  0.019  0.000  0.412
 
band   9 # energy    9.13191632 # occ.  0.00000000
 
ion      s     py     pz     px    dxy    dyz    dz2    dxz    dx2    tot
  1  0.039  0.116  0.000  0.133  0.003  0.000  0.023  0.000  0.001  0.317
 
band  10 # energy   12.07893995 # occ.  0.00000000
 
ion      s     py     pz     px    dxy    dyz    dz2    dxz    dx2    tot
  1  0.000  0.000  0.033  0.000  0.000  0.137  0.000  0.123  0.000  0.293
 
band  11 # energy   12.22634458 # occ.  0.00000000
 
ion      s     py     pz     px    dxy    dyz    dz2    dxz    dx2    tot