<?xml version="1.0" encoding="ISO-8859-1"?>
<modeling>
 <generator>
  <i name="program" type="string">vasp </i>
  <i name="version" type="string">5.4.1  </i>
  <i name="subversion" type="string">24Jun15 (build Jul 19 2016 16:50:41) complex                          parallel </i>
  <i name="platform" type="string">IFC91_ompi </i>
  <i name="date" type="string">2019 10 17 </i>
  <i name="time" type="string">12:06:35 </i>
 </generator>
 <incar>
  <i type="string" name="SYSTEM"> Fe BCC</i>
  <i type="string" name="PREC">accurate</i>
  <i type="int" name="ISPIN">     2</i>
  <i name="EDIFF">      0.00000100</i>
  <i name="ENMAX">    400.00000000</i>
  <v name="MAGMOM">      4.00000000</v>
  <i type="int" name="ISMEAR">    -5</i>
  <i type="logical" name="LORBIT"> F  </i>
  <v type="int" name="KPOINT_BSE">    -1     0     0     0</v>
 </incar>
 <kpoints>
  <generation param="Monkhorst-Pack">
   <v type="int" name="divisions">       8        8        8 </v>
   <v name="usershift">      0.00000000       0.00000000       0.00000000 </v>
   <v name="genvec1">      0.12500000       0.00000000       0.00000000 </v>
   <v name="genvec2">      0.00000000       0.12500000       0.00000000 </v>
   <v name="genvec3">      0.00000000       0.00000000       0.12500000 </v>
   <v name="shift">      0.50000000       0.50000000       0.50000000 </v>
  </generation>
  <varray name="kpointlist" >
   <v>       0.06250000       0.06250000       0.06250000 </v>
   <v>       0.18750000       0.06250000       0.06250000 </v>
   <v>       0.31250000       0.06250000       0.06250000 </v>
   <v>       0.43750000       0.06250000       0.06250000 </v>
   <v>      -0.06250000       0.06250000       0.06250000 </v>
   <v>       0.18750000       0.18750000       0.06250000 </v>
   <v>       0.31250000       0.18750000       0.06250000 </v>
   <v>      -0.18750000       0.18750000       0.06250000 </v>
   <v>       0.31250000       0.31250000       0.06250000 </v>
   <v>      -0.31250000       0.31250000       0.06250000 </v>
   <v>      -0.18750000       0.31250000       0.06250000 </v>
   <v>      -0.43750000       0.43750000       0.06250000 </v>
   <v>      -0.31250000       0.43750000       0.06250000 </v>
   <v>      -0.43750000      -0.43750000       0.06250000 </v>
   <v>      -0.31250000      -0.43750000       0.06250000 </v>
   <v>       0.18750000       0.18750000       0.18750000 </v>
   <v>       0.31250000       0.18750000       0.18750000 </v>
   <v>      -0.18750000       0.18750000       0.18750000 </v>
   <v>      -0.31250000       0.31250000       0.18750000 </v>
   <v>      -0.43750000       0.43750000       0.18750000 </v>
   <v>      -0.31250000       0.43750000       0.18750000 </v>
   <v>      -0.43750000      -0.43750000       0.18750000 </v>
   <v>      -0.31250000       0.31250000       0.31250000 </v>
   <v>      -0.43750000       0.43750000       0.31250000 </v>
   <v>      -0.43750000      -0.43750000       0.31250000 </v>
   <v>      -0.43750000       0.43750000       0.43750000 </v>
  </varray>
  <varray name="weights" >
   <v>       0.01562500 </v>
   <v>       0.04687500 </v>
   <v>       0.04687500 </v>
   <v>       0.02343750 </v>
   <v>       0.01171875 </v>
   <v>       0.04687500 </v>
   <v>       0.09375000 </v>
   <v>       0.04687500 </v>
   <v>       0.01562500 </v>
   <v>       0.04687500 </v>
   <v>       0.04687500 </v>
   <v>       0.04687500 </v>
   <v>       0.09375000 </v>
   <v>       0.04687500 </v>
   <v>       0.04687500 </v>
   <v>       0.01562500 </v>
   <v>       0.02343750 </v>
   <v>       0.01171875 </v>
   <v>       0.04687500 </v>
   <v>       0.04687500 </v>
   <v>       0.04687500 </v>
   <v>       0.04687500 </v>
   <v>       0.01171875 </v>
   <v>       0.04687500 </v>
   <v>       0.01562500 </v>
   <v>       0.01171875 </v>
  </varray>
  <varray name="tetrahedronlist"  type="int" >
   <v type="int" >        4        1        2        2        6 </v>
   <v type="int" >        8        2        2        6        6 </v>
   <v type="int" >        4        2        6        6       16 </v>
   <v type="int" >        4        2        3        6        7 </v>
   <v type="int" >        4        2        6        6        7 </v>
   <v type="int" >       12        6        6        7       16 </v>
   <v type="int" >        8        3        6        7        7 </v>
   <v type="int" >        8        6        7        7       17 </v>
   <v type="int" >        8        6        7       16       17 </v>
   <v type="int" >        4        3        4        7        7 </v>
   <v type="int" >        4        3        7        7        7 </v>
   <v type="int" >       16        7        7        7       17 </v>
   <v type="int" >        8        4        7        7        7 </v>
   <v type="int" >        4        7        7        7       16 </v>
   <v type="int" >       20        7        7       16       17 </v>
   <v type="int" >        4        3        4        6        7 </v>
   <v type="int" >        4        4        6        7        7 </v>
   <v type="int" >       16        6        7        7       16 </v>
   <v type="int" >        8        3        6        6        7 </v>
   <v type="int" >        4        6        6        6        7 </v>
   <v type="int" >        4        2        2        3        6 </v>
   <v type="int" >        8        2        3        6        6 </v>
   <v type="int" >        4        2        6        6        6 </v>
   <v type="int" >        4        2        2        2        6 </v>
   <v type="int" >        8        2        2        6       11 </v>
   <v type="int" >        4        2        6        6       11 </v>
   <v type="int" >       16        1        2        2        8 </v>
   <v type="int" >        4        2        2        2        8 </v>
   <v type="int" >       12        2        2        8       11 </v>
   <v type="int" >       16        1        2        8        8 </v>
   <v type="int" >        4        2        8        8       18 </v>
   <v type="int" >        4        2        8       11       18 </v>
   <v type="int" >       20        1        5        8        8 </v>
   <v type="int" >        4        1        8        8        8 </v>
   <v type="int" >        4        8        8        8       18 </v>
   <v type="int" >        8        5        8        8        8 </v>
   <v type="int" >        4        8        8        8       11 </v>
   <v type="int" >        4        8        8       11       18 </v>
   <v type="int" >        8        1        2        5        8 </v>
   <v type="int" >        8        2        5        8        8 </v>
   <v type="int" >        8        2        8        8       11 </v>
   <v type="int" >        4        2        2        6        8 </v>
   <v type="int" >        4        2        6        8       11 </v>
   <v type="int" >        4        6        7        9       16 </v>
   <v type="int" >       16        7        9       16       17 </v>
   <v type="int" >       12        9       16       17       17 </v>
   <v type="int" >       20        7        7        9       17 </v>
   <v type="int" >       12        7        9       17       17 </v>
   <v type="int" >        8        7        7       17       17 </v>
   <v type="int" >       12        3        6        7       16 </v>
   <v type="int" >        8        3        7        7       16 </v>
   <v type="int" >        8        3        6        6       16 </v>
   <v type="int" >        4        3        6       13       16 </v>
   <v type="int" >        4        3        7       13       16 </v>
   <v type="int" >        4        2        6        6       10 </v>
   <v type="int" >        4        3        6        6       10 </v>
   <v type="int" >        8        3        6       10       13 </v>
   <v type="int" >       12        2        6       10       11 </v>
   <v type="int" >        4        6       10       11       19 </v>
   <v type="int" >        4        6       10       13       19 </v>
   <v type="int" >        4        2        8       11       11 </v>
   <v type="int" >        4        2       10       11       11 </v>
   <v type="int" >        4       10       11       11       19 </v>
   <v type="int" >        8        8       11       11       18 </v>
   <v type="int" >        8       11       11       18       19 </v>
   <v type="int" >        4       11       11       19       19 </v>
   <v type="int" >        4        8        8       10       18 </v>
   <v type="int" >       12        8       10       11       18 </v>
   <v type="int" >       12       10       11       18       19 </v>
   <v type="int" >        4       10       11       13       18 </v>
   <v type="int" >        4       10       13       18       19 </v>
   <v type="int" >        4        2        3        8       11 </v>
   <v type="int" >        4        3        8       10       11 </v>
   <v type="int" >        8        3       10       11       13 </v>
   <v type="int" >       16        2        3        6       11 </v>
   <v type="int" >        4        3        6        7       11 </v>
   <v type="int" >        4        3        7       11       13 </v>
   <v type="int" >        4        4        7        9       17 </v>
   <v type="int" >        8        4        7        7       17 </v>
   <v type="int" >        4        4        7       14       17 </v>
   <v type="int" >        4        3        7        7       12 </v>
   <v type="int" >        8        4        7        7       12 </v>
   <v type="int" >        8        4        7       12       14 </v>
   <v type="int" >        8        3        7       12       13 </v>
   <v type="int" >        4        7       12       13       20 </v>
   <v type="int" >        4        7       12       14       20 </v>
   <v type="int" >        4        3       10       13       13 </v>
   <v type="int" >        4        3       12       13       13 </v>
   <v type="int" >        4       12       13       13       20 </v>
   <v type="int" >        8       10       13       13       19 </v>
   <v type="int" >       12       13       13       19       21 </v>
   <v type="int" >        4       13       13       20       21 </v>
   <v type="int" >        8       10       11       13       19 </v>
   <v type="int" >        8       11       13       19       19 </v>
   <v type="int" >        4       13       19       19       20 </v>
   <v type="int" >        8       13       19       20       21 </v>
   <v type="int" >        4       10       11       12       19 </v>
   <v type="int" >        4       11       12       13       19 </v>
   <v type="int" >        8       12       13       19       20 </v>
   <v type="int" >        8       10       12       13       19 </v>
   <v type="int" >        4       12       13       14       19 </v>
   <v type="int" >        4       12       14       19       20 </v>
   <v type="int" >        4        3        4       10       13 </v>
   <v type="int" >        4        4       10       12       13 </v>
   <v type="int" >       12        4       12       13       14 </v>
   <v type="int" >       12        3        4        7       13 </v>
   <v type="int" >        8        4        7        7       13 </v>
   <v type="int" >       12        4        7       13       14 </v>
   <v type="int" >        4        4       12       14       14 </v>
   <v type="int" >        4       12       14       14       20 </v>
   <v type="int" >        4       14       14       20       22 </v>
   <v type="int" >        4       12       13       15       20 </v>
   <v type="int" >        4       12       14       15       20 </v>
   <v type="int" >        8       14       15       20       22 </v>
   <v type="int" >       12       13       15       20       21 </v>
   <v type="int" >       12       15       20       21       22 </v>
   <v type="int" >        4       15       20       22       22 </v>
   <v type="int" >        4       13       13       14       21 </v>
   <v type="int" >       12       13       14       15       21 </v>
   <v type="int" >       16       14       15       21       22 </v>
   <v type="int" >        8       13       14       20       21 </v>
   <v type="int" >        4       14       20       20       21 </v>
   <v type="int" >       12       14       20       21       22 </v>
   <v type="int" >        4       12       12       13       20 </v>
   <v type="int" >        8       12       13       14       20 </v>
   <v type="int" >        8       12       14       20       20 </v>
   <v type="int" >        8       12       12       14       20 </v>
   <v type="int" >        4       12       13       20       20 </v>
   <v type="int" >       16        3        4       12       14 </v>
   <v type="int" >        8        3       12       12       14 </v>
   <v type="int" >        8        3       12       13       14 </v>
   <v type="int" >       16        3        4        7       14 </v>
   <v type="int" >        4        3        6        7       14 </v>
   <v type="int" >        4        3        6       13       14 </v>
   <v type="int" >        8       14       15       15       22 </v>
   <v type="int" >        8       15       15       22       22 </v>
   <v type="int" >        8       15       21       22       22 </v>
   <v type="int" >       12       13       14       15       22 </v>
   <v type="int" >        4       13       15       15       22 </v>
   <v type="int" >        8       13       15       21       22 </v>
   <v type="int" >       12       13       14       20       22 </v>
   <v type="int" >        4       13       19       20       22 </v>
   <v type="int" >        4       13       19       21       22 </v>
   <v type="int" >        4       10       12       14       20 </v>
   <v type="int" >        4       10       13       14       20 </v>
   <v type="int" >        8       10       13       19       20 </v>
   <v type="int" >        8       10       12       13       20 </v>
   <v type="int" >        4       10       11       13       20 </v>
   <v type="int" >        4       10       11       19       20 </v>
   <v type="int" >        4        2        3       12       13 </v>
   <v type="int" >        4        2       10       12       13 </v>
   <v type="int" >        8        2       10       11       13 </v>
   <v type="int" >       12        2        3        6       13 </v>
   <v type="int" >        4        2        2        6       13 </v>
   <v type="int" >        4        2        2       11       13 </v>
   <v type="int" >        4       11       13       15       21 </v>
   <v type="int" >        8       11       13       19       21 </v>
   <v type="int" >        4       11       18       19       21 </v>
   <v type="int" >        4        8       10       13       19 </v>
   <v type="int" >        4        8       11       13       19 </v>
   <v type="int" >        8        8       11       18       19 </v>
   <v type="int" >        8        8       10       11       19 </v>
   <v type="int" >        4        8        8       11       19 </v>
   <v type="int" >        4        8        8       18       19 </v>
   <v type="int" >        4        1        2       10       11 </v>
   <v type="int" >        4        1        8       10       11 </v>
   <v type="int" >        8        1        8        8       11 </v>
   <v type="int" >        8        1        2        2       11 </v>
   <v type="int" >       12        1        2        8       11 </v>
   <v type="int" >        4        5        8       11       18 </v>
   <v type="int" >        4        5        8        8       18 </v>
   <v type="int" >        4        1        5        8       18 </v>
   <v type="int" >        4        5        5        8        8 </v>
   <v type="int" >       12        1        5        5        8 </v>
   <v type="int" >        6        1        1        5        5 </v>
   <v type="int" >        8        1        1        5        8 </v>
   <v type="int" >        4        1        1        2        8 </v>
   <v type="int" >        4        2        3        6       16 </v>
   <v type="int" >        4        3        7       16       17 </v>
   <v type="int" >       12        7       16       17       17 </v>
   <v type="int" >        8        7       17       17       17 </v>
   <v type="int" >       12        7        7        9       16 </v>
   <v type="int" >        4        6        6        7        7 </v>
   <v type="int" >       16        3        6        7       13 </v>
   <v type="int" >       12        6        7        7       13 </v>
   <v type="int" >        4        3        6        6       11 </v>
   <v type="int" >       12        3        6       11       13 </v>
   <v type="int" >       12        2        3       10       11 </v>
   <v type="int" >        4        3       10       11       19 </v>
   <v type="int" >        4        3       11       13       19 </v>
   <v type="int" >        4        2        8       10       18 </v>
   <v type="int" >        4        2       10       11       18 </v>
   <v type="int" >        4       10       18       19       19 </v>
   <v type="int" >        4        8        8       11       11 </v>
   <v type="int" >        4        8       10       11       11 </v>
   <v type="int" >        4       10       11       11       13 </v>
   <v type="int" >        4       11       11       13       19 </v>
   <v type="int" >        4        2        6        8       10 </v>
   <v type="int" >        4        6        8       10       11 </v>
   <v type="int" >       12        6       10       11       13 </v>
   <v type="int" >        8        2        3        6       10 </v>
   <v type="int" >        4        3        6        7       10 </v>
   <v type="int" >        4        6        7       10       13 </v>
   <v type="int" >        4       16       17       17       17 </v>
   <v type="int" >        4       17       17       17       17 </v>
   <v type="int" >        4        9       17       17       17 </v>
   <v type="int" >        8        7        7       15       17 </v>
   <v type="int" >        8        7        9       15       17 </v>
   <v type="int" >        4        6        7       13       16 </v>
   <v type="int" >        4        7        7       13       16 </v>
   <v type="int" >       12        7        7       13       15 </v>
   <v type="int" >        8        6        7       13       13 </v>
   <v type="int" >        4        7       13       13       21 </v>
   <v type="int" >        4        7       13       15       21 </v>
   <v type="int" >        4        6       11       13       19 </v>
   <v type="int" >        4        6       13       13       19 </v>
   <v type="int" >        4       13       19       19       23 </v>
   <v type="int" >        4       13       19       21       23 </v>
   <v type="int" >        4       11       18       19       19 </v>
   <v type="int" >        4       11       19       19       19 </v>
   <v type="int" >        4       19       19       19       23 </v>
   <v type="int" >        4       18       19       19       19 </v>
   <v type="int" >        4       19       19       19       21 </v>
   <v type="int" >        4       19       19       21       23 </v>
   <v type="int" >        4       11       13       18       19 </v>
   <v type="int" >        4       13       18       19       19 </v>
   <v type="int" >        8       13       19       19       21 </v>
   <v type="int" >       12       11       13       13       19 </v>
   <v type="int" >        4       13       13       15       19 </v>
   <v type="int" >        4       13       15       19       21 </v>
   <v type="int" >        4        6        7       11       13 </v>
   <v type="int" >        4        7       11       13       13 </v>
   <v type="int" >        8        7       13       13       15 </v>
   <v type="int" >        4        7        7        9       13 </v>
   <v type="int" >        4        7        9       13       15 </v>
   <v type="int" >        4        7        9       14       17 </v>
   <v type="int" >       12        7        9       14       15 </v>
   <v type="int" >        4        9       14       15       22 </v>
   <v type="int" >        4        7       13       15       20 </v>
   <v type="int" >        4        7       14       15       20 </v>
   <v type="int" >        4       15       20       21       24 </v>
   <v type="int" >        4       15       20       22       24 </v>
   <v type="int" >        4       13       19       21       21 </v>
   <v type="int" >        4       13       20       21       21 </v>
   <v type="int" >        4       20       21       21       24 </v>
   <v type="int" >        8       19       21       21       23 </v>
   <v type="int" >        8       21       21       23       24 </v>
   <v type="int" >        4       21       21       24       24 </v>
   <v type="int" >        4       19       19       20       23 </v>
   <v type="int" >       12       19       20       21       23 </v>
   <v type="int" >       12       20       21       23       24 </v>
   <v type="int" >        4       20       21       22       23 </v>
   <v type="int" >        4       20       22       23       24 </v>
   <v type="int" >        4       13       14       19       21 </v>
   <v type="int" >        4       14       19       20       21 </v>
   <v type="int" >        4       14       15       15       21 </v>
   <v type="int" >       16        7       13       14       15 </v>
   <v type="int" >        8        7       14       15       15 </v>
   <v type="int" >       16        7        7        9       15 </v>
   <v type="int" >        4        7        7       15       15 </v>
   <v type="int" >        4       14       20       22       22 </v>
   <v type="int" >        8       20       22       22       24 </v>
   <v type="int" >       16       22       22       24       25 </v>
   <v type="int" >       16       20       21       22       24 </v>
   <v type="int" >        8       21       22       24       24 </v>
   <v type="int" >        4       22       24       24       24 </v>
   <v type="int" >       16       22       24       24       25 </v>
   <v type="int" >        4       20       20       21       24 </v>
   <v type="int" >       12       20       22       24       24 </v>
   <v type="int" >        8       20       20       22       24 </v>
   <v type="int" >        4       20       21       24       24 </v>
   <v type="int" >        4       13       20       20       22 </v>
   <v type="int" >        8       13       20       21       22 </v>
   <v type="int" >        4       13       13       15       22 </v>
   <v type="int" >        4       13       13       21       22 </v>
   <v type="int" >        4        6        7       14       15 </v>
   <v type="int" >        4        6       13       14       15 </v>
   <v type="int" >        4        6       13       13       15 </v>
   <v type="int" >        4        6        7        7       15 </v>
   <v type="int" >        4        3        6        7       15 </v>
   <v type="int" >        4        3        6       13       15 </v>
   <v type="int" >        8       21       22       22       25 </v>
   <v type="int" >       12       21       22       24       25 </v>
   <v type="int" >        4       21       23       24       25 </v>
   <v type="int" >        4       19       20       22       24 </v>
   <v type="int" >        4       19       21       22       24 </v>
   <v type="int" >        8       19       21       23       24 </v>
   <v type="int" >        8       19       20       21       24 </v>
   <v type="int" >        4       19       19       21       24 </v>
   <v type="int" >        4       19       19       23       24 </v>
   <v type="int" >        4       11       13       20       21 </v>
   <v type="int" >        4       11       19       20       21 </v>
   <v type="int" >        4       11       19       19       21 </v>
   <v type="int" >        4       11       13       13       21 </v>
   <v type="int" >        4       10       11       13       21 </v>
   <v type="int" >        4       10       11       19       21 </v>
   <v type="int" >        4        2        6       13       13 </v>
   <v type="int" >        4        2       11       13       13 </v>
   <v type="int" >       12        2        3       10       13 </v>
   <v type="int" >        4        2       10       10       13 </v>
   <v type="int" >        4       18       19       21       23 </v>
   <v type="int" >        4       18       19       19       23 </v>
   <v type="int" >        4       11       18       19       23 </v>
   <v type="int" >        4        8       11       19       19 </v>
   <v type="int" >        4        8       18       19       19 </v>
   <v type="int" >        4        2        8       10       19 </v>
   <v type="int" >        4        2        8       11       19 </v>
   <v type="int" >       16        2        8       10       11 </v>
   <v type="int" >        4        8        8       10       11 </v>
   <v type="int" >       12        2        8        8       10 </v>
   <v type="int" >        8        2        8       10       10 </v>
   <v type="int" >        4        8       10       10       11 </v>
   <v type="int" >        4        1        8       11       18 </v>
   <v type="int" >        4        2        8        8        8 </v>
   <v type="int" >        8        2        2        8       10 </v>
   <v type="int" >        4        2        2        3       10 </v>
   <v type="int" >        4        3        4        7       17 </v>
   <v type="int" >        4        4        7       16       17 </v>
   <v type="int" >        4        7        7        7        9 </v>
   <v type="int" >        4        4        7        7       14 </v>
   <v type="int" >        4        7        7        7       14 </v>
   <v type="int" >       12        3        4       12       13 </v>
   <v type="int" >        4        4       12       13       20 </v>
   <v type="int" >        4        4       13       14       20 </v>
   <v type="int" >        4        3       10       12       19 </v>
   <v type="int" >        4        3       12       13       19 </v>
   <v type="int" >        4       12       13       19       21 </v>
   <v type="int" >        4       12       19       20       21 </v>
   <v type="int" >        4       10       13       19       19 </v>
   <v type="int" >        8       13       13       19       20 </v>
   <v type="int" >        4       10       11       13       13 </v>
   <v type="int" >        4       10       12       13       13 </v>
   <v type="int" >        4       12       13       13       14 </v>
   <v type="int" >        4       13       13       14       20 </v>
   <v type="int" >        4        3        7       10       12 </v>
   <v type="int" >        4        7       10       12       13 </v>
   <v type="int" >        8        7       12       13       14 </v>
   <v type="int" >        8        3        4        7       12 </v>
   <v type="int" >        4        7        7       12       14 </v>
   <v type="int" >        4        7        9       15       16 </v>
   <v type="int" >       12        7        9       15       15 </v>
   <v type="int" >        8        7        7       14       15 </v>
   <v type="int" >        4        7       14       15       22 </v>
   <v type="int" >        4        7       15       15       22 </v>
   <v type="int" >        4        7       13       14       21 </v>
   <v type="int" >        4        7       14       15       21 </v>
   <v type="int" >        4       14       20       21       24 </v>
   <v type="int" >        4       14       21       22       24 </v>
   <v type="int" >        4       13       19       20       23 </v>
   <v type="int" >        4       13       20       21       23 </v>
   <v type="int" >        4       20       23       24       24 </v>
   <v type="int" >        4       19       19       21       21 </v>
   <v type="int" >        4       19       20       21       21 </v>
   <v type="int" >        4       20       21       21       22 </v>
   <v type="int" >        4       21       21       22       24 </v>
   <v type="int" >        4       13       15       19       20 </v>
   <v type="int" >        4       15       19       20       21 </v>
   <v type="int" >        8       13       14       15       20 </v>
   <v type="int" >        4       14       15       15       20 </v>
   <v type="int" >        4       15       15       20       22 </v>
   <v type="int" >        4        7        9       13       14 </v>
   <v type="int" >        4        9       13       14       15 </v>
   <v type="int" >        8        9       14       15       15 </v>
   <v type="int" >        8        7        7        9       14 </v>
   <v type="int" >        4        9       15       15       22 </v>
   <v type="int" >        4       15       22       22       25 </v>
   <v type="int" >        4       15       21       22       24 </v>
   <v type="int" >        4       15       22       22       24 </v>
   <v type="int" >        8       22       24       24       26 </v>
   <v type="int" >        8       22       24       25       26 </v>
   <v type="int" >        4       21       23       24       24 </v>
   <v type="int" >        4       21       24       24       24 </v>
   <v type="int" >        8       24       24       24       26 </v>
   <v type="int" >        4       23       24       24       24 </v>
   <v type="int" >        4       24       24       24       25 </v>
   <v type="int" >       20       24       24       25       26 </v>
   <v type="int" >        4       21       22       23       24 </v>
   <v type="int" >        4       22       23       24       24 </v>
   <v type="int" >       12       21       22       22       24 </v>
   <v type="int" >        4       22       22       22       24 </v>
   <v type="int" >        4       15       15       21       22 </v>
   <v type="int" >        4       15       22       22       22 </v>
   <v type="int" >        4       15       15       15       22 </v>
   <v type="int" >        4       14       15       22       22 </v>
   <v type="int" >        4        7       15       15       15 </v>
   <v type="int" >        4        4        7        7       15 </v>
   <v type="int" >        4        4        7       14       15 </v>
   <v type="int" >        4       22       24       25       25 </v>
   <v type="int" >        8       24       25       25       26 </v>
   <v type="int" >        6       25       25       26       26 </v>
   <v type="int" >       12       24       25       26       26 </v>
   <v type="int" >        4       24       24       26       26 </v>
   <v type="int" >        8       21       24       24       25 </v>
   <v type="int" >        4       20       21       22       25 </v>
   <v type="int" >        4       20       21       24       25 </v>
   <v type="int" >        4       13       15       22       22 </v>
   <v type="int" >        4       13       21       22       22 </v>
   <v type="int" >        4       12       13       14       22 </v>
   <v type="int" >        4       12       13       20       22 </v>
   <v type="int" >        4        3        7       14       15 </v>
   <v type="int" >        4        3       13       14       15 </v>
   <v type="int" >        4       23       24       25       26 </v>
   <v type="int" >        4       23       24       24       26 </v>
   <v type="int" >        4       21       23       24       26 </v>
   <v type="int" >        4       19       21       24       24 </v>
   <v type="int" >        4       19       23       24       24 </v>
   <v type="int" >        4       13       19       20       24 </v>
   <v type="int" >        4       13       19       21       24 </v>
   <v type="int" >        4       10       13       20       21 </v>
   <v type="int" >        4       10       19       20       21 </v>
   <v type="int" >        4        3       10       12       20 </v>
   <v type="int" >        4        3       10       13       20 </v>
   <v type="int" >        8        3       10       12       13 </v>
   <v type="int" >        4       10       10       12       13 </v>
   <v type="int" >        8        3       10       10       12 </v>
   <v type="int" >        8        3       10       12       12 </v>
   <v type="int" >        4       10       12       12       13 </v>
   <v type="int" >        4       11       19       21       23 </v>
   <v type="int" >        4        6       11       13       21 </v>
   <v type="int" >        4        2       10       13       19 </v>
   <v type="int" >        4        2       11       13       19 </v>
   <v type="int" >        8        2        6       11       13 </v>
   <v type="int" >        4        2        6        6       13 </v>
   <v type="int" >        4        3       10       10       11 </v>
   <v type="int" >        4        3       11       13       13 </v>
   <v type="int" >        4        2        2        6       10 </v>
   <v type="int" >        4        6       10       12       13 </v>
   <v type="int" >        4        3        6       10       12 </v>
   <v type="int" >        4        2        3        3       10 </v>
   <v type="int" >        4        3        3       10       12 </v>
   <v type="int" >        4        3        3        4       12 </v>
   <v type="int" >        4        3        4        7       16 </v>
   <v type="int" >        4        6        7        7        7 </v>
   <v type="int" >        4        6        6        7       13 </v>
   <v type="int" >        8        3        7        7       14 </v>
   <v type="int" >        8        3        7       13       14 </v>
   <v type="int" >        4        3       12       14       20 </v>
   <v type="int" >        4        3       13       14       20 </v>
   <v type="int" >        4        4       12       12       20 </v>
   <v type="int" >        4        4       12       14       20 </v>
   <v type="int" >        4       12       14       20       22 </v>
   <v type="int" >        4       12       20       20       22 </v>
   <v type="int" >        4       12       13       14       21 </v>
   <v type="int" >        4       12       14       20       21 </v>
   <v type="int" >        4       14       21       22       22 </v>
   <v type="int" >        4       13       13       15       20 </v>
   <v type="int" >        4       14       15       20       20 </v>
   <v type="int" >        4       15       20       20       22 </v>
   <v type="int" >        4       12       13       14       14 </v>
   <v type="int" >        4       13       14       14       20 </v>
   <v type="int" >        2       14       14       20       20 </v>
   <v type="int" >        2       12       12       14       14 </v>
   <v type="int" >        8        4        7       12       12 </v>
   <v type="int" >        4        7       12       12       14 </v>
   <v type="int" >        4        3        6        7       12 </v>
   <v type="int" >        4        6        7       12       13 </v>
   <v type="int" >        4        6        7       15       16 </v>
   <v type="int" >        8        6        7       13       15 </v>
   <v type="int" >        4        6       13       15       21 </v>
   <v type="int" >        4        7       13       14       22 </v>
   <v type="int" >        4        7       13       15       22 </v>
   <v type="int" >        4       13       20       22       24 </v>
   <v type="int" >        4       13       21       22       24 </v>
   <v type="int" >        4       14       20       20       24 </v>
   <v type="int" >        4       14       20       22       24 </v>
   <v type="int" >        4       20       22       24       25 </v>
   <v type="int" >        4       20       24       24       25 </v>
   <v type="int" >        6       22       22       24       24 </v>
   <v type="int" >        4       20       21       22       22 </v>
   <v type="int" >        2       20       20       22       22 </v>
   <v type="int" >        4        7        7       13       14 </v>
   <v type="int" >        4        3        7       13       13 </v>
   <v type="int" >        4       15       21       22       25 </v>
   <v type="int" >        4       21       24       25       26 </v>
   <v type="int" >        4       24       26       26       26 </v>
   <v type="int" >        6       24       24       25       25 </v>
   <v type="int" >        4        4        7       13       15 </v>
   <v type="int" >        4        4       13       14       15 </v>
   <v type="int" >        8        4       12       12       13 </v>
   <v type="int" >        4       25       26       26       26 </v>
   <v type="int" >        2       26       26       26       26 </v>
   <v type="int" >        4        4       12       12       14 </v>
   <v type="int" >        4       12       12       12       14 </v>
   <v type="int" >        8        4       12       12       12 </v>
   <v type="int" >        4        3        4        4       12 </v>
   <v type="int" >        4        4        4       12       12 </v>
   <v type="int" >        4        1        5        8       11 </v>
   <v type="int" >        4        1        2        6       11 </v>
   <v type="int" >        4        2        8       10       13 </v>
   <v type="int" >        4        2        8       11       13 </v>
   <v type="int" >        4        2        3        7       13 </v>
   <v type="int" >        4        2        6        7       13 </v>
   <v type="int" >        4        3       10       12       14 </v>
   <v type="int" >        4        3       10       13       14 </v>
   <v type="int" >        4        3        4        6       13 </v>
   <v type="int" >        4        4        6        7       13 </v>
   <v type="int" >        4        3       10       11       12 </v>
   <v type="int" >        4        3       11       12       13 </v>
   <v type="int" >        4        2        2        3       11 </v>
   <v type="int" >        6        2        2        8        8 </v>
   <v type="int" >        6        1        1        8        8 </v>
   <v type="int" >        4        5        5        5        8 </v>
   <v type="int" >        4        6       11       13       15 </v>
   <v type="int" >        4        6        7        9       15 </v>
   <v type="int" >        4        7       13       15       15 </v>
   <v type="int" >        4        7        7        7       15 </v>
   <v type="int" >        4        7       13       13       14 </v>
   <v type="int" >        4        3        7        7       13 </v>
   <v type="int" >        4        6       10       13       13 </v>
   <v type="int" >        4        2        6       10       10 </v>
   <v type="int" >        4        3        6       10       10 </v>
   <v type="int" >        4        2        2       10       11 </v>
   <v type="int" >        2        2        2       10       10 </v>
   <v type="int" >        4        1        8        8       10 </v>
   <v type="int" >        4        1        2        8       10 </v>
   <v type="int" >        4        2        3        8       10 </v>
   <v type="int" >        4        3        8       10       10 </v>
   <v type="int" >        4        4        7        9       14 </v>
   <v type="int" >        4        7       12       13       15 </v>
   <v type="int" >        4        7       12       14       15 </v>
   <v type="int" >        4        3        7       12       12 </v>
   <v type="int" >        4        3        3       10       13 </v>
   <v type="int" >        4        3        3       12       13 </v>
   <v type="int" >        2        3        3       12       12 </v>
   <v type="int" >        2        3        3       10       10 </v>
   <v type="int" >        4        2       10       10       12 </v>
   <v type="int" >        4        2        3       10       12 </v>
   <v type="int" >        4        3        4       10       12 </v>
   <v type="int" >        4        4       10       12       12 </v>
   <v type="int" >        4        4        4       12       14 </v>
   <v type="int" >        4        3       12       12       12 </v>
   <v type="int" >        4        3        4       12       12 </v>
   <v type="int" >        4        1        5        5        5 </v>
   <v type="int" >        2        5        5        5        5 </v>
  </varray>
  <i name="volumeweight">      0.00032552 </i>
 </kpoints>
 <parameters>
  <separator name="general" >
   <i type="string" name="SYSTEM">Fe BCC</i>
   <i type="logical" name="LCOMPAT"> F  </i>
  </separator>
  <separator name="electronic" >
   <i type="string" name="PREC">accura</i>
   <i name="ENMAX">    400.00000000</i>
   <i name="ENAUG">    511.36800000</i>
   <i name="EDIFF">      0.00000100</i>
   <i type="int" name="IALGO">    38</i>
   <i type="int" name="IWAVPR">    10</i>
   <i type="int" name="NBANDS">    12</i>
   <i name="NELECT">      8.00000000</i>
   <i type="int" name="TURBO">     0</i>
   <i type="int" name="IRESTART">     0</i>
   <i type="int" name="NREBOOT">     0</i>
   <i type="int" name="NMIN">     0</i>
   <i name="EREF">      0.00000000</i>
   <separator name="electronic smearing" >
    <i type="int" name="ISMEAR">    -5</i>
    <i name="SIGMA">      0.20000000</i>
    <i name="KSPACING">      0.50000000</i>
    <i type="logical" name="KGAMMA"> T  </i>
   </separator>
   <separator name="electronic projectors" >
    <i type="logical" name="LREAL"> F  </i>
    <v name="ROPT">      0.00000000</v>
    <i type="int" name="LMAXPAW">  -100</i>
    <i type="int" name="LMAXMIX">     2</i>
    <i type="logical" name="NLSPLINE"> F  </i>
   </separator>
   <separator name="electronic startup" >
    <i type="int" name="ISTART">     0</i>
    <i type="int" name="ICHARG">     2</i>
    <i type="int" name="INIWAV">     1</i>
   </separator>
   <separator name="electronic spin" >
    <i type="int" name="ISPIN">     2</i>
    <i type="logical" name="LNONCOLLINEAR"> F  </i>
    <v name="MAGMOM">      4.00000000</v>
    <i name="NUPDOWN">     -1.00000000</i>
    <i type="logical" name="LSORBIT"> F  </i>
    <v name="SAXIS">      0.00000000      0.00000000      1.00000000</v>
    <i type="logical" name="LSPIRAL"> F  </i>
    <v name="QSPIRAL">      0.00000000      0.00000000      0.00000000</v>
    <i type="logical" name="LZEROZ"> F  </i>
   </separator>
   <separator name="electronic exchange-correlation" >
    <i type="logical" name="LASPH"> F  </i>
    <i type="logical" name="LMETAGGA"> F  </i>
   </separator>
   <separator name="electronic convergence" >
    <i type="int" name="NELM">    60</i>
    <i type="int" name="NELMDL">    -5</i>
    <i type="int" name="NELMIN">     2</i>
    <i name="ENINI">    400.00000000</i>
    <separator name="electronic convergence detail" >
     <i type="logical" name="LDIAG"> T  </i>
     <i type="logical" name="LSUBROT"> F  </i>
     <i name="WEIMIN">      0.00000000</i>
     <i name="EBREAK">      0.00000002</i>
     <i name="DEPER">      0.30000000</i>
     <i type="int" name="NRMM">     4</i>
     <i name="TIME">      0.40000000</i>
    </separator>
   </separator>
   <separator name="electronic mixer" >
    <i name="AMIX">      0.40000000</i>
    <i name="BMIX">      1.00000000</i>
    <i name="AMIN">      0.10000000</i>
    <i name="AMIX_MAG">      1.60000000</i>
    <i name="BMIX_MAG">      1.00000000</i>
    <separator name="electronic mixer details" >
     <i type="int" name="IMIX">     4</i>
     <i type="logical" name="MIXFIRST"> F  </i>
     <i type="int" name="MAXMIX">   -45</i>
     <i name="WC">    100.00000000</i>
     <i type="int" name="INIMIX">     1</i>
     <i type="int" name="MIXPRE">     1</i>
     <i type="int" name="MREMOVE">     5</i>
    </separator>
   </separator>
   <separator name="electronic dipolcorrection" >
    <i type="logical" name="LDIPOL"> F  </i>
    <i type="logical" name="LMONO"> F  </i>
    <i type="int" name="IDIPOL">     0</i>
    <i name="EPSILON">      1.00000000</i>
    <v name="DIPOL">   -100.00000000   -100.00000000   -100.00000000</v>
    <i name="EFIELD">      0.00000000</i>
   </separator>
  </separator>
  <separator name="grids" >
   <i type="int" name="NGX">    24</i>
   <i type="int" name="NGY">    24</i>
   <i type="int" name="NGZ">    24</i>
   <i type="int" name="NGXF">    48</i>
   <i type="int" name="NGYF">    48</i>
   <i type="int" name="NGZF">    48</i>
   <i type="logical" name="ADDGRID"> F  </i>
  </separator>
  <separator name="ionic" >
   <i type="int" name="NSW">     0</i>
   <i type="int" name="IBRION">    -1</i>
   <i type="int" name="ISIF">     2</i>
   <i name="PSTRESS">      0.00000000</i>
   <i name="EDIFFG">      0.00001000</i>
   <i type="int" name="NFREE">     0</i>
   <i name="POTIM">      0.50000000</i>
   <i name="SMASS">     -3.00000000</i>
   <i name="SCALEE">      1.00000000</i>
  </separator>
  <separator name="ionic md" >
   <i name="TEBEG">      0.00010000</i>
   <i name="TEEND">      0.00010000</i>
   <i type="int" name="NBLOCK">     1</i>
   <i type="int" name="KBLOCK">     1</i>
   <i type="int" name="NPACO">   256</i>
   <i name="APACO">     16.00000000</i>
  </separator>
  <separator name="symmetry" >
   <i type="int" name="ISYM">     2</i>
   <i name="SYMPREC">      0.00001000</i>
  </separator>
  <separator name="dos" >
   <i type="logical" name="LORBIT"> F  </i>
   <v name="RWIGS">     -1.00000000</v>
   <i type="int" name="NEDOS">   301</i>
   <i name="EMIN">     10.00000000</i>
   <i name="EMAX">    -10.00000000</i>
   <i name="EFERMI">      0.00000000</i>
  </separator>
  <separator name="writing" >
   <i type="int" name="NWRITE">     2</i>
   <i type="logical" name="LWAVE"> T  </i>
   <i type="logical" name="LCHARG"> T  </i>
   <i type="logical" name="LPARD"> F  </i>
   <i type="logical" name="LVTOT"> F  </i>
   <i type="logical" name="LVHAR"> F  </i>
   <i type="logical" name="LELF"> F  </i>
   <i type="logical" name="LOPTICS"> F  </i>
   <v name="STM">      0.00000000      0.00000000      0.00000000      0.00000000      0.00000000      0.00000000      0.00000000</v>
  </separator>
  <separator name="performance" >
   <i type="int" name="NPAR">     4</i>
   <i type="int" name="NSIM">     4</i>
   <i type="int" name="NBLK">    -1</i>
   <i type="logical" name="LPLANE"> T  </i>
   <i type="logical" name="LSCALAPACK"> F  </i>
   <i type="logical" name="LSCAAWARE"> F  </i>
   <i type="logical" name="LSCALU"> F  </i>
   <i type="logical" name="LASYNC"> F  </i>
   <i type="logical" name="LORBITALREAL"> F  </i>
  </separator>
  <separator name="miscellaneous" >
   <i type="int" name="IDIOT">     3</i>
   <i type="logical" name="LMUSIC"> F  </i>
   <v name="POMASS">     55.84700000</v>
   <v name="DARWINR">      0.00000000</v>
   <v name="DARWINV">      1.00000000</v>
   <i type="logical" name="LCORR"> T  </i>
  </separator>
  <i type="logical" name="GGA_COMPAT"> T  </i>
  <i type="logical" name="LBERRY"> F  </i>
  <i type="int" name="ICORELEVEL">     0</i>
  <i type="logical" name="LDAU"> F  </i>
  <i type="int" name="I_CONSTRAINED_M">     0</i>
  <separator name="electronic exchange-correlation" >
   <i type="string" name="GGA">--</i>
   <i type="int" name="VOSKOWN">     0</i>
   <i type="logical" name="LHFCALC"> F  </i>
   <i type="string" name="PRECFOCK"></i>
   <i type="logical" name="LSYMGRAD"> F  </i>
   <i type="logical" name="LHFONE"> F  </i>
   <i type="logical" name="LRHFCALC"> F  </i>
   <i type="logical" name="LTHOMAS"> F  </i>
   <i type="logical" name="LMODELHF"> F  </i>
   <i name="ENCUT4O">     -1.00000000</i>
   <i type="int" name="EXXOEP">     0</i>
   <i type="int" name="FOURORBIT">     0</i>
   <i name="AEXX">      0.00000000</i>
   <i name="HFALPHA">      0.00000000</i>
   <i name="MCALPHA">      0.00000000</i>
   <i name="ALDAX">      1.00000000</i>
   <i name="AGGAX">      1.00000000</i>
   <i name="ALDAC">      1.00000000</i>
   <i name="AGGAC">      1.00000000</i>
   <i type="int" name="NKREDX">     1</i>
   <i type="int" name="NKREDY">     1</i>
   <i type="int" name="NKREDZ">     1</i>
   <i type="logical" name="SHIFTRED"> F  </i>
   <i type="logical" name="ODDONLY"> F  </i>
   <i type="logical" name="EVENONLY"> F  </i>
   <i type="int" name="LMAXFOCK">     0</i>
   <i type="int" name="NMAXFOCKAE">     0</i>
   <i type="logical" name="LFOCKAEDFT"> F  </i>
   <i name="HFSCREEN">      0.00000000</i>
   <i name="HFSCREENC">      0.00000000</i>
   <i type="int" name="NBANDSGWLOW">     0</i>
  </separator>
  <separator name="vdW DFT" >
   <i type="logical" name="LUSE_VDW"> F  </i>
   <i name="Zab_VDW">     -0.84910000</i>
   <i name="PARAM1">      0.12340000</i>
   <i name="PARAM2">      1.00000000</i>
   <i name="PARAM3">      0.00000000</i>
  </separator>
  <separator name="model GW" >
   <i type="int" name="MODEL_GW">     0</i>
   <i name="MODEL_EPS0">     19.20000000</i>
   <i name="MODEL_ALPHA">      1.00000000</i>
  </separator>
  <separator name="linear response parameters" >
   <i type="logical" name="LEPSILON"> F  </i>
   <i type="logical" name="LRPA"> F  </i>
   <i type="logical" name="LNABLA"> F  </i>
   <i type="logical" name="LVEL"> F  </i>
   <i type="int" name="KINTER">     0</i>
   <i name="CSHIFT">      0.10000000</i>
   <i name="OMEGAMAX">     -1.00000000</i>
   <i name="DEG_THRESHOLD">      0.00200000</i>
  </separator>
  <separator name="orbital magnetization" >
   <i type="logical" name="NUCIND"> F  </i>
   <v name="MAGPOS">      0.00000000      0.00000000      0.00000000</v>
   <i type="logical" name="LNICSALL"> T  </i>
   <i type="logical" name="ORBITALMAG"> F  </i>
   <i type="logical" name="LMAGBLOCH"> F  </i>
   <i type="logical" name="LCHIMAG"> F  </i>
   <i type="logical" name="LGAUGE"> T  </i>
   <i type="int" name="MAGATOM">     0</i>
   <v name="MAGDIPOL">      0.00000000      0.00000000      0.00000000</v>
   <v name="AVECCONST">      0.00000000      0.00000000      0.00000000</v>
  </separator>
  <separator name="response functions" >
   <i type="logical" name="LADDER"> F  </i>
   <i type="logical" name="LFXC"> F  </i>
   <i type="logical" name="LHARTREE"> T  </i>
   <i type="int" name="IBSE">     0</i>
   <v type="int" name="KPOINT">    -1     0     0     0</v>
   <i type="logical" name="LTCTE"> F  </i>
   <i type="logical" name="LTETE"> F  </i>
   <i type="logical" name="LTRIPLET"> F  </i>
   <i type="logical" name="LFXCEPS"> F  </i>
   <i type="logical" name="LFXHEG"> F  </i>
   <i type="int" name="NATURALO">     0</i>
   <i type="logical" name="L2ORDER"> F  </i>
   <i type="logical" name="LUSEW"> F  </i>
   <i name="ENCUTGW">     -2.00000000</i>
   <i name="ENCUTGWSOFT">     -2.00000000</i>
   <i name="ENCUTLF">     -1.00000000</i>
   <i type="int" name="LMAXMP2">    -1</i>
   <i name="SCISSOR">      0.00000000</i>
   <i type="int" name="NOMEGA">     0</i>
   <i type="int" name="NOMEGAR">     0</i>
   <i type="int" name="NBANDSGW">    -1</i>
   <i type="int" name="NBANDSO">    -1</i>
   <i type="int" name="NBANDSV">    -1</i>
   <i type="int" name="NELM">     1</i>
   <i type="int" name="NELMHF">     1</i>
   <i type="int" name="DIM">     3</i>
   <i type="int" name="ANTIRES">     0</i>
   <i name="OMEGAMAX">    -30.00000000</i>
   <i name="OMEGAMIN">    -30.00000000</i>
   <i name="OMEGATL">   -200.00000000</i>
   <i type="int" name="OMEGAGRID">     0</i>
   <i name="CSHIFT">     -0.10000000</i>
   <i type="logical" name="SELFENERGY"> F  </i>
   <i type="logical" name="LSPECTRAL"> F  </i>
   <i type="logical" name="LSPECTRALGW"> F  </i>
   <i type="logical" name="LSINGLES"> F  </i>
   <i type="logical" name="LFERMIGW"> F  </i>
   <i type="logical" name="ODDONLYGW"> F  </i>
   <i type="logical" name="EVENONLYGW"> F  </i>
   <i type="int" name="NKREDLFX">     1</i>
   <i type="int" name="NKREDLFY">     1</i>
   <i type="int" name="NKREDLFZ">     1</i>
   <i type="int" name="MAXMEM">  1800</i>
   <i type="int" name="TELESCOPE">     0</i>
   <i type="int" name="TAUPAR">     1</i>
   <i type="int" name="OMEGAPAR">    -1</i>
   <i name="LAMBDA">      1.00000000</i>
  </separator>
  <separator name="External order field" >
   <i name="OFIELD_KAPPA">      0.00000000</i>
   <v name="OFIELD_K">      0.00000000      0.00000000      0.00000000</v>
   <i name="OFIELD_Q6_NEAR">      0.00000000</i>
   <i name="OFIELD_Q6_FAR">      0.00000000</i>
   <i name="OFIELD_A">      0.00000000</i>
  </separator>
 </parameters>
 <atominfo>
  <atoms>       1 </atoms>
  <types>       1 </types>
  <array name="atoms" >
   <dimension dim="1">ion</dimension>
   <field type="string">element</field>
   <field type="int">atomtype</field>
   <set>
    <rc><c>Fe</c><c>   1</c></rc>
   </set>
  </array>
  <array name="atomtypes" >
   <dimension dim="1">type</dimension>
   <field type="int">atomspertype</field>
   <field type="string">element</field>
   <field>mass</field>
   <field>valence</field>
   <field type="string">pseudopotential</field>
   <set>
    <rc><c>   1</c><c>Fe</c><c>     55.84700000</c><c>      8.00000000</c><c>  PAW Fe 03Mar1998                      </c></rc>
   </set>
  </array>
 </atominfo>
 <structure name="initialpos" >
  <crystal>
   <varray name="basis" >
    <v>      -2.00000000       2.00000000       2.00000000 </v>
    <v>       2.00000000      -2.00000000       2.00000000 </v>
    <v>       2.00000000       2.00000000      -2.00000000 </v>
   </varray>
   <i name="volume">     32.00000000 </i>
   <varray name="rec_basis" >
    <v>       0.00000000       0.25000000       0.25000000 </v>
    <v>       0.25000000       0.00000000       0.25000000 </v>
    <v>       0.25000000       0.25000000       0.00000000 </v>
   </varray>
  </crystal>
  <varray name="positions" >
   <v>       0.00000000       0.00000000       0.00000000 </v>
  </varray>
 </structure>
 <calculation>
  <scstep>
   <time name="dav">    1.24    0.62</time>
   <time name="total">    1.44    0.72</time>
   <energy>
    <i name="alphaZ">     20.93013625 </i>
    <i name="ewald">   -419.23349694 </i>
    <i name="hartreedc">   -196.23822442 </i>
    <i name="XCdc">      4.74037069 </i>
    <i name="pawpsdc">    552.76102510 </i>
    <i name="pawaedc">   -562.19386350 </i>
    <i name="eentropy">      0.00000000 </i>
    <i name="bandstr">     22.08590924 </i>
    <i name="atom">    597.35192723 </i>
    <i name="e_fr_energy">     20.20378365 </i>
    <i name="e_wo_entrp">     20.20378365 </i>
    <i name="e_0_energy">     20.20378365 </i>
   </energy>
  </scstep>
  <scstep>
   <time name="dav">    1.06    0.53</time>
   <time name="total">    1.18    0.59</time>
   <energy>
    <i name="e_fr_energy">     -5.59881165 </i>
    <i name="e_wo_entrp">     -5.59881165 </i>
    <i name="e_0_energy">     -5.59881165 </i>
   </energy>
  </scstep>
  <scstep>
   <time name="dav">    1.23    0.61</time>
   <time name="total">    1.37    0.68</time>
   <energy>
    <i name="e_fr_energy">     -6.24744490 </i>
    <i name="e_wo_entrp">     -6.24744490 </i>
    <i name="e_0_energy">     -6.24744490 </i>
   </energy>
  </scstep>
  <scstep>
   <time name="dav">    1.47    0.74</time>
   <time name="total">    1.58    0.79</time>
   <energy>
    <i name="e_fr_energy">     -6.25177066 </i>
    <i name="e_wo_entrp">     -6.25177066 </i>
    <i name="e_0_energy">     -6.25177066 </i>
   </energy>
  </scstep>
  <scstep>
   <time name="dav">    1.22    0.61</time>
   <time name="total">    1.42    0.71</time>
   <energy>
    <i name="e_fr_energy">     -6.25183336 </i>
    <i name="e_wo_entrp">     -6.25183336 </i>
    <i name="e_0_energy">     -6.25183336 </i>
   </energy>
  </scstep>
  <scstep>
   <time name="dav">    1.19    0.60</time>
   <time name="total">    1.50    0.75</time>
   <energy>
    <i name="e_fr_energy">     -6.49131448 </i>
    <i name="e_wo_entrp">     -6.49131448 </i>
    <i name="e_0_energy">     -6.49131448 </i>
   </energy>
  </scstep>
  <scstep>
   <time name="dav">    1.35    0.68</time>
   <time name="total">    1.62    0.81</time>
   <energy>
    <i name="e_fr_energy">     -5.47645626 </i>
    <i name="e_wo_entrp">     -5.47645626 </i>
    <i name="e_0_energy">     -5.47645626 </i>
   </energy>
  </scstep>
  <scstep>
   <time name="dav">    1.23    0.62</time>
   <time name="total">    1.49    0.74</time>
   <energy>
    <i name="e_fr_energy">     -5.47235845 </i>
    <i name="e_wo_entrp">     -5.47235845 </i>
    <i name="e_0_energy">     -5.47235845 </i>
   </energy>
  </scstep>
  <scstep>
   <time name="dav">    1.55    0.78</time>
   <time name="total">    1.80    0.90</time>
   <energy>
    <i name="e_fr_energy">     -5.46897044 </i>
    <i name="e_wo_entrp">     -5.46897044 </i>
    <i name="e_0_energy">     -5.46897044 </i>
   </energy>
  </scstep>
  <scstep>
   <time name="dav">    1.37    0.68</time>
   <time name="total">    1.62    0.81</time>
   <energy>
    <i name="e_fr_energy">     -5.46749293 </i>
    <i name="e_wo_entrp">     -5.46749293 </i>
    <i name="e_0_energy">     -5.46749293 </i>
   </energy>
  </scstep>
  <scstep>
   <time name="dav">    1.20    0.60</time>
   <time name="total">    1.46    0.73</time>
   <energy>
    <i name="e_fr_energy">     -5.46752596 </i>
    <i name="e_wo_entrp">     -5.46752596 </i>
    <i name="e_0_energy">     -5.46752596 </i>
   </energy>
  </scstep>
  <scstep>
   <time name="dav">    1.76    0.89</time>
   <time name="total">    2.02    1.01</time>
   <energy>
    <i name="e_fr_energy">     -5.46752179 </i>
    <i name="e_wo_entrp">     -5.46752179 </i>
    <i name="e_0_energy">     -5.46752179 </i>
   </energy>
  </scstep>
  <scstep>
   <time name="dav">    1.20    0.60</time>
   <time name="total">    1.45    0.73</time>
   <energy>
    <i name="e_fr_energy">     -5.46752792 </i>
    <i name="e_wo_entrp">     -5.46752792 </i>
    <i name="e_0_energy">     -5.46752792 </i>
   </energy>
  </scstep>
  <scstep>
   <time name="dav">    0.87    0.43</time>
   <time name="total">    1.03    0.52</time>
   <energy>
    <i name="alphaZ">     20.93013625 </i>
    <i name="ewald">   -419.23349694 </i>
    <i name="hartreedc">   -182.02320991 </i>
    <i name="XCdc">      4.21425782 </i>
    <i name="pawpsdc">    551.96513515 </i>
    <i name="pawaedc">   -561.88919723 </i>
    <i name="eentropy">      0.00000000 </i>
    <i name="bandstr">    -16.78308073 </i>
    <i name="atom">    597.35192723 </i>
    <i name="e_fr_energy">     -5.46752835 </i>
    <i name="e_wo_entrp">     -5.46752835 </i>
    <i name="e_0_energy">     -5.46752835 </i>
   </energy>
  </scstep>
  <structure>
   <crystal>
    <varray name="basis" >
     <v>      -2.00000000       2.00000000       2.00000000 </v>
     <v>       2.00000000      -2.00000000       2.00000000 </v>
     <v>       2.00000000       2.00000000      -2.00000000 </v>
    </varray>
    <i name="volume">     32.00000000 </i>
    <varray name="rec_basis" >
     <v>       0.00000000       0.25000000       0.25000000 </v>
     <v>       0.25000000       0.00000000       0.25000000 </v>
     <v>       0.25000000       0.25000000       0.00000000 </v>
    </varray>
   </crystal>
   <varray name="positions" >
    <v>       0.00000000       0.00000000       0.00000000 </v>
   </varray>
  </structure>
  <varray name="forces" >
   <v>      -0.00000000      -0.00000000       0.00000000 </v>
  </varray>
  <varray name="stress" >
   <v>    -189.13164037       0.00000000      -0.00000000 </v>
   <v>      -0.00000000    -189.13164037       0.00000000 </v>
   <v>       0.00000000       0.00000000    -189.13164037 </v>
  </varray>
  <energy>
   <i name="e_fr_energy">     -5.46752835 </i>
   <i name="e_wo_entrp">     -5.46752835 </i>
   <i name="e_0_energy">      0.00000000 </i>
  </energy>
  <time name="totalsc">   21.78   11.09</time>
  <eigenvalues>
   <array>
    <dimension dim="1">band</dimension>
    <dimension dim="2">kpoint</dimension>
    <dimension dim="3">spin</dimension>
    <field>eigene</field>
    <field>occ</field>
    <set>
     <set comment="spin 1">
      <set comment="kpoint 1">
       <r>   -4.4171    1.0000 </r>
       <r>   -2.7605    1.0000 </r>
       <r>   -2.7605    1.0000 </r>
       <r>   -2.6087    1.0000 </r>
       <r>   -2.5500    1.0000 </r>
       <r>   -2.5500    1.0000 </r>
       <r>    9.5787    0.0000 </r>
       <r>   10.5011    0.0000 </r>
       <r>   10.5011    0.0000 </r>
       <r>   14.0670    0.0000 </r>
       <r>   14.0670    0.0000 </r>
       <r>   15.4021    0.0000 </r>
      </set>
      <set comment="kpoint 2">
       <r>   -3.6252    1.0000 </r>
       <r>   -2.8268    1.0000 </r>
       <r>   -2.7535    1.0000 </r>
       <r>   -2.5568    1.0000 </r>
       <r>   -2.5347    1.0000 </r>
       <r>   -2.3631    1.0002 </r>
       <r>    6.4383    0.0000 </r>
       <r>    8.5152    0.0000 </r>
       <r>    9.2042    0.0000 </r>
       <r>   13.8063    0.0000 </r>
       <r>   13.9825    0.0000 </r>
       <r>   15.6057    0.0000 </r>
      </set>
      <set comment="kpoint 3">
       <r>   -3.1615    1.0000 </r>
       <r>   -2.8860    1.0000 </r>
       <r>   -2.5400    1.0000 </r>
       <r>   -2.5247    1.0000 </r>
       <r>   -2.4413    1.0000 </r>
       <r>   -1.4911    1.0657 </r>
       <r>    3.2387    0.0000 </r>
       <r>    7.4584    0.0000 </r>
       <r>    8.3684    0.0000 </r>
       <r>   13.2824    0.0000 </r>
       <r>   13.3587    0.0000 </r>
       <r>   17.0258    0.0000 </r>
      </set>
      <set comment="kpoint 4">
       <r>   -3.1512    1.0000 </r>
       <r>   -2.9094    1.0000 </r>
       <r>   -2.5225    1.0000 </r>
       <r>   -2.5213    1.0000 </r>
       <r>   -2.3140    1.0000 </r>
       <r>    0.4576    0.1509 </r>
       <r>    0.6218    0.0000 </r>
       <r>    7.0941    0.0000 </r>
       <r>    8.0824    0.0000 </r>
       <r>   13.0937    0.0000 </r>
       <r>   13.1273    0.0000 </r>
       <r>   18.3967    0.0000 </r>
      </set>
      <set comment="kpoint 5">
       <r>   -4.7128    1.0000 </r>
       <r>   -2.7283    1.0000 </r>
       <r>   -2.7283    1.0000 </r>
       <r>   -2.7144    1.0000 </r>
       <r>   -2.5600    1.0000 </r>
       <r>   -2.5317    1.0000 </r>
       <r>   11.5360    0.0000 </r>
       <r>   11.5947    0.0000 </r>
       <r>   11.5947    0.0000 </r>
       <r>   13.4502    0.0000 </r>
       <r>   14.4816    0.0000 </r>
       <r>   14.4816    0.0000 </r>
      </set>
      <set comment="kpoint 6">
       <r>   -3.0440    1.0000 </r>
       <r>   -2.8468    1.0000 </r>
       <r>   -2.7648    1.0000 </r>
       <r>   -2.5429    1.0000 </r>
       <r>   -2.5129    1.0000 </r>
       <r>   -1.6518    1.0626 </r>
       <r>    4.8283    0.0000 </r>
       <r>    5.8264    0.0000 </r>
       <r>    7.8029    0.0000 </r>
       <r>   14.9903    0.0000 </r>
       <r>   15.1230    0.0000 </r>
       <r>   16.9019    0.0000 </r>
      </set>
      <set comment="kpoint 7">
       <r>   -3.0043    1.0000 </r>
       <r>   -2.8753    1.0000 </r>
       <r>   -2.6068    1.0000 </r>
       <r>   -2.5172    1.0000 </r>
       <r>   -2.4629    1.0000 </r>
       <r>   -0.0301    0.3117 </r>
       <r>    2.3045    0.0000 </r>
       <r>    4.7957    0.0000 </r>
       <r>    7.2074    0.0000 </r>
       <r>   14.6698    0.0000 </r>
       <r>   16.4778    0.0000 </r>
       <r>   17.1880    0.0000 </r>
      </set>
      <set comment="kpoint 8">
       <r>   -4.1311    1.0000 </r>
       <r>   -2.7707    1.0000 </r>
       <r>   -2.7177    1.0000 </r>
       <r>   -2.5933    1.0000 </r>
       <r>   -2.5907    1.0000 </r>
       <r>   -2.5160    1.0000 </r>
       <r>    8.2108    0.0000 </r>
       <r>    9.9914    0.0000 </r>
       <r>   10.7079    0.0000 </r>
       <r>   12.7211    0.0000 </r>
       <r>   13.4663    0.0000 </r>
       <r>   14.2364    0.0000 </r>
      </set>
      <set comment="kpoint 9">
       <r>   -2.9576    1.0000 </r>
       <r>   -2.7522    1.0000 </r>
       <r>   -2.7522    1.0000 </r>
       <r>   -2.4855    1.0000 </r>
       <r>   -2.4855    1.0000 </r>
       <r>    1.4485   -0.0377 </r>
       <r>    2.3878    0.0000 </r>
       <r>    2.3878    0.0000 </r>
       <r>    6.9103    0.0000 </r>
       <r>   16.4199    0.0000 </r>
       <r>   16.6139    0.0000 </r>
       <r>   16.6139    0.0000 </r>
      </set>
      <set comment="kpoint 10">
       <r>   -3.3256    1.0000 </r>
       <r>   -2.8369    1.0000 </r>
       <r>   -2.6337    1.0000 </r>
       <r>   -2.5335    1.0000 </r>
       <r>   -2.3969    1.0000 </r>
       <r>   -2.2863    1.0102 </r>
       <r>    4.7468    0.0000 </r>
       <r>    8.6522    0.0000 </r>
       <r>    9.6928    0.0000 </r>
       <r>   12.4736    0.0000 </r>
       <r>   12.5385    0.0000 </r>
       <r>   14.7765    0.0000 </r>
      </set>
      <set comment="kpoint 11">
       <r>   -3.4080    1.0000 </r>
       <r>   -2.7870    1.0000 </r>
       <r>   -2.7397    1.0000 </r>
       <r>   -2.6029    1.0000 </r>
       <r>   -2.4873    1.0000 </r>
       <r>   -2.3162    1.0020 </r>
       <r>    6.4210    0.0000 </r>
       <r>    7.1947    0.0000 </r>
       <r>   10.2526    0.0000 </r>
       <r>   12.1736    0.0000 </r>
       <r>   13.0172    0.0000 </r>
       <r>   15.9227    0.0000 </r>
      </set>
      <set comment="kpoint 12">
       <r>   -3.1814    1.0000 </r>
       <r>   -2.8833    1.0000 </r>
       <r>   -2.5724    1.0000 </r>
       <r>   -2.5309    1.0000 </r>
       <r>   -2.2492    1.0000 </r>
       <r>   -0.6868    0.9098 </r>
       <r>    1.7508    0.0000 </r>
       <r>    7.9116    0.0000 </r>
       <r>    9.1319    0.0000 </r>
       <r>   12.0789    0.0000 </r>
       <r>   12.2263    0.0000 </r>
       <r>   16.2635    0.0000 </r>
      </set>
      <set comment="kpoint 13">
       <r>   -3.0663    1.0000 </r>
       <r>   -2.8378    1.0000 </r>
       <r>   -2.6842    1.0000 </r>
       <r>   -2.5449    1.0000 </r>
       <r>   -2.3748    1.0000 </r>
       <r>   -1.2267    1.0132 </r>
       <r>    3.5059    0.0000 </r>
       <r>    5.9532    0.0000 </r>
       <r>    9.6260    0.0000 </r>
       <r>   12.0815    0.0000 </r>
       <r>   13.5278    0.0000 </r>
       <r>   15.8657    0.0000 </r>
      </set>
      <set comment="kpoint 14">
       <r>   -3.0715    1.0000 </r>
       <r>   -2.8463    1.0000 </r>
       <r>   -2.6661    1.0000 </r>
       <r>   -2.5343    1.0000 </r>
       <r>   -2.2923    1.0000 </r>
       <r>    0.8082   -0.0248 </r>
       <r>    0.8569    0.0000 </r>
       <r>    5.6016    0.0000 </r>
       <r>    9.3528    0.0000 </r>
       <r>   11.9397    0.0000 </r>
       <r>   14.8298    0.0000 </r>
       <r>   15.5335    0.0000 </r>
      </set>
      <set comment="kpoint 15">
       <r>   -2.9393    1.0000 </r>
       <r>   -2.8620    1.0000 </r>
       <r>   -2.7562    1.0000 </r>
       <r>   -2.4766    1.0000 </r>
       <r>   -2.3812    1.0000 </r>
       <r>    0.5162    0.0532 </r>
       <r>    2.6330    0.0000 </r>
       <r>    3.3249    0.0000 </r>
       <r>    9.5670    0.0000 </r>
       <r>   13.0583    0.0000 </r>
       <r>   13.2291    0.0000 </r>
       <r>   15.1662    0.0000 </r>
      </set>
      <set comment="kpoint 16">
       <r>   -2.8682    1.0000 </r>
       <r>   -2.8682    1.0000 </r>
       <r>   -2.7288    1.0000 </r>
       <r>   -2.5202    1.0000 </r>
       <r>   -2.5202    1.0000 </r>
       <r>   -0.2984    0.4749 </r>
       <r>    3.6283    0.0000 </r>
       <r>    4.9610    0.0000 </r>
       <r>    4.9610    0.0000 </r>
       <r>   18.0738    0.0000 </r>
       <r>   18.0738    0.0000 </r>
       <r>   18.9039    0.0000 </r>
      </set>
      <set comment="kpoint 17">
       <r>   -2.8700    1.0000 </r>
       <r>   -2.8646    1.0000 </r>
       <r>   -2.6739    1.0000 </r>
       <r>   -2.5177    1.0000 </r>
       <r>   -2.5133    1.0000 </r>
       <r>    1.3417   -0.0344 </r>
       <r>    2.0581    0.0000 </r>
       <r>    3.9793    0.0000 </r>
       <r>    4.6671    0.0000 </r>
       <r>   18.4514    0.0000 </r>
       <r>   18.5235    0.0000 </r>
       <r>   19.8801    0.0000 </r>
      </set>
      <set comment="kpoint 18">
       <r>   -3.5965    1.0000 </r>
       <r>   -2.7124    1.0000 </r>
       <r>   -2.6774    1.0000 </r>
       <r>   -2.6774    1.0000 </r>
       <r>   -2.5883    1.0000 </r>
       <r>   -2.4213    1.0000 </r>
       <r>    8.4204    0.0000 </r>
       <r>    8.4204    0.0000 </r>
       <r>    8.5725    0.0000 </r>
       <r>   10.4178    0.0000 </r>
       <r>   15.5950    0.0000 </r>
       <r>   15.5950    0.0000 </r>
      </set>
      <set comment="kpoint 19">
       <r>   -3.0528    1.0000 </r>
       <r>   -2.8144    1.0000 </r>
       <r>   -2.6987    1.0000 </r>
       <r>   -2.5832    1.0000 </r>
       <r>   -2.4167    1.0000 </r>
       <r>   -1.8166    1.0322 </r>
       <r>    5.2638    0.0000 </r>
       <r>    7.1258    0.0000 </r>
       <r>    8.2687    0.0000 </r>
       <r>   10.5141    0.0000 </r>
       <r>   15.0037    0.0000 </r>
       <r>   15.4780    0.0000 </r>
      </set>
      <set comment="kpoint 20">
       <r>   -3.0385    1.0000 </r>
       <r>   -2.7929    1.0000 </r>
       <r>   -2.7326    1.0000 </r>
       <r>   -2.5592    1.0000 </r>
       <r>   -2.2635    1.0000 </r>
       <r>   -0.1006    0.4000 </r>
       <r>    2.3160    0.0000 </r>
       <r>    6.4129    0.0000 </r>
       <r>    7.8744    0.0000 </r>
       <r>   11.9653    0.0000 </r>
       <r>   14.2459    0.0000 </r>
       <r>   14.4995    0.0000 </r>
      </set>
      <set comment="kpoint 21">
       <r>   -2.9380    1.0000 </r>
       <r>   -2.9271    1.0000 </r>
       <r>   -2.6795    1.0000 </r>
       <r>   -2.5000    1.0000 </r>
       <r>   -2.3382    1.0000 </r>
       <r>   -0.4195    0.5697 </r>
       <r>    4.0614    0.0000 </r>
       <r>    4.7213    0.0000 </r>
       <r>    8.7309    0.0000 </r>
       <r>   10.1252    0.0000 </r>
       <r>   13.9616    0.0000 </r>
       <r>   14.8356    0.0000 </r>
      </set>
      <set comment="kpoint 22">
       <r>   -2.9834    1.0000 </r>
       <r>   -2.8994    1.0000 </r>
       <r>   -2.7129    1.0000 </r>
       <r>   -2.4462    1.0000 </r>
       <r>   -2.2913    1.0000 </r>
       <r>    1.4443   -0.0613 </r>
       <r>    1.9022    0.0000 </r>
       <r>    4.1308    0.0000 </r>
       <r>    8.8578    0.0000 </r>
       <r>   11.2525    0.0000 </r>
       <r>   12.0021    0.0000 </r>
       <r>   14.4541    0.0000 </r>
      </set>
      <set comment="kpoint 23">
       <r>   -2.9705    1.0000 </r>
       <r>   -2.9456    1.0000 </r>
       <r>   -2.5153    1.0000 </r>
       <r>   -2.5153    1.0000 </r>
       <r>   -2.4131    1.0000 </r>
       <r>   -0.7583    0.7851 </r>
       <r>    5.8207    0.0000 </r>
       <r>    5.8207    0.0000 </r>
       <r>    6.5249    0.0000 </r>
       <r>    8.5198    0.0000 </r>
       <r>   13.9304    0.0000 </r>
       <r>   18.1674    0.0000 </r>
      </set>
      <set comment="kpoint 24">
       <r>   -3.0388    1.0000 </r>
       <r>   -3.0044    1.0000 </r>
       <r>   -2.4952    1.0000 </r>
       <r>   -2.4407    1.0000 </r>
       <r>   -2.2834    1.0000 </r>
       <r>    0.9898   -0.0268 </r>
       <r>    3.3985    0.0000 </r>
       <r>    5.0913    0.0000 </r>
       <r>    6.7422    0.0000 </r>
       <r>    9.0006    0.0000 </r>
       <r>   11.1864    0.0000 </r>
       <r>   17.7153    0.0000 </r>
      </set>
      <set comment="kpoint 25">
       <r>   -3.0650    1.0000 </r>
       <r>   -3.0650    1.0000 </r>
       <r>   -2.4730    1.0000 </r>
       <r>   -2.3044    1.0000 </r>
       <r>   -2.3044    1.0000 </r>
       <r>    2.5179   -0.0111 </r>
       <r>    3.3301    0.0000 </r>
       <r>    3.3301    0.0000 </r>
       <r>    7.2663    0.0000 </r>
       <r>    9.1240    0.0000 </r>
       <r>    9.1240    0.0000 </r>
       <r>   17.7685    0.0000 </r>
      </set>
      <set comment="kpoint 26">
       <r>   -3.1222    1.0000 </r>
       <r>   -3.1164    1.0000 </r>
       <r>   -2.3113    1.0000 </r>
       <r>   -2.3113    1.0000 </r>
       <r>   -2.2912    1.0000 </r>
       <r>    2.6167   -0.0103 </r>
       <r>    4.3406    0.0000 </r>
       <r>    4.3406    0.0000 </r>
       <r>    5.4032    0.0000 </r>
       <r>    7.6358    0.0000 </r>
       <r>    8.6387    0.0000 </r>
       <r>   21.0375    0.0000 </r>
      </set>
     </set>
     <set comment="spin 2">
      <set comment="kpoint 1">
       <r>   -4.0508    1.0000 </r>
       <r>   -0.1709    0.2069 </r>
       <r>   -0.1709    0.0788 </r>
       <r>    0.0372    0.0000 </r>
       <r>    0.3501    0.0000 </r>
       <r>    0.3501    0.0000 </r>
       <r>   10.3326    0.0000 </r>
       <r>   11.0599    0.0000 </r>
       <r>   11.0599    0.0000 </r>
       <r>   14.5751    0.0000 </r>
       <r>   14.5751    0.0000 </r>
       <r>   15.3882    0.0000 </r>
      </set>
      <set comment="kpoint 2">
       <r>   -3.1756    1.0000 </r>
       <r>   -0.2819    1.0629 </r>
       <r>   -0.2339    0.8996 </r>
       <r>    0.2927    0.0000 </r>
       <r>    0.3130    0.0000 </r>
       <r>    0.3785    0.0000 </r>
       <r>    7.1012    0.0000 </r>
       <r>    9.1429    0.0000 </r>
       <r>    9.7162    0.0000 </r>
       <r>   14.3688    0.0000 </r>
       <r>   14.4607    0.0000 </r>
       <r>   15.9062    0.0000 </r>
      </set>
      <set comment="kpoint 3">
       <r>   -1.9143    1.0000 </r>
       <r>   -0.3832    1.0003 </r>
       <r>   -0.2250    0.7593 </r>
       <r>    0.3225    0.0000 </r>
       <r>    0.4024    0.0000 </r>
       <r>    0.6179    0.0000 </r>
       <r>    3.9857    0.0000 </r>
       <r>    8.0646    0.0000 </r>
       <r>    8.8607    0.0000 </r>
       <r>   13.8208    0.0000 </r>
       <r>   13.8874    0.0000 </r>
       <r>   17.4537    0.0000 </r>
      </set>
      <set comment="kpoint 4">
       <r>   -1.2279    1.0000 </r>
       <r>   -0.4233    1.0000 </r>
       <r>    0.0716   -0.1736 </r>
       <r>    0.3291    0.0000 </r>
       <r>    0.4120    0.0000 </r>
       <r>    1.1165    0.0000 </r>
       <r>    2.0077    0.0000 </r>
       <r>    7.6779    0.0000 </r>
       <r>    8.5669    0.0000 </r>
       <r>   13.5970    0.0000 </r>
       <r>   13.7180    0.0000 </r>
       <r>   18.9059    0.0000 </r>
      </set>
      <set comment="kpoint 5">
       <r>   -4.3523    1.0000 </r>
       <r>   -0.1198   -0.0294 </r>
       <r>   -0.1198   -0.0078 </r>
       <r>   -0.0946    0.0000 </r>
       <r>    0.3354    0.0000 </r>
       <r>    0.3833    0.0000 </r>
       <r>   12.2917    0.0000 </r>
       <r>   12.3556    0.0000 </r>
       <r>   12.3556    0.0000 </r>
       <r>   13.5932    0.0000 </r>
       <r>   14.7087    0.0000 </r>
       <r>   14.7087    0.0000 </r>
      </set>
      <set comment="kpoint 6">
       <r>   -2.1087    1.0000 </r>
       <r>   -0.3659    1.0011 </r>
       <r>   -0.3544    1.0360 </r>
       <r>    0.3272    0.0000 </r>
       <r>    0.3981    0.0000 </r>
       <r>    0.6540    0.0000 </r>
       <r>    5.4792    0.0000 </r>
       <r>    6.4526    0.0000 </r>
       <r>    8.3602    0.0000 </r>
       <r>   15.4976    0.0000 </r>
       <r>   15.6491    0.0000 </r>
       <r>   17.2965    0.0000 </r>
      </set>
      <set comment="kpoint 7">
       <r>   -1.0530    1.0000 </r>
       <r>   -0.4348    1.0000 </r>
       <r>   -0.3099    0.9720 </r>
       <r>    0.3509    0.0000 </r>
       <r>    0.4119    0.0000 </r>
       <r>    1.3242    0.0000 </r>
       <r>    3.0743    0.0000 </r>
       <r>    5.4320    0.0000 </r>
       <r>    7.7680    0.0000 </r>
       <r>   15.1682    0.0000 </r>
       <r>   17.0704    0.0000 </r>
       <r>   17.5379    0.0000 </r>
      </set>
      <set comment="kpoint 8">
       <r>   -3.7528    1.0000 </r>
       <r>   -0.1897    0.4484 </r>
       <r>   -0.1364   -0.0664 </r>
       <r>    0.0708    0.0000 </r>
       <r>    0.2618    0.0000 </r>
       <r>    0.4010    0.0000 </r>
       <r>    8.8654    0.0000 </r>
       <r>   10.6904    0.0000 </r>
       <r>   11.2675    0.0000 </r>
       <r>   13.1576    0.0000 </r>
       <r>   13.8944    0.0000 </r>
       <r>   14.5546    0.0000 </r>
      </set>
      <set comment="kpoint 9">
       <r>   -0.6590    1.0000 </r>
       <r>   -0.4143    1.0000 </r>
       <r>   -0.4143    1.0064 </r>
       <r>    0.3911    0.0000 </r>
       <r>    0.3911    0.0000 </r>
       <r>    2.3949    0.0000 </r>
       <r>    3.1475    0.0000 </r>
       <r>    3.1475    0.0000 </r>
       <r>    7.4857    0.0000 </r>
       <r>   16.9087    0.0000 </r>
       <r>   16.9087    0.0000 </r>
       <r>   17.2422    0.0000 </r>
      </set>
      <set comment="kpoint 10">
       <r>   -2.6306    1.0000 </r>
       <r>   -0.2974    1.0320 </r>
       <r>   -0.1897    0.4359 </r>
       <r>    0.2626    0.0000 </r>
       <r>    0.3407    0.0000 </r>
       <r>    0.4161    0.0000 </r>
       <r>    5.4419    0.0000 </r>
       <r>    9.2908    0.0000 </r>
       <r>   10.1658    0.0000 </r>
       <r>   13.0154    0.0000 </r>
       <r>   13.0525    0.0000 </r>
       <r>   15.1706    0.0000 </r>
      </set>
      <set comment="kpoint 11">
       <r>   -2.8911    1.0000 </r>
       <r>   -0.2160    0.9235 </r>
       <r>   -0.2119    0.6002 </r>
       <r>    0.1969    0.0000 </r>
       <r>    0.2796    0.0000 </r>
       <r>    0.4326    0.0000 </r>
       <r>    7.0884    0.0000 </r>
       <r>    7.8020    0.0000 </r>
       <r>   10.8683    0.0000 </r>
       <r>   12.5543    0.0000 </r>
       <r>   13.5470    0.0000 </r>
       <r>   16.3130    0.0000 </r>
      </set>
      <set comment="kpoint 12">
       <r>   -1.4592    1.0000 </r>
       <r>   -0.3724    1.0000 </r>
       <r>    0.0010   -0.1777 </r>
       <r>    0.2984    0.0000 </r>
       <r>    0.5556    0.0000 </r>
       <r>    0.5705    0.0000 </r>
       <r>    2.6789    0.0000 </r>
       <r>    8.4922    0.0000 </r>
       <r>    9.5689    0.0000 </r>
       <r>   12.6377    0.0000 </r>
       <r>   12.8211    0.0000 </r>
       <r>   16.6773    0.0000 </r>
      </set>
      <set comment="kpoint 13">
       <r>   -1.6694    1.0000 </r>
       <r>   -0.3261    1.0038 </r>
       <r>   -0.2419    0.8155 </r>
       <r>    0.2427    0.0000 </r>
       <r>    0.4158    0.0000 </r>
       <r>    0.6962    0.0000 </r>
       <r>    4.2270    0.0000 </r>
       <r>    6.5732    0.0000 </r>
       <r>   10.1657    0.0000 </r>
       <r>   12.5840    0.0000 </r>
       <r>   14.0527    0.0000 </r>
       <r>   16.3168    0.0000 </r>
      </set>
      <set comment="kpoint 14">
       <r>   -1.0272    1.0000 </r>
       <r>   -0.3423    1.0000 </r>
       <r>   -0.1854    0.4249 </r>
       <r>    0.2616    0.0000 </r>
       <r>    0.4885    0.0000 </r>
       <r>    1.5566    0.0000 </r>
       <r>    2.0863    0.0000 </r>
       <r>    6.2085    0.0000 </r>
       <r>    9.8665    0.0000 </r>
       <r>   12.4950    0.0000 </r>
       <r>   15.4900    0.0000 </r>
       <r>   15.8395    0.0000 </r>
      </set>
      <set comment="kpoint 15">
       <r>   -0.7958    1.0000 </r>
       <r>   -0.4185    1.0000 </r>
       <r>   -0.3068    1.0663 </r>
       <r>    0.3061    0.0000 </r>
       <r>    0.4043    0.0000 </r>
       <r>    1.6617    0.0000 </r>
       <r>    3.3602    0.0000 </r>
       <r>    4.0404    0.0000 </r>
       <r>   10.1306    0.0000 </r>
       <r>   13.4289    0.0000 </r>
       <r>   13.8406    0.0000 </r>
       <r>   15.6414    0.0000 </r>
      </set>
      <set comment="kpoint 16">
       <r>   -1.0691    1.0000 </r>
       <r>   -0.4561    1.0000 </r>
[...]
       </set>
       <set comment="band 5">
        <r>  0.0036  0.0001  0.0001  0.0015  0.0727  0.3208  0.1177  0.0727  0.3532 </r>
       </set>
       <set comment="band 6">
        <r>  0.1431  0.0058  0.0058  0.0462  0.1386  0.0512  0.0311  0.1386  0.0933 </r>
       </set>
       <set comment="band 7">
        <r>  0.2289  0.0300  0.0300  0.0519  0.0120  0.0757  0.0066  0.0120  0.0197 </r>
       </set>
       <set comment="band 8">
        <r>  0.0000  0.0938  0.0938  0.0000  0.0706  0.0000  0.0613  0.0706  0.0204 </r>
       </set>
       <set comment="band 9">
        <r>  0.0002  0.1212  0.1212  0.0962  0.0099  0.0184  0.0000  0.0099  0.0001 </r>
       </set>
       <set comment="band 10">
        <r>  0.0000  0.0355  0.0355  0.0000  0.0041  0.0000  0.1015  0.0041  0.0338 </r>
       </set>
       <set comment="band 11">
        <r>  0.1097  0.0287  0.0287  0.0026  0.0394  0.0560  0.0118  0.0394  0.0355 </r>
       </set>
       <set comment="band 12">
        <r>  0.0460  0.0029  0.0029  0.1235  0.0200  0.0089  0.0215  0.0200  0.0644 </r>
       </set>
      </set>
      <set comment="kpoint 16">
       <set comment="band 1">
        <r>  0.1248  0.0190  0.0190  0.0190  0.0975  0.0975  0.0000  0.0975  0.0000 </r>
       </set>
       <set comment="band 2">
        <r>  0.0000  0.0067  0.0006  0.0053  0.0347  0.3229  0.0025  0.4117  0.0344 </r>
       </set>
       <set comment="band 3">
        <r>  0.0000  0.0016  0.0078  0.0031  0.4782  0.1899  0.0344  0.1012  0.0025 </r>
       </set>
       <set comment="band 4">
        <r>  0.0000  0.0000  0.0000  0.0000  0.0276  0.0106  0.8142  0.0077  0.0889 </r>
       </set>
       <set comment="band 5">
        <r>  0.0000  0.0000  0.0000  0.0000  0.0030  0.0200  0.0889  0.0229  0.8142 </r>
       </set>
       <set comment="band 6">
        <r>  0.0958  0.0085  0.0085  0.0085  0.2244  0.2244  0.0000  0.2244  0.0000 </r>
       </set>
       <set comment="band 7">
        <r>  0.2854  0.0482  0.0482  0.0482  0.0017  0.0017  0.0000  0.0017  0.0000 </r>
       </set>
       <set comment="band 8">
        <r>  0.0000  0.0976  0.0087  0.0782  0.0080  0.0717  0.0008  0.0894  0.0110 </r>
       </set>
       <set comment="band 9">
        <r>  0.0000  0.0254  0.1143  0.0448  0.1047  0.0410  0.0110  0.0233  0.0008 </r>
       </set>
       <set comment="band 10">
        <r>  0.0000  0.1491  0.1341  0.0346  0.0242  0.0062  0.0698  0.0269  0.0405 </r>
       </set>
       <set comment="band 11">
        <r>  0.0000  0.0627  0.0777  0.1772  0.0140  0.0320  0.0405  0.0113  0.0698 </r>
       </set>
       <set comment="band 12">
        <r>  0.0000  0.0000  0.0000  0.0000  0.0000  0.0000  0.0000  0.0000  0.0000 </r>
       </set>
      </set>
      <set comment="kpoint 17">
       <set comment="band 1">
        <r>  0.0289  0.0000  0.0000  0.0228  0.0000  0.6405  0.0096  0.0000  0.0287 </r>
       </set>
       <set comment="band 2">
        <r>  0.0000  0.0071  0.0071  0.0000  0.3984  0.0000  0.0000  0.3984  0.0000 </r>
       </set>
       <set comment="band 3">
        <r>  0.0000  0.0220  0.0220  0.0000  0.3384  0.0000  0.0000  0.3384  0.0000 </r>
       </set>
       <set comment="band 4">
        <r>  0.0003  0.0000  0.0000  0.0000  0.0000  0.0523  0.2243  0.0000  0.6728 </r>
       </set>
       <set comment="band 5">
        <r>  0.0000  0.0000  0.0000  0.0000  0.0000  0.0000  0.7134  0.0000  0.2378 </r>
       </set>
       <set comment="band 6">
        <r>  0.4138  0.0000  0.0000  0.0056  0.0000  0.1552  0.0014  0.0000  0.0041 </r>
       </set>
       <set comment="band 7">
        <r>  0.0000  0.0798  0.0798  0.0000  0.1500  0.0000  0.0000  0.1500  0.0000 </r>
       </set>
       <set comment="band 8">
        <r>  0.0747  0.0000  0.0000  0.1802  0.0000  0.1329  0.0026  0.0000  0.0077 </r>
       </set>
       <set comment="band 9">
        <r>  0.0000  0.0908  0.0908  0.0000  0.0941  0.0000  0.0000  0.0941  0.0000 </r>
       </set>
       <set comment="band 10">
        <r>  0.0000  0.0200  0.0200  0.0000  0.0723  0.0000  0.0000  0.0723  0.0000 </r>
       </set>
       <set comment="band 11">
        <r>  0.0276  0.0000  0.0000  0.2010  0.0000  0.0118  0.0338  0.0000  0.1015 </r>
       </set>
       <set comment="band 12">
        <r>  0.0000  0.1120  0.2200  0.0000  0.0312  0.0000  0.0000  0.0434  0.0000 </r>
       </set>
      </set>
      <set comment="kpoint 18">
       <set comment="band 1">
        <r>  0.2512  0.0000  0.0000  0.0332  0.0000  0.0000  0.0026  0.0000  0.0078 </r>
       </set>
       <set comment="band 2">
        <r>  0.0000  0.0018  0.0018  0.0000  0.4473  0.0000  0.0000  0.4473  0.0000 </r>
       </set>
       <set comment="band 3">
        <r>  0.0000  0.0018  0.0018  0.0000  0.4473  0.0000  0.0000  0.4473  0.0000 </r>
       </set>
       <set comment="band 4">
        <r>  0.0000  0.0000  0.0000  0.0000  0.0000  0.0000  0.6737  0.0000  0.2246 </r>
       </set>
       <set comment="band 5">
        <r>  0.0000  0.0000  0.0000  0.0000  0.0000  0.9270  0.0000  0.0000  0.0000 </r>
       </set>
       <set comment="band 6">
        <r>  0.0066  0.0000  0.0000  0.0004  0.0000  0.0000  0.2345  0.0000  0.7034 </r>
       </set>
       <set comment="band 7">
        <r>  0.0000  0.1537  0.1537  0.0000  0.0515  0.0000  0.0000  0.0515  0.0000 </r>
       </set>
       <set comment="band 8">
        <r>  0.0000  0.1537  0.1537  0.0000  0.0515  0.0000  0.0000  0.0515  0.0000 </r>
       </set>
       <set comment="band 9">
        <r>  0.2099  0.0000  0.0000  0.2472  0.0000  0.0000  0.0004  0.0000  0.0011 </r>
       </set>
       <set comment="band 10">
        <r>  0.0000  0.0000  0.0000  0.0000  0.0000  0.0000  0.1244  0.0000  0.0415 </r>
       </set>
       <set comment="band 11">
        <r>  0.0000  0.0139  0.1559  0.0000  0.0062  0.0000  0.0000  0.0700  0.0000 </r>
       </set>
       <set comment="band 12">
        <r>  0.0000  0.1559  0.0139  0.0000  0.0700  0.0000  0.0000  0.0062  0.0000 </r>
       </set>
      </set>
      <set comment="kpoint 19">
       <set comment="band 1">
        <r>  0.2060  0.0023  0.0000  0.0511  0.0173  0.0000  0.0180  0.0000  0.0352 </r>
       </set>
       <set comment="band 2">
        <r>  0.0003  0.0053  0.0000  0.0016  0.2889  0.0000  0.3634  0.0000  0.1870 </r>
       </set>
       <set comment="band 3">
        <r>  0.0000  0.0000  0.0038  0.0000  0.0000  0.2608  0.0000  0.6278  0.0000 </r>
       </set>
       <set comment="band 4">
        <r>  0.0000  0.0029  0.0000  0.0010  0.5532  0.0000  0.3278  0.0000  0.0212 </r>
       </set>
       <set comment="band 5">
        <r>  0.0000  0.0000  0.0013  0.0000  0.0000  0.6738  0.0000  0.2677  0.0000 </r>
       </set>
       <set comment="band 6">
        <r>  0.0285  0.0007  0.0000  0.0042  0.0204  0.0000  0.1781  0.0000  0.6796 </r>
       </set>
       <set comment="band 7">
        <r>  0.1233  0.1395  0.0000  0.0527  0.0786  0.0000  0.0091  0.0000  0.0144 </r>
       </set>
       <set comment="band 8">
        <r>  0.0000  0.0000  0.3028  0.0000  0.0000  0.0018  0.0000  0.0877  0.0000 </r>
       </set>
       <set comment="band 9">
        <r>  0.1297  0.0690  0.0000  0.1093  0.0117  0.0000  0.0612  0.0000  0.0014 </r>
       </set>
       <set comment="band 10">
        <r>  0.0126  0.0962  0.0000  0.0198  0.0138  0.0000  0.0857  0.0000  0.0443 </r>
       </set>
       <set comment="band 11">
        <r>  0.0000  0.0000  0.0965  0.0000  0.0000  0.1251  0.0000  0.0752  0.0000 </r>
       </set>
       <set comment="band 12">
        <r>  0.0640  0.0855  0.0000  0.0186  0.0711  0.0000  0.0223  0.0000  0.0247 </r>
       </set>
      </set>
      <set comment="kpoint 20">
       <set comment="band 1">
        <r>  0.1034  0.0002  0.0000  0.0294  0.2192  0.0000  0.1678  0.0000  0.0490 </r>
       </set>
       <set comment="band 2">
        <r>  0.0008  0.0178  0.0000  0.0146  0.0650  0.0000  0.1409  0.0000  0.4999 </r>
       </set>
       <set comment="band 3">
        <r>  0.0000  0.0000  0.0037  0.0000  0.0000  0.3921  0.0000  0.4897  0.0000 </r>
       </set>
       <set comment="band 4">
        <r>  0.0077  0.0016  0.0000  0.0002  0.3777  0.0000  0.5046  0.0000  0.0166 </r>
       </set>
       <set comment="band 5">
        <r>  0.0000  0.0000  0.0003  0.0000  0.0000  0.5398  0.0000  0.4233  0.0000 </r>
       </set>
       <set comment="band 6">
        <r>  0.0867  0.0170  0.0000  0.0473  0.1582  0.0000  0.0465  0.0000  0.3272 </r>
       </set>
       <set comment="band 7">
        <r>  0.1710  0.0913  0.0000  0.0235  0.1377  0.0000  0.0248  0.0000  0.0443 </r>
       </set>
       <set comment="band 8">
        <r>  0.0000  0.0000  0.3071  0.0000  0.0000  0.0162  0.0000  0.0514  0.0000 </r>
       </set>
       <set comment="band 9">
        <r>  0.1244  0.0621  0.0000  0.0766  0.0058  0.0000  0.0949  0.0000  0.0003 </r>
       </set>
       <set comment="band 10">
        <r>  0.0131  0.1535  0.0000  0.0401  0.0058  0.0000  0.0751  0.0000  0.0424 </r>
       </set>
       <set comment="band 11">
        <r>  0.0010  0.0109  0.0000  0.1365  0.0037  0.0000  0.0398  0.0000  0.0972 </r>
       </set>
       <set comment="band 12">
        <r>  0.0000  0.0000  0.0836  0.0000  0.0000  0.1218  0.0000  0.0996  0.0000 </r>
       </set>
      </set>
      <set comment="kpoint 21">
       <set comment="band 1">
        <r>  0.1113  0.0011  0.0011  0.0492  0.0443  0.0001  0.0593  0.0443  0.1779 </r>
       </set>
       <set comment="band 2">
        <r>  0.0000  0.0037  0.0037  0.0000  0.0782  0.0000  0.4898  0.0782  0.1633 </r>
       </set>
       <set comment="band 3">
        <r>  0.0017  0.0027  0.0027  0.0022  0.2217  0.3094  0.0279  0.2217  0.0838 </r>
       </set>
       <set comment="band 4">
        <r>  0.0000  0.0022  0.0022  0.0000  0.3631  0.0000  0.1403  0.3631  0.0468 </r>
       </set>
       <set comment="band 5">
        <r>  0.0074  0.0000  0.0000  0.0011  0.0881  0.5826  0.0437  0.0881  0.1310 </r>
       </set>
       <set comment="band 6">
        <r>  0.0959  0.0024  0.0024  0.0327  0.0950  0.0428  0.0977  0.0950  0.2931 </r>
       </set>
       <set comment="band 7">
        <r>  0.1888  0.0575  0.0575  0.0478  0.0262  0.0112  0.0047  0.0262  0.0141 </r>
       </set>
       <set comment="band 8">
        <r>  0.0000  0.1115  0.1115  0.0000  0.0442  0.0000  0.0498  0.0442  0.0166 </r>
       </set>
       <set comment="band 9">
        <r>  0.1225  0.1018  0.1018  0.0854  0.0076  0.0007  0.0047  0.0076  0.0141 </r>
       </set>
       <set comment="band 10">
        <r>  0.0000  0.0292  0.0292  0.0000  0.0039  0.0000  0.1302  0.0039  0.0434 </r>
       </set>
       <set comment="band 11">
        <r>  0.0000  0.0117  0.0117  0.1254  0.0063  0.0172  0.0306  0.0063  0.0918 </r>
       </set>
       <set comment="band 12">
        <r>  0.0806  0.0150  0.0150  0.0170  0.0427  0.0613  0.0035  0.0427  0.0104 </r>
       </set>
      </set>
      <set comment="kpoint 22">
       <set comment="band 1">
        <r>  0.0300  0.0057  0.0028  0.0057  0.2298  0.0039  0.4547  0.0039  0.0000 </r>
       </set>
       <set comment="band 2">
        <r>  0.0000  0.0144  0.0000  0.0144  0.0000  0.0218  0.0000  0.0218  0.6612 </r>
       </set>
       <set comment="band 3">
        <r>  0.0147  0.0001  0.0047  0.0001  0.0987  0.3044  0.1286  0.3044  0.0000 </r>
       </set>
       <set comment="band 4">
        <r>  0.0047  0.0010  0.0017  0.0010  0.4407  0.1249  0.2227  0.1249  0.0000 </r>
       </set>
       <set comment="band 5">
        <r>  0.0000  0.0012  0.0000  0.0012  0.0000  0.4363  0.0000  0.4363  0.0777 </r>
       </set>
       <set comment="band 6">
        <r>  0.3136  0.0168  0.0006  0.0168  0.1818  0.0079  0.0430  0.0079  0.0000 </r>
       </set>
       <set comment="band 7">
        <r>  0.0000  0.0933  0.0000  0.0933  0.0000  0.0253  0.0000  0.0253  0.1866 </r>
       </set>
       <set comment="band 8">
        <r>  0.0513  0.0151  0.1787  0.0151  0.0085  0.0302  0.0606  0.0302  0.0000 </r>
       </set>
       <set comment="band 9">
        <r>  0.1022  0.0633  0.1266  0.0633  0.0017  0.0033  0.0539  0.0033  0.0000 </r>
       </set>
       <set comment="band 10">
        <r>  0.0276  0.0925  0.0002  0.0925  0.0045  0.0005  0.1207  0.0005  0.0000 </r>
       </set>
       <set comment="band 11">
        <r>  0.0000  0.0319  0.0000  0.0319  0.0000  0.0005  0.0000  0.0005  0.1583 </r>
       </set>
       <set comment="band 12">
        <r>  0.0854  0.0042  0.0233  0.0042  0.0514  0.0656  0.0000  0.0656  0.0000 </r>
       </set>
      </set>
      <set comment="kpoint 23">
       <set comment="band 1">
        <r>  0.1225  0.0000  0.0000  0.0592  0.0000  0.0000  0.0642  0.0000  0.1927 </r>
       </set>
       <set comment="band 2">
        <r>  0.0000  0.0000  0.0000  0.0000  0.0000  0.0000  0.6291  0.0000  0.2097 </r>
       </set>
       <set comment="band 3">
        <r>  0.0000  0.0036  0.0036  0.0000  0.4485  0.0000  0.0000  0.4485  0.0000 </r>
       </set>
       <set comment="band 4">
        <r>  0.0000  0.0036  0.0036  0.0000  0.4485  0.0000  0.0000  0.4485  0.0000 </r>
       </set>
       <set comment="band 5">
        <r>  0.0000  0.0000  0.0000  0.0000  0.0000  0.9472  0.0000  0.0000  0.0000 </r>
       </set>
       <set comment="band 6">
        <r>  0.0994  0.0000  0.0000  0.0252  0.0000  0.0000  0.1640  0.0000  0.4919 </r>
       </set>
       <set comment="band 7">
        <r>  0.0000  0.1450  0.1450  0.0000  0.0404  0.0000  0.0000  0.0405  0.0000 </r>
       </set>
       <set comment="band 8">
        <r>  0.0000  0.1450  0.1450  0.0000  0.0405  0.0000  0.0000  0.0404  0.0000 </r>
       </set>
       <set comment="band 9">
        <r>  0.3288  0.0000  0.0000  0.1273  0.0000  0.0000  0.0097  0.0000  0.0292 </r>
       </set>
       <set comment="band 10">
        <r>  0.0000  0.0000  0.0000  0.0000  0.0000  0.0000  0.1824  0.0000  0.0608 </r>
       </set>
       <set comment="band 11">
        <r>  0.0235  0.0000  0.0000  0.1430  0.0000  0.0000  0.0346  0.0000  0.1037 </r>
       </set>
       <set comment="band 12">
        <r>  0.0000  0.1475  0.0222  0.0000  0.1117  0.0000  0.0000  0.0168  0.0000 </r>
       </set>
      </set>
      <set comment="kpoint 24">
       <set comment="band 1">
        <r>  0.0209  0.0003  0.0000  0.0241  0.0292  0.0000  0.2647  0.0000  0.3560 </r>
       </set>
       <set comment="band 2">
        <r>  0.0001  0.0045  0.0000  0.0007  0.0210  0.0000  0.4359  0.0000  0.3356 </r>
       </set>
       <set comment="band 3">
        <r>  0.0000  0.0000  0.0057  0.0000  0.0000  0.3290  0.0000  0.5784  0.0000 </r>
       </set>
       <set comment="band 4">
        <r>  0.0110  0.0049  0.0000  0.0012  0.7954  0.0000  0.0831  0.0000  0.0065 </r>
       </set>
       <set comment="band 5">
        <r>  0.0000  0.0000  0.0003  0.0000  0.0000  0.6181  0.0000  0.3427  0.0000 </r>
       </set>
       <set comment="band 6">
        <r>  0.1767  0.0025  0.0000  0.0897  0.0612  0.0000  0.0474  0.0000  0.1494 </r>
       </set>
       <set comment="band 7">
        <r>  0.1085  0.1645  0.0000  0.0207  0.0523  0.0000  0.0071  0.0000  0.0538 </r>
       </set>
       <set comment="band 8">
        <r>  0.0000  0.0000  0.2909  0.0000  0.0000  0.0097  0.0000  0.0464  0.0000 </r>
       </set>
       <set comment="band 9">
        <r>  0.2356  0.0624  0.0000  0.0681  0.0063  0.0000  0.0892  0.0000  0.0021 </r>
       </set>
       <set comment="band 10">
        <r>  0.0250  0.0642  0.0000  0.0106  0.0045  0.0000  0.1240  0.0000  0.0657 </r>
       </set>
       <set comment="band 11">
        <r>  0.0255  0.0004  0.0000  0.1076  0.0007  0.0000  0.0357  0.0000  0.1191 </r>
       </set>
       <set comment="band 12">
        <r>  0.0000  0.0000  0.0787  0.0000  0.0000  0.1156  0.0000  0.0881  0.0000 </r>
       </set>
      </set>
      <set comment="kpoint 25">
       <set comment="band 1">
        <r>  0.0000  0.0012  0.0050  0.0012  0.0064  0.0016  0.7616  0.0016  0.0000 </r>
       </set>
       <set comment="band 2">
        <r>  0.0000  0.0037  0.0000  0.0037  0.0000  0.0048  0.0000  0.0048  0.7616 </r>
       </set>
       <set comment="band 3">
        <r>  0.0097  0.0022  0.0022  0.0022  0.2940  0.2939  0.0000  0.2939  0.0000 </r>
       </set>
       <set comment="band 4">
        <r>  0.0000  0.0012  0.0000  0.0012  0.0000  0.4661  0.0000  0.4661  0.0160 </r>
       </set>
       <set comment="band 5">
        <r>  0.0000  0.0004  0.0016  0.0004  0.6215  0.1554  0.0160  0.1554  0.0000 </r>
       </set>
       <set comment="band 6">
        <r>  0.3403  0.0264  0.0264  0.0264  0.0227  0.0227  0.0000  0.0227  0.0000 </r>
       </set>
       <set comment="band 7">
        <r>  0.0000  0.1177  0.0000  0.1177  0.0000  0.0116  0.0000  0.0116  0.0951 </r>
       </set>
       <set comment="band 8">
        <r>  0.0000  0.0392  0.1569  0.0392  0.0154  0.0039  0.0951  0.0039  0.0000 </r>
       </set>
       <set comment="band 9">
        <r>  0.2700  0.0799  0.0799  0.0799  0.0036  0.0036  0.0000  0.0036  0.0000 </r>
       </set>
       <set comment="band 10">
        <r>  0.0000  0.0229  0.0000  0.0228  0.0000  0.0004  0.0000  0.0004  0.2162 </r>
       </set>
       <set comment="band 11">
        <r>  0.0000  0.0076  0.0305  0.0076  0.0006  0.0001  0.2162  0.0001  0.0000 </r>
       </set>
       <set comment="band 12">
        <r>  0.0292  0.0271  0.0271  0.0271  0.0556  0.0556  0.0000  0.0556  0.0000 </r>
       </set>
      </set>
      <set comment="kpoint 26">
       <set comment="band 1">
        <r>  0.0010  0.0000  0.0000  0.0054  0.0000  0.0000  0.1918  0.0000  0.5753 </r>
       </set>
       <set comment="band 2">
        <r>  0.0000  0.0000  0.0000  0.0000  0.0000  0.0000  0.5965  0.0000  0.1988 </r>
       </set>
       <set comment="band 3">
        <r>  0.0000  0.0013  0.0013  0.0000  0.4734  0.0000  0.0000  0.4734  0.0000 </r>
       </set>
       <set comment="band 4">
        <r>  0.0000  0.0013  0.0013  0.0000  0.4734  0.0000  0.0000  0.4734  0.0000 </r>
       </set>
       <set comment="band 5">
        <r>  0.0000  0.0000  0.0000  0.0000  0.0000  0.9614  0.0000  0.0000  0.0000 </r>
       </set>
       <set comment="band 6">
        <r>  0.1716  0.0000  0.0000  0.1629  0.0000  0.0000  0.0155  0.0000  0.0466 </r>
       </set>
       <set comment="band 7">
        <r>  0.0000  0.1460  0.1460  0.0000  0.0092  0.0000  0.0000  0.0092  0.0000 </r>
       </set>
       <set comment="band 8">
        <r>  0.0000  0.1460  0.1460  0.0000  0.0092  0.0000  0.0000  0.0092  0.0000 </r>
       </set>
       <set comment="band 9">
        <r>  0.4520  0.0000  0.0000  0.0817  0.0000  0.0000  0.0091  0.0000  0.0272 </r>
       </set>
       <set comment="band 10">
        <r>  0.0000  0.0000  0.0000  0.0000  0.0000  0.0000  0.2214  0.0000  0.0738 </r>
       </set>
       <set comment="band 11">
        <r>  0.0139  0.0000  0.0000  0.0508  0.0000  0.0000  0.0564  0.0000  0.1692 </r>
       </set>
       <set comment="band 12">
        <r>  0.0000  0.0000  0.0000  0.0000  0.0000  0.1268  0.0000  0.0000  0.0000 </r>
       </set>
      </set>
     </set>
    </set>
   </array>
  </projected>
 </calculation>
 <structure name="finalpos" >
  <crystal>
   <varray name="basis" >
    <v>      -2.00000000       2.00000000       2.00000000 </v>
    <v>       2.00000000      -2.00000000       2.00000000 </v>
    <v>       2.00000000       2.00000000      -2.00000000 </v>
   </varray>
   <i name="volume">     32.00000000 </i>
   <varray name="rec_basis" >
    <v>       0.00000000       0.25000000       0.25000000 </v>
    <v>       0.25000000       0.00000000       0.25000000 </v>
    <v>       0.25000000       0.25000000       0.00000000 </v>
   </varray>
  </crystal>
  <varray name="positions" >
   <v>       0.00000000       0.00000000       0.00000000 </v>
  </varray>
 </structure>
</modeling>
