Fe BCC                                  
   2.00000000000000     
    -0.500000    0.500000    0.500000
     0.500000   -0.500000    0.500000
     0.500000    0.500000   -0.500000
   Fe
     1
Direct
  0.000000  0.000000  0.000000
 
   24   24   24
  36.397      35.661      33.547      30.322      26.362      22.088      17.889      14.077      10.866      8.3628    
  6.5824      5.4860      5.1118      5.4860      6.5824      8.3628      10.866      14.077      17.889      22.088    
  26.362      30.322      33.547      35.661      35.661      35.418      33.771      30.931      27.239      23.101    
  18.918      15.025      11.664      8.9763      7.0049      5.7136      5.1090      5.2311      6.0711      7.5842    
  9.7942      12.717      16.276      20.298      24.508      28.543      31.994      34.468      33.547      33.771    
  32.637      30.290      27.022      23.206      19.230      15.436      12.084      9.3401      7.2748      5.8724    
  5.0966      4.9845      5.5445      6.7413      8.5837      11.110      14.278      17.954      21.907      25.819    
  29.310      31.994      30.322      30.931      30.290      28.485      25.744      22.391      18.785      15.256    
  12.069      9.4027      7.3503      5.9221      5.0629      4.7706      5.0669      5.9324      7.3707      9.4368    
  12.119      15.322      18.862      22.473      25.819      28.543      26.362      27.239      27.022      25.744    
  23.569      20.765      17.645      14.513      11.622      9.1563      7.2199      5.8445      4.9907      4.5990    
  4.6824      5.2377      6.2739      7.8601      10.011      12.666      15.689      18.862      21.907      24.508    
  22.088      23.101      23.206      22.391      20.765      18.535      15.961      13.309      10.810      8.6383    
  6.9042      5.6517      4.8631      4.4638      4.4106      4.7086      5.3797      6.5070      8.1280      10.214    
  12.666      15.322      17.954      20.298      17.889      18.918      19.230      18.785      17.645      15.961    
  13.938      11.798      9.7398      7.9227      6.4509      5.3746      4.6908      4.3443      4.2439      4.3615    
  4.7341      5.4580      6.5899      8.1280      10.011      12.119      14.278      16.276      14.077      15.025    
  15.436      15.256      14.513      13.309      11.798      10.154      8.5447      7.1035      5.9243      5.0559    
  4.5035      4.2281      4.1492      4.1763      4.3391      4.7427      5.4580      6.5070      7.8601      9.4368    
  11.110      12.717      10.866      11.664      12.084      12.069      11.622      10.810      9.7398      8.5447    
  7.3541      6.2772      5.3919      4.7409      4.3309      4.1333      4.0855      4.0995      4.1538      4.3391    
  4.7341      5.3797      6.2739      7.3707      8.5837      9.7942      8.3628      8.9763      9.3401      9.4027    
  9.1563      8.6383      7.9227      7.1035      6.2772      5.5269      4.9129      4.4681      4.1964      4.0739    
  4.0501      4.0637      4.0995      4.1763      4.3615      4.7086      5.2377      5.9324      6.7413      7.5842    
  6.5824      7.0049      7.2748      7.3503      7.2199      6.9042      6.4509      5.9243      5.3919      4.9129    
  4.5296      4.2630      4.1115      4.0518      4.0413      4.0501      4.0855      4.1492      4.2439      4.4106    
  4.6824      5.0669      5.5445      6.0711      5.4860      5.7136      5.8724      5.9221      5.8445      5.6517    
  5.3746      5.0559      4.7409      4.4681      4.2630      4.1345      4.0737      4.0553      4.0518      4.0739    
  4.1333      4.2281      4.3443      4.4638      4.5990      4.7706      4.9845      5.2311      5.1118      5.1090    
  5.0966      5.0629      4.9907      4.8631      4.6908      4.5035      4.3309      4.1964      4.1115      4.0737    
  4.0664      4.0737      4.1115      4.1964      4.3309      4.5035      4.6908      4.8631      4.9907      5.0629    
  5.0966      5.1090      5.4860      5.2311      4.9845      4.7706      4.5990      4.4638      4.3443      4.2281    
  4.1333      4.0739      4.0518      4.0553      4.0737      4.1345      4.2630      4.4681      4.7409      5.0559    
  5.3746      5.6517      5.8445      5.9221      5.8724      5.7136      6.5824      6.0711      5.5445      5.0669    
  4.6824      4.4106      4.2439      4.1492      4.0855      4.0501      4.0413      4.0518      4.1115      4.2630    
  4.5296      4.9129      5.3919      5.9243      6.4509      6.9042      7.2199      7.3503      7.2748      7.0049    
  8.3628      7.5842      6.7413      5.9324      5.2377      4.7086      4.3615      4.1763      4.0995      4.0637    
  4.0501      4.0739      4.1964      4.4681      4.9129      5.5269      6.2772      7.1035      7.9227      8.6383    
  9.1563      9.4027      9.3401      8.9763      10.866      9.7942      8.5837      7.3707      6.2739      5.3797    
  4.7341      4.3391      4.1538      4.0995      4.0855      4.1333      4.3309      4.7409      5.3919      6.2772    
  7.3541      8.5447      9.7398      10.810      11.622      12.069      12.084      11.664      14.077      12.717    
  11.110      9.4368      7.8601      6.5070      5.4580      4.7427      4.3391      4.1763      4.1492      4.2281    
  4.5035      5.0559      5.9243      7.1035      8.5447      10.154      11.798      13.309      14.513      15.256    
  15.436      15.025      17.889      16.276      14.278      12.119      10.011      8.1280      6.5899      5.4580    
  4.7341      4.3615      4.2439      4.3443      4.6908      5.3746      6.4509      7.9227      9.7398      11.798    
  13.938      15.961      17.645      18.785      19.230      18.918      22.088      20.298      17.954      15.322    
  12.666      10.214      8.1280      6.5070      5.3797      4.7086      4.4106      4.4638      4.8631      5.6517    
  6.9042      8.6383      10.810      13.309      15.961      18.535      20.765      22.391      23.206      23.101    
  26.362      24.508      21.907      18.862      15.689      12.666      10.011      7.8601      6.2739      5.2377    
  4.6824      4.5990      4.9907      5.8445      7.2199      9.1563      11.622      14.513      17.645      20.765    
  23.569      25.744      27.022      27.239      30.322      28.543      25.819      22.473      18.862      15.322    
  12.119      9.4368      7.3707      5.9324      5.0669      4.7706      5.0629      5.9221      7.3503      9.4027    
  12.069      15.256      18.785      22.391      25.744      28.485      30.290      30.931      33.547      31.994    
  29.310      25.819      21.907      17.954      14.278      11.110      8.5837      6.7413      5.5445      4.9845    
  5.0966      5.8724      7.2748      9.3401      12.084      15.436      19.230      23.206      27.022      30.290    
  32.637      33.771      35.661      34.468      31.994      28.543      24.508      20.298      16.276      12.717    
  9.7942      7.5842      6.0711      5.2311      5.1090      5.7136      7.0049      8.9763      11.664      15.025    
  18.918      23.101      27.239      30.931      33.771      35.418      35.661      35.418      33.771      30.931    
  27.239      23.101      18.918      15.025      11.664      8.9763      7.0049      5.7136      5.1090      5.2311    
  6.0711      7.5842      9.7942      12.717      16.276      20.298      24.508      28.543      31.994      34.468    
  35.418      35.661      34.468      31.994      28.543      24.508      20.298      16.276      12.717      9.7942    
  7.5842      6.0711      5.2311      5.1090      5.7136      7.0049      8.9763      11.664      15.025      18.918    
  23.101      27.239      30.931      33.771      33.771      34.468      33.771      31.771      28.718      24.973    
  20.933      16.968      13.373      10.351      8.0044      6.3468      5.3321      4.9857      5.3321      6.3468    
  8.0044      10.351      13.373      16.968      20.933      24.973      28.718      31.771      30.931      31.994    
  31.771      30.290      27.743      24.437      20.740      17.009      13.547      10.570      8.2042      6.4896    
  5.3865      4.8716      4.9764      5.6936      6.9963      8.9320      11.516      14.680      18.265      22.024    
  25.632      28.718      27.239      28.543      28.718      27.743      25.744      22.972      19.746      16.397    
  13.215      10.421      8.1540      6.4746      5.3666      4.7667      4.6813      5.1181      6.0599      7.5567    
  9.6477      12.297      15.387      18.721      22.024      24.973      23.101      24.508      24.973      24.437    
  22.972      20.765      18.084      15.215      12.426      9.9274      7.8624      6.3036      5.2561      4.6607    
  4.4622      4.6692      5.2783      6.3476      7.9366      10.037      12.571      15.387      18.265      20.933    
  18.918      20.298      20.933      20.740      19.746      18.084      15.961      13.619      11.288      9.1606    
  7.3735      6.0037      5.0704      4.5354      4.3132      4.3654      4.6998      5.3880      6.5061      8.0712    
  10.037      12.297      14.680      16.968      15.025      16.276      16.968      17.009      16.397      15.215    
  13.619      11.798      9.9437      8.2224      6.7567      5.6207      4.8402      4.3926      4.2086      4.1938    
  4.3343      4.7158      5.4271      6.5061      7.9366      9.6477      11.516      13.373      11.664      12.717    
  13.373      13.547      13.215      12.426      11.288      9.9437      8.5447      7.2264      6.0926      5.2090    
  4.6018      4.2571      4.1229      4.1115      4.1518      4.3220      4.7158      5.3880      6.3476      7.5567    
  8.9320      10.351      8.9763      9.7942      10.351      10.570      10.421      9.9274      9.1606      8.2224    
  7.2264      6.2772      5.4576      4.8209      4.3887      4.1506      4.0652      4.0640      4.0877      4.1518    
  4.3343      4.6998      5.2783      6.0599      6.9963      8.0044      7.0049      7.5842      8.0044      8.2042    
  8.1540      7.8624      7.3735      6.7567      6.0926      5.4576      4.9129      4.4975      4.2253      4.0850    
  4.0412      4.0414      4.0640      4.1115      4.1938      4.3654      4.6692      5.1181      5.6936      6.3468    
  5.7136      6.0711      6.3468      6.4896      6.4746      6.3036      6.0037      5.6207      5.2090      4.8209    
  4.4975      4.2630      4.1220      4.0596      4.0427      4.0412      4.0652      4.1229      4.2086      4.3132    
  4.4622      4.6813      4.9764      5.3321      5.1090      5.2311      5.3321      5.3865      5.3666      5.2561    
  5.0704      4.8402      4.6018      4.3887      4.2253      4.1220      4.0737      4.0601      4.0596      4.0850    
  4.1506      4.2571      4.3926      4.5354      4.6607      4.7667      4.8716      4.9857      5.2311      5.1090    
  4.9857      4.8716      4.7667      4.6607      4.5354      4.3926      4.2571      4.1506      4.0850      4.0596    
  4.0601      4.0737      4.1220      4.2253      4.3887      4.6018      4.8402      5.0704      5.2561      5.3666    
  5.3865      5.3321      6.0711      5.7136      5.3321      4.9764      4.6813      4.4622      4.3132      4.2086    
  4.1229      4.0652      4.0412      4.0427      4.0596      4.1220      4.2630      4.4975      4.8209      5.2090    
  5.6207      6.0037      6.3036      6.4746      6.4896      6.3468      7.5842      7.0049      6.3468      5.6936    
  5.1181      4.6692      4.3654      4.1938      4.1115      4.0640      4.0414      4.0412      4.0850      4.2253    
  4.4975      4.9129      5.4576      6.0926      6.7567      7.3735      7.8624      8.1541      8.2042      8.0044    
  9.7942      8.9763      8.0044      6.9963      6.0599      5.2783      4.6998      4.3343      4.1518      4.0877    
  4.0640      4.0652      4.1506      4.3887      4.8209      5.4576      6.2772      7.2264      8.2224      9.1606    
  9.9274      10.421      10.570      10.351      12.717      11.664      10.351      8.9320      7.5567      6.3476    
  5.3880      4.7158      4.3220      4.1518      4.1115      4.1229      4.2571      4.6018      5.2090      6.0926    
  7.2264      8.5447      9.9437      11.288      12.426      13.215      13.547      13.373      16.276      15.025    
  13.373      11.516      9.6477      7.9366      6.5061      5.4271      4.7158      4.3343      4.1938      4.2086    
  4.3926      4.8402      5.6207      6.7567      8.2224      9.9437      11.798      13.619      15.215      16.397    
  17.009      16.968      20.298      18.918      16.968      14.680      12.297      10.037      8.0712      6.5061    
  5.3880      4.6998      4.3654      4.3132      4.5354      5.0704      6.0037      7.3735      9.1606      11.288    
  13.619      15.961      18.084      19.746      20.740      20.933      24.508      23.101      20.933      18.265    
  15.387      12.571      10.037      7.9366      6.3476      5.2783      4.6692      4.4622      4.6607      5.2561    
  6.3036      7.8624      9.9274      12.426      15.215      18.084      20.765      22.972      24.437      24.973    
  28.543      27.239      24.973      22.024      18.721      15.387      12.297      9.6477      7.5567      6.0599    
  5.1181      4.6813      4.7667      5.3666      6.4746      8.1541      10.421      13.215      16.397      19.746    
  22.972      25.744      27.743      28.718      31.994      30.931      28.718      25.632      22.024      18.265    
  14.680      11.516      8.9320      6.9963      5.6936      4.9764      4.8716      5.3865      6.4896      8.2042    
  10.570      13.547      17.009      20.740      24.437      27.743      30.290      31.771      34.468      33.771    
  31.771      28.718      24.973      20.933      16.968      13.373      10.351      8.0044      6.3468      5.3321    
  4.9857      5.3321      6.3468      8.0044      10.351      13.373      16.968      20.933      24.973      28.718    
  31.771      33.771      33.547      33.771      32.637      30.290      27.022      23.206      19.230      15.436    
  12.084      9.3401      7.2748      5.8724      5.0966      4.9845      5.5445      6.7413      8.5837      11.110    
  14.278      17.954      21.907      25.819      29.310      31.994      33.771      34.468      33.771      31.771    
  28.718      24.973      20.933      16.968      13.373      10.351      8.0044      6.3468      5.3321      4.9857    
  5.3321      6.3468      8.0044      10.351      13.373      16.968      20.933      24.973      28.718      31.771    
  32.637      33.771      33.547      31.994      29.310      25.819      21.907      17.954      14.278      11.110    
  8.5837      6.7413      5.5445      4.9845      5.0966      5.8724      7.2748      9.3401      12.084      15.436    
  19.230      23.206      27.022      30.290      30.290      31.771      31.994      30.931      28.718      25.632    
  22.024      18.265      14.680      11.516      8.9320      6.9963      5.6936      4.9764      4.8716      5.3865    
  6.4896      8.2042      10.570      13.547      17.009      20.740      24.437      27.743      27.022      28.718    
  29.310      28.718      27.022      24.437      21.270      17.861      14.524      11.513      8.9992      7.0718    
  5.7410      4.9492      4.6793      4.9492      5.7410      7.0718      8.9992      11.513      14.524      17.861    
  21.270      24.437      23.206      24.973      25.819      25.632      24.437      22.391      19.746      16.797    
  13.836      11.103      8.7763      6.9555      5.6713      4.8848      4.5270      4.6010      5.1029      6.0537    
  7.5259      9.5348      12.025      14.868      17.861      20.740      19.230      20.933      21.907      22.024    
  21.270      19.746      17.645      15.215      12.708      10.347      8.2972      6.6658      5.4951      4.7672    
  4.4070      4.3581      4.6217      5.2297      6.2683      7.7749      9.7239      12.025      14.524      17.009    
  15.436      16.968      17.954      18.265      17.861      16.797      15.215      13.309      11.288      9.3447    
  7.6307      6.2467      5.2409      4.6095      4.2976      4.2108      4.3102      4.6406      5.3001      6.3447    
  7.7749      9.5348      11.513      13.547      12.084      13.373      14.278      14.680      14.524      13.836    
  12.708      11.288      9.7398      8.2224      6.8653      5.7583      4.9483      4.4390      4.1913      4.1253    
  4.1466      4.2858      4.6471      5.3001      6.2683      7.5259      8.9992      10.570      9.3401      10.351    
  11.110      11.516      11.513      11.103      10.347      9.3447      8.2224      7.1035      6.0926      5.2644    
  4.6595      4.2832      4.1060      4.0657      4.0782      4.1240      4.2858      4.6406      5.2297      6.0537    
  7.0718      8.2042      7.2748      8.0044      8.5837      8.9320      8.9992      8.7763      8.2972      7.6307    
  6.8653      6.0926      5.3919      4.8209      4.4105      4.1634      4.0545      4.0335      4.0443      4.0782    
  4.1466      4.3102      4.6217      5.1029      5.7410      6.4896      5.8724      6.3468      6.7413      6.9963    
  7.0718      6.9555      6.6658      6.2467      5.7583      5.2644      4.8209      4.4681      4.2253      4.0899    
  4.0377      4.0265      4.0335      4.0657      4.1253      4.2108      4.3581      4.6010      4.9492      5.3865    
  5.0966      5.3321      5.5445      5.6936      5.7410      5.6713      5.4951      5.2409      4.9483      4.6595    
  4.4105      4.2253      4.1115      4.0596      4.0435      4.0377      4.0545      4.1060      4.1913      4.2976    
  4.4070      4.5270      4.6793      4.8716      4.9845      4.9857      4.9845      4.9764      4.9492      4.8848    
  4.7672      4.6095      4.4390      4.2832      4.1634      4.0899      4.0596      4.0553      4.0596      4.0899    
  4.1634      4.2832      4.4390      4.6095      4.7672      4.8848      4.9492      4.9764      5.5445      5.3321    
  5.0966      4.8716      4.6793      4.5270      4.4070      4.2976      4.1913      4.1060      4.0545      4.0377    
  4.0435      4.0596      4.1115      4.2253      4.4105      4.6595      4.9483      5.2409      5.4951      5.6713    
  5.7410      5.6936      6.7413      6.3468      5.8724      5.3865      4.9492      4.6010      4.3581      4.2108    
  4.1253      4.0657      4.0335      4.0265      4.0377      4.0899      4.2253      4.4681      4.8209      5.2644    
  5.7583      6.2467      6.6658      6.9555      7.0718      6.9963      8.5837      8.0044      7.2748      6.4896    
  5.7410      5.1029      4.6217      4.3102      4.1466      4.0782      4.0443      4.0335      4.0545      4.1634    
  4.4105      4.8209      5.3919      6.0926      6.8653      7.6307      8.2972      8.7763      8.9992      8.9320    
  11.110      10.351      9.3401      8.2042      7.0718      6.0537      5.2297      4.6406      4.2858      4.1240    
  4.0782      4.0657      4.1060      4.2832      4.6595      5.2644      6.0926      7.1035      8.2224      9.3447    
  10.347      11.103      11.513      11.516      14.278      13.373      12.084      10.570      8.9992      7.5259    
  6.2683      5.3001      4.6471      4.2858      4.1466      4.1253      4.1913      4.4390      4.9483      5.7583    
  6.8653      8.2224      9.7398      11.288      12.708      13.836      14.524      14.680      17.954      16.968    
  15.436      13.547      11.513      9.5348      7.7749      6.3447      5.3001      4.6406      4.3102      4.2108    
  4.2976      4.6095      5.2409      6.2467      7.6307      9.3447      11.288      13.309      15.215      16.797    
  17.861      18.265      21.907      20.933      19.230      17.009      14.524      12.025      9.7239      7.7749    
  6.2683      5.2297      4.6217      4.3581      4.4070      4.7672      5.4951      6.6658      8.2972      10.347    
  12.708      15.215      17.645      19.746      21.270      22.024      25.819      24.973      23.206      20.740    
  17.861      14.868      12.025      9.5348      7.5259      6.0537      5.1029      4.6010      4.5270      4.8848    
  5.6713      6.9555      8.7763      11.103      13.836      16.797      19.746      22.391      24.437      25.632    
  29.310      28.718      27.022      24.437      21.270      17.861      14.524      11.513      8.9992      7.0718    
  5.7410      4.9492      4.6793      4.9492      5.7410      7.0718      8.9992      11.513      14.524      17.861    
  21.270      24.437      27.022      28.718      31.994      31.771      30.290      27.743      24.437      20.740    
  17.009      13.547      10.570      8.2042      6.4896      5.3865      4.8716      4.9764      5.6936      6.9963    
  8.9320      11.516      14.680      18.265      22.024      25.632      28.718      30.931      30.322      30.931    
  30.290      28.485      25.744      22.391      18.785      15.256      12.069      9.4027      7.3503      5.9221    
  5.0629      4.7706      5.0669      5.9324      7.3707      9.4368      12.119      15.322      18.862      22.473    
  25.819      28.543      30.931      31.994      31.771      30.290      27.743      24.437      20.740      17.009    
  13.547      10.570      8.2042      6.4896      5.3865      4.8716      4.9764      5.6936      6.9963      8.9320    
  11.516      14.680      18.265      22.024      25.632      28.718      30.290      31.771      31.994      30.931    
  28.718      25.632      22.024      18.265      14.680      11.516      8.9320      6.9963      5.6936      4.9764    
  4.8716      5.3865      6.4896      8.2042      10.570      13.547      17.009      20.740      24.437      27.743    
  28.485      30.290      30.931      30.322      28.543      25.819      22.473      18.862      15.322      12.119    
  9.4368      7.3707      5.9324      5.0669      4.7706      5.0629      5.9221      7.3503      9.4027      12.069    
  15.256      18.785      22.391      25.744      25.744      27.743      28.718      28.543      27.239      24.973    
  22.024      18.721      15.387      12.297      9.6477      7.5567      6.0599      5.1181      4.6813      4.7667    
  5.3666      6.4746      8.1541      10.421      13.215      16.397      19.746      22.972      22.391      24.437    
  25.632      25.819      24.973      23.206      20.740      17.861      14.868      12.025      9.5348      7.5259    
  6.0537      5.1029      4.6010      4.5270      4.8848      5.6713      6.9555      8.7763      11.103      13.836    
  16.797      19.746      18.785      20.740      22.024      22.473      22.024      20.740      18.785      16.397    
  13.836      11.344      9.1157      7.2832      5.9136      5.0108      4.5166      4.3539      4.5166      5.0108    
  5.9136      7.2832      9.1157      11.344      13.836      16.397      15.256      17.009      18.265      18.862    
  18.721      17.861      16.397      14.513      12.426      10.347      8.4509      6.8655      5.6617      4.8561    
  4.4107      4.2376      4.2741      4.5320      5.0988      6.0481      7.3994      9.1157      11.103      13.215    
  12.069      13.547      14.680      15.322      15.387      14.868      13.836      12.426      10.810      9.1606    
  7.6307      6.3334      5.3373      4.6648      4.2920      4.1507      4.1406      4.2384      4.5402      5.1305    
  6.0481      7.2832      8.7763      10.421      9.4027      10.570      11.516      12.119      12.297      12.025    
  11.344      10.347      9.1606      7.9227      6.7567      5.7583      4.9878      4.4677      4.1821      4.0787    
  4.0726      4.0983      4.2247      4.5402      5.0988      5.9136      6.9555      8.1541      7.3503      8.2042    
  8.9320      9.4368      9.6477      9.5348      9.1157      8.4509      7.6307      6.7567      5.9243      5.2090    
  4.6595      4.2936      4.0988      4.0328      4.0296      4.0490      4.0983      4.2384      4.5320      5.0108    
  5.6713      6.4746      5.9221      6.4896      6.9963      7.3707      7.5567      7.5259      7.2832      6.8655    
  6.3334      5.7583      5.2090      4.7409      4.3887      4.1634      4.0514      4.0164      4.0117      4.0296    
  4.0726      4.1406      4.2741      4.5165      4.8848      5.3666      5.0629      5.3865      5.6936      5.9324    
  6.0599      6.0537      5.9136      5.6617      5.3373      4.9878      4.6595      4.3887      4.1964      4.0850    
  4.0377      4.0214      4.0164      4.0328      4.0787      4.1507      4.2376      4.3539      4.5270      4.7667    
  4.7706      4.8716      4.9764      5.0669      5.1181      5.1029      5.0108      4.8561      4.6648      4.4677    
  4.2936      4.1634      4.0850      4.0518      4.0427      4.0377      4.0514      4.0988      4.1821      4.2920    
  4.4107      4.5165      4.6010      4.6813      5.0669      4.9764      4.8716      4.7706      4.6813      4.6010    
  4.5166      4.4107      4.2920      4.1821      4.0988      4.0514      4.0377      4.0427      4.0518      4.0850    
  4.1634      4.2936      4.4676      4.6648      4.8561      5.0108      5.1029      5.1181      5.9324      5.6936    
  5.3865      5.0629      4.7667      4.5270      4.3539      4.2376      4.1507      4.0787      4.0328      4.0164    
  4.0214      4.0377      4.0850      4.1964      4.3887      4.6595      4.9878      5.3373      5.6617      5.9136    
  6.0537      6.0599      7.3707      6.9963      6.4896      5.9221      5.3666      4.8848      4.5166      4.2741    
  4.1406      4.0726      4.0296      4.0117      4.0164      4.0514      4.1634      4.3887      4.7409      5.2090    
  5.7583      6.3334      6.8655      7.2832      7.5259      7.5567      9.4368      8.9320      8.2042      7.3503    
  6.4746      5.6713      5.0108      4.5320      4.2384      4.0983      4.0490      4.0296      4.0328      4.0988    
  4.2936      4.6595      5.2090      5.9243      6.7567      7.6307      8.4509      9.1157      9.5348      9.6477    
  12.119      11.516      10.570      9.4027      8.1541      6.9555      5.9136      5.0988      4.5402      4.2247    
  4.0983      4.0726      4.0787      4.1821      4.4676      4.9878      5.7583      6.7567      7.9227      9.1606    
  10.347      11.344      12.025      12.297      15.322      14.680      13.547      12.069      10.421      8.7763    
  7.2832      6.0481      5.1305      4.5402      4.2384      4.1406      4.1507      4.2920      4.6648      5.3373    
  6.3334      7.6307      9.1606      10.810      12.426      13.836      14.868      15.387      18.862      18.265    
  17.009      15.256      13.215      11.103      9.1157      7.3994      6.0481      5.0988      4.5320      4.2741    
  4.2376      4.4107      4.8561      5.6617      6.8655      8.4509      10.347      12.426      14.513      16.397    
  17.861      18.721      22.473      22.024      20.740      18.785      16.397      13.836      11.344      9.1157    
  7.2832      5.9136      5.0108      4.5165      4.3539      4.5165      5.0108      5.9136      7.2832      9.1157    
  11.344      13.836      16.397      18.785      20.740      22.024      25.819      25.632      24.437      22.391    
  19.746      16.797      13.836      11.103      8.7763      6.9555      5.6713      4.8848      4.5270      4.6010    
  5.1029      6.0537      7.5259      9.5348      12.025      14.868      17.861      20.740      23.206      24.973    
  28.543      28.718      27.743      25.744      22.972      19.746      16.397      13.215      10.421      8.1541    
  6.4746      5.3666      4.7667      4.6813      5.1181      6.0599      7.5567      9.6477      12.297      15.387    
  18.721      22.024      24.973      27.239      26.362      27.239      27.022      25.744      23.569      20.765    
  17.645      14.513      11.622      9.1563      7.2199      5.8445      4.9907      4.5990      4.6824      5.2377    
  6.2739      7.8601      10.011      12.666      15.689      18.862      21.907      24.508      27.239      28.543    
  28.718      27.743      25.744      22.972      19.746      16.397      13.215      10.421      8.1540      6.4746    
  5.3666      4.7667      4.6813      5.1181      6.0599      7.5567      9.6477      12.297      15.387      18.721    
  22.024      24.973      27.022      28.718      29.310      28.718      27.022      24.437      21.270      17.861    
  14.524      11.513      8.9992      7.0718      5.7410      4.9492      4.6793      4.9492      5.7410      7.0718    
  8.9992      11.513      14.524      17.861      21.270      24.437      25.744      27.743      28.718      28.543    
  27.239      24.973      22.024      18.721      15.387      12.297      9.6477      7.5567      6.0599      5.1181    
  4.6813      4.7667      5.3666      6.4746      8.1541      10.421      13.215      16.397      19.746      22.972    
  23.569      25.744      27.022      27.239      26.362      24.508      21.907      18.862      15.689      12.666    
  10.011      7.8601      6.2739      5.2377      4.6824      4.5990      4.9907      5.8446      7.2199      9.1563    
  11.622      14.513      17.645      20.765      20.765      22.972      24.437      24.973      24.508      23.101    
  20.933      18.265      15.387      12.571      10.037      7.9366      6.3476      5.2783      4.6692      4.4622    
  4.6607      5.2561      6.3036      7.8624      9.9274      12.426      15.215      18.084      17.645      19.746    