Fe BCC                                  
   2.00000000000000     
    -0.500000    0.500000    0.500000
     0.500000   -0.500000    0.500000
     0.500000    0.500000   -0.500000
   Fe
     1
Direct
  0.000000  0.000000  0.000000
 
   24   24   24
 0.36396848784E+02 0.35660701766E+02 0.33547468633E+02 0.30321898847E+02 0.26362441081E+02
 0.22088034091E+02 0.17888829584E+02 0.14077326003E+02 0.10865557926E+02 0.83627633982E+01
 0.65823879092E+01 0.54859966370E+01 0.51118103055E+01 0.54859966370E+01 0.65823879092E+01
 0.83627633982E+01 0.10865557926E+02 0.14077326003E+02 0.17888829584E+02 0.22088034091E+02
 0.26362441081E+02 0.30321898847E+02 0.33547468633E+02 0.35660701766E+02 0.35660701766E+02
 0.35417837524E+02 0.33771361803E+02 0.30930796789E+02 0.27238542644E+02 0.23101193926E+02
 0.18917970663E+02 0.15024909301E+02 0.11664183783E+02 0.89762742243E+01 0.70048889843E+01
 0.57136495824E+01 0.51090404138E+01 0.52310586100E+01 0.60710870193E+01 0.75842286213E+01
 0.97942423783E+01 0.12716600245E+02 0.16276097497E+02 0.20298363335E+02 0.24507934127E+02
 0.28542868120E+02 0.31994146054E+02 0.34468365957E+02 0.33547468633E+02 0.33771361803E+02
 0.32636794547E+02 0.30290409535E+02 0.27022402501E+02 0.23206379041E+02 0.19230000552E+02
 0.15435774178E+02 0.12084170409E+02 0.93401214271E+01 0.72747717332E+01 0.58723735965E+01
 0.50966038972E+01 0.49844821132E+01 0.55445422240E+01 0.67413201421E+01 0.85837212391E+01
 0.11109964931E+02 0.14278078414E+02 0.17953971499E+02 0.21907253885E+02 0.25818787258E+02
 0.29309681143E+02 0.31994146054E+02 0.30321898847E+02 0.30930796789E+02 0.30290409535E+02
 0.28485071065E+02 0.25743780361E+02 0.22391294445E+02 0.18784959525E+02 0.15255947253E+02
 0.12068721029E+02 0.94026825831E+01 0.73503271794E+01 0.59220546951E+01 0.50628722401E+01
 0.47705603744E+01 0.50668732559E+01 0.59323656848E+01 0.73706598944E+01 0.94367600790E+01
 0.12118877792E+02 0.15321765081E+02 0.18862384709E+02 0.22472640213E+02 0.25818787258E+02
 0.28542868120E+02 0.26362441081E+02 0.27238542644E+02 0.27022402501E+02 0.25743780361E+02
 0.23569202947E+02 0.20765403382E+02 0.17645233619E+02 0.14512847072E+02 0.11622382262E+02
 0.91562543008E+01 0.72199108646E+01 0.58445495879E+01 0.49906936210E+01 0.45989892027E+01
 0.46824343146E+01 0.52376935958E+01 0.62738648440E+01 0.78600830523E+01 0.10010977391E+02
 0.12666455476E+02 0.15688645887E+02 0.18862384709E+02 0.21907253885E+02 0.24507934127E+02
 0.22088034091E+02 0.23101193926E+02 0.23206379041E+02 0.22391294445E+02 0.20765403382E+02
 0.18535277447E+02 0.15961137691E+02 0.13308661888E+02 0.10809564722E+02 0.86383199246E+01
 0.69041582233E+01 0.56516743791E+01 0.48630635432E+01 0.44637713598E+01 0.44105991836E+01
 0.47086415293E+01 0.53797148455E+01 0.65070145620E+01 0.81279714992E+01 0.10213510158E+02
 0.12666455476E+02 0.15321765081E+02 0.17953971499E+02 0.20298363335E+02 0.17888829584E+02
 0.18917970663E+02 0.19230000552E+02 0.18784959525E+02 0.17645233619E+02 0.15961137691E+02
 0.13938267848E+02 0.11797539646E+02 0.97397945905E+01 0.79226999893E+01 0.64508705159E+01
 0.53745511440E+01 0.46907971777E+01 0.43442934276E+01 0.42438799732E+01 0.43615318154E+01
 0.47340692187E+01 0.54580020192E+01 0.65898914873E+01 0.81279714992E+01 0.10010977391E+02
 0.12118877792E+02 0.14278078414E+02 0.16276097497E+02 0.14077326003E+02 0.15024909301E+02
 0.15435774178E+02 0.15255947253E+02 0.14512847072E+02 0.13308661888E+02 0.11797539646E+02
 0.10154350198E+02 0.85447086338E+01 0.71035336728E+01 0.59242620574E+01 0.50559401797E+01
 0.45034763733E+01 0.42281228138E+01 0.41492252911E+01 0.41762574298E+01 0.43390727970E+01
 0.47426577636E+01 0.54580020192E+01 0.65070145620E+01 0.78600830523E+01 0.94367600790E+01
 0.11109964931E+02 0.12716600245E+02 0.10865557926E+02 0.11664183783E+02 0.12084170409E+02
 0.12068721029E+02 0.11622382262E+02 0.10809564722E+02 0.97397945905E+01 0.85447086338E+01
 0.73540890858E+01 0.62771738878E+01 0.53919091653E+01 0.47409191445E+01 0.43309492447E+01
 0.41333032839E+01 0.40854573778E+01 0.40995001488E+01 0.41538152972E+01 0.43390727970E+01
 0.47340692187E+01 0.53797148455E+01 0.62738648440E+01 0.73706598944E+01 0.85837212391E+01
 0.97942423783E+01 0.83627633982E+01 0.89762742243E+01 0.93401214271E+01 0.94026825831E+01
 0.91562543008E+01 0.86383199246E+01 0.79226999893E+01 0.71035336728E+01 0.62771738878E+01
 0.55268731848E+01 0.49129199792E+01 0.44680782529E+01 0.41964334959E+01 0.40738893737E+01
 0.40501403073E+01 0.40636936415E+01 0.40995001488E+01 0.41762574298E+01 0.43615318154E+01
 0.47086415293E+01 0.52376935958E+01 0.59323656848E+01 0.67413201421E+01 0.75842286213E+01
 0.65823879092E+01 0.70048889843E+01 0.72747717332E+01 0.73503271794E+01 0.72199108646E+01
 0.69041582233E+01 0.64508705159E+01 0.59242620574E+01 0.53919091653E+01 0.49129199792E+01
 0.45295895090E+01 0.42629774409E+01 0.41115402548E+01 0.40518014470E+01 0.40412557414E+01
 0.40501403073E+01 0.40854573778E+01 0.41492252911E+01 0.42438799732E+01 0.44105991836E+01
 0.46824343146E+01 0.50668732559E+01 0.55445422240E+01 0.60710870193E+01 0.54859966370E+01
 0.57136495824E+01 0.58723735965E+01 0.59220546951E+01 0.58445495879E+01 0.56516743791E+01
 0.53745511440E+01 0.50559401797E+01 0.47409191445E+01 0.44680782529E+01 0.42629774409E+01
 0.41344839819E+01 0.40737414281E+01 0.40553027381E+01 0.40518014470E+01 0.40738893737E+01
 0.41333032839E+01 0.42281228138E+01 0.43442934276E+01 0.44637713598E+01 0.45989892027E+01
 0.47705603744E+01 0.49844821132E+01 0.52310586100E+01 0.51118103055E+01 0.51090404138E+01
 0.50966038972E+01 0.50628722401E+01 0.49906936210E+01 0.48630635432E+01 0.46907971777E+01
 0.45034763733E+01 0.43309492447E+01 0.41964334959E+01 0.41115402548E+01 0.40737414281E+01
 0.40663665273E+01 0.40737414281E+01 0.41115402548E+01 0.41964334959E+01 0.43309492447E+01
 0.45034763733E+01 0.46907971777E+01 0.48630635432E+01 0.49906936210E+01 0.50628722401E+01
 0.50966038972E+01 0.51090404138E+01 0.54859966370E+01 0.52310586100E+01 0.49844821132E+01
 0.47705603744E+01 0.45989892027E+01 0.44637713598E+01 0.43442934276E+01 0.42281228138E+01
 0.41333032839E+01 0.40738893737E+01 0.40518014470E+01 0.40553027381E+01 0.40737414281E+01
 0.41344839819E+01 0.42629774409E+01 0.44680782529E+01 0.47409191445E+01 0.50559401797E+01
 0.53745511440E+01 0.56516743791E+01 0.58445495879E+01 0.59220546951E+01 0.58723735965E+01
 0.57136495824E+01 0.65823879092E+01 0.60710870193E+01 0.55445422240E+01 0.50668732559E+01
 0.46824343146E+01 0.44105991836E+01 0.42438799732E+01 0.41492252911E+01 0.40854573778E+01
 0.40501403073E+01 0.40412557414E+01 0.40518014470E+01 0.41115402548E+01 0.42629774409E+01
 0.45295895090E+01 0.49129199792E+01 0.53919091653E+01 0.59242620574E+01 0.64508705159E+01
 0.69041582233E+01 0.72199108646E+01 0.73503271794E+01 0.72747717332E+01 0.70048889843E+01
 0.83627633982E+01 0.75842286213E+01 0.67413201421E+01 0.59323656848E+01 0.52376935958E+01
 0.47086415293E+01 0.43615318154E+01 0.41762574298E+01 0.40995001488E+01 0.40636936415E+01
 0.40501403073E+01 0.40738893737E+01 0.41964334959E+01 0.44680782529E+01 0.49129199792E+01
 0.55268731848E+01 0.62771738878E+01 0.71035336728E+01 0.79226999893E+01 0.86383199246E+01
 0.91562543008E+01 0.94026825831E+01 0.93401214271E+01 0.89762742243E+01 0.10865557926E+02
 0.97942423783E+01 0.85837212391E+01 0.73706598944E+01 0.62738648440E+01 0.53797148455E+01
 0.47340692187E+01 0.43390727970E+01 0.41538152972E+01 0.40995001488E+01 0.40854573778E+01
 0.41333032839E+01 0.43309492447E+01 0.47409191445E+01 0.53919091653E+01 0.62771738878E+01
 0.73540890858E+01 0.85447086338E+01 0.97397945905E+01 0.10809564722E+02 0.11622382262E+02
 0.12068721029E+02 0.12084170409E+02 0.11664183783E+02 0.14077326003E+02 0.12716600245E+02
 0.11109964931E+02 0.94367600790E+01 0.78600830523E+01 0.65070145620E+01 0.54580020192E+01
 0.47426577636E+01 0.43390727970E+01 0.41762574298E+01 0.41492252911E+01 0.42281228138E+01
 0.45034763733E+01 0.50559401797E+01 0.59242620574E+01 0.71035336728E+01 0.85447086338E+01
 0.10154350198E+02 0.11797539646E+02 0.13308661888E+02 0.14512847072E+02 0.15255947253E+02
 0.15435774178E+02 0.15024909301E+02 0.17888829584E+02 0.16276097497E+02 0.14278078414E+02
 0.12118877792E+02 0.10010977391E+02 0.81279714992E+01 0.65898914873E+01 0.54580020192E+01
 0.47340692187E+01 0.43615318154E+01 0.42438799732E+01 0.43442934276E+01 0.46907971777E+01
 0.53745511440E+01 0.64508705159E+01 0.79226999893E+01 0.97397945905E+01 0.11797539646E+02
 0.13938267848E+02 0.15961137691E+02 0.17645233619E+02 0.18784959525E+02 0.19230000552E+02
 0.18917970663E+02 0.22088034091E+02 0.20298363335E+02 0.17953971499E+02 0.15321765081E+02
 0.12666455476E+02 0.10213510158E+02 0.81279714992E+01 0.65070145620E+01 0.53797148455E+01
 0.47086415293E+01 0.44105991836E+01 0.44637713598E+01 0.48630635432E+01 0.56516743791E+01
 0.69041582233E+01 0.86383199246E+01 0.10809564722E+02 0.13308661888E+02 0.15961137691E+02
 0.18535277447E+02 0.20765403382E+02 0.22391294445E+02 0.23206379041E+02 0.23101193926E+02
 0.26362441081E+02 0.24507934127E+02 0.21907253885E+02 0.18862384709E+02 0.15688645887E+02
 0.12666455476E+02 0.10010977391E+02 0.78600830523E+01 0.62738648440E+01 0.52376935958E+01
 0.46824343146E+01 0.45989892027E+01 0.49906936210E+01 0.58445495879E+01 0.72199108646E+01
 0.91562543008E+01 0.11622382262E+02 0.14512847072E+02 0.17645233619E+02 0.20765403382E+02
 0.23569202947E+02 0.25743780361E+02 0.27022402501E+02 0.27238542644E+02 0.30321898847E+02
 0.28542868120E+02 0.25818787258E+02 0.22472640213E+02 0.18862384709E+02 0.15321765081E+02
 0.12118877792E+02 0.94367600790E+01 0.73706598944E+01 0.59323656848E+01 0.50668732559E+01
 0.47705603744E+01 0.50628722401E+01 0.59220546951E+01 0.73503271794E+01 0.94026825831E+01
 0.12068721029E+02 0.15255947253E+02 0.18784959525E+02 0.22391294445E+02 0.25743780361E+02
 0.28485071065E+02 0.30290409535E+02 0.30930796789E+02 0.33547468633E+02 0.31994146054E+02
 0.29309681143E+02 0.25818787258E+02 0.21907253885E+02 0.17953971499E+02 0.14278078414E+02
 0.11109964931E+02 0.85837212391E+01 0.67413201421E+01 0.55445422240E+01 0.49844821132E+01
 0.50966038972E+01 0.58723735965E+01 0.72747717332E+01 0.93401214271E+01 0.12084170409E+02
 0.15435774178E+02 0.19230000552E+02 0.23206379041E+02 0.27022402501E+02 0.30290409535E+02
 0.32636794547E+02 0.33771361803E+02 0.35660701766E+02 0.34468365957E+02 0.31994146054E+02
 0.28542868120E+02 0.24507934127E+02 0.20298363335E+02 0.16276097497E+02 0.12716600245E+02
 0.97942423783E+01 0.75842286213E+01 0.60710870193E+01 0.52310586100E+01 0.51090404138E+01
 0.57136495824E+01 0.70048889843E+01 0.89762742243E+01 0.11664183783E+02 0.15024909301E+02
 0.18917970663E+02 0.23101193926E+02 0.27238542644E+02 0.30930796789E+02 0.33771361803E+02
 0.35417837524E+02 0.35660701766E+02 0.35417837524E+02 0.33771361803E+02 0.30930796789E+02
 0.27238542644E+02 0.23101193926E+02 0.18917970663E+02 0.15024909301E+02 0.11664183783E+02
 0.89762742243E+01 0.70048889843E+01 0.57136495824E+01 0.51090404138E+01 0.52310586100E+01
 0.60710870193E+01 0.75842286213E+01 0.97942423783E+01 0.12716600245E+02 0.16276097497E+02
 0.20298363335E+02 0.24507934127E+02 0.28542868120E+02 0.31994146054E+02 0.34468365957E+02
 0.35417837524E+02 0.35660701722E+02 0.34468365862E+02 0.31994145891E+02 0.28542867868E+02
 0.24507933770E+02 0.20298362872E+02 0.16276096952E+02 0.12716599663E+02 0.97942418206E+01
 0.75842281574E+01 0.60710867118E+01 0.52310585020E+01 0.51090405202E+01 0.57136498863E+01
 0.70048894407E+01 0.89762747696E+01 0.11664184347E+02 0.15024909822E+02 0.18917971096E+02
 0.23101194249E+02 0.27238542859E+02 0.30930796910E+02 0.33771361854E+02 0.33771361803E+02
 0.34468365862E+02 0.33771361713E+02 0.31770861312E+02 0.28718446317E+02 0.24973462822E+02
 0.20933334574E+02 0.16967898980E+02 0.13373353599E+02 0.10350893041E+02 0.80044374661E+01
 0.63467674012E+01 0.53321284215E+01 0.49857310019E+01 0.53321287806E+01 0.63467680681E+01
 0.80044383486E+01 0.10350894025E+02 0.13373354571E+02 0.16967899846E+02 0.20933335276E+02
 0.24973463338E+02 0.28718446659E+02 0.31770861511E+02 0.30930796789E+02 0.31994145891E+02
 0.31770861312E+02 0.30290409406E+02 0.27742765665E+02 0.24437180988E+02 0.20739790732E+02
 0.17009178586E+02 0.13546709134E+02 0.10569622064E+02 0.82042125584E+01 0.64896457004E+01
 0.53865062790E+01 0.48716392570E+01 0.49763922300E+01 0.56936387983E+01 0.69963449421E+01
 0.89319934309E+01 0.11515879457E+02 0.14679546896E+02 0.18265176357E+02 0.22024442340E+02
 0.25631576824E+02 0.28718446591E+02 0.27238542644E+02 0.28542867868E+02 0.28718446317E+02
 0.27742765665E+02 0.25743780229E+02 0.22971501194E+02 0.19745729969E+02 0.16396616431E+02
 0.13214743586E+02 0.10420676769E+02 0.81540499180E+01 0.64746419831E+01 0.53666103205E+01
 0.47667383503E+01 0.46812773438E+01 0.51181207087E+01 0.60599434783E+01 0.75566975931E+01
 0.96476735028E+01 0.12296584153E+02 0.15387172292E+02 0.18720994264E+02 0.22024442256E+02
 0.24973463181E+02 0.23101193926E+02 0.24507933770E+02 0.24973462822E+02 0.24437180988E+02
 0.22971501194E+02 0.20765403309E+02 0.18083649155E+02 0.15215154793E+02 0.12425933743E+02
 0.99274098011E+01 0.78624306443E+01 0.63036369454E+01 0.52561263902E+01 0.46606773924E+01
 0.44621523088E+01 0.46691669854E+01 0.52782627818E+01 0.63475859142E+01 0.79366437763E+01
 0.10037471716E+02 0.12571343707E+02 0.15387172206E+02 0.18265176181E+02 0.20933335016E+02
 0.18917970663E+02 0.20298362872E+02 0.20933334574E+02 0.20739790732E+02 0.19745729969E+02
 0.18083649155E+02 0.15961137737E+02 0.13618669544E+02 0.11287822273E+02 0.91605570833E+01
 0.73734527538E+01 0.60037264388E+01 0.50703676076E+01 0.45354381224E+01 0.43132400402E+01
 0.43654453890E+01 0.46998496071E+01 0.53879581319E+01 0.65061218711E+01 0.80711511696E+01
 0.10037471646E+02 0.12296583991E+02 0.14679546631E+02 0.16967899485E+02 0.15024909301E+02
 0.16276096952E+02 0.16967898980E+02 0.17009178586E+02 0.16396616431E+02 0.15215154793E+02
 0.13618669544E+02 0.11797539824E+02 0.99436523726E+01 0.82224453647E+01 0.67566884390E+01
 0.56207221664E+01 0.48401766737E+01 0.43926422111E+01 0.42086120352E+01 0.41938325347E+01
 0.43342574833E+01 0.47157931754E+01 0.54270681100E+01 0.65061218279E+01 0.79366436591E+01
 0.96476732838E+01 0.11515879122E+02 0.13373354127E+02 0.11664183783E+02 0.12716599663E+02
 0.13373353599E+02 0.13546709134E+02 0.13214743586E+02 0.12425933743E+02 0.11287822273E+02
 0.99436523726E+01 0.85447088955E+01 0.72263569447E+01 0.60925647404E+01 0.52090445723E+01
 0.46017570892E+01 0.42571399037E+01 0.41228893276E+01 0.41114521986E+01 0.41517900750E+01
 0.43219601586E+01 0.47157931556E+01 0.53879580680E+01 0.63475857730E+01 0.75566973443E+01
 0.89319930589E+01 0.10350893539E+02 0.89762742243E+01 0.97942418206E+01 0.10350893041E+02
 0.10569622064E+02 0.10420676769E+02 0.99274098011E+01 0.91605570833E+01 0.82224453647E+01
 0.72263569447E+01 0.62771741519E+01 0.54575951185E+01 0.48209310601E+01 0.43887108424E+01
 0.41505662120E+01 0.40652358992E+01 0.40639561683E+01 0.40876892624E+01 0.41517900625E+01
 0.43342574525E+01 0.46998495353E+01 0.52782626369E+01 0.60599432308E+01 0.69963445772E+01
 0.80044378753E+01 0.70048889843E+01 0.75842281574E+01 0.80044374661E+01 0.82042125584E+01
 0.81540499180E+01 0.78624306443E+01 0.73734527538E+01 0.67566884390E+01 0.60925647404E+01
 0.54575951185E+01 0.49129201742E+01 0.44975017006E+01 0.42253025764E+01 0.40849746340E+01
 0.40412149375E+01 0.40413630070E+01 0.40639561424E+01 0.41114521619E+01 0.41938324855E+01
 0.43654453101E+01 0.46691668506E+01 0.51181204927E+01 0.56936384877E+01 0.63467676695E+01
 0.57136495824E+01 0.60710867118E+01 0.63467674012E+01 0.64896457004E+01 0.64746419831E+01
 0.63036369454E+01 0.60037264388E+01 0.56207221664E+01 0.52090445723E+01 0.48209310601E+01
 0.44975017006E+01 0.42629775343E+01 0.41220296124E+01 0.40595898391E+01 0.40426903773E+01
 0.40412148847E+01 0.40652358201E+01 0.41228892411E+01 0.42086119479E+01 0.43132399455E+01
 0.44621521907E+01 0.46812771840E+01 0.49763920161E+01 0.53321285132E+01 0.51090404138E+01
 0.52310585020E+01 0.53321284215E+01 0.53865062790E+01 0.53666103205E+01 0.52561263902E+01
 0.50703676076E+01 0.48401766737E+01 0.46017570892E+01 0.43887108424E+01 0.42253025764E+01
 0.41220296124E+01 0.40737414207E+01 0.40601098307E+01 0.40595897604E+01 0.40849744988E+01
 0.41505660480E+01 0.42571397374E+01 0.43926420617E+01 0.45354379985E+01 0.46606772917E+01
 0.47667382628E+01 0.48716391700E+01 0.49857309060E+01 0.52310586100E+01 0.51090405202E+01
 0.49857310019E+01 0.48716392570E+01 0.47667383503E+01 0.46606773924E+01 0.45354381224E+01
 0.43926422111E+01 0.42571399037E+01 0.41505662120E+01 0.40849746340E+01 0.40595898391E+01
 0.40601098307E+01 0.40737413314E+01 0.41220294383E+01 0.42253023375E+01 0.43887105703E+01
 0.46017568210E+01 0.48401764447E+01 0.50703674441E+01 0.52561263049E+01 0.53666103113E+01
 0.53865063314E+01 0.53321285132E+01 0.60710870193E+01 0.57136498863E+01 0.53321287806E+01
 0.49763922300E+01 0.46812773438E+01 0.44621523088E+01 0.43132400402E+01 0.42086120352E+01
 0.41228893276E+01 0.40652358992E+01 0.40412149375E+01 0.40426903773E+01 0.40595897604E+01
 0.41220294383E+01 0.42629772647E+01 0.44975013550E+01 0.48209306760E+01 0.52090441992E+01
 0.56207218561E+01 0.60037262348E+01 0.63036368742E+01 0.64746420490E+01 0.64896458852E+01
 0.63467676695E+01 0.75842286213E+01 0.70048894407E+01 0.63467680681E+01 0.56936387983E+01
 0.51181207087E+01 0.46691669854E+01 0.43654453890E+01 0.41938325347E+01 0.41114521986E+01
 0.40639561683E+01 0.40413630070E+01 0.40412148847E+01 0.40849744988E+01 0.42253023375E+01
 0.44975013550E+01 0.49129197424E+01 0.54575946445E+01 0.60925642846E+01 0.67566880669E+01
 0.73734525225E+01 0.78624305901E+01 0.81540500486E+01 0.82042128518E+01 0.80044378753E+01
 0.97942423783E+01 0.89762747696E+01 0.80044383486E+01 0.69963449421E+01 0.60599434783E+01
 0.52782627818E+01 0.46998496071E+01 0.43342574833E+01 0.41517900750E+01 0.40876892624E+01
 0.40639561424E+01 0.40652358201E+01 0.41505660480E+01 0.43887105703E+01 0.48209306760E+01
 0.54575946445E+01 0.62771736361E+01 0.72263564539E+01 0.82224449718E+01 0.91605568520E+01
 0.99274097721E+01 0.10420676951E+02 0.10569622431E+02 0.10350893539E+02 0.12716600245E+02
 0.11664184347E+02 0.10350894025E+02 0.89319934309E+01 0.75566975931E+01 0.63475859142E+01
 0.53879581319E+01 0.47157931754E+01 0.43219601586E+01 0.41517900625E+01 0.41114521619E+01
 0.41228892411E+01 0.42571397374E+01 0.46017568210E+01 0.52090441992E+01 0.60925642846E+01
 0.72263564539E+01 0.85447084355E+01 0.99436520147E+01 0.11287822079E+02 0.12425933752E+02
 0.13214743804E+02 0.13546709535E+02 0.13373354127E+02 0.16276097497E+02 0.15024909822E+02
 0.13373354571E+02 0.11515879457E+02 0.96476735028E+01 0.79366437763E+01 0.65061218711E+01
 0.54270681100E+01 0.47157931556E+01 0.43342574525E+01 0.41938324855E+01 0.42086119479E+01
 0.43926420617E+01 0.48401764447E+01 0.56207218561E+01 0.67566880669E+01 0.82224449718E+01
 0.99436520147E+01 0.11797539561E+02 0.13618669428E+02 0.15215154856E+02 0.16396616675E+02
 0.17009178985E+02 0.16967899485E+02 0.20298363335E+02 0.18917971096E+02 0.16967899846E+02
 0.14679546896E+02 0.12296584153E+02 0.10037471716E+02 0.80711511696E+01 0.65061218279E+01
 0.53879580680E+01 0.46998495353E+01 0.43654453101E+01 0.43132399455E+01 0.45354379985E+01
 0.50703674441E+01 0.60037262348E+01 0.73734525225E+01 0.91605568520E+01 0.11287822079E+02
 0.13618669428E+02 0.15961137734E+02 0.18083649284E+02 0.19745730230E+02 0.20739791103E+02
 0.20933335016E+02 0.24507934127E+02 0.23101194249E+02 0.20933335276E+02 0.18265176357E+02
 0.15387172292E+02 0.12571343707E+02 0.10037471646E+02 0.79366436591E+01 0.63475857730E+01
 0.52782626369E+01 0.46691668506E+01 0.44621521907E+01 0.46606772917E+01 0.52561263049E+01
 0.63036368742E+01 0.78624305901E+01 0.99274097721E+01 0.12425933752E+02 0.15215154856E+02
 0.18083649284E+02 0.20765403512E+02 0.22971501466E+02 0.24437181316E+02 0.24973463181E+02
 0.28542868120E+02 0.27238542859E+02 0.24973463338E+02 0.22024442340E+02 0.18720994264E+02
 0.15387172206E+02 0.12296583991E+02 0.96476732838E+01 0.75566973443E+01 0.60599432308E+01
 0.51181204927E+01 0.46812771840E+01 0.47667382628E+01 0.53666103113E+01 0.64746420490E+01
 0.81540500486E+01 0.10420676951E+02 0.13214743804E+02 0.16396616675E+02 0.19745730230E+02
 0.22971501466E+02 0.25743780509E+02 0.27742765947E+02 0.28718446591E+02 0.31994146054E+02
 0.30930796910E+02 0.28718446659E+02 0.25631576824E+02 0.22024442256E+02 0.18265176181E+02
 0.14679546631E+02 0.11515879122E+02 0.89319930589E+01 0.69963445772E+01 0.56936384877E+01
 0.49763920161E+01 0.48716391700E+01 0.53865063314E+01 0.64896458852E+01 0.82042128518E+01
 0.10569622431E+02 0.13546709535E+02 0.17009178985E+02 0.20739791103E+02 0.24437181316E+02
 0.27742765947E+02 0.30290409644E+02 0.31770861511E+02 0.34468365957E+02 0.33771361854E+02
 0.31770861511E+02 0.28718446591E+02 0.24973463181E+02 0.20933335016E+02 0.16967899485E+02
 0.13373354127E+02 0.10350893539E+02 0.80044378753E+01 0.63467676695E+01 0.53321285132E+01
 0.49857309060E+01 0.53321285132E+01 0.63467676695E+01 0.80044378753E+01 0.10350893539E+02
 0.13373354127E+02 0.16967899485E+02 0.20933335016E+02 0.24973463181E+02 0.28718446591E+02
 0.31770861511E+02 0.33771361854E+02 0.33547468633E+02 0.33771361803E+02 0.32636794547E+02
 0.30290409535E+02 0.27022402501E+02 0.23206379041E+02 0.19230000552E+02 0.15435774178E+02
 0.12084170409E+02 0.93401214271E+01 0.72747717332E+01 0.58723735965E+01 0.50966038972E+01
 0.49844821132E+01 0.55445422240E+01 0.67413201421E+01 0.85837212391E+01 0.11109964931E+02
 0.14278078414E+02 0.17953971499E+02 0.21907253885E+02 0.25818787258E+02 0.29309681143E+02
 0.31994146054E+02 0.33771361803E+02 0.34468365862E+02 0.33771361713E+02 0.31770861312E+02
 0.28718446317E+02 0.24973462822E+02 0.20933334574E+02 0.16967898980E+02 0.13373353599E+02
 0.10350893041E+02 0.80044374661E+01 0.63467674012E+01 0.53321284215E+01 0.49857310019E+01
 0.53321287806E+01 0.63467680681E+01 0.80044383486E+01 0.10350894025E+02 0.13373354571E+02
 0.16967899846E+02 0.20933335276E+02 0.24973463338E+02 0.28718446659E+02 0.31770861511E+02
 0.32636794547E+02 0.33771361713E+02 0.33547468456E+02 0.31994145772E+02 0.29309680727E+02
 0.25818786686E+02 0.21907253150E+02 0.17953970626E+02 0.14278077461E+02 0.11109963987E+02
 0.85837204083E+01 0.67413195282E+01 0.55445419077E+01 0.49844821361E+01 0.50966042527E+01
 0.58723742310E+01 0.72747725568E+01 0.93401223313E+01 0.12084171287E+02 0.15435774944E+02
 0.19230001154E+02 0.23206379461E+02 0.27022402750E+02 0.30290409644E+02 0.30290409535E+02
 0.31770861312E+02 0.31994145772E+02 0.30930796538E+02 0.28718446186E+02 0.25631576239E+02
 0.22024441562E+02 0.18265175404E+02 0.14679545819E+02 0.11515878346E+02 0.89319923981E+01
 0.69963441081E+01 0.56936382679E+01 0.49763920723E+01 0.48716394915E+01 0.53865068712E+01
 0.64896465686E+01 0.82042135901E+01 0.10569623137E+02 0.13546710139E+02 0.17009179441E+02
 0.20739791395E+02 0.24437181451E+02 0.27742765947E+02 0.27022402501E+02 0.28718446317E+02
 0.29309680727E+02 0.28718446186E+02 0.27022402230E+02 0.24437180893E+02 0.21270213957E+02
 0.17860799227E+02 0.14524211563E+02 0.11512997222E+02 0.89991530957E+01 0.70717795605E+01
 0.57409591000E+01 0.49492024340E+01 0.46792924973E+01 0.49492027425E+01 0.57409596783E+01
 0.70717803384E+01 0.89991539849E+01 0.11512998131E+02 0.14524212412E+02 0.17860799959E+02
 0.21270214539E+02 0.24437181316E+02 0.23206379041E+02 0.24973462822E+02 0.25818786686E+02
 0.25631576239E+02 0.24437180893E+02 0.22391294264E+02 0.19745729972E+02 0.16797268309E+02
 0.13835540844E+02 0.11103496006E+02 0.87762673175E+01 0.69555087138E+01 0.56712692252E+01
 0.48847955305E+01 0.45270442515E+01 0.46009931323E+01 0.51028927762E+01 0.60537307351E+01
 0.75258980893E+01 0.95348306473E+01 0.12025106210E+02 0.14867794735E+02 0.17860799812E+02
 0.20739791103E+02 0.19230000552E+02 0.20933334574E+02 0.21907253150E+02 0.22024441562E+02
 0.21270213957E+02 0.19745729972E+02 0.17645233651E+02 0.15215154931E+02 0.12708379036E+02
 0.10346512600E+02 0.82971994810E+01 0.66657717136E+01 0.54950955246E+01 0.47672212407E+01
 0.44069787339E+01 0.43580853392E+01 0.46216917510E+01 0.52297039013E+01 0.62682612565E+01
 0.77748603941E+01 0.97238502058E+01 0.12025106079E+02 0.14524212122E+02 0.17009178985E+02
 0.15435774178E+02 0.16967898980E+02 0.17953970626E+02 0.18265175404E+02 0.17860799227E+02
 0.16797268309E+02 0.15215154931E+02 0.13308662184E+02 0.11287822524E+02 0.93446544148E+01
 0.76306588228E+01 0.62466777509E+01 0.52409045702E+01 0.46095440722E+01 0.42976008668E+01
 0.42108222076E+01 0.43101723663E+01 0.46406183683E+01 0.53001370740E+01 0.63446854722E+01
 0.77748603009E+01 0.95348304121E+01 0.11512997716E+02 0.13546709535E+02 0.12084170409E+02
 0.13373353599E+02 0.14278077461E+02 0.14679545819E+02 0.14524211563E+02 0.13835540844E+02
 0.12708379036E+02 0.11287822524E+02 0.97397950801E+01 0.82224456511E+01 0.68652975971E+01
 0.57582941395E+01 0.49483280486E+01 0.44390348372E+01 0.41912661905E+01 0.41252684015E+01
 0.41466295652E+01 0.42858342919E+01 0.46470951385E+01 0.53001370246E+01 0.62682611084E+01
 0.75258977864E+01 0.89991534850E+01 0.10569622431E+02 0.93401214271E+01 0.10350893041E+02
 0.11109963987E+02 0.11515878346E+02 0.11512997222E+02 0.11103496006E+02 0.10346512600E+02
 0.93446544148E+01 0.82224456511E+01 0.71035341964E+01 0.60925649699E+01 0.52643631905E+01
 0.46594700412E+01 0.42831976504E+01 0.41060483117E+01 0.40657266589E+01 0.40782050799E+01
 0.41239934488E+01 0.42858342689E+01 0.46406182953E+01 0.52297037271E+01 0.60537304027E+01
 0.70717798062E+01 0.82042128518E+01 0.72747717332E+01 0.80044374661E+01 0.85837204083E+01
 0.89319923981E+01 0.89991530957E+01 0.87762673175E+01 0.82971994810E+01 0.76306588228E+01
 0.68652975971E+01 0.60925649699E+01 0.53919095618E+01 0.48209311731E+01 0.44105155887E+01
 0.41633727686E+01 0.40544971047E+01 0.40334549896E+01 0.40442764329E+01 0.40782050509E+01
 0.41466295145E+01 0.43101722707E+01 0.46216915651E+01 0.51028924493E+01 0.57409591746E+01
 0.64896458852E+01 0.58723735965E+01 0.63467674012E+01 0.67413195282E+01 0.69963441081E+01
 0.70717795605E+01 0.69555087138E+01 0.66657717136E+01 0.62466777509E+01 0.57582941395E+01
 0.52643631905E+01 0.48209311731E+01 0.44680784367E+01 0.42253025652E+01 0.40899151372E+01
 0.40376565715E+01 0.40264952327E+01 0.40334549247E+01 0.40657265644E+01 0.41252682905E+01
 0.42108220684E+01 0.43580851413E+01 0.46009928391E+01 0.49492023273E+01 0.53865063314E+01
 0.50966038972E+01 0.53321284215E+01 0.55445419077E+01 0.56936382679E+01 0.57409591000E+01
 0.56712692252E+01 0.54950955246E+01 0.52409045702E+01 0.49483280486E+01 0.46594700412E+01
 0.44105155887E+01 0.42253025652E+01 0.41115402271E+01 0.40595897308E+01 0.40435122884E+01
 0.40376564601E+01 0.40544969230E+01 0.41060480982E+01 0.41912659714E+01 0.42976006513E+01
 0.44069785147E+01 0.45270440119E+01 0.46792922202E+01 0.48716391700E+01 0.49844821132E+01
 0.49857310019E+01 0.49844821361E+01 0.49763920723E+01 0.49492024340E+01 0.48847955305E+01
 0.47672212407E+01 0.46095440722E+01 0.44390348372E+01 0.42831976504E+01 0.41633727686E+01
 0.40899151372E+01 0.40595897308E+01 0.40553025412E+01 0.40595895872E+01 0.40899148720E+01
 0.41633724206E+01 0.42831972674E+01 0.44390344663E+01 0.46095437507E+01 0.47672209905E+01
 0.48847953566E+01 0.49492023273E+01 0.49763920161E+01 0.55445422240E+01 0.53321287806E+01
 0.50966042527E+01 0.48716394915E+01 0.46792924973E+01 0.45270442515E+01 0.44069787339E+01
 0.42976008668E+01 0.41912661905E+01 0.41060483117E+01 0.40544971047E+01 0.40376565715E+01
 0.40435122884E+01 0.40595895872E+01 0.41115399277E+01 0.42253021243E+01 0.44105150478E+01
 0.46594694629E+01 0.49483275057E+01 0.52409041316E+01 0.54950952419E+01 0.56712691236E+01
 0.57409591746E+01 0.56936384877E+01 0.67413201421E+01 0.63467680681E+01 0.58723742310E+01
 0.53865068712E+01 0.49492027425E+01 0.46009931323E+01 0.43580853392E+01 0.42108222076E+01
 0.41252684015E+01 0.40657266589E+01 0.40334549896E+01 0.40264952327E+01 0.40376564601E+01
 0.40899148720E+01 0.42253021243E+01 0.44680778312E+01 0.48209304510E+01 0.52643624319E+01
 0.57582934428E+01 0.62466772138E+01 0.66657714125E+01 0.69555086886E+01 0.70717798062E+01
 0.69963445772E+01 0.85837212391E+01 0.80044383486E+01 0.72747725568E+01 0.64896465686E+01
 0.57409596783E+01 0.51028927762E+01 0.46216917510E+01 0.43101723663E+01 0.41466295652E+01
 0.40782050799E+01 0.40442764329E+01 0.40334549247E+01 0.40544969230E+01 0.41633724206E+01
 0.44105150478E+01 0.48209304510E+01 0.53919087147E+01 0.60925640927E+01 0.68652968078E+01
 0.76306582385E+01 0.82971991933E+01 0.87762673729E+01 0.89991534850E+01 0.89319930589E+01
 0.11109964931E+02 0.10350894025E+02 0.93401223313E+01 0.82042135901E+01 0.70717803384E+01
 0.60537307351E+01 0.52297039013E+01 0.46406183683E+01 0.42858342919E+01 0.41239934488E+01
 0.40782050509E+01 0.40657265644E+01 0.41060480982E+01 0.42831972674E+01 0.46594694629E+01
 0.52643624319E+01 0.60925640927E+01 0.71035333031E+01 0.82224448665E+01 0.93446538615E+01
 0.10346512371E+02 0.11103496147E+02 0.11512997716E+02 0.11515879122E+02 0.14278078414E+02
 0.13373354571E+02 0.12084171287E+02 0.10569623137E+02 0.89991539849E+01 0.75258980893E+01
 0.62682612565E+01 0.53001370740E+01 0.46470951385E+01 0.42858342689E+01 0.41466295145E+01
 0.41252682905E+01 0.41912659714E+01 0.44390344663E+01 0.49483275057E+01 0.57582934428E+01
 0.68652968078E+01 0.82224448665E+01 0.97397944164E+01 0.11287822093E+02 0.12708378919E+02
 0.13835541076E+02 0.14524212122E+02 0.14679546631E+02 0.17953971499E+02 0.16967899846E+02
 0.15435774944E+02 0.13546710139E+02 0.11512998131E+02 0.95348306473E+01 0.77748603941E+01
 0.63446854722E+01 0.53001370246E+01 0.46406182953E+01 0.43101722707E+01 0.42108220684E+01
 0.42976006513E+01 0.46095437507E+01 0.52409041316E+01 0.62466772138E+01 0.76306582385E+01
 0.93446538615E+01 0.11287822093E+02 0.13308661959E+02 0.15215154972E+02 0.16797268635E+02