    1    1    1    2
  0.4000000E+01  0.1732051E-09  0.1732051E-09  0.1732051E-09  0.5000000E-15
  1.000000000000000E-004
  CAR 
 Fe BCC                                  
      8     26     12
 
  0.6250000E-01  0.6250000E-01  0.6250000E-01  0.1562500E-01
    1       15.659177     15.659183   1.000000   1.000000
    2       16.689171     16.689153   1.000000   1.000000
    3       16.689171     16.689153   1.000000   1.000000
    4       20.930553     20.930537   1.000000   1.000000
    5       23.314182     23.314141   1.020710   1.020709
    6       23.314182     23.314141   0.772550   0.772568
    7       59.866723     59.866714   0.000000   0.000000
    8       59.866723     59.866714   0.000000   0.000000
    9       61.496285     61.496279   0.000000   0.000000
   10       68.701735     68.701726   0.000000   0.000000
   11       68.701735     68.701726   0.000000   0.000000
   12       69.642093     69.642088   0.000000   0.000000
 
  0.1875000E+00  0.6250000E-01  0.6250000E-01  0.4687500E-01
    1       13.842555     13.842540   1.000000   1.000000
    2       14.750752     14.750736   1.000000   1.000000
    3       19.360968     19.360962   1.000000   1.000000
    4       23.139508     23.139472   1.001310   1.001310
    5       24.233623     24.233582   0.608363   0.608397
    6       26.313424     26.313412  -0.016117  -0.016118
    7       57.144593     57.144581   0.000000   0.000000
    8       57.308163     57.308152   0.000000   0.000000
    9       65.717515     65.717509   0.000000   0.000000
   10       68.385180     68.385181   0.000000   0.000000
   11       70.154757     70.154747   0.000000   0.000000
   12       72.330079     72.330072   0.000000   0.000000
 
  0.3125000E+00  0.6250000E-01  0.6250000E-01  0.4687500E-01
    1       11.034424     11.034409   1.000000   1.000000
    2       13.260885     13.260870   1.000000   1.000000
    3       23.820521     23.820505   0.999906   0.999906
    4       24.128704     24.128675   0.959607   0.959619
    5       25.075808     25.075767   0.003552   0.003554
    6       32.171738     32.171728   0.000000   0.000000
    7       53.006621     53.006610   0.000000   0.000000
    8       53.525169     53.525158   0.000000   0.000000
    9       65.650994     65.651002   0.000000   0.000000
   10       70.296669     70.296662   0.000000   0.000000
   11       71.998349     71.998339   0.000000   0.000000
   12       76.263032     76.263028   0.000000   0.000000
 
  0.4375000E+00  0.6250000E-01  0.6250000E-01  0.2343750E-01
    1        9.926249      9.926233   1.000000   1.000000
    2       12.718108     12.718093   1.000000   1.000000
    3       24.582219     24.582185   0.991321   0.991325
    4       25.479234     25.479192   0.029655   0.029687
    5       26.198628     26.198615   0.000000   0.000000
    6       35.181693     35.181684   0.000000   0.000000
    7       50.364676     50.364666   0.000000   0.000000
    8       51.851228     51.851217   0.000000   0.000000
    9       64.123921     64.123931   0.000000   0.000000
   10       71.338368     71.338359   0.000000   0.000000
   11       73.447418     73.447411   0.000000   0.000000
   12       78.786908     78.786908   0.000000   0.000000
 
 -0.6250000E-01  0.6250000E-01  0.6250000E-01  0.1171875E-01
    1       14.582436     14.582446   1.000000   1.000000
    2       17.790527     17.790509   1.000000   1.000000
    3       17.790527     17.790509   1.000000   1.000000
    4       18.200994     18.200976   1.000000   1.000000
    5       22.728896     22.728856   1.000005   1.000005
    6       24.121960     24.121918   0.764161   0.764190
    7       59.237474     59.237466   0.000000   0.000000
    8       60.792896     60.792890   0.000000   0.000000
    9       60.792896     60.792890   0.000000   0.000000
   10       68.058959     68.058949   0.000000   0.000000
   11       68.671231     68.671222   0.000000   0.000000
   12       68.671231     68.671222   0.000000   0.000000
 
  0.1875000E+00  0.1875000E+00  0.6250000E-01  0.4687500E-01
    1       13.078516     13.078502   1.000000   1.000000
    2       14.087936     14.087918   1.000000   1.000000
    3       19.552392     19.552384   1.000025   1.000025
    4       23.624305     23.624270   1.037494   1.037498
    5       25.313764     25.313725  -0.015154  -0.015152
    6       33.153550     33.153539  -0.001158  -0.001158
    7       54.074182     54.074170   0.000000   0.000000
    8       54.785558     54.785547   0.000000   0.000000
    9       65.519489     65.519497   0.000000   0.000000
   10       69.072065     69.072060   0.000000   0.000000
   11       73.290249     73.290239   0.000000   0.000000
   12       73.610250     73.610241   0.000000   0.000000
 
  0.3125000E+00  0.1875000E+00  0.6250000E-01  0.9375000E-01
    1       12.106030     12.106016   1.000000   1.000000
    2       13.857417     13.857401   1.000000   1.000000
    3       20.884429     20.884413   1.000106   1.000106
    4       24.519866     24.519831   0.536727   0.536767
    5       25.874045     25.874008  -0.000271  -0.000271
    6       39.038956     39.038945   0.000000   0.000000
    7       50.110236     50.110225   0.000000   0.000000
    8       52.567504     52.567493   0.000000   0.000000
    9       62.645577     62.645587   0.000000   0.000000
   10       72.168353     72.168348   0.000000   0.000000
   11       75.013262     75.013252   0.000000   0.000000
   12       77.374803     77.374797   0.000000   0.000000
 
 -0.1875000E+00  0.1875000E+00  0.6250000E-01  0.4687500E-01
    1       15.047897     15.047889   1.000000   1.000000
    2       16.374705     16.374688   1.000000   1.000000
    3       19.044355     19.044348   1.000000   1.000000
    4       20.898107     20.898089   1.000000   1.000000
    5       21.423088     21.423054   1.114075   1.114071
    6       25.048102     25.048063   0.060253   0.060266
    7       58.338517     58.338504   0.000000   0.000000
    8       60.394995     60.394986   0.000000   0.000000
    9       64.200872     64.200866   0.000000   0.000000
   10       67.596376     67.596367   0.000000   0.000000
   11       68.879648     68.879642   0.000000   0.000000
   12       70.813995     70.813988   0.000000   0.000000
 
  0.3125000E+00  0.3125000E+00  0.6250000E-01  0.1562500E-01
    1       12.348850     12.348837   1.000000   1.000000
    2       17.169895     17.169878   1.000000   1.000000
    3       17.169895     17.169878   1.000010   1.000010
    4       25.333752     25.333716  -0.012990  -0.012977
    5       25.333752     25.333716   0.000000   0.000000
    6       45.491570     45.491559   0.000000   0.000000
    7       45.491570     45.491559   0.000000   0.000000
    8       51.760644     51.760637   0.000000   0.000000
    9       61.689172     61.689180   0.000000   0.000000
   10       75.053919     75.053917   0.000000   0.000000
   11       75.053919     75.053917   0.000000   0.000000
   12       76.478248     76.478236   0.000000   0.000000
 
 -0.3125000E+00  0.3125000E+00  0.6250000E-01  0.4687500E-01
    1       11.865004     11.864988   1.000000   1.000000
    2       14.474612     14.474596   1.000000   1.000000
    3       21.266583     21.266555   1.000050   1.000050
    4       23.716170     23.716144   1.000700   1.000701
    5       25.414137     25.414117   0.091038   0.091042
    6       27.587364     27.587346  -0.003314  -0.003314
    7       55.532604     55.532591   0.000000   0.000000
    8       55.754672     55.754661   0.000000   0.000000
    9       66.346849     66.346851   0.000000   0.000000
   10       69.368817     69.368809   0.000000   0.000000
   11       70.279131     70.279126   0.000000   0.000000
   12       75.698961     75.698956   0.000000   0.000000
 
 -0.1875000E+00  0.3125000E+00  0.6250000E-01  0.4687500E-01
    1       14.371161     14.371148   1.000000   1.000000
    2       15.118435     15.118412   1.000000   1.000000
    3       19.185692     19.185681   1.000000   1.000000
    4       20.808878     20.808850   1.000022   1.000022
    5       24.575197     24.575171   0.371898   0.371913
    6       28.367247     28.367226  -0.013516  -0.013517
    7       56.861028     56.861014   0.000000   0.000000
    8       58.204479     58.204469   0.000000   0.000000
    9       65.504656     65.504653   0.000000   0.000000
   10       66.995276     66.995274   0.000000   0.000000
   11       71.905061     71.905052   0.000000   0.000000
   12       73.665418     73.665411   0.000000   0.000000
 
 -0.4375000E+00  0.4375000E+00  0.6250000E-01  0.4687500E-01
    1        9.577614      9.577597   1.000000   1.000000
    2       13.277031     13.277016   1.000000   1.000000
    3       22.898090     22.898058   1.002100   1.002099
    4       24.180520     24.180487   0.936924   0.936936
    5       29.189795     29.189771  -0.000857  -0.000857
    6       32.396895     32.396889   0.000000   0.000000
    7       51.454275     51.454264   0.000000   0.000000
    8       52.657504     52.657492   0.000000   0.000000
    9       64.598488     64.598497   0.000000   0.000000
   10       70.721644     70.721633   0.000000   0.000000
   11       72.988696     72.988691   0.000000   0.000000
   12       76.864707     76.864707   0.000000   0.000000
 
 -0.3125000E+00  0.4375000E+00  0.6250000E-01  0.9375000E-01
    1       11.900253     11.900236   1.000000   1.000000
    2       14.303840     14.303822   1.000000   1.000000
    3       19.602018     19.601994   1.000110   1.000110
    4       22.655854     22.655827   1.032329   1.032326
    5       26.803925     26.803899  -0.011739  -0.011740
    6       34.528653     34.528642   0.000000   0.000000
    7       53.288984     53.288973   0.000000   0.000000
    8       54.773349     54.773338   0.000000   0.000000
    9       64.405714     64.405719   0.000000   0.000000
   10       68.260387     68.260383   0.000000   0.000000
   11       74.709304     74.709295   0.000000   0.000000
   12       75.194492     75.194488   0.000000   0.000000
 
 -0.4375000E+00 -0.4375000E+00  0.6250000E-01  0.4687500E-01
    1       10.777138     10.777120   1.000000   1.000000
    2       14.143688     14.143672   1.000000   1.000000
    3       19.822396     19.822367   1.000808   1.000807
    4       23.183289     23.183260   1.058017   1.058015
    5       28.170731     28.170707   0.000000   0.000000
    6       38.497879     38.497870   0.000000   0.000000
    7       50.108699     50.108689   0.000000   0.000000
    8       53.519412     53.519401   0.000000   0.000000
    9       63.040564     63.040571   0.000000   0.000000
   10       70.228924     70.228917   0.000000   0.000000
   11       73.363415     73.363414   0.000000   0.000000
   12       75.784308     75.784300   0.000000   0.000000
 
 -0.3125000E+00 -0.4375000E+00  0.6250000E-01  0.4687500E-01
    1       12.945393     12.945379   1.000000   1.000000
    2       14.122663     14.122639   1.000000   1.000000
    3       17.246285     17.246261   1.000007   1.000007
    4       24.014730     24.014704   0.983994   0.984005
    5       26.493960     26.493934   0.000000   0.000000
    6       42.006993     42.006983   0.000000   0.000000
    7       49.615226     49.615214   0.000000   0.000000
    8       52.701018     52.701013   0.000000   0.000000
    9       64.733484     64.733485   0.000000   0.000000
   10       68.102775     68.102773   0.000000   0.000000
   11       71.669897     71.669894   0.000000   0.000000
   12       80.157128     80.157125   0.000000   0.000000
 
  0.1875000E+00  0.1875000E+00  0.1875000E+00  0.1562500E-01
    1       13.971996     13.971982   1.000000   1.000000
    2       13.971996     13.971982   1.000000   1.000000
    3       19.142377     19.142367   1.000043   1.000043
    4       25.231607     25.231567   0.028182   0.028199
    5       25.231607     25.231567  -0.000606  -0.000606
    6       39.501511     39.501500   0.000000   0.000000
    7       51.611544     51.611533   0.000000   0.000000
    8       51.611544     51.611533   0.000000   0.000000
    9       61.296387     61.296399   0.000000   0.000000
   10       74.715842     74.715831   0.000000   0.000000
   11       74.715842     74.715831   0.000000   0.000000
   12       75.582346     75.582340   0.000000   0.000000
 
  0.3125000E+00  0.1875000E+00  0.1875000E+00  0.2343750E-01
    1       14.069572     14.069559   1.000000   1.000000
    2       14.831262     14.831249   1.000000   1.000000
    3       18.690225     18.690213   1.000043   1.000043
    4       25.457771     25.457731  -0.037264  -0.037267
    5       25.669633     25.669590   0.000000   0.000000
    6       43.831629     43.831618   0.000000   0.000000
    7       48.253698     48.253687   0.000000   0.000000
    8       50.627555     50.627544   0.000000   0.000000
    9       59.390171     59.390184   0.000000   0.000000
   10       75.120200     75.120189   0.000000   0.000000
   11       77.602675     77.602666   0.000000   0.000000
   12       78.835991     78.835985   0.000000   0.000000
 
 -0.1875000E+00  0.1875000E+00  0.1875000E+00  0.1171875E-01
    1       16.806285     16.806251   1.000000   1.000000
    2       17.563678     17.563671   1.000000   1.000000
    3       18.300033     18.300017   1.000000   1.000000
    4       18.300034     18.300017   1.000000   1.000000
    5       20.762584     20.762564   1.311658   1.311661
    6       28.366693     28.366665  -0.020428  -0.020429
    7       58.282247     58.282230   0.000000   0.000000
    8       62.802548     62.802535   0.000000   0.000000
    9       64.412125     64.412123   0.000000   0.000000
   10       64.412125     64.412123   0.000000   0.000000
   11       70.929319     70.929311   0.000000   0.000000
   12       70.929319     70.929311   0.000000   0.000000
 
 -0.3125000E+00  0.3125000E+00  0.1875000E+00  0.4687500E-01
    1       13.006894     13.006868   1.000000   1.000000
    2       16.613726     16.613705   1.000000   1.000000
    3       17.584987     17.584970   1.000000   1.000000
    4       20.959834     20.959813   1.000000   1.000000
    5       24.757433     24.757413   0.133785   0.133789
    6       32.831474     32.831459   0.000000   0.000000
    7       56.667435     56.667422   0.000000   0.000000
    8       58.200303     58.200289   0.000000   0.000000
    9       62.905184     62.905188   0.000000   0.000000
   10       65.610340     65.610338   0.000000   0.000000
   11       74.204067     74.204058   0.000000   0.000000
   12       74.357694     74.357685   0.000000   0.000000
 
 -0.4375000E+00  0.4375000E+00  0.1875000E+00  0.4687500E-01
    1       10.694473     10.694450   1.000000   1.000000
    2       16.481920     16.481892   1.000000   1.000000
    3       16.681820     16.681804   1.000026   1.000026
    4       21.700672     21.700649   1.008668   1.008667
    5       28.756718     28.756695   0.000000   0.000000
    6       38.575978     38.575971   0.000000   0.000000
    7       51.527758     51.527751   0.000000   0.000000
    8       56.552600     56.552584   0.000000   0.000000
    9       60.570197     60.570206   0.000000   0.000000
   10       68.126974     68.126970   0.000000   0.000000
   11       71.862950     71.862942   0.000000   0.000000
   12       76.312154     76.312145   0.000000   0.000000
 
 -0.3125000E+00  0.4375000E+00  0.1875000E+00  0.4687500E-01
    1       11.473966     11.473938   1.000000   1.000000
    2       14.229934     14.229911   1.000000   1.000000
    3       18.112549     18.112530   1.002113   1.002113
    4       22.448453     22.448433   1.002890   1.002890
    5       26.920276     26.920254  -0.001831  -0.001831
    6       38.886980     38.886973   0.000000   0.000000
    7       54.486428     54.486419   0.000000   0.000000
    8       55.104755     55.104750   0.000000   0.000000
    9       62.968171     62.968167   0.000000   0.000000
   10       63.716618     63.716615   0.000000   0.000000
   11       72.261359     72.261351   0.000000   0.000000
   12       78.776807     78.776794   0.000000   0.000000
 
 -0.4375000E+00 -0.4375000E+00  0.1875000E+00  0.4687500E-01
    1       11.007195     11.007168   1.000000   1.000000
    2       13.378334     13.378306   1.000000   1.000000
    3       17.238283     17.238267   1.004875   1.004875
    4       23.965028     23.965007   0.933472   0.933474
    5       28.002611     28.002589   0.000000   0.000000
    6       44.266519     44.266513   0.000000   0.000000
    7       49.726095     49.726090   0.000000   0.000000
    8       53.682969     53.682966   0.000000   0.000000
    9       62.284183     62.284178   0.000000   0.000000
   10       66.011746     66.011741   0.000000   0.000000
   11       69.724384     69.724377   0.000000   0.000000
   12       80.294285     80.294273   0.000000   0.000000
 
 -0.3125000E+00  0.3125000E+00  0.3125000E+00  0.1171875E-01
    1       10.431477     10.431448   1.000000   1.000000
    2       13.825610     13.825584   1.000000   1.000000
    3       21.783215     21.783198   1.001570   1.001570
    4       21.783215     21.783198   1.007047   1.007048
    5       24.777817     24.777795   0.038685   0.038686
    6       37.568802     37.568796   0.000000   0.000000
    7       58.840805     58.840811   0.000000   0.000000
    8       58.840805     58.840811   0.000000   0.000000
    9       58.928043     58.928023   0.000000   0.000000
   10       60.020920     60.020905   0.000000   0.000000
   11       75.125838     75.125830   0.000000   0.000000
   12       78.153779     78.153766   0.000000   0.000000
 
 -0.4375000E+00  0.4375000E+00  0.3125000E+00  0.4687500E-01
    1        8.851044      8.851016   1.000000   1.000000
    2       10.878121     10.878094   1.000000   1.000000
    3       22.296978     22.296960   0.990120   0.990121
    4       23.719076     23.719058   0.823710   0.823714
    5       28.168218     28.168195   0.000000   0.000000
    6       43.376216     43.376216   0.000000   0.000000
    7       51.949683     51.949683   0.000000   0.000000
    8       55.248497     55.248505   0.000000   0.000000
    9       59.467439     59.467420   0.000000   0.000000
   10       62.503208     62.503198   0.000000   0.000000
   11       73.117039     73.117029   0.000000   0.000000
   12       80.374774     80.374761   0.000000   0.000000
 
 -0.4375000E+00 -0.4375000E+00  0.3125000E+00  0.1562500E-01
    1        8.554755      8.554728   1.000000   1.000000
    2        8.554755      8.554728   1.000000   1.000000
    3       22.823703     22.823685   0.942755   0.942757
    4       27.471386     27.471364  -0.177680  -0.177673
    5       27.471386     27.471364   0.000000   0.000000
    6       48.869954     48.869957   0.000000   0.000000
    7       48.869954     48.869957   0.000000   0.000000
    8       50.884128     50.884133   0.000000   0.000000
    9       61.334091     61.334076   0.000000   0.000000
   10       61.334091     61.334076   0.000000   0.000000
   11       72.966986     72.966975   0.000000   0.000000
   12       83.600496     83.600479   0.000000   0.000000
 
 -0.4375000E+00  0.4375000E+00  0.4375000E+00  0.1171875E-01
    1        6.755678      6.755650   1.000000   1.000000
    2        7.369904      7.369877   1.000000   1.000000
    3       27.232341     27.232319   0.146949   0.146955
    4       27.232341     27.232320  -0.084414  -0.084411
    5       27.974039     27.974016   0.000000   0.000000
    6       46.962305     46.962314   0.000000   0.000000
    7       50.647180     50.647192   0.000000   0.000000
    8       50.647181     50.647192   0.000000   0.000000
    9       59.762325     59.762303   0.000000   0.000000
   10       60.494361     60.494342   0.000000   0.000000
   11       75.911883     75.911870   0.000000   0.000000
   12       83.036885     83.036868   0.000000   0.000000
