 running on    4 total cores
 distrk:  each k-point on    4 cores,    1 groups
 distr:  one band on    1 cores,    4 groups
 using from now: INCAR     
 vasp.5.4.1 24Jun15 (build Jul 19 2016 16:50:41) complex                        
  
 POSCAR found type information on POSCAR  Fe
 POSCAR found :  1 types and       1 ions
 LDA part: xc-table for Ceperly-Alder, standard interpolation
 POSCAR, INCAR and KPOINTS ok, starting setup
 WARNING: small aliasing (wrap around) errors must be expected
 FFT: planning ...
 WAVECAR not read
 entering main loop
       N       E                     dE             d eps       ncg     rms          rms(c)
DAV:   1     0.283219614985E+02    0.28322E+02   -0.32596E+03  1500   0.966E+02
DAV:   2     0.785170942026E+01   -0.20470E+02   -0.19604E+02  1352   0.134E+02
DAV:   3     0.762887724189E+01   -0.22283E+00   -0.22298E+00  1484   0.144E+01
DAV:   4     0.762872293466E+01   -0.15431E-03   -0.15437E-03  1376   0.341E-01
DAV:   5     0.762872284246E+01   -0.92200E-07   -0.93701E-07  1444   0.812E-03    0.698E+01
DAV:   6     0.696392694299E+01   -0.66480E+00   -0.76359E-01  1340   0.158E+01    0.490E+01
DAV:   7     0.716176878424E+01    0.19784E+00   -0.29465E-01  1428   0.852E+00    0.308E+01
DAV:   8     0.738034152226E+01    0.21857E+00   -0.15347E-01  1448   0.493E+00    0.113E+01
DAV:   9     0.733081371777E+01   -0.49528E-01   -0.99479E-02  1516   0.533E+00    0.159E+00
DAV:  10     0.732803430880E+01   -0.27794E-02   -0.31674E-03  1400   0.931E-01    0.236E-01
DAV:  11     0.732820608342E+01    0.17177E-03   -0.23936E-04  1452   0.304E-01    0.275E-01
DAV:  12     0.732816171043E+01   -0.44373E-04   -0.15711E-05  1476   0.526E-02    0.181E-01
DAV:  13     0.732819001874E+01    0.28308E-04   -0.13447E-05  1444   0.742E-02    0.608E-02
DAV:  14     0.732819275817E+01    0.27394E-05   -0.54726E-06  1440   0.467E-02    0.359E-03
DAV:  15     0.732819259798E+01   -0.16019E-06   -0.20563E-08   780   0.221E-03
   1 F= 0.73281926E+01 E0= 0.73281926E+01  d E =0.000000E+00  mag=     0.0000
 writing wavefunctions
