PROCAR lm decomposed
# of k-points:   26         # of bands:  12         # of ions:   1

 k-point    1 :    0.06250000 0.06250000 0.06250000     weight = 0.01562500

band   1 # energy   15.65917710 # occ.  1.00000000
 
ion      s     py     pz     px    dxy    dyz    dz2    dxz    dx2    tot
  1  2.178  0.112  0.112  0.112  0.057  0.057  0.000  0.057  0.000  2.683
 
band   2 # energy   16.68917081 # occ.  1.00000000
 
ion      s     py     pz     px    dxy    dyz    dz2    dxz    dx2    tot
  1  0.000  0.001  0.010  0.005  0.808  0.367  0.044  0.101  0.002  1.338
 
band   3 # energy   16.68917081 # occ.  1.00000000
 
ion      s     py     pz     px    dxy    dyz    dz2    dxz    dx2    tot
  1  0.000  0.009  0.001  0.006  0.043  0.484  0.002  0.749  0.044  1.338
 
band   4 # energy   20.93055266 # occ.  1.00000000
 
ion      s     py     pz     px    dxy    dyz    dz2    dxz    dx2    tot
  1  0.215  0.046  0.046  0.046  0.314  0.314  0.000  0.314  0.000  1.296
 
band   5 # energy   23.31418152 # occ.  1.02071041
 
ion      s     py     pz     px    dxy    dyz    dz2    dxz    dx2    tot
  1  0.000  0.001  0.000  0.000  0.003  0.014  0.106  0.027  0.811  0.964
 
band   6 # energy   23.31418152 # occ.  0.77255000
 
ion      s     py     pz     px    dxy    dyz    dz2    dxz    dx2    tot
  1  0.000  0.000  0.001  0.001  0.027  0.016  0.811  0.003  0.106  0.964
 
band   7 # energy   59.86672329 # occ.  0.00000000
 
ion      s     py     pz     px    dxy    dyz    dz2    dxz    dx2    tot
  1  0.000  0.026  0.017  0.077  0.078  0.345  0.183  0.119  0.658  1.503
 
band   8 # energy   59.86672329 # occ.  0.00000000
 
ion      s     py     pz     px    dxy    dyz    dz2    dxz    dx2    tot
  1  0.000  0.054  0.063  0.004  0.283  0.017  0.658  0.242  0.183  1.503
 
band   9 # energy   61.49628490 # occ.  0.00000000
 
ion      s     py     pz     px    dxy    dyz    dz2    dxz    dx2    tot
  1  0.000  0.000  0.000  0.000  0.000  0.000  0.000  0.000  0.000  0.000
 
band  10 # energy   68.70173519 # occ.  0.00000000
 
ion      s     py     pz     px    dxy    dyz    dz2    dxz    dx2    tot
  1  0.000  2.311  0.009  2.052  0.000  0.000  0.000  0.000  0.006  4.380
 
band  11 # energy   68.70173519 # occ.  0.00000000
 
ion      s     py     pz     px    dxy    dyz    dz2    dxz    dx2    tot
  1  0.000  0.604  2.906  0.863  0.001  0.000  0.006  0.000  0.000  4.380
 
band  12 # energy   69.64209319 # occ.  0.00000000
 
ion      s     py     pz     px    dxy    dyz    dz2    dxz    dx2    tot
  1  0.185  1.304  1.304  1.304  0.111  0.111  0.000  0.111  0.000  4.430
 

 k-point    2 :    0.18750000 0.06250000 0.06250000     weight = 0.04687500

band   1 # energy   13.84255466 # occ.  1.00000000
 
ion      s     py     pz     px    dxy    dyz    dz2    dxz    dx2    tot
  1  0.412  0.014  0.014  0.076  0.017  0.910  0.070  0.017  0.211  1.740
 
band   2 # energy   14.75075233 # occ.  1.00000000
 
ion      s     py     pz     px    dxy    dyz    dz2    dxz    dx2    tot
  1  0.000  0.015  0.015  0.000  0.708  0.000  0.033  0.708  0.011  1.489
 
band   3 # energy   19.36096755 # occ.  1.00000000
 
ion      s     py     pz     px    dxy    dyz    dz2    dxz    dx2    tot
  1  0.856  0.296  0.296  0.011  0.249  0.023  0.004  0.249  0.011  1.994
 
band   4 # energy   23.13950752 # occ.  1.00130970
 
ion      s     py     pz     px    dxy    dyz    dz2    dxz    dx2    tot
  1  0.011  0.001  0.001  0.001  0.011  0.213  0.185  0.011  0.555  0.990
 
band   5 # energy   24.23362277 # occ.  0.60836312
 
ion      s     py     pz     px    dxy    dyz    dz2    dxz    dx2    tot
  1  0.000  0.002  0.002  0.000  0.020  0.000  0.694  0.020  0.231  0.969
 
band   6 # energy   26.31342410 # occ. -0.01611731
 
ion      s     py     pz     px    dxy    dyz    dz2    dxz    dx2    tot
  1  0.351  0.211  0.211  0.086  0.255  0.153  0.000  0.255  0.001  1.524
 
band   7 # energy   57.14459253 # occ.  0.00000000
 
ion      s     py     pz     px    dxy    dyz    dz2    dxz    dx2    tot
  1  0.030  0.068  0.068  0.068  0.048  0.994  0.308  0.048  0.924  2.556
 
band   8 # energy   57.30816302 # occ.  0.00000000
 
ion      s     py     pz     px    dxy    dyz    dz2    dxz    dx2    tot
  1  0.000  0.147  0.147  0.000  0.240  0.000  0.486  0.240  0.162  1.423
 
band   9 # energy   65.71751512 # occ.  0.00000000
 
ion      s     py     pz     px    dxy    dyz    dz2    dxz    dx2    tot
  1  0.000  0.059  0.059  0.000  0.369  0.000  0.000  0.369  0.000  0.856
 
band  10 # energy   68.38518035 # occ.  0.00000000
 
ion      s     py     pz     px    dxy    dyz    dz2    dxz    dx2    tot
  1  0.167  0.059  0.059  2.841  0.228  0.098  0.001  0.228  0.004  3.684
 
band  11 # energy   70.15475748 # occ.  0.00000000
 
ion      s     py     pz     px    dxy    dyz    dz2    dxz    dx2    tot
  1  0.000  2.172  2.172  0.000  0.123  0.000  0.096  0.123  0.032  4.715
 
band  12 # energy   72.33007883 # occ.  0.00000000
 
ion      s     py     pz     px    dxy    dyz    dz2    dxz    dx2    tot
  1  0.291  1.484  1.484  0.743  0.027  0.040  0.082  0.027  0.245  4.422
 

 k-point    3 :    0.31250000 0.06250000 0.06250000     weight = 0.04687500

band   1 # energy   11.03442411 # occ.  1.00000000
 
ion      s     py     pz     px    dxy    dyz    dz2    dxz    dx2    tot
  1  0.359  0.004  0.004  0.086  0.003  0.925  0.129  0.003  0.388  1.903
 
band   2 # energy   13.26088510 # occ.  1.00000000
 
ion      s     py     pz     px    dxy    dyz    dz2    dxz    dx2    tot
  1  0.000  0.021  0.021  0.000  0.788  0.000  0.011  0.788  0.004  1.631
 
band   3 # energy   23.82052072 # occ.  0.99990631
 
ion      s     py     pz     px    dxy    dyz    dz2    dxz    dx2    tot
  1  0.261  0.357  0.357  0.001  0.188  0.045  0.049  0.188  0.147  1.592
 
band   4 # energy   24.12870382 # occ.  0.95960731
 
ion      s     py     pz     px    dxy    dyz    dz2    dxz    dx2    tot
  1  0.012  0.084  0.084  0.003  0.096  0.286  0.112  0.096  0.337  1.110
 
band   5 # energy   25.07580822 # occ.  0.00355208
 
ion      s     py     pz     px    dxy    dyz    dz2    dxz    dx2    tot
  1  0.000  0.001  0.001  0.000  0.006  0.000  0.728  0.006  0.243  0.985
 
band   6 # energy   32.17173819 # occ.  0.00000000
 
ion      s     py     pz     px    dxy    dyz    dz2    dxz    dx2    tot
  1  0.191  0.464  0.464  0.046  0.288  0.095  0.000  0.288  0.001  1.839
 
band   7 # energy   53.00662073 # occ.  0.00000000
 
ion      s     py     pz     px    dxy    dyz    dz2    dxz    dx2    tot
  1  0.192  0.070  0.070  0.046  0.015  1.529  0.232  0.015  0.697  2.867
 
band   8 # energy   53.52516920 # occ.  0.00000000
 
ion      s     py     pz     px    dxy    dyz    dz2    dxz    dx2    tot
  1  0.000  0.151  0.151  0.000  0.177  0.000  0.152  0.177  0.051  0.858
 
band   9 # energy   65.65099404 # occ.  0.00000000
 
ion      s     py     pz     px    dxy    dyz    dz2    dxz    dx2    tot
  1  0.177  0.016  0.016  1.876  0.151  0.006  0.004  0.151  0.011  2.407
 
band  10 # energy   70.29666904 # occ.  0.00000000
 
ion      s     py     pz     px    dxy    dyz    dz2    dxz    dx2    tot
  1  0.000  1.052  1.052  0.000  0.598  0.000  0.036  0.598  0.012  3.348
 
band  11 # energy   71.99834898 # occ.  0.00000000
 
ion      s     py     pz     px    dxy    dyz    dz2    dxz    dx2    tot
  1  0.000  1.555  1.555  0.000  0.876  0.000  0.026  0.876  0.009  4.895
 
band  12 # energy   76.26303186 # occ.  0.00000000
 
ion      s     py     pz     px    dxy    dyz    dz2    dxz    dx2    tot
  1  0.482  1.077  1.077  0.838  0.000  0.057  0.157  0.000  0.470  4.159
 

 k-point    4 :    0.43750000 0.06250000 0.06250000     weight = 0.02343750

band   1 # energy    9.92624900 # occ.  1.00000000
 
ion      s     py     pz     px    dxy    dyz    dz2    dxz    dx2    tot
  1  0.355  0.000  0.000  0.091  0.000  0.940  0.151  0.000  0.453  1.990
 
band   2 # energy   12.71810770 # occ.  1.00000000
 
ion      s     py     pz     px    dxy    dyz    dz2    dxz    dx2    tot
  1  0.000  0.023  0.023  0.000  0.821  0.000  0.000  0.821  0.000  1.688
 
band   3 # energy   24.58221897 # occ.  0.99132052
 
ion      s     py     pz     px    dxy    dyz    dz2    dxz    dx2    tot
  1  0.028  0.000  0.000  0.002  0.000  0.358  0.155  0.000  0.465  1.008
 
band   4 # energy   25.47923437 # occ.  0.02965480
 
ion      s     py     pz     px    dxy    dyz    dz2    dxz    dx2    tot
  1  0.000  0.000  0.000  0.000  0.000  0.000  0.750  0.000  0.250  1.000
 
band   5 # energy   26.19862791 # occ.  0.00000000
 
ion      s     py     pz     px    dxy    dyz    dz2    dxz    dx2    tot
  1  0.000  0.480  0.480  0.000  0.321  0.000  0.000  0.321  0.000  1.602
 
band   6 # energy   35.18169274 # occ.  0.00000000
 
ion      s     py     pz     px    dxy    dyz    dz2    dxz    dx2    tot
  1  0.000  0.661  0.661  0.000  0.334  0.000  0.000  0.334  0.000  1.990
 
band   7 # energy   50.36467632 # occ.  0.00000000
 
ion      s     py     pz     px    dxy    dyz    dz2    dxz    dx2    tot
  1  0.388  0.000  0.000  0.052  0.000  1.794  0.183  0.000  0.549  2.966
 
band   8 # energy   51.85122818 # occ.  0.00000000
 
ion      s     py     pz     px    dxy    dyz    dz2    dxz    dx2    tot
  1  0.000  0.153  0.153  0.000  0.160  0.000  0.000  0.160  0.000  0.625
 
band   9 # energy   64.12392065 # occ.  0.00000000
 
ion      s     py     pz     px    dxy    dyz    dz2    dxz    dx2    tot
  1  0.163  0.000  0.000  1.622  0.000  0.006  0.007  0.000  0.022  1.820
 
band  10 # energy   71.33836831 # occ.  0.00000000
 
ion      s     py     pz     px    dxy    dyz    dz2    dxz    dx2    tot
  1  0.000  2.302  2.302  0.000  0.165  0.000  0.000  0.165  0.000  4.935
 
band  11 # energy   73.44741759 # occ.  0.00000000
 
ion      s     py     pz     px    dxy    dyz    dz2    dxz    dx2    tot
  1  0.000  0.459  0.459  0.000  1.912  0.000  0.000  1.912  0.000  4.742
 
band  12 # energy   78.78690753 # occ.  0.00000000
 
ion      s     py     pz     px    dxy    dyz    dz2    dxz    dx2    tot
  1  0.000  1.100  1.100  0.000  0.011  0.000  0.000  0.011  0.000  2.222
 

 k-point    5 :   -0.06250000 0.06250000 0.06250000     weight = 0.01171875

band   1 # energy   14.58243633 # occ.  1.00000000
 
ion      s     py     pz     px    dxy    dyz    dz2    dxz    dx2    tot
  1  2.710  0.000  0.000  0.158  0.000  0.000  0.002  0.000  0.005  2.875
 
band   2 # energy   17.79052653 # occ.  1.00000000
 
ion      s     py     pz     px    dxy    dyz    dz2    dxz    dx2    tot
  1  0.000  0.005  0.005  0.000  0.633  0.000  0.000  0.633  0.000  1.276
 
band   3 # energy   17.79052657 # occ.  1.00000000
 
ion      s     py     pz     px    dxy    dyz    dz2    dxz    dx2    tot
  1  0.000  0.005  0.005  0.000  0.633  0.000  0.000  0.633  0.000  1.276
 
band   4 # energy   18.20099439 # occ.  1.00000000
 
ion      s     py     pz     px    dxy    dyz    dz2    dxz    dx2    tot
  1  0.000  0.000  0.000  0.000  0.000  1.248  0.000  0.000  0.000  1.248
 
band   5 # energy   22.72889619 # occ.  1.00000511
 
ion      s     py     pz     px    dxy    dyz    dz2    dxz    dx2    tot
  1  0.000  0.000  0.000  0.000  0.000  0.000  0.719  0.000  0.240  0.959
 
band   6 # energy   24.12195954 # occ.  0.76416073
 
ion      s     py     pz     px    dxy    dyz    dz2    dxz    dx2    tot
  1  0.009  0.000  0.000  0.003  0.000  0.000  0.240  0.000  0.720  0.972
 
band   7 # energy   59.23747432 # occ.  0.00000000
 
ion      s     py     pz     px    dxy    dyz    dz2    dxz    dx2    tot
  1  0.000  0.000  0.000  0.000  0.000  0.000  0.506  0.000  0.169  0.674
 
band   8 # energy   60.79289585 # occ.  0.00000000
 
ion      s     py     pz     px    dxy    dyz    dz2    dxz    dx2    tot
  1  0.000  0.001  0.001  0.000  0.119  0.000  0.000  0.119  0.000  0.239
 
band   9 # energy   60.79289589 # occ.  0.00000000
 
ion      s     py     pz     px    dxy    dyz    dz2    dxz    dx2    tot
  1  0.000  0.001  0.001  0.000  0.119  0.000  0.000  0.119  0.000  0.239
 
band  10 # energy   68.05895891 # occ.  0.00000000
 
ion      s     py     pz     px    dxy    dyz    dz2    dxz    dx2    tot
  1  0.061  0.000  0.000  4.026  0.000  0.000  0.039  0.000  0.116  4.241
 
band  11 # energy   68.67123120 # occ.  0.00000000
 
ion      s     py     pz     px    dxy    dyz    dz2    dxz    dx2    tot
  1  0.000  2.381  2.381  0.000  0.034  0.000  0.000  0.034  0.000  4.830
 
band  12 # energy   68.67123123 # occ.  0.00000000
 
ion      s     py     pz     px    dxy    dyz    dz2    dxz    dx2    tot
  1  0.000  2.381  2.381  0.000  0.034  0.000  0.000  0.034  0.000  4.830
 

 k-point    6 :    0.18750000 0.18750000 0.06250000     weight = 0.04687500

band   1 # energy   13.07851604 # occ.  1.00000000
 
ion      s     py     pz     px    dxy    dyz    dz2    dxz    dx2    tot
  1  0.134  0.042  0.008  0.042  0.572  0.403  0.095  0.403  0.000  1.698
 
band   2 # energy   14.08793605 # occ.  1.00000000
 
ion      s     py     pz     px    dxy    dyz    dz2    dxz    dx2    tot
  1  0.000  0.118  0.000  0.118  0.000  0.511  0.000  0.511  0.331  1.589
 
band   3 # energy   19.55239227 # occ.  1.00002454
 
ion      s     py     pz     px    dxy    dyz    dz2    dxz    dx2    tot
  1  0.539  0.131  0.472  0.131  0.473  0.042  0.053  0.042  0.000  1.884
 
band   4 # energy   23.62430518 # occ.  1.03749373
 
ion      s     py     pz     px    dxy    dyz    dz2    dxz    dx2    tot
  1  0.000  0.002  0.000  0.002  0.000  0.133  0.000  0.133  0.713  0.982
 
band   5 # energy   25.31376427 # occ. -0.01515385
 
ion      s     py     pz     px    dxy    dyz    dz2    dxz    dx2    tot
  1  0.021  0.001  0.012  0.001  0.002  0.061  0.855  0.061  0.000  1.012
 
band   6 # energy   33.15354979 # occ. -0.00115796
 
ion      s     py     pz     px    dxy    dyz    dz2    dxz    dx2    tot
  1  0.251  0.188  0.419  0.188  0.330  0.213  0.030  0.213  0.000  1.832
 
band   7 # energy   54.07418217 # occ.  0.00000000
 
ion      s     py     pz     px    dxy    dyz    dz2    dxz    dx2    tot
  1  0.000  0.160  0.000  0.160  0.000  0.576  0.000  0.576  1.003  2.476
 
band   8 # energy   54.78555775 # occ.  0.00000000
 
ion      s     py     pz     px    dxy    dyz    dz2    dxz    dx2    tot
  1  0.062  0.021  0.239  0.021  0.472  0.383  0.278  0.383  0.000  1.859
 
band   9 # energy   65.51948906 # occ.  0.00000000
 
ion      s     py     pz     px    dxy    dyz    dz2    dxz    dx2    tot
  1  0.425  0.723  0.059  0.723  0.164  0.126  0.002  0.126  0.000  2.347
 
band  10 # energy   69.07206481 # occ.  0.00000000
 
ion      s     py     pz     px    dxy    dyz    dz2    dxz    dx2    tot
  1  0.000  0.149  0.000  0.149  0.000  0.253  0.000  0.253  0.094  0.897
 
band  11 # energy   73.29024932 # occ.  0.00000000
 
ion      s     py     pz     px    dxy    dyz    dz2    dxz    dx2    tot
  1  0.212  0.441  3.830  0.441  0.155  0.008  0.133  0.008  0.000  5.228
 
band  12 # energy   73.61025049 # occ.  0.00000000
 
ion      s     py     pz     px    dxy    dyz    dz2    dxz    dx2    tot
  1  0.000  2.167  0.000  2.167  0.000  0.025  0.000  0.025  0.299  4.683
 

 k-point    7 :    0.31250000 0.18750000 0.06250000     weight = 0.09375000

band   1 # energy   12.10603031 # occ.  1.00000000
 
ion      s     py     pz     px    dxy    dyz    dz2    dxz    dx2    tot
  1  0.172  0.008  0.006  0.134  0.360  0.695  0.069  0.251  0.111  1.806
 
band   2 # energy   13.85741704 # occ.  1.00000000
 
ion      s     py     pz     px    dxy    dyz    dz2    dxz    dx2    tot
  1  0.022  0.116  0.051  0.161  0.313  0.231  0.016  0.545  0.234  1.688
 
band   3 # energy   20.88442929 # occ.  1.00010605
 
ion      s     py     pz     px    dxy    dyz    dz2    dxz    dx2    tot
  1  0.069  0.346  0.478  0.011  0.337  0.001  0.171  0.164  0.047  1.624
 
band   4 # energy   24.51986582 # occ.  0.53672701
 
ion      s     py     pz     px    dxy    dyz    dz2    dxz    dx2    tot
  1  0.006  0.004  0.001  0.005  0.000  0.249  0.037  0.059  0.633  0.994
 
band   5 # energy   25.87404468 # occ. -0.00027138
 
ion      s     py     pz     px    dxy    dyz    dz2    dxz    dx2    tot
  1  0.013  0.020  0.034  0.001  0.081  0.027  0.723  0.108  0.040  1.046
 
band   6 # energy   39.03895594 # occ.  0.00000000
 
ion      s     py     pz     px    dxy    dyz    dz2    dxz    dx2    tot
  1  0.066  0.376  0.566  0.051  0.472  0.100  0.091  0.370  0.004  2.094
 
band   7 # energy   50.11023589 # occ.  0.00000000
 
ion      s     py     pz     px    dxy    dyz    dz2    dxz    dx2    tot
  1  0.128  0.147  0.000  0.216  0.000  1.292  0.054  0.151  0.619  2.608
 
band   8 # energy   52.56750352 # occ.  0.00000000
 
ion      s     py     pz     px    dxy    dyz    dz2    dxz    dx2    tot
  1  0.122  0.084  0.161  0.002  0.480  0.224  0.015  0.581  0.024  1.692
 
band   9 # energy   62.64557732 # occ.  0.00000000
 
ion      s     py     pz     px    dxy    dyz    dz2    dxz    dx2    tot
  1  0.439  0.195  0.076  0.807  0.046  0.008  0.007  0.015  0.010  1.603
 
band  10 # energy   72.16835322 # occ.  0.00000000
 
ion      s     py     pz     px    dxy    dyz    dz2    dxz    dx2    tot
  1  0.001  1.343  0.814  0.102  0.126  0.081  0.002  0.323  0.220  3.012
 
band  11 # energy   75.01326185 # occ.  0.00000000
 
ion      s     py     pz     px    dxy    dyz    dz2    dxz    dx2    tot
  1  0.205  0.848  2.393  0.076  0.415  0.005  0.006  0.585  0.044  4.579
 
band  12 # energy   77.37480346 # occ.  0.00000000
 
ion      s     py     pz     px    dxy    dyz    dz2    dxz    dx2    tot
  1  0.069  1.181  0.556  1.456  0.251  0.002  0.008  0.159  0.177  3.858
 

 k-point    8 :   -0.18750000 0.18750000 0.06250000     weight = 0.04687500

band   1 # energy   15.04789677 # occ.  1.00000000
 
ion      s     py     pz     px    dxy    dyz    dz2    dxz    dx2    tot
  1  0.986  0.010  0.000  0.157  0.675  0.000  0.165  0.000  0.004  1.997
 
band   2 # energy   16.37470456 # occ.  1.00000000
 
ion      s     py     pz     px    dxy    dyz    dz2    dxz    dx2    tot
  1  0.000  0.000  0.010  0.000  0.000  0.535  0.000  0.818  0.000  1.364
 
band   3 # energy   19.04435483 # occ.  1.00000000
 
ion      s     py     pz     px    dxy    dyz    dz2    dxz    dx2    tot
  1  0.993  0.165  0.000  0.344  0.332  0.000  0.071  0.000  0.110  2.015
 
band   4 # energy   20.89810735 # occ.  1.00000000
 
ion      s     py     pz     px    dxy    dyz    dz2    dxz    dx2    tot
  1  0.000  0.000  0.030  0.000  0.000  0.656  0.000  0.410  0.000  1.096
 
band   5 # energy   21.42308845 # occ.  1.11407479
 
ion      s     py     pz     px    dxy    dyz    dz2    dxz    dx2    tot
  1  0.017  0.006  0.000  0.013  0.242  0.000  0.596  0.000  0.149  1.021
 
band   6 # energy   25.04810204 # occ.  0.06025342
 
ion      s     py     pz     px    dxy    dyz    dz2    dxz    dx2    tot
  1  0.109  0.005  0.000  0.049  0.004  0.000  0.184  0.000  0.720  1.071
 
band   7 # energy   58.33851675 # occ.  0.00000000
 
ion      s     py     pz     px    dxy    dyz    dz2    dxz    dx2    tot
  1  0.002  0.067  0.000  0.002  0.216  0.000  1.219  0.000  0.405  1.911
 
band   8 # energy   60.39499472 # occ.  0.00000000
 
ion      s     py     pz     px    dxy    dyz    dz2    dxz    dx2    tot
  1  0.029  0.009  0.000  0.229  0.613  0.000  0.212  0.000  0.231  1.323
 
band   9 # energy   64.20087173 # occ.  0.00000000
 
ion      s     py     pz     px    dxy    dyz    dz2    dxz    dx2    tot
  1  0.000  0.000  0.071  0.000  0.000  0.186  0.000  1.076  0.000  1.333
 
band  10 # energy   67.59637637 # occ.  0.00000000
 
ion      s     py     pz     px    dxy    dyz    dz2    dxz    dx2    tot
  1  0.023  1.731  0.000  1.501  0.206  0.000  0.017  0.000  0.000  3.479
 
band  11 # energy   68.87964790 # occ.  0.00000000
 
ion      s     py     pz     px    dxy    dyz    dz2    dxz    dx2    tot
  1  0.000  0.000  4.019  0.000  0.000  0.136  0.000  0.091  0.000  4.247
 
band  12 # energy   70.81399478 # occ.  0.00000000
 
ion      s     py     pz     px    dxy    dyz    dz2    dxz    dx2    tot
  1  0.232  2.343  0.000  1.202  0.018  0.000  0.071  0.000  0.010  3.876
 

 k-point    9 :    0.31250000 0.31250000 0.06250000     weight = 0.01562500

band   1 # energy   12.34884977 # occ.  1.00000000
 
ion      s     py     pz     px    dxy    dyz    dz2    dxz    dx2    tot
  1  0.115  0.042  0.042  0.042  0.507  0.507  0.000  0.507  0.000  1.763
 
band   2 # energy   17.16989503 # occ.  1.00000000
 
ion      s     py     pz     px    dxy    dyz    dz2    dxz    dx2    tot
  1  0.000  0.346  0.000  0.346  0.000  0.319  0.000  0.319  0.319  1.650
 
band   3 # energy   17.16989512 # occ.  1.00000953
 
ion      s     py     pz     px    dxy    dyz    dz2    dxz    dx2    tot
  1  0.000  0.115  0.461  0.115  0.426  0.106  0.319  0.106  0.000  1.650
 
band   4 # energy   25.33375162 # occ. -0.01298955
 
ion      s     py     pz     px    dxy    dyz    dz2    dxz    dx2    tot
  1  0.000  0.005  0.018  0.005  0.193  0.048  0.692  0.048  0.000  1.009
 
band   5 # energy   25.33375166 # occ.  0.00000000
 
ion      s     py     pz     px    dxy    dyz    dz2    dxz    dx2    tot
  1  0.000  0.014  0.000  0.014  0.000  0.145  0.000  0.145  0.692  1.009
 
band   6 # energy   45.49156969 # occ.  0.00000000
 
ion      s     py     pz     px    dxy    dyz    dz2    dxz    dx2    tot
  1  0.000  0.389  0.000  0.389  0.000  0.594  0.000  0.594  0.362  2.327
 
band   7 # energy   45.49156972 # occ.  0.00000000
 
ion      s     py     pz     px    dxy    dyz    dz2    dxz    dx2    tot
  1  0.000  0.130  0.518  0.130  0.791  0.198  0.362  0.198  0.000  2.327
 
band   8 # energy   51.76064428 # occ.  0.00000000
 
ion      s     py     pz     px    dxy    dyz    dz2    dxz    dx2    tot
  1  0.355  0.029  0.029  0.029  0.560  0.560  0.000  0.560  0.000  2.121
 
band   9 # energy   61.68917185 # occ.  0.00000000
 
ion      s     py     pz     px    dxy    dyz    dz2    dxz    dx2    tot
  1  0.475  0.316  0.316  0.316  0.062  0.062  0.000  0.062  0.000  1.610
 
band  10 # energy   75.05391912 # occ.  0.00000000
 
ion      s     py     pz     px    dxy    dyz    dz2    dxz    dx2    tot
  1  0.000  0.265  1.060  0.264  0.183  0.046  0.458  0.046  0.000  2.322
 
band  11 # energy   75.05391914 # occ.  0.00000000
 
ion      s     py     pz     px    dxy    dyz    dz2    dxz    dx2    tot
  1  0.000  0.794  0.000  0.795  0.000  0.137  0.000  0.137  0.458  2.322
 
band  12 # energy   76.47824751 # occ.  0.00000000
 
ion      s     py     pz     px    dxy    dyz    dz2    dxz    dx2    tot
  1  0.682  1.569  1.569  1.569  0.107  0.107  0.000  0.107  0.000  5.710
 

 k-point   10 :   -0.31250000 0.31250000 0.06250000     weight = 0.04687500

band   1 # energy   11.86500378 # occ.  1.00000000
 
ion      s     py     pz     px    dxy    dyz    dz2    dxz    dx2    tot
  1  0.442  0.002  0.000  0.055  0.824  0.000  0.526  0.000  0.000  1.849
 
band   2 # energy   14.47461161 # occ.  1.00000000
 
ion      s     py     pz     px    dxy    dyz    dz2    dxz    dx2    tot
  1  0.000  0.000  0.012  0.000  0.000  0.689  0.000  0.813  0.000  1.513
 
band   3 # energy   21.26658250 # occ.  1.00005030
 
ion      s     py     pz     px    dxy    dyz    dz2    dxz    dx2    tot
  1  0.253  0.138  0.000  0.178  0.069  0.000  0.295  0.000  0.421  1.353
 
band   4 # energy   23.71616973 # occ.  1.00070044
 
ion      s     py     pz     px    dxy    dyz    dz2    dxz    dx2    tot
  1  0.109  0.162  0.000  0.215  0.372  0.000  0.285  0.000  0.165  1.308
 
band   5 # energy   25.41413734 # occ.  0.09103787
 
ion      s     py     pz     px    dxy    dyz    dz2    dxz    dx2    tot
  1  0.000  0.000  0.042  0.000  0.000  0.537  0.000  0.433  0.000  1.012
 
band   6 # energy   27.58736384 # occ. -0.00331386
 
ion      s     py     pz     px    dxy    dyz    dz2    dxz    dx2    tot
  1  0.451  0.256  0.000  0.533  0.025  0.000  0.058  0.000  0.433  1.756
 
band   7 # energy   55.53260365 # occ.  0.00000000
 
ion      s     py     pz     px    dxy    dyz    dz2    dxz    dx2    tot
  1  0.055  0.182  0.000  0.009  0.768  0.000  1.292  0.000  0.249  2.555
 
band   8 # energy   55.75467170 # occ.  0.00000000
 
ion      s     py     pz     px    dxy    dyz    dz2    dxz    dx2    tot
  1  0.082  0.036  0.000  0.215  0.593  0.000  0.067  0.000  0.163  1.156
 
band   9 # energy   66.34684895 # occ.  0.00000000
 
ion      s     py     pz     px    dxy    dyz    dz2    dxz    dx2    tot
  1  0.000  0.000  1.714  0.000  0.000  0.038  0.000  1.405  0.000  3.157
 
band  10 # energy   69.36881741 # occ.  0.00000000
 
ion      s     py     pz     px    dxy    dyz    dz2    dxz    dx2    tot
  1  0.003  2.533  0.000  1.414  0.167  0.000  0.119  0.000  0.121  4.356
 
band  11 # energy   70.27913085 # occ.  0.00000000
 
ion      s     py     pz     px    dxy    dyz    dz2    dxz    dx2    tot
  1  0.000  0.000  1.277  0.000  0.000  1.173  0.000  0.742  0.000  3.191
 
band  12 # energy   75.69896066 # occ.  0.00000000
 
ion      s     py     pz     px    dxy    dyz    dz2    dxz    dx2    tot
  1  0.547  0.621  0.000  2.659  0.053  0.000  0.419  0.000  0.000  4.299
 

 k-point   11 :   -0.18750000 0.31250000 0.06250000     weight = 0.04687500

band   1 # energy   14.37116109 # occ.  1.00000000
 
ion      s     py     pz     px    dxy    dyz    dz2    dxz    dx2    tot
  1  0.390  0.003  0.003  0.090  0.411  0.296  0.029  0.411  0.087  1.721
 
band   2 # energy   15.11843541 # occ.  1.00000000
 
ion      s     py     pz     px    dxy    dyz    dz2    dxz    dx2    tot
  1  0.000  0.059  0.059  0.000  0.345  0.000  0.449  0.345  0.150  1.407
 
band   3 # energy   19.18569230 # occ.  1.00000000
 
ion      s     py     pz     px    dxy    dyz    dz2    dxz    dx2    tot
  1  0.589  0.047  0.047  0.470  0.007  0.486  0.046  0.007  0.137  1.836
 
band   4 # energy   20.80887815 # occ.  1.00002194
 
ion      s     py     pz     px    dxy    dyz    dz2    dxz    dx2    tot
  1  0.000  0.009  0.009  0.000  0.255  0.000  0.385  0.255  0.128  1.042
 
band   5 # energy   24.57519666 # occ.  0.37189778
 
ion      s     py     pz     px    dxy    dyz    dz2    dxz    dx2    tot
  1  0.011  0.029  0.029  0.035  0.179  0.323  0.067  0.179  0.200  1.054
 
band   6 # energy   28.36724710 # occ. -0.01351611
 
ion      s     py     pz     px    dxy    dyz    dz2    dxz    dx2    tot
  1  0.441  0.059  0.059  0.406  0.022  0.063  0.135  0.022  0.405  1.612
 
band   7 # energy   56.86102794 # occ.  0.00000000
 
ion      s     py     pz     px    dxy    dyz    dz2    dxz    dx2    tot
  1  0.000  0.078  0.078  0.000  0.246  0.000  1.535  0.246  0.512  2.694
 
band   8 # energy   58.20447937 # occ.  0.00000000
 
ion      s     py     pz     px    dxy    dyz    dz2    dxz    dx2    tot
  1  0.113  0.009  0.009  0.268  0.414  0.112  0.035  0.414  0.104  1.477
 
band   9 # energy   65.50465579 # occ.  0.00000000
 
ion      s     py     pz     px    dxy    dyz    dz2    dxz    dx2    tot
  1  0.000  0.207  0.207  0.000  0.748  0.000  0.087  0.748  0.029  2.024
 
band  10 # energy   66.99527561 # occ.  0.00000000
 
ion      s     py     pz     px    dxy    dyz    dz2    dxz    dx2    tot
  1  0.011  1.202  1.202  0.442  0.349  0.010  0.001  0.349  0.002  3.568
 
band  11 # energy   71.90506055 # occ.  0.00000000
 
ion      s     py     pz     px    dxy    dyz    dz2    dxz    dx2    tot
  1  0.000  1.833  1.833  0.000  0.030  0.000  0.164  0.030  0.055  3.947
 
band  12 # energy   73.66541808 # occ.  0.00000000
 
ion      s     py     pz     px    dxy    dyz    dz2    dxz    dx2    tot
  1  0.478  0.205  0.205  1.937  0.085  0.449  0.021  0.085  0.062  3.528
 

 k-point   12 :   -0.43750000 0.43750000 0.06250000     weight = 0.04687500

band   1 # energy    9.57761365 # occ.  1.00000000
 
ion      s     py     pz     px    dxy    dyz    dz2    dxz    dx2    tot
  1  0.382  0.008  0.000  0.025  0.865  0.000  0.715  0.000  0.000  1.995
 
band   2 # energy   13.27703146 # occ.  1.00000000
 
ion      s     py     pz     px    dxy    dyz    dz2    dxz    dx2    tot
  1  0.000  0.000  0.013  0.000  0.000  0.787  0.000  0.824  0.000  1.624
 
band   3 # energy   22.89808994 # occ.  1.00209955
 
ion      s     py     pz     px    dxy    dyz    dz2    dxz    dx2    tot
  1  0.056  0.139  0.000  0.132  0.124  0.000  0.208  0.000  0.530  1.188
 
band   4 # energy   24.18052006 # occ.  0.93692386
 
ion      s     py     pz     px    dxy    dyz    dz2    dxz    dx2    tot
  1  0.007  0.072  0.000  0.080  0.287  0.000  0.348  0.000  0.296  1.089
 
band   5 # energy   29.18979451 # occ. -0.00085704
 
ion      s     py     pz     px    dxy    dyz    dz2    dxz    dx2    tot
  1  0.000  0.000  0.009  0.000  0.000  0.582  0.000  0.542  0.000  1.133
 
band   6 # energy   32.39689497 # occ.  0.00000000
 
ion      s     py     pz     px    dxy    dyz    dz2    dxz    dx2    tot
  1  0.108  0.778  0.000  0.984  0.023  0.000  0.006  0.000  0.253  2.151
 
band   7 # energy   51.45427455 # occ.  0.00000000
 
ion      s     py     pz     px    dxy    dyz    dz2    dxz    dx2    tot
  1  0.351  0.066  0.000  0.008  1.728  0.000  0.846  0.000  0.012  3.011
 
band   8 # energy   52.65750360 # occ.  0.00000000
 
ion      s     py     pz     px    dxy    dyz    dz2    dxz    dx2    tot
  1  0.009  0.137  0.000  0.135  0.028  0.000  0.180  0.000  0.048  0.538
 
band   9 # energy   64.59848802 # occ.  0.00000000
 
ion      s     py     pz     px    dxy    dyz    dz2    dxz    dx2    tot
  1  0.000  0.000  1.741  0.000  0.000  0.054  0.000  0.484  0.000  2.279
 
band  10 # energy   70.72164358 # occ.  0.00000000
 
ion      s     py     pz     px    dxy    dyz    dz2    dxz    dx2    tot
  1  0.006  2.737  0.000  2.221  0.028  0.000  0.176  0.000  0.039  5.206
 
band  11 # energy   72.98869572 # occ.  0.00000000
 
ion      s     py     pz     px    dxy    dyz    dz2    dxz    dx2    tot