<?xml version="1.0" encoding="ISO-8859-1"?>
<modeling>
 <generator>
  <i name="program" type="string">vasp </i>
  <i name="version" type="string">5.4.1  </i>
  <i name="subversion" type="string">24Jun15 (build Jul 19 2016 16:50:41) complex                          parallel </i>
  <i name="platform" type="string">IFC91_ompi </i>
  <i name="date" type="string">2019 10 17 </i>
  <i name="time" type="string">12:05:59 </i>
 </generator>
 <incar>
  <i type="string" name="SYSTEM"> Fe BCC</i>
  <i type="string" name="PREC">accurate</i>
  <i type="int" name="ISPIN">     2</i>
  <i name="EDIFF">      0.00000100</i>
  <i name="ENMAX">    400.00000000</i>
  <v name="MAGMOM">      4.00000000</v>
  <i type="int" name="ISMEAR">    -5</i>
  <i type="logical" name="LORBIT"> F  </i>
  <v type="int" name="KPOINT_BSE">    -1     0     0     0</v>
 </incar>
 <kpoints>
  <generation param="Monkhorst-Pack">
   <v type="int" name="divisions">       8        8        8 </v>
   <v name="usershift">      0.00000000       0.00000000       0.00000000 </v>
   <v name="genvec1">      0.12500000       0.00000000       0.00000000 </v>
   <v name="genvec2">      0.00000000       0.12500000       0.00000000 </v>
   <v name="genvec3">      0.00000000       0.00000000       0.12500000 </v>
   <v name="shift">      0.50000000       0.50000000       0.50000000 </v>
  </generation>
  <varray name="kpointlist" >
   <v>       0.06250000       0.06250000       0.06250000 </v>
   <v>       0.18750000       0.06250000       0.06250000 </v>
   <v>       0.31250000       0.06250000       0.06250000 </v>
   <v>       0.43750000       0.06250000       0.06250000 </v>
   <v>      -0.06250000       0.06250000       0.06250000 </v>
   <v>       0.18750000       0.18750000       0.06250000 </v>
   <v>       0.31250000       0.18750000       0.06250000 </v>
   <v>      -0.18750000       0.18750000       0.06250000 </v>
   <v>       0.31250000       0.31250000       0.06250000 </v>
   <v>      -0.31250000       0.31250000       0.06250000 </v>
   <v>      -0.18750000       0.31250000       0.06250000 </v>
   <v>      -0.43750000       0.43750000       0.06250000 </v>
   <v>      -0.31250000       0.43750000       0.06250000 </v>
   <v>      -0.43750000      -0.43750000       0.06250000 </v>
   <v>      -0.31250000      -0.43750000       0.06250000 </v>
   <v>       0.18750000       0.18750000       0.18750000 </v>
   <v>       0.31250000       0.18750000       0.18750000 </v>
   <v>      -0.18750000       0.18750000       0.18750000 </v>
   <v>      -0.31250000       0.31250000       0.18750000 </v>
   <v>      -0.43750000       0.43750000       0.18750000 </v>
   <v>      -0.31250000       0.43750000       0.18750000 </v>
   <v>      -0.43750000      -0.43750000       0.18750000 </v>
   <v>      -0.31250000       0.31250000       0.31250000 </v>
   <v>      -0.43750000       0.43750000       0.31250000 </v>
   <v>      -0.43750000      -0.43750000       0.31250000 </v>
   <v>      -0.43750000       0.43750000       0.43750000 </v>
  </varray>
  <varray name="weights" >
   <v>       0.01562500 </v>
   <v>       0.04687500 </v>
   <v>       0.04687500 </v>
   <v>       0.02343750 </v>
   <v>       0.01171875 </v>
   <v>       0.04687500 </v>
   <v>       0.09375000 </v>
   <v>       0.04687500 </v>
   <v>       0.01562500 </v>
   <v>       0.04687500 </v>
   <v>       0.04687500 </v>
   <v>       0.04687500 </v>
   <v>       0.09375000 </v>
   <v>       0.04687500 </v>
   <v>       0.04687500 </v>
   <v>       0.01562500 </v>
   <v>       0.02343750 </v>
   <v>       0.01171875 </v>
   <v>       0.04687500 </v>
   <v>       0.04687500 </v>
   <v>       0.04687500 </v>
   <v>       0.04687500 </v>
   <v>       0.01171875 </v>
   <v>       0.04687500 </v>
   <v>       0.01562500 </v>
   <v>       0.01171875 </v>
  </varray>
  <varray name="tetrahedronlist"  type="int" >
   <v type="int" >        4        1        2        2        6 </v>
   <v type="int" >        8        2        2        6        6 </v>
   <v type="int" >        4        2        6        6       16 </v>
   <v type="int" >        4        2        3        6        7 </v>
   <v type="int" >        4        2        6        6        7 </v>
   <v type="int" >       12        6        6        7       16 </v>
   <v type="int" >        8        3        6        7        7 </v>
   <v type="int" >        8        6        7        7       17 </v>
   <v type="int" >        8        6        7       16       17 </v>
   <v type="int" >        4        3        4        7        7 </v>
   <v type="int" >        4        3        7        7        7 </v>
   <v type="int" >       16        7        7        7       17 </v>
   <v type="int" >        8        4        7        7        7 </v>
   <v type="int" >        4        7        7        7       16 </v>
   <v type="int" >       20        7        7       16       17 </v>
   <v type="int" >        4        3        4        6        7 </v>
   <v type="int" >        4        4        6        7        7 </v>
   <v type="int" >       16        6        7        7       16 </v>
   <v type="int" >        8        3        6        6        7 </v>
   <v type="int" >        4        6        6        6        7 </v>
   <v type="int" >        4        2        2        3        6 </v>
   <v type="int" >        8        2        3        6        6 </v>
   <v type="int" >        4        2        6        6        6 </v>
   <v type="int" >        4        2        2        2        6 </v>
   <v type="int" >        8        2        2        6       11 </v>
   <v type="int" >        4        2        6        6       11 </v>
   <v type="int" >       16        1        2        2        8 </v>
   <v type="int" >        4        2        2        2        8 </v>
   <v type="int" >       12        2        2        8       11 </v>
   <v type="int" >       16        1        2        8        8 </v>
   <v type="int" >        4        2        8        8       18 </v>
   <v type="int" >        4        2        8       11       18 </v>
   <v type="int" >       20        1        5        8        8 </v>
   <v type="int" >        4        1        8        8        8 </v>
   <v type="int" >        4        8        8        8       18 </v>
   <v type="int" >        8        5        8        8        8 </v>
   <v type="int" >        4        8        8        8       11 </v>
   <v type="int" >        4        8        8       11       18 </v>
   <v type="int" >        8        1        2        5        8 </v>
   <v type="int" >        8        2        5        8        8 </v>
   <v type="int" >        8        2        8        8       11 </v>
   <v type="int" >        4        2        2        6        8 </v>
   <v type="int" >        4        2        6        8       11 </v>
   <v type="int" >        4        6        7        9       16 </v>
   <v type="int" >       16        7        9       16       17 </v>
   <v type="int" >       12        9       16       17       17 </v>
   <v type="int" >       20        7        7        9       17 </v>
   <v type="int" >       12        7        9       17       17 </v>
   <v type="int" >        8        7        7       17       17 </v>
   <v type="int" >       12        3        6        7       16 </v>
   <v type="int" >        8        3        7        7       16 </v>
   <v type="int" >        8        3        6        6       16 </v>
   <v type="int" >        4        3        6       13       16 </v>
   <v type="int" >        4        3        7       13       16 </v>
   <v type="int" >        4        2        6        6       10 </v>
   <v type="int" >        4        3        6        6       10 </v>
   <v type="int" >        8        3        6       10       13 </v>
   <v type="int" >       12        2        6       10       11 </v>
   <v type="int" >        4        6       10       11       19 </v>
   <v type="int" >        4        6       10       13       19 </v>
   <v type="int" >        4        2        8       11       11 </v>
   <v type="int" >        4        2       10       11       11 </v>
   <v type="int" >        4       10       11       11       19 </v>
   <v type="int" >        8        8       11       11       18 </v>
   <v type="int" >        8       11       11       18       19 </v>
   <v type="int" >        4       11       11       19       19 </v>
   <v type="int" >        4        8        8       10       18 </v>
   <v type="int" >       12        8       10       11       18 </v>
   <v type="int" >       12       10       11       18       19 </v>
   <v type="int" >        4       10       11       13       18 </v>
   <v type="int" >        4       10       13       18       19 </v>
   <v type="int" >        4        2        3        8       11 </v>
   <v type="int" >        4        3        8       10       11 </v>
   <v type="int" >        8        3       10       11       13 </v>
   <v type="int" >       16        2        3        6       11 </v>
   <v type="int" >        4        3        6        7       11 </v>
   <v type="int" >        4        3        7       11       13 </v>
   <v type="int" >        4        4        7        9       17 </v>
   <v type="int" >        8        4        7        7       17 </v>
   <v type="int" >        4        4        7       14       17 </v>
   <v type="int" >        4        3        7        7       12 </v>
   <v type="int" >        8        4        7        7       12 </v>
   <v type="int" >        8        4        7       12       14 </v>
   <v type="int" >        8        3        7       12       13 </v>
   <v type="int" >        4        7       12       13       20 </v>
   <v type="int" >        4        7       12       14       20 </v>
   <v type="int" >        4        3       10       13       13 </v>
   <v type="int" >        4        3       12       13       13 </v>
   <v type="int" >        4       12       13       13       20 </v>
   <v type="int" >        8       10       13       13       19 </v>
   <v type="int" >       12       13       13       19       21 </v>
   <v type="int" >        4       13       13       20       21 </v>
   <v type="int" >        8       10       11       13       19 </v>
   <v type="int" >        8       11       13       19       19 </v>
   <v type="int" >        4       13       19       19       20 </v>
   <v type="int" >        8       13       19       20       21 </v>
   <v type="int" >        4       10       11       12       19 </v>
   <v type="int" >        4       11       12       13       19 </v>
   <v type="int" >        8       12       13       19       20 </v>
   <v type="int" >        8       10       12       13       19 </v>
   <v type="int" >        4       12       13       14       19 </v>
   <v type="int" >        4       12       14       19       20 </v>
   <v type="int" >        4        3        4       10       13 </v>
   <v type="int" >        4        4       10       12       13 </v>
   <v type="int" >       12        4       12       13       14 </v>
   <v type="int" >       12        3        4        7       13 </v>
   <v type="int" >        8        4        7        7       13 </v>
   <v type="int" >       12        4        7       13       14 </v>
   <v type="int" >        4        4       12       14       14 </v>
   <v type="int" >        4       12       14       14       20 </v>
   <v type="int" >        4       14       14       20       22 </v>
   <v type="int" >        4       12       13       15       20 </v>
   <v type="int" >        4       12       14       15       20 </v>
   <v type="int" >        8       14       15       20       22 </v>
   <v type="int" >       12       13       15       20       21 </v>
   <v type="int" >       12       15       20       21       22 </v>
   <v type="int" >        4       15       20       22       22 </v>
   <v type="int" >        4       13       13       14       21 </v>
   <v type="int" >       12       13       14       15       21 </v>
   <v type="int" >       16       14       15       21       22 </v>
   <v type="int" >        8       13       14       20       21 </v>
   <v type="int" >        4       14       20       20       21 </v>
   <v type="int" >       12       14       20       21       22 </v>
   <v type="int" >        4       12       12       13       20 </v>
   <v type="int" >        8       12       13       14       20 </v>
   <v type="int" >        8       12       14       20       20 </v>
   <v type="int" >        8       12       12       14       20 </v>
   <v type="int" >        4       12       13       20       20 </v>
   <v type="int" >       16        3        4       12       14 </v>
   <v type="int" >        8        3       12       12       14 </v>
   <v type="int" >        8        3       12       13       14 </v>
   <v type="int" >       16        3        4        7       14 </v>
   <v type="int" >        4        3        6        7       14 </v>
   <v type="int" >        4        3        6       13       14 </v>
   <v type="int" >        8       14       15       15       22 </v>
   <v type="int" >        8       15       15       22       22 </v>
   <v type="int" >        8       15       21       22       22 </v>
   <v type="int" >       12       13       14       15       22 </v>
   <v type="int" >        4       13       15       15       22 </v>
   <v type="int" >        8       13       15       21       22 </v>
   <v type="int" >       12       13       14       20       22 </v>
   <v type="int" >        4       13       19       20       22 </v>
   <v type="int" >        4       13       19       21       22 </v>
   <v type="int" >        4       10       12       14       20 </v>
   <v type="int" >        4       10       13       14       20 </v>
   <v type="int" >        8       10       13       19       20 </v>
   <v type="int" >        8       10       12       13       20 </v>
   <v type="int" >        4       10       11       13       20 </v>
   <v type="int" >        4       10       11       19       20 </v>
   <v type="int" >        4        2        3       12       13 </v>
   <v type="int" >        4        2       10       12       13 </v>
   <v type="int" >        8        2       10       11       13 </v>
   <v type="int" >       12        2        3        6       13 </v>
   <v type="int" >        4        2        2        6       13 </v>
   <v type="int" >        4        2        2       11       13 </v>
   <v type="int" >        4       11       13       15       21 </v>
   <v type="int" >        8       11       13       19       21 </v>
   <v type="int" >        4       11       18       19       21 </v>
   <v type="int" >        4        8       10       13       19 </v>
   <v type="int" >        4        8       11       13       19 </v>
   <v type="int" >        8        8       11       18       19 </v>
   <v type="int" >        8        8       10       11       19 </v>
   <v type="int" >        4        8        8       11       19 </v>
   <v type="int" >        4        8        8       18       19 </v>
   <v type="int" >        4        1        2       10       11 </v>
   <v type="int" >        4        1        8       10       11 </v>
   <v type="int" >        8        1        8        8       11 </v>
   <v type="int" >        8        1        2        2       11 </v>
   <v type="int" >       12        1        2        8       11 </v>
   <v type="int" >        4        5        8       11       18 </v>
   <v type="int" >        4        5        8        8       18 </v>
   <v type="int" >        4        1        5        8       18 </v>
   <v type="int" >        4        5        5        8        8 </v>
   <v type="int" >       12        1        5        5        8 </v>
   <v type="int" >        6        1        1        5        5 </v>
   <v type="int" >        8        1        1        5        8 </v>
   <v type="int" >        4        1        1        2        8 </v>
   <v type="int" >        4        2        3        6       16 </v>
   <v type="int" >        4        3        7       16       17 </v>
   <v type="int" >       12        7       16       17       17 </v>
   <v type="int" >        8        7       17       17       17 </v>
   <v type="int" >       12        7        7        9       16 </v>
   <v type="int" >        4        6        6        7        7 </v>
   <v type="int" >       16        3        6        7       13 </v>
   <v type="int" >       12        6        7        7       13 </v>
   <v type="int" >        4        3        6        6       11 </v>
   <v type="int" >       12        3        6       11       13 </v>
   <v type="int" >       12        2        3       10       11 </v>
   <v type="int" >        4        3       10       11       19 </v>
   <v type="int" >        4        3       11       13       19 </v>
   <v type="int" >        4        2        8       10       18 </v>
   <v type="int" >        4        2       10       11       18 </v>
   <v type="int" >        4       10       18       19       19 </v>
   <v type="int" >        4        8        8       11       11 </v>
   <v type="int" >        4        8       10       11       11 </v>
   <v type="int" >        4       10       11       11       13 </v>
   <v type="int" >        4       11       11       13       19 </v>
   <v type="int" >        4        2        6        8       10 </v>
   <v type="int" >        4        6        8       10       11 </v>
   <v type="int" >       12        6       10       11       13 </v>
   <v type="int" >        8        2        3        6       10 </v>
   <v type="int" >        4        3        6        7       10 </v>
   <v type="int" >        4        6        7       10       13 </v>
   <v type="int" >        4       16       17       17       17 </v>
   <v type="int" >        4       17       17       17       17 </v>
   <v type="int" >        4        9       17       17       17 </v>
   <v type="int" >        8        7        7       15       17 </v>
   <v type="int" >        8        7        9       15       17 </v>
   <v type="int" >        4        6        7       13       16 </v>
   <v type="int" >        4        7        7       13       16 </v>
   <v type="int" >       12        7        7       13       15 </v>
   <v type="int" >        8        6        7       13       13 </v>
   <v type="int" >        4        7       13       13       21 </v>
   <v type="int" >        4        7       13       15       21 </v>
   <v type="int" >        4        6       11       13       19 </v>
   <v type="int" >        4        6       13       13       19 </v>
   <v type="int" >        4       13       19       19       23 </v>
   <v type="int" >        4       13       19       21       23 </v>
   <v type="int" >        4       11       18       19       19 </v>
   <v type="int" >        4       11       19       19       19 </v>
   <v type="int" >        4       19       19       19       23 </v>
   <v type="int" >        4       18       19       19       19 </v>
   <v type="int" >        4       19       19       19       21 </v>
   <v type="int" >        4       19       19       21       23 </v>
   <v type="int" >        4       11       13       18       19 </v>
   <v type="int" >        4       13       18       19       19 </v>
   <v type="int" >        8       13       19       19       21 </v>
   <v type="int" >       12       11       13       13       19 </v>
   <v type="int" >        4       13       13       15       19 </v>
   <v type="int" >        4       13       15       19       21 </v>
   <v type="int" >        4        6        7       11       13 </v>
   <v type="int" >        4        7       11       13       13 </v>
   <v type="int" >        8        7       13       13       15 </v>
   <v type="int" >        4        7        7        9       13 </v>
   <v type="int" >        4        7        9       13       15 </v>
   <v type="int" >        4        7        9       14       17 </v>
   <v type="int" >       12        7        9       14       15 </v>
   <v type="int" >        4        9       14       15       22 </v>
   <v type="int" >        4        7       13       15       20 </v>
   <v type="int" >        4        7       14       15       20 </v>
   <v type="int" >        4       15       20       21       24 </v>
   <v type="int" >        4       15       20       22       24 </v>
   <v type="int" >        4       13       19       21       21 </v>
   <v type="int" >        4       13       20       21       21 </v>
   <v type="int" >        4       20       21       21       24 </v>
   <v type="int" >        8       19       21       21       23 </v>
   <v type="int" >        8       21       21       23       24 </v>
   <v type="int" >        4       21       21       24       24 </v>
   <v type="int" >        4       19       19       20       23 </v>
   <v type="int" >       12       19       20       21       23 </v>
   <v type="int" >       12       20       21       23       24 </v>
   <v type="int" >        4       20       21       22       23 </v>
   <v type="int" >        4       20       22       23       24 </v>
   <v type="int" >        4       13       14       19       21 </v>
   <v type="int" >        4       14       19       20       21 </v>
   <v type="int" >        4       14       15       15       21 </v>
   <v type="int" >       16        7       13       14       15 </v>
   <v type="int" >        8        7       14       15       15 </v>
   <v type="int" >       16        7        7        9       15 </v>
   <v type="int" >        4        7        7       15       15 </v>
   <v type="int" >        4       14       20       22       22 </v>
   <v type="int" >        8       20       22       22       24 </v>
   <v type="int" >       16       22       22       24       25 </v>
   <v type="int" >       16       20       21       22       24 </v>
   <v type="int" >        8       21       22       24       24 </v>
   <v type="int" >        4       22       24       24       24 </v>
   <v type="int" >       16       22       24       24       25 </v>
   <v type="int" >        4       20       20       21       24 </v>
   <v type="int" >       12       20       22       24       24 </v>
   <v type="int" >        8       20       20       22       24 </v>
   <v type="int" >        4       20       21       24       24 </v>
   <v type="int" >        4       13       20       20       22 </v>
   <v type="int" >        8       13       20       21       22 </v>
   <v type="int" >        4       13       13       15       22 </v>
   <v type="int" >        4       13       13       21       22 </v>
   <v type="int" >        4        6        7       14       15 </v>
   <v type="int" >        4        6       13       14       15 </v>
   <v type="int" >        4        6       13       13       15 </v>
   <v type="int" >        4        6        7        7       15 </v>
   <v type="int" >        4        3        6        7       15 </v>
   <v type="int" >        4        3        6       13       15 </v>
   <v type="int" >        8       21       22       22       25 </v>
   <v type="int" >       12       21       22       24       25 </v>
   <v type="int" >        4       21       23       24       25 </v>
   <v type="int" >        4       19       20       22       24 </v>
   <v type="int" >        4       19       21       22       24 </v>
   <v type="int" >        8       19       21       23       24 </v>
   <v type="int" >        8       19       20       21       24 </v>
   <v type="int" >        4       19       19       21       24 </v>
   <v type="int" >        4       19       19       23       24 </v>
   <v type="int" >        4       11       13       20       21 </v>
   <v type="int" >        4       11       19       20       21 </v>
   <v type="int" >        4       11       19       19       21 </v>
   <v type="int" >        4       11       13       13       21 </v>
   <v type="int" >        4       10       11       13       21 </v>
   <v type="int" >        4       10       11       19       21 </v>
   <v type="int" >        4        2        6       13       13 </v>
   <v type="int" >        4        2       11       13       13 </v>
   <v type="int" >       12        2        3       10       13 </v>
   <v type="int" >        4        2       10       10       13 </v>
   <v type="int" >        4       18       19       21       23 </v>
   <v type="int" >        4       18       19       19       23 </v>
   <v type="int" >        4       11       18       19       23 </v>
   <v type="int" >        4        8       11       19       19 </v>
   <v type="int" >        4        8       18       19       19 </v>
   <v type="int" >        4        2        8       10       19 </v>
   <v type="int" >        4        2        8       11       19 </v>
   <v type="int" >       16        2        8       10       11 </v>
   <v type="int" >        4        8        8       10       11 </v>
   <v type="int" >       12        2        8        8       10 </v>
   <v type="int" >        8        2        8       10       10 </v>
   <v type="int" >        4        8       10       10       11 </v>
   <v type="int" >        4        1        8       11       18 </v>
   <v type="int" >        4        2        8        8        8 </v>
   <v type="int" >        8        2        2        8       10 </v>
   <v type="int" >        4        2        2        3       10 </v>
   <v type="int" >        4        3        4        7       17 </v>
   <v type="int" >        4        4        7       16       17 </v>
   <v type="int" >        4        7        7        7        9 </v>
   <v type="int" >        4        4        7        7       14 </v>
   <v type="int" >        4        7        7        7       14 </v>
   <v type="int" >       12        3        4       12       13 </v>
   <v type="int" >        4        4       12       13       20 </v>
   <v type="int" >        4        4       13       14       20 </v>
   <v type="int" >        4        3       10       12       19 </v>
   <v type="int" >        4        3       12       13       19 </v>
   <v type="int" >        4       12       13       19       21 </v>
   <v type="int" >        4       12       19       20       21 </v>
   <v type="int" >        4       10       13       19       19 </v>
   <v type="int" >        8       13       13       19       20 </v>
   <v type="int" >        4       10       11       13       13 </v>
   <v type="int" >        4       10       12       13       13 </v>
   <v type="int" >        4       12       13       13       14 </v>
   <v type="int" >        4       13       13       14       20 </v>
   <v type="int" >        4        3        7       10       12 </v>
   <v type="int" >        4        7       10       12       13 </v>
   <v type="int" >        8        7       12       13       14 </v>
   <v type="int" >        8        3        4        7       12 </v>
   <v type="int" >        4        7        7       12       14 </v>
   <v type="int" >        4        7        9       15       16 </v>
   <v type="int" >       12        7        9       15       15 </v>
   <v type="int" >        8        7        7       14       15 </v>
   <v type="int" >        4        7       14       15       22 </v>
   <v type="int" >        4        7       15       15       22 </v>
   <v type="int" >        4        7       13       14       21 </v>
   <v type="int" >        4        7       14       15       21 </v>
   <v type="int" >        4       14       20       21       24 </v>
   <v type="int" >        4       14       21       22       24 </v>
   <v type="int" >        4       13       19       20       23 </v>
   <v type="int" >        4       13       20       21       23 </v>
   <v type="int" >        4       20       23       24       24 </v>
   <v type="int" >        4       19       19       21       21 </v>
   <v type="int" >        4       19       20       21       21 </v>
   <v type="int" >        4       20       21       21       22 </v>
   <v type="int" >        4       21       21       22       24 </v>
   <v type="int" >        4       13       15       19       20 </v>
   <v type="int" >        4       15       19       20       21 </v>
   <v type="int" >        8       13       14       15       20 </v>
   <v type="int" >        4       14       15       15       20 </v>
   <v type="int" >        4       15       15       20       22 </v>
   <v type="int" >        4        7        9       13       14 </v>
   <v type="int" >        4        9       13       14       15 </v>
   <v type="int" >        8        9       14       15       15 </v>
   <v type="int" >        8        7        7        9       14 </v>
   <v type="int" >        4        9       15       15       22 </v>
   <v type="int" >        4       15       22       22       25 </v>
   <v type="int" >        4       15       21       22       24 </v>
   <v type="int" >        4       15       22       22       24 </v>
   <v type="int" >        8       22       24       24       26 </v>
   <v type="int" >        8       22       24       25       26 </v>
   <v type="int" >        4       21       23       24       24 </v>
   <v type="int" >        4       21       24       24       24 </v>
   <v type="int" >        8       24       24       24       26 </v>
   <v type="int" >        4       23       24       24       24 </v>
   <v type="int" >        4       24       24       24       25 </v>
   <v type="int" >       20       24       24       25       26 </v>
   <v type="int" >        4       21       22       23       24 </v>
   <v type="int" >        4       22       23       24       24 </v>
   <v type="int" >       12       21       22       22       24 </v>
   <v type="int" >        4       22       22       22       24 </v>
   <v type="int" >        4       15       15       21       22 </v>
   <v type="int" >        4       15       22       22       22 </v>
   <v type="int" >        4       15       15       15       22 </v>
   <v type="int" >        4       14       15       22       22 </v>
   <v type="int" >        4        7       15       15       15 </v>
   <v type="int" >        4        4        7        7       15 </v>
   <v type="int" >        4        4        7       14       15 </v>
   <v type="int" >        4       22       24       25       25 </v>
   <v type="int" >        8       24       25       25       26 </v>
   <v type="int" >        6       25       25       26       26 </v>
   <v type="int" >       12       24       25       26       26 </v>
   <v type="int" >        4       24       24       26       26 </v>
   <v type="int" >        8       21       24       24       25 </v>
   <v type="int" >        4       20       21       22       25 </v>
   <v type="int" >        4       20       21       24       25 </v>
   <v type="int" >        4       13       15       22       22 </v>
   <v type="int" >        4       13       21       22       22 </v>
   <v type="int" >        4       12       13       14       22 </v>
   <v type="int" >        4       12       13       20       22 </v>
   <v type="int" >        4        3        7       14       15 </v>
   <v type="int" >        4        3       13       14       15 </v>
   <v type="int" >        4       23       24       25       26 </v>
   <v type="int" >        4       23       24       24       26 </v>
   <v type="int" >        4       21       23       24       26 </v>
   <v type="int" >        4       19       21       24       24 </v>
   <v type="int" >        4       19       23       24       24 </v>
   <v type="int" >        4       13       19       20       24 </v>
   <v type="int" >        4       13       19       21       24 </v>
   <v type="int" >        4       10       13       20       21 </v>
   <v type="int" >        4       10       19       20       21 </v>
   <v type="int" >        4        3       10       12       20 </v>
   <v type="int" >        4        3       10       13       20 </v>
   <v type="int" >        8        3       10       12       13 </v>
   <v type="int" >        4       10       10       12       13 </v>
   <v type="int" >        8        3       10       10       12 </v>
   <v type="int" >        8        3       10       12       12 </v>
   <v type="int" >        4       10       12       12       13 </v>
   <v type="int" >        4       11       19       21       23 </v>
   <v type="int" >        4        6       11       13       21 </v>
   <v type="int" >        4        2       10       13       19 </v>
   <v type="int" >        4        2       11       13       19 </v>
   <v type="int" >        8        2        6       11       13 </v>
   <v type="int" >        4        2        6        6       13 </v>
   <v type="int" >        4        3       10       10       11 </v>
   <v type="int" >        4        3       11       13       13 </v>
   <v type="int" >        4        2        2        6       10 </v>
   <v type="int" >        4        6       10       12       13 </v>
   <v type="int" >        4        3        6       10       12 </v>
   <v type="int" >        4        2        3        3       10 </v>
   <v type="int" >        4        3        3       10       12 </v>
   <v type="int" >        4        3        3        4       12 </v>
   <v type="int" >        4        3        4        7       16 </v>
   <v type="int" >        4        6        7        7        7 </v>
   <v type="int" >        4        6        6        7       13 </v>
   <v type="int" >        8        3        7        7       14 </v>
   <v type="int" >        8        3        7       13       14 </v>
   <v type="int" >        4        3       12       14       20 </v>
   <v type="int" >        4        3       13       14       20 </v>
   <v type="int" >        4        4       12       12       20 </v>
   <v type="int" >        4        4       12       14       20 </v>
   <v type="int" >        4       12       14       20       22 </v>
   <v type="int" >        4       12       20       20       22 </v>
   <v type="int" >        4       12       13       14       21 </v>
   <v type="int" >        4       12       14       20       21 </v>
   <v type="int" >        4       14       21       22       22 </v>
   <v type="int" >        4       13       13       15       20 </v>
   <v type="int" >        4       14       15       20       20 </v>
   <v type="int" >        4       15       20       20       22 </v>
   <v type="int" >        4       12       13       14       14 </v>
   <v type="int" >        4       13       14       14       20 </v>
   <v type="int" >        2       14       14       20       20 </v>
   <v type="int" >        2       12       12       14       14 </v>
   <v type="int" >        8        4        7       12       12 </v>
   <v type="int" >        4        7       12       12       14 </v>
   <v type="int" >        4        3        6        7       12 </v>
   <v type="int" >        4        6        7       12       13 </v>
   <v type="int" >        4        6        7       15       16 </v>
   <v type="int" >        8        6        7       13       15 </v>
   <v type="int" >        4        6       13       15       21 </v>
   <v type="int" >        4        7       13       14       22 </v>
   <v type="int" >        4        7       13       15       22 </v>
   <v type="int" >        4       13       20       22       24 </v>
   <v type="int" >        4       13       21       22       24 </v>
   <v type="int" >        4       14       20       20       24 </v>
   <v type="int" >        4       14       20       22       24 </v>
   <v type="int" >        4       20       22       24       25 </v>
   <v type="int" >        4       20       24       24       25 </v>
   <v type="int" >        6       22       22       24       24 </v>
   <v type="int" >        4       20       21       22       22 </v>
   <v type="int" >        2       20       20       22       22 </v>
   <v type="int" >        4        7        7       13       14 </v>
   <v type="int" >        4        3        7       13       13 </v>
   <v type="int" >        4       15       21       22       25 </v>
   <v type="int" >        4       21       24       25       26 </v>
   <v type="int" >        4       24       26       26       26 </v>
   <v type="int" >        6       24       24       25       25 </v>
   <v type="int" >        4        4        7       13       15 </v>
   <v type="int" >        4        4       13       14       15 </v>
   <v type="int" >        8        4       12       12       13 </v>
   <v type="int" >        4       25       26       26       26 </v>
   <v type="int" >        2       26       26       26       26 </v>
   <v type="int" >        4        4       12       12       14 </v>
   <v type="int" >        4       12       12       12       14 </v>
   <v type="int" >        8        4       12       12       12 </v>
   <v type="int" >        4        3        4        4       12 </v>
   <v type="int" >        4        4        4       12       12 </v>
   <v type="int" >        4        1        5        8       11 </v>
   <v type="int" >        4        1        2        6       11 </v>
   <v type="int" >        4        2        8       10       13 </v>
   <v type="int" >        4        2        8       11       13 </v>
   <v type="int" >        4        2        3        7       13 </v>
   <v type="int" >        4        2        6        7       13 </v>
   <v type="int" >        4        3       10       12       14 </v>
   <v type="int" >        4        3       10       13       14 </v>
   <v type="int" >        4        3        4        6       13 </v>
   <v type="int" >        4        4        6        7       13 </v>
   <v type="int" >        4        3       10       11       12 </v>
   <v type="int" >        4        3       11       12       13 </v>
   <v type="int" >        4        2        2        3       11 </v>
   <v type="int" >        6        2        2        8        8 </v>
   <v type="int" >        6        1        1        8        8 </v>
   <v type="int" >        4        5        5        5        8 </v>
   <v type="int" >        4        6       11       13       15 </v>
   <v type="int" >        4        6        7        9       15 </v>
   <v type="int" >        4        7       13       15       15 </v>
   <v type="int" >        4        7        7        7       15 </v>
   <v type="int" >        4        7       13       13       14 </v>
   <v type="int" >        4        3        7        7       13 </v>
   <v type="int" >        4        6       10       13       13 </v>
   <v type="int" >        4        2        6       10       10 </v>
   <v type="int" >        4        3        6       10       10 </v>
   <v type="int" >        4        2        2       10       11 </v>
   <v type="int" >        2        2        2       10       10 </v>
   <v type="int" >        4        1        8        8       10 </v>
   <v type="int" >        4        1        2        8       10 </v>
   <v type="int" >        4        2        3        8       10 </v>
   <v type="int" >        4        3        8       10       10 </v>
   <v type="int" >        4        4        7        9       14 </v>
   <v type="int" >        4        7       12       13       15 </v>
   <v type="int" >        4        7       12       14       15 </v>
   <v type="int" >        4        3        7       12       12 </v>
   <v type="int" >        4        3        3       10       13 </v>
   <v type="int" >        4        3        3       12       13 </v>
   <v type="int" >        2        3        3       12       12 </v>
   <v type="int" >        2        3        3       10       10 </v>
   <v type="int" >        4        2       10       10       12 </v>
   <v type="int" >        4        2        3       10       12 </v>
   <v type="int" >        4        3        4       10       12 </v>
   <v type="int" >        4        4       10       12       12 </v>
   <v type="int" >        4        4        4       12       14 </v>
   <v type="int" >        4        3       12       12       12 </v>
   <v type="int" >        4        3        4       12       12 </v>
   <v type="int" >        4        1        5        5        5 </v>
   <v type="int" >        2        5        5        5        5 </v>
  </varray>
  <i name="volumeweight">      0.00032552 </i>
 </kpoints>
 <parameters>
  <separator name="general" >
   <i type="string" name="SYSTEM">Fe BCC</i>
   <i type="logical" name="LCOMPAT"> F  </i>
  </separator>
  <separator name="electronic" >
   <i type="string" name="PREC">accura</i>
   <i name="ENMAX">    400.00000000</i>
   <i name="ENAUG">    511.36800000</i>
   <i name="EDIFF">      0.00000100</i>
   <i type="int" name="IALGO">    38</i>
   <i type="int" name="IWAVPR">    10</i>
   <i type="int" name="NBANDS">    12</i>
   <i name="NELECT">      8.00000000</i>
   <i type="int" name="TURBO">     0</i>
   <i type="int" name="IRESTART">     0</i>
   <i type="int" name="NREBOOT">     0</i>
   <i type="int" name="NMIN">     0</i>
   <i name="EREF">      0.00000000</i>
   <separator name="electronic smearing" >
    <i type="int" name="ISMEAR">    -5</i>
    <i name="SIGMA">      0.20000000</i>
    <i name="KSPACING">      0.50000000</i>
    <i type="logical" name="KGAMMA"> T  </i>
   </separator>
   <separator name="electronic projectors" >
    <i type="logical" name="LREAL"> F  </i>
    <v name="ROPT">      0.00000000</v>
    <i type="int" name="LMAXPAW">  -100</i>
    <i type="int" name="LMAXMIX">     2</i>
    <i type="logical" name="NLSPLINE"> F  </i>
   </separator>
   <separator name="electronic startup" >
    <i type="int" name="ISTART">     0</i>
    <i type="int" name="ICHARG">     2</i>
    <i type="int" name="INIWAV">     1</i>
   </separator>
   <separator name="electronic spin" >
    <i type="int" name="ISPIN">     2</i>
    <i type="logical" name="LNONCOLLINEAR"> F  </i>
    <v name="MAGMOM">      4.00000000</v>
    <i name="NUPDOWN">     -1.00000000</i>
    <i type="logical" name="LSORBIT"> F  </i>
    <v name="SAXIS">      0.00000000      0.00000000      1.00000000</v>
    <i type="logical" name="LSPIRAL"> F  </i>
    <v name="QSPIRAL">      0.00000000      0.00000000      0.00000000</v>
    <i type="logical" name="LZEROZ"> F  </i>
   </separator>
   <separator name="electronic exchange-correlation" >
    <i type="logical" name="LASPH"> F  </i>
    <i type="logical" name="LMETAGGA"> F  </i>
   </separator>
   <separator name="electronic convergence" >
    <i type="int" name="NELM">    60</i>
    <i type="int" name="NELMDL">    -5</i>
    <i type="int" name="NELMIN">     2</i>
    <i name="ENINI">    400.00000000</i>
    <separator name="electronic convergence detail" >
     <i type="logical" name="LDIAG"> T  </i>
     <i type="logical" name="LSUBROT"> F  </i>
     <i name="WEIMIN">      0.00000000</i>
     <i name="EBREAK">      0.00000002</i>
     <i name="DEPER">      0.30000000</i>
     <i type="int" name="NRMM">     4</i>
     <i name="TIME">      0.40000000</i>
    </separator>
   </separator>
   <separator name="electronic mixer" >
    <i name="AMIX">      0.40000000</i>
    <i name="BMIX">      1.00000000</i>
    <i name="AMIN">      0.10000000</i>
    <i name="AMIX_MAG">      1.60000000</i>
    <i name="BMIX_MAG">      1.00000000</i>
    <separator name="electronic mixer details" >
     <i type="int" name="IMIX">     4</i>
     <i type="logical" name="MIXFIRST"> F  </i>
     <i type="int" name="MAXMIX">   -45</i>
     <i name="WC">    100.00000000</i>
     <i type="int" name="INIMIX">     1</i>
     <i type="int" name="MIXPRE">     1</i>
     <i type="int" name="MREMOVE">     5</i>
    </separator>
   </separator>
   <separator name="electronic dipolcorrection" >
    <i type="logical" name="LDIPOL"> F  </i>
    <i type="logical" name="LMONO"> F  </i>
    <i type="int" name="IDIPOL">     0</i>
    <i name="EPSILON">      1.00000000</i>
    <v name="DIPOL">   -100.00000000   -100.00000000   -100.00000000</v>
    <i name="EFIELD">      0.00000000</i>
   </separator>
  </separator>
  <separator name="grids" >
   <i type="int" name="NGX">    12</i>
   <i type="int" name="NGY">    12</i>
   <i type="int" name="NGZ">    12</i>
   <i type="int" name="NGXF">    24</i>
   <i type="int" name="NGYF">    24</i>
   <i type="int" name="NGZF">    24</i>
   <i type="logical" name="ADDGRID"> F  </i>
  </separator>
  <separator name="ionic" >
   <i type="int" name="NSW">     0</i>
   <i type="int" name="IBRION">    -1</i>
   <i type="int" name="ISIF">     2</i>
   <i name="PSTRESS">      0.00000000</i>
   <i name="EDIFFG">      0.00001000</i>
   <i type="int" name="NFREE">     0</i>
   <i name="POTIM">      0.50000000</i>
   <i name="SMASS">     -3.00000000</i>
   <i name="SCALEE">      1.00000000</i>
  </separator>
  <separator name="ionic md" >
   <i name="TEBEG">      0.00010000</i>
   <i name="TEEND">      0.00010000</i>
   <i type="int" name="NBLOCK">     1</i>
   <i type="int" name="KBLOCK">     1</i>
   <i type="int" name="NPACO">   256</i>
   <i name="APACO">     16.00000000</i>
  </separator>
  <separator name="symmetry" >
   <i type="int" name="ISYM">     2</i>
   <i name="SYMPREC">      0.00001000</i>
  </separator>
  <separator name="dos" >
   <i type="logical" name="LORBIT"> F  </i>
   <v name="RWIGS">     -1.00000000</v>
   <i type="int" name="NEDOS">   301</i>
   <i name="EMIN">     10.00000000</i>
   <i name="EMAX">    -10.00000000</i>
   <i name="EFERMI">      0.00000000</i>
  </separator>
  <separator name="writing" >
   <i type="int" name="NWRITE">     2</i>
   <i type="logical" name="LWAVE"> T  </i>
   <i type="logical" name="LCHARG"> T  </i>
   <i type="logical" name="LPARD"> F  </i>
   <i type="logical" name="LVTOT"> F  </i>
   <i type="logical" name="LVHAR"> F  </i>
   <i type="logical" name="LELF"> F  </i>
   <i type="logical" name="LOPTICS"> F  </i>
   <v name="STM">      0.00000000      0.00000000      0.00000000      0.00000000      0.00000000      0.00000000      0.00000000</v>
  </separator>
  <separator name="performance" >
   <i type="int" name="NPAR">     4</i>
   <i type="int" name="NSIM">     4</i>
   <i type="int" name="NBLK">    -1</i>
   <i type="logical" name="LPLANE"> T  </i>
   <i type="logical" name="LSCALAPACK"> F  </i>
   <i type="logical" name="LSCAAWARE"> F  </i>
   <i type="logical" name="LSCALU"> F  </i>
   <i type="logical" name="LASYNC"> F  </i>
   <i type="logical" name="LORBITALREAL"> F  </i>
  </separator>
  <separator name="miscellaneous" >
   <i type="int" name="IDIOT">     3</i>
   <i type="logical" name="LMUSIC"> F  </i>
   <v name="POMASS">     55.84700000</v>
   <v name="DARWINR">      0.00000000</v>
   <v name="DARWINV">      1.00000000</v>
   <i type="logical" name="LCORR"> T  </i>
  </separator>
  <i type="logical" name="GGA_COMPAT"> T  </i>
  <i type="logical" name="LBERRY"> F  </i>
  <i type="int" name="ICORELEVEL">     0</i>
  <i type="logical" name="LDAU"> F  </i>
  <i type="int" name="I_CONSTRAINED_M">     0</i>
  <separator name="electronic exchange-correlation" >
   <i type="string" name="GGA">--</i>
   <i type="int" name="VOSKOWN">     0</i>
   <i type="logical" name="LHFCALC"> F  </i>
   <i type="string" name="PRECFOCK"></i>
   <i type="logical" name="LSYMGRAD"> F  </i>
   <i type="logical" name="LHFONE"> F  </i>
   <i type="logical" name="LRHFCALC"> F  </i>
   <i type="logical" name="LTHOMAS"> F  </i>
   <i type="logical" name="LMODELHF"> F  </i>
   <i name="ENCUT4O">     -1.00000000</i>
   <i type="int" name="EXXOEP">     0</i>
   <i type="int" name="FOURORBIT">     0</i>
   <i name="AEXX">      0.00000000</i>
   <i name="HFALPHA">      0.00000000</i>
   <i name="MCALPHA">      0.00000000</i>
   <i name="ALDAX">      1.00000000</i>
   <i name="AGGAX">      1.00000000</i>
   <i name="ALDAC">      1.00000000</i>
   <i name="AGGAC">      1.00000000</i>
   <i type="int" name="NKREDX">     1</i>
   <i type="int" name="NKREDY">     1</i>
   <i type="int" name="NKREDZ">     1</i>
   <i type="logical" name="SHIFTRED"> F  </i>
   <i type="logical" name="ODDONLY"> F  </i>
   <i type="logical" name="EVENONLY"> F  </i>
   <i type="int" name="LMAXFOCK">     0</i>
   <i type="int" name="NMAXFOCKAE">     0</i>
   <i type="logical" name="LFOCKAEDFT"> F  </i>
   <i name="HFSCREEN">      0.00000000</i>
   <i name="HFSCREENC">      0.00000000</i>
   <i type="int" name="NBANDSGWLOW">     0</i>
  </separator>
  <separator name="vdW DFT" >
   <i type="logical" name="LUSE_VDW"> F  </i>
   <i name="Zab_VDW">     -0.84910000</i>
   <i name="PARAM1">      0.12340000</i>
   <i name="PARAM2">      1.00000000</i>
   <i name="PARAM3">      0.00000000</i>
  </separator>
  <separator name="model GW" >
   <i type="int" name="MODEL_GW">     0</i>
   <i name="MODEL_EPS0">      2.40000000</i>
   <i name="MODEL_ALPHA">      1.00000000</i>
  </separator>
  <separator name="linear response parameters" >
   <i type="logical" name="LEPSILON"> F  </i>
   <i type="logical" name="LRPA"> F  </i>
   <i type="logical" name="LNABLA"> F  </i>
   <i type="logical" name="LVEL"> F  </i>
   <i type="int" name="KINTER">     0</i>
   <i name="CSHIFT">      0.10000000</i>
   <i name="OMEGAMAX">     -1.00000000</i>
   <i name="DEG_THRESHOLD">      0.00200000</i>
  </separator>
  <separator name="orbital magnetization" >
   <i type="logical" name="NUCIND"> F  </i>
   <v name="MAGPOS">      0.00000000      0.00000000      0.00000000</v>
   <i type="logical" name="LNICSALL"> T  </i>
   <i type="logical" name="ORBITALMAG"> F  </i>
   <i type="logical" name="LMAGBLOCH"> F  </i>
   <i type="logical" name="LCHIMAG"> F  </i>
   <i type="logical" name="LGAUGE"> T  </i>
   <i type="int" name="MAGATOM">     0</i>
   <v name="MAGDIPOL">      0.00000000      0.00000000      0.00000000</v>
   <v name="AVECCONST">      0.00000000      0.00000000      0.00000000</v>
  </separator>
  <separator name="response functions" >
   <i type="logical" name="LADDER"> F  </i>
   <i type="logical" name="LFXC"> F  </i>
   <i type="logical" name="LHARTREE"> T  </i>
   <i type="int" name="IBSE">     0</i>
   <v type="int" name="KPOINT">    -1     0     0     0</v>
   <i type="logical" name="LTCTE"> F  </i>
   <i type="logical" name="LTETE"> F  </i>
   <i type="logical" name="LTRIPLET"> F  </i>
   <i type="logical" name="LFXCEPS"> F  </i>
   <i type="logical" name="LFXHEG"> F  </i>
   <i type="int" name="NATURALO">     0</i>
   <i type="logical" name="L2ORDER"> F  </i>
   <i type="logical" name="LUSEW"> F  </i>
   <i name="ENCUTGW">     -2.00000000</i>
   <i name="ENCUTGWSOFT">     -2.00000000</i>
   <i name="ENCUTLF">     -1.00000000</i>
   <i type="int" name="LMAXMP2">    -1</i>
   <i name="SCISSOR">      0.00000000</i>
   <i type="int" name="NOMEGA">     0</i>
   <i type="int" name="NOMEGAR">     0</i>
   <i type="int" name="NBANDSGW">    -1</i>
   <i type="int" name="NBANDSO">    -1</i>
   <i type="int" name="NBANDSV">    -1</i>
   <i type="int" name="NELM">     1</i>
   <i type="int" name="NELMHF">     1</i>
   <i type="int" name="DIM">     3</i>
   <i type="int" name="ANTIRES">     0</i>
   <i name="OMEGAMAX">    -30.00000000</i>
   <i name="OMEGAMIN">    -30.00000000</i>
   <i name="OMEGATL">   -200.00000000</i>
   <i type="int" name="OMEGAGRID">     0</i>
   <i name="CSHIFT">     -0.10000000</i>
   <i type="logical" name="SELFENERGY"> F  </i>
   <i type="logical" name="LSPECTRAL"> F  </i>
   <i type="logical" name="LSPECTRALGW"> F  </i>
   <i type="logical" name="LSINGLES"> F  </i>
   <i type="logical" name="LFERMIGW"> F  </i>
   <i type="logical" name="ODDONLYGW"> F  </i>
   <i type="logical" name="EVENONLYGW"> F  </i>
   <i type="int" name="NKREDLFX">     1</i>
   <i type="int" name="NKREDLFY">     1</i>
   <i type="int" name="NKREDLFZ">     1</i>
   <i type="int" name="MAXMEM">  1800</i>
   <i type="int" name="TELESCOPE">     0</i>
   <i type="int" name="TAUPAR">     1</i>
   <i type="int" name="OMEGAPAR">    -1</i>
   <i name="LAMBDA">      1.00000000</i>
  </separator>
  <separator name="External order field" >
   <i name="OFIELD_KAPPA">      0.00000000</i>
   <v name="OFIELD_K">      0.00000000      0.00000000      0.00000000</v>
   <i name="OFIELD_Q6_NEAR">      0.00000000</i>
   <i name="OFIELD_Q6_FAR">      0.00000000</i>
   <i name="OFIELD_A">      0.00000000</i>
  </separator>
 </parameters>
 <atominfo>
  <atoms>       1 </atoms>
  <types>       1 </types>
  <array name="atoms" >
   <dimension dim="1">ion</dimension>
   <field type="string">element</field>
   <field type="int">atomtype</field>
   <set>
    <rc><c>Fe</c><c>   1</c></rc>
   </set>
  </array>
  <array name="atomtypes" >
   <dimension dim="1">type</dimension>
   <field type="int">atomspertype</field>
   <field type="string">element</field>
   <field>mass</field>
   <field>valence</field>
   <field type="string">pseudopotential</field>
   <set>
    <rc><c>   1</c><c>Fe</c><c>     55.84700000</c><c>      8.00000000</c><c>  PAW Fe 03Mar1998                      </c></rc>
   </set>
  </array>
 </atominfo>
 <structure name="initialpos" >
  <crystal>
   <varray name="basis" >
    <v>      -1.00000000       1.00000000       1.00000000 </v>
    <v>       1.00000000      -1.00000000       1.00000000 </v>
    <v>       1.00000000       1.00000000      -1.00000000 </v>
   </varray>
   <i name="volume">      4.00000000 </i>
   <varray name="rec_basis" >
    <v>       0.00000000       0.50000000       0.50000000 </v>
    <v>       0.50000000       0.00000000       0.50000000 </v>
    <v>       0.50000000       0.50000000       0.00000000 </v>
   </varray>
  </crystal>
  <varray name="positions" >
   <v>       0.00000000       0.00000000       0.00000000 </v>
  </varray>
 </structure>
 <calculation>
  <scstep>
   <time name="dav">    0.87    0.52</time>
   <time name="total">    1.06    0.63</time>
   <energy>
    <i name="alphaZ">    167.44109000 </i>
    <i name="ewald">   -838.46699387 </i>
    <i name="hartreedc">    -42.79496236 </i>
    <i name="XCdc">     10.31596697 </i>
    <i name="pawpsdc">    552.76102510 </i>
    <i name="pawaedc">   -562.19386350 </i>
    <i name="eentropy">      0.00000000 </i>
    <i name="bandstr">    143.90777193 </i>
    <i name="atom">    597.35192723 </i>
    <i name="e_fr_energy">     28.32196150 </i>
    <i name="e_wo_entrp">     28.32196150 </i>
    <i name="e_0_energy">     28.32196150 </i>
   </energy>
  </scstep>
  <scstep>
   <time name="dav">    0.58    0.30</time>
   <time name="total">    0.68    0.35</time>
   <energy>
    <i name="e_fr_energy">      7.85170942 </i>
    <i name="e_wo_entrp">      7.85170942 </i>
    <i name="e_0_energy">      7.85170942 </i>
   </energy>
  </scstep>
  <scstep>
   <time name="dav">    0.58    0.29</time>
   <time name="total">    0.70    0.35</time>
   <energy>
    <i name="e_fr_energy">      7.62887724 </i>
    <i name="e_wo_entrp">      7.62887724 </i>
    <i name="e_0_energy">      7.62887724 </i>
   </energy>
  </scstep>
  <scstep>
   <time name="dav">    0.54    0.27</time>
   <time name="total">    0.64    0.32</time>
   <energy>
    <i name="e_fr_energy">      7.62872293 </i>
    <i name="e_wo_entrp">      7.62872293 </i>
    <i name="e_0_energy">      7.62872293 </i>
   </energy>
  </scstep>
  <scstep>
   <time name="dav">    1.37    0.69</time>
   <time name="total">    1.52    0.76</time>
   <energy>
    <i name="e_fr_energy">      7.62872284 </i>
    <i name="e_wo_entrp">      7.62872284 </i>
    <i name="e_0_energy">      7.62872284 </i>
   </energy>
  </scstep>
  <scstep>
   <time name="dav">    0.52    0.26</time>
   <time name="total">    0.67    0.33</time>
   <energy>
    <i name="e_fr_energy">      6.96392694 </i>
    <i name="e_wo_entrp">      6.96392694 </i>
    <i name="e_0_energy">      6.96392694 </i>
   </energy>
  </scstep>
  <scstep>
   <time name="dav">    0.56    0.28</time>
   <time name="total">    0.70    0.35</time>
   <energy>
    <i name="e_fr_energy">      7.16176878 </i>
    <i name="e_wo_entrp">      7.16176878 </i>
    <i name="e_0_energy">      7.16176878 </i>
   </energy>
  </scstep>
  <scstep>
   <time name="dav">    0.56    0.28</time>
   <time name="total">    0.71    0.36</time>
   <energy>
    <i name="e_fr_energy">      7.38034152 </i>
    <i name="e_wo_entrp">      7.38034152 </i>
    <i name="e_0_energy">      7.38034152 </i>
   </energy>
  </scstep>
  <scstep>
   <time name="dav">    0.59    0.29</time>
   <time name="total">    0.73    0.37</time>
   <energy>
    <i name="e_fr_energy">      7.33081372 </i>
    <i name="e_wo_entrp">      7.33081372 </i>
    <i name="e_0_energy">      7.33081372 </i>
   </energy>
  </scstep>
  <scstep>
   <time name="dav">    0.54    0.27</time>
   <time name="total">    0.71    0.36</time>
   <energy>
    <i name="e_fr_energy">      7.32803431 </i>
    <i name="e_wo_entrp">      7.32803431 </i>
    <i name="e_0_energy">      7.32803431 </i>
   </energy>
  </scstep>
  <scstep>
   <time name="dav">    1.18    0.58</time>
   <time name="total">    1.37    0.68</time>
   <energy>
    <i name="e_fr_energy">      7.32820608 </i>
    <i name="e_wo_entrp">      7.32820608 </i>
    <i name="e_0_energy">      7.32820608 </i>
   </energy>
  </scstep>
  <scstep>
   <time name="dav">    0.57    0.28</time>
   <time name="total">    0.72    0.36</time>
   <energy>
    <i name="e_fr_energy">      7.32816171 </i>
    <i name="e_wo_entrp">      7.32816171 </i>
    <i name="e_0_energy">      7.32816171 </i>
   </energy>
  </scstep>
  <scstep>
   <time name="dav">    0.56    0.28</time>
   <time name="total">    0.71    0.35</time>
   <energy>
    <i name="e_fr_energy">      7.32819002 </i>
    <i name="e_wo_entrp">      7.32819002 </i>
    <i name="e_0_energy">      7.32819002 </i>
   </energy>
  </scstep>
  <scstep>
   <time name="dav">    0.56    0.28</time>
   <time name="total">    0.70    0.35</time>
   <energy>
    <i name="e_fr_energy">      7.32819276 </i>
    <i name="e_wo_entrp">      7.32819276 </i>
    <i name="e_0_energy">      7.32819276 </i>
   </energy>
  </scstep>
  <scstep>
   <time name="dav">    0.34    0.17</time>
   <time name="total">    0.46    0.23</time>
   <energy>
    <i name="alphaZ">    167.44109000 </i>
    <i name="ewald">   -838.46699387 </i>
    <i name="hartreedc">    -38.44133014 </i>
    <i name="XCdc">      7.62831909 </i>
    <i name="pawpsdc">   2684.86038409 </i>
    <i name="pawaedc">  -2710.72970300 </i>
    <i name="eentropy">      0.00000000 </i>
    <i name="bandstr">    137.68449920 </i>
    <i name="atom">    597.35192723 </i>
    <i name="e_fr_energy">      7.32819260 </i>
    <i name="e_wo_entrp">      7.32819260 </i>
    <i name="e_0_energy">      7.32819260 </i>
   </energy>
  </scstep>
  <structure>
   <crystal>
    <varray name="basis" >
     <v>      -1.00000000       1.00000000       1.00000000 </v>
     <v>       1.00000000      -1.00000000       1.00000000 </v>
     <v>       1.00000000       1.00000000      -1.00000000 </v>
    </varray>
    <i name="volume">      4.00000000 </i>
    <varray name="rec_basis" >
     <v>       0.00000000       0.50000000       0.50000000 </v>
     <v>       0.50000000       0.00000000       0.50000000 </v>
     <v>       0.50000000       0.50000000       0.00000000 </v>
    </varray>
   </crystal>
   <varray name="positions" >
    <v>       0.00000000       0.00000000       0.00000000 </v>
   </varray>
  </structure>
  <varray name="forces" >
   <v>       0.00000000       0.00000000      -0.00000000 </v>
  </varray>
  <varray name="stress" >
   <v>   18337.22625963       0.00000000       0.00000000 </v>
   <v>       0.00000000   18337.22625963       0.00000000 </v>
   <v>       0.00000000       0.00000000   18337.22625963 </v>
  </varray>
  <energy>
   <i name="e_fr_energy">      7.32819260 </i>
   <i name="e_wo_entrp">      7.32819260 </i>
   <i name="e_0_energy">      0.00000000 </i>
  </energy>
  <time name="totalsc">   12.44    6.37</time>
  <eigenvalues>
   <array>
    <dimension dim="1">band</dimension>
    <dimension dim="2">kpoint</dimension>
    <dimension dim="3">spin</dimension>
    <field>eigene</field>
    <field>occ</field>
    <set>
     <set comment="spin 1">
      <set comment="kpoint 1">
       <r>   15.6592    1.0000 </r>
       <r>   16.6892    1.0000 </r>
       <r>   16.6892    1.0000 </r>
       <r>   20.9306    1.0000 </r>
       <r>   23.3142    1.0207 </r>
       <r>   23.3142    0.7725 </r>
       <r>   59.8667    0.0000 </r>
       <r>   59.8667    0.0000 </r>
       <r>   61.4963    0.0000 </r>
       <r>   68.7017    0.0000 </r>
       <r>   68.7017    0.0000 </r>
       <r>   69.6421    0.0000 </r>
      </set>
      <set comment="kpoint 2">
       <r>   13.8426    1.0000 </r>
       <r>   14.7508    1.0000 </r>
       <r>   19.3610    1.0000 </r>
       <r>   23.1395    1.0013 </r>
       <r>   24.2336    0.6084 </r>
       <r>   26.3134   -0.0161 </r>
       <r>   57.1446    0.0000 </r>
       <r>   57.3082    0.0000 </r>
       <r>   65.7175    0.0000 </r>
       <r>   68.3852    0.0000 </r>
       <r>   70.1548    0.0000 </r>
       <r>   72.3301    0.0000 </r>
      </set>
      <set comment="kpoint 3">
       <r>   11.0344    1.0000 </r>
       <r>   13.2609    1.0000 </r>
       <r>   23.8205    0.9999 </r>
       <r>   24.1287    0.9596 </r>
       <r>   25.0758    0.0036 </r>
       <r>   32.1717    0.0000 </r>
       <r>   53.0066    0.0000 </r>
       <r>   53.5252    0.0000 </r>
       <r>   65.6510    0.0000 </r>
       <r>   70.2967    0.0000 </r>
       <r>   71.9983    0.0000 </r>
       <r>   76.2630    0.0000 </r>
      </set>
      <set comment="kpoint 4">
       <r>    9.9262    1.0000 </r>
       <r>   12.7181    1.0000 </r>
       <r>   24.5822    0.9913 </r>
       <r>   25.4792    0.0297 </r>
       <r>   26.1986    0.0000 </r>
       <r>   35.1817    0.0000 </r>
       <r>   50.3647    0.0000 </r>
       <r>   51.8512    0.0000 </r>
       <r>   64.1239    0.0000 </r>
       <r>   71.3384    0.0000 </r>
       <r>   73.4474    0.0000 </r>
       <r>   78.7869    0.0000 </r>
      </set>
      <set comment="kpoint 5">
       <r>   14.5824    1.0000 </r>
       <r>   17.7905    1.0000 </r>
       <r>   17.7905    1.0000 </r>
       <r>   18.2010    1.0000 </r>
       <r>   22.7289    1.0000 </r>
       <r>   24.1220    0.7642 </r>
       <r>   59.2375    0.0000 </r>
       <r>   60.7929    0.0000 </r>
       <r>   60.7929    0.0000 </r>
       <r>   68.0590    0.0000 </r>
       <r>   68.6712    0.0000 </r>
       <r>   68.6712    0.0000 </r>
      </set>
      <set comment="kpoint 6">
       <r>   13.0785    1.0000 </r>
       <r>   14.0879    1.0000 </r>
       <r>   19.5524    1.0000 </r>
       <r>   23.6243    1.0375 </r>
       <r>   25.3138   -0.0152 </r>
       <r>   33.1535   -0.0012 </r>
       <r>   54.0742    0.0000 </r>
       <r>   54.7856    0.0000 </r>
       <r>   65.5195    0.0000 </r>
       <r>   69.0721    0.0000 </r>
       <r>   73.2902    0.0000 </r>
       <r>   73.6103    0.0000 </r>
      </set>
      <set comment="kpoint 7">
       <r>   12.1060    1.0000 </r>
       <r>   13.8574    1.0000 </r>
       <r>   20.8844    1.0001 </r>
       <r>   24.5199    0.5367 </r>
       <r>   25.8740   -0.0003 </r>
       <r>   39.0390    0.0000 </r>
       <r>   50.1102    0.0000 </r>
       <r>   52.5675    0.0000 </r>
       <r>   62.6456    0.0000 </r>
       <r>   72.1684    0.0000 </r>
       <r>   75.0133    0.0000 </r>
       <r>   77.3748    0.0000 </r>
      </set>
      <set comment="kpoint 8">
       <r>   15.0479    1.0000 </r>
       <r>   16.3747    1.0000 </r>
       <r>   19.0444    1.0000 </r>
       <r>   20.8981    1.0000 </r>
       <r>   21.4231    1.1141 </r>
       <r>   25.0481    0.0603 </r>
       <r>   58.3385    0.0000 </r>
       <r>   60.3950    0.0000 </r>
       <r>   64.2009    0.0000 </r>
       <r>   67.5964    0.0000 </r>
       <r>   68.8796    0.0000 </r>
       <r>   70.8140    0.0000 </r>
      </set>
      <set comment="kpoint 9">
       <r>   12.3488    1.0000 </r>
       <r>   17.1699    1.0000 </r>
       <r>   17.1699    1.0000 </r>
       <r>   25.3338   -0.0130 </r>
       <r>   25.3338    0.0000 </r>
       <r>   45.4916    0.0000 </r>
       <r>   45.4916    0.0000 </r>
       <r>   51.7606    0.0000 </r>
       <r>   61.6892    0.0000 </r>
       <r>   75.0539    0.0000 </r>
       <r>   75.0539    0.0000 </r>
       <r>   76.4782    0.0000 </r>
      </set>
      <set comment="kpoint 10">
       <r>   11.8650    1.0000 </r>
       <r>   14.4746    1.0000 </r>
       <r>   21.2666    1.0001 </r>
       <r>   23.7162    1.0007 </r>
       <r>   25.4141    0.0910 </r>
       <r>   27.5874   -0.0033 </r>
       <r>   55.5326    0.0000 </r>
       <r>   55.7547    0.0000 </r>
       <r>   66.3468    0.0000 </r>
       <r>   69.3688    0.0000 </r>
       <r>   70.2791    0.0000 </r>
       <r>   75.6990    0.0000 </r>
      </set>
      <set comment="kpoint 11">
       <r>   14.3712    1.0000 </r>
       <r>   15.1184    1.0000 </r>
       <r>   19.1857    1.0000 </r>
       <r>   20.8089    1.0000 </r>
       <r>   24.5752    0.3719 </r>
       <r>   28.3672   -0.0135 </r>
       <r>   56.8610    0.0000 </r>
       <r>   58.2045    0.0000 </r>
       <r>   65.5047    0.0000 </r>
       <r>   66.9953    0.0000 </r>
       <r>   71.9051    0.0000 </r>
       <r>   73.6654    0.0000 </r>
      </set>
      <set comment="kpoint 12">
       <r>    9.5776    1.0000 </r>
       <r>   13.2770    1.0000 </r>
       <r>   22.8981    1.0021 </r>
       <r>   24.1805    0.9369 </r>
       <r>   29.1898   -0.0009 </r>
       <r>   32.3969    0.0000 </r>
       <r>   51.4543    0.0000 </r>
       <r>   52.6575    0.0000 </r>
       <r>   64.5985    0.0000 </r>
       <r>   70.7216    0.0000 </r>
       <r>   72.9887    0.0000 </r>
       <r>   76.8647    0.0000 </r>
      </set>
      <set comment="kpoint 13">
       <r>   11.9003    1.0000 </r>
       <r>   14.3038    1.0000 </r>
       <r>   19.6020    1.0001 </r>
       <r>   22.6559    1.0323 </r>
       <r>   26.8039   -0.0117 </r>
       <r>   34.5287    0.0000 </r>
       <r>   53.2890    0.0000 </r>
       <r>   54.7733    0.0000 </r>
       <r>   64.4057    0.0000 </r>
       <r>   68.2604    0.0000 </r>
       <r>   74.7093    0.0000 </r>
       <r>   75.1945    0.0000 </r>
      </set>
      <set comment="kpoint 14">
       <r>   10.7771    1.0000 </r>
       <r>   14.1437    1.0000 </r>
       <r>   19.8224    1.0008 </r>
       <r>   23.1833    1.0580 </r>
       <r>   28.1707    0.0000 </r>
       <r>   38.4979    0.0000 </r>
       <r>   50.1087    0.0000 </r>
       <r>   53.5194    0.0000 </r>
       <r>   63.0406    0.0000 </r>
       <r>   70.2289    0.0000 </r>
       <r>   73.3634    0.0000 </r>
       <r>   75.7843    0.0000 </r>
      </set>
      <set comment="kpoint 15">
       <r>   12.9454    1.0000 </r>
       <r>   14.1227    1.0000 </r>
       <r>   17.2463    1.0000 </r>
       <r>   24.0147    0.9840 </r>
       <r>   26.4940    0.0000 </r>
       <r>   42.0070    0.0000 </r>
       <r>   49.6152    0.0000 </r>
       <r>   52.7010    0.0000 </r>
       <r>   64.7335    0.0000 </r>
       <r>   68.1028    0.0000 </r>
       <r>   71.6699    0.0000 </r>
       <r>   80.1571    0.0000 </r>
      </set>
      <set comment="kpoint 16">
       <r>   13.9720    1.0000 </r>
       <r>   13.9720    1.0000 </r>
       <r>   19.1424    1.0000 </r>
       <r>   25.2316    0.0282 </r>
       <r>   25.2316   -0.0006 </r>
       <r>   39.5015    0.0000 </r>
       <r>   51.6115    0.0000 </r>
       <r>   51.6115    0.0000 </r>
       <r>   61.2964    0.0000 </r>
       <r>   74.7158    0.0000 </r>
       <r>   74.7158    0.0000 </r>
       <r>   75.5823    0.0000 </r>
      </set>
      <set comment="kpoint 17">
       <r>   14.0696    1.0000 </r>
       <r>   14.8313    1.0000 </r>
       <r>   18.6902    1.0000 </r>
       <r>   25.4578   -0.0373 </r>
       <r>   25.6696    0.0000 </r>
       <r>   43.8316    0.0000 </r>
       <r>   48.2537    0.0000 </r>
       <r>   50.6276    0.0000 </r>
       <r>   59.3902    0.0000 </r>
       <r>   75.1202    0.0000 </r>
       <r>   77.6027    0.0000 </r>
       <r>   78.8360    0.0000 </r>
      </set>
      <set comment="kpoint 18">
       <r>   16.8063    1.0000 </r>
       <r>   17.5637    1.0000 </r>
       <r>   18.3000    1.0000 </r>
       <r>   18.3000    1.0000 </r>
       <r>   20.7626    1.3117 </r>
       <r>   28.3667   -0.0204 </r>
       <r>   58.2822    0.0000 </r>
       <r>   62.8025    0.0000 </r>
       <r>   64.4121    0.0000 </r>
       <r>   64.4121    0.0000 </r>
       <r>   70.9293    0.0000 </r>
       <r>   70.9293    0.0000 </r>
      </set>
      <set comment="kpoint 19">
       <r>   13.0069    1.0000 </r>
       <r>   16.6137    1.0000 </r>
       <r>   17.5850    1.0000 </r>
       <r>   20.9598    1.0000 </r>
       <r>   24.7574    0.1338 </r>
       <r>   32.8315    0.0000 </r>
       <r>   56.6674    0.0000 </r>
       <r>   58.2003    0.0000 </r>
       <r>   62.9052    0.0000 </r>
       <r>   65.6103    0.0000 </r>
       <r>   74.2041    0.0000 </r>
       <r>   74.3577    0.0000 </r>
      </set>
      <set comment="kpoint 20">
       <r>   10.6945    1.0000 </r>
       <r>   16.4819    1.0000 </r>
       <r>   16.6818    1.0000 </r>
       <r>   21.7007    1.0087 </r>
       <r>   28.7567    0.0000 </r>
       <r>   38.5760    0.0000 </r>
       <r>   51.5278    0.0000 </r>
       <r>   56.5526    0.0000 </r>
       <r>   60.5702    0.0000 </r>
       <r>   68.1270    0.0000 </r>
       <r>   71.8630    0.0000 </r>
       <r>   76.3122    0.0000 </r>
      </set>
      <set comment="kpoint 21">
       <r>   11.4740    1.0000 </r>
       <r>   14.2299    1.0000 </r>
       <r>   18.1125    1.0021 </r>
       <r>   22.4485    1.0029 </r>
       <r>   26.9203   -0.0018 </r>
       <r>   38.8870    0.0000 </r>
       <r>   54.4864    0.0000 </r>
       <r>   55.1048    0.0000 </r>
       <r>   62.9682    0.0000 </r>
       <r>   63.7166    0.0000 </r>
       <r>   72.2614    0.0000 </r>
       <r>   78.7768    0.0000 </r>
      </set>
      <set comment="kpoint 22">
       <r>   11.0072    1.0000 </r>
       <r>   13.3783    1.0000 </r>
       <r>   17.2383    1.0049 </r>
       <r>   23.9650    0.9335 </r>
       <r>   28.0026    0.0000 </r>
       <r>   44.2665    0.0000 </r>
       <r>   49.7261    0.0000 </r>
       <r>   53.6830    0.0000 </r>
       <r>   62.2842    0.0000 </r>
       <r>   66.0117    0.0000 </r>
       <r>   69.7244    0.0000 </r>
       <r>   80.2943    0.0000 </r>
      </set>
      <set comment="kpoint 23">
       <r>   10.4315    1.0000 </r>
       <r>   13.8256    1.0000 </r>
       <r>   21.7832    1.0016 </r>
       <r>   21.7832    1.0070 </r>
       <r>   24.7778    0.0387 </r>
       <r>   37.5688    0.0000 </r>
       <r>   58.8408    0.0000 </r>
       <r>   58.8408    0.0000 </r>
       <r>   58.9280    0.0000 </r>
       <r>   60.0209    0.0000 </r>
       <r>   75.1258    0.0000 </r>
       <r>   78.1538    0.0000 </r>
      </set>
      <set comment="kpoint 24">
       <r>    8.8510    1.0000 </r>
       <r>   10.8781    1.0000 </r>
       <r>   22.2970    0.9901 </r>
       <r>   23.7191    0.8237 </r>
       <r>   28.1682    0.0000 </r>
       <r>   43.3762    0.0000 </r>
       <r>   51.9497    0.0000 </r>
       <r>   55.2485    0.0000 </r>
       <r>   59.4674    0.0000 </r>
       <r>   62.5032    0.0000 </r>
       <r>   73.1170    0.0000 </r>
       <r>   80.3748    0.0000 </r>
      </set>
      <set comment="kpoint 25">
       <r>    8.5548    1.0000 </r>
       <r>    8.5548    1.0000 </r>
       <r>   22.8237    0.9428 </r>
       <r>   27.4714   -0.1777 </r>
       <r>   27.4714    0.0000 </r>
       <r>   48.8700    0.0000 </r>
       <r>   48.8700    0.0000 </r>
       <r>   50.8841    0.0000 </r>
       <r>   61.3341    0.0000 </r>
       <r>   61.3341    0.0000 </r>
       <r>   72.9670    0.0000 </r>
       <r>   83.6005    0.0000 </r>
      </set>
      <set comment="kpoint 26">
       <r>    6.7557    1.0000 </r>
       <r>    7.3699    1.0000 </r>
       <r>   27.2323    0.1469 </r>
       <r>   27.2323   -0.0844 </r>
       <r>   27.9740    0.0000 </r>
       <r>   46.9623    0.0000 </r>
       <r>   50.6472    0.0000 </r>
       <r>   50.6472    0.0000 </r>
       <r>   59.7623    0.0000 </r>
       <r>   60.4944    0.0000 </r>
       <r>   75.9119    0.0000 </r>
       <r>   83.0369    0.0000 </r>
      </set>
     </set>
     <set comment="spin 2">
      <set comment="kpoint 1">
       <r>   15.6592    1.0000 </r>
       <r>   16.6892    1.0000 </r>
       <r>   16.6892    1.0000 </r>
       <r>   20.9305    1.0000 </r>
       <r>   23.3141    1.0207 </r>
       <r>   23.3141    0.7726 </r>
       <r>   59.8667    0.0000 </r>
       <r>   59.8667    0.0000 </r>
       <r>   61.4963    0.0000 </r>
       <r>   68.7017    0.0000 </r>
       <r>   68.7017    0.0000 </r>
       <r>   69.6421    0.0000 </r>
      </set>
      <set comment="kpoint 2">
       <r>   13.8425    1.0000 </r>
       <r>   14.7507    1.0000 </r>
       <r>   19.3610    1.0000 </r>
       <r>   23.1395    1.0013 </r>
       <r>   24.2336    0.6084 </r>
       <r>   26.3134   -0.0161 </r>
       <r>   57.1446    0.0000 </r>
       <r>   57.3082    0.0000 </r>
       <r>   65.7175    0.0000 </r>
       <r>   68.3852    0.0000 </r>
       <r>   70.1547    0.0000 </r>
       <r>   72.3301    0.0000 </r>
      </set>
      <set comment="kpoint 3">
       <r>   11.0344    1.0000 </r>
       <r>   13.2609    1.0000 </r>
       <r>   23.8205    0.9999 </r>
       <r>   24.1287    0.9596 </r>
       <r>   25.0758    0.0036 </r>
       <r>   32.1717    0.0000 </r>
       <r>   53.0066    0.0000 </r>
       <r>   53.5252    0.0000 </r>
       <r>   65.6510    0.0000 </r>
       <r>   70.2967    0.0000 </r>
       <r>   71.9983    0.0000 </r>
       <r>   76.2630    0.0000 </r>
      </set>
      <set comment="kpoint 4">
       <r>    9.9262    1.0000 </r>
       <r>   12.7181    1.0000 </r>
       <r>   24.5822    0.9913 </r>
       <r>   25.4792    0.0297 </r>
       <r>   26.1986    0.0000 </r>
       <r>   35.1817    0.0000 </r>
       <r>   50.3647    0.0000 </r>
       <r>   51.8512    0.0000 </r>
       <r>   64.1239    0.0000 </r>
       <r>   71.3384    0.0000 </r>
       <r>   73.4474    0.0000 </r>
       <r>   78.7869    0.0000 </r>
      </set>
      <set comment="kpoint 5">
       <r>   14.5824    1.0000 </r>
       <r>   17.7905    1.0000 </r>
       <r>   17.7905    1.0000 </r>
       <r>   18.2010    1.0000 </r>
       <r>   22.7289    1.0000 </r>
       <r>   24.1219    0.7642 </r>
       <r>   59.2375    0.0000 </r>
       <r>   60.7929    0.0000 </r>
       <r>   60.7929    0.0000 </r>
       <r>   68.0589    0.0000 </r>
       <r>   68.6712    0.0000 </r>
       <r>   68.6712    0.0000 </r>
      </set>
      <set comment="kpoint 6">
       <r>   13.0785    1.0000 </r>
       <r>   14.0879    1.0000 </r>
       <r>   19.5524    1.0000 </r>
       <r>   23.6243    1.0375 </r>
       <r>   25.3137   -0.0152 </r>
       <r>   33.1535   -0.0012 </r>
       <r>   54.0742    0.0000 </r>
       <r>   54.7855    0.0000 </r>
       <r>   65.5195    0.0000 </r>
       <r>   69.0721    0.0000 </r>
       <r>   73.2902    0.0000 </r>
       <r>   73.6102    0.0000 </r>
      </set>
      <set comment="kpoint 7">
       <r>   12.1060    1.0000 </r>
       <r>   13.8574    1.0000 </r>
       <r>   20.8844    1.0001 </r>
       <r>   24.5198    0.5368 </r>
       <r>   25.8740   -0.0003 </r>
       <r>   39.0389    0.0000 </r>
       <r>   50.1102    0.0000 </r>
       <r>   52.5675    0.0000 </r>
       <r>   62.6456    0.0000 </r>
       <r>   72.1683    0.0000 </r>
       <r>   75.0133    0.0000 </r>
       <r>   77.3748    0.0000 </r>
      </set>
      <set comment="kpoint 8">
       <r>   15.0479    1.0000 </r>
       <r>   16.3747    1.0000 </r>
       <r>   19.0443    1.0000 </r>
       <r>   20.8981    1.0000 </r>
       <r>   21.4231    1.1141 </r>
       <r>   25.0481    0.0603 </r>
       <r>   58.3385    0.0000 </r>
       <r>   60.3950    0.0000 </r>
       <r>   64.2009    0.0000 </r>
       <r>   67.5964    0.0000 </r>
       <r>   68.8796    0.0000 </r>
       <r>   70.8140    0.0000 </r>
      </set>
      <set comment="kpoint 9">
       <r>   12.3488    1.0000 </r>
       <r>   17.1699    1.0000 </r>
       <r>   17.1699    1.0000 </r>
       <r>   25.3337   -0.0130 </r>
       <r>   25.3337    0.0000 </r>
       <r>   45.4916    0.0000 </r>
       <r>   45.4916    0.0000 </r>
       <r>   51.7606    0.0000 </r>
       <r>   61.6892    0.0000 </r>
       <r>   75.0539    0.0000 </r>
       <r>   75.0539    0.0000 </r>
       <r>   76.4782    0.0000 </r>
      </set>
      <set comment="kpoint 10">
       <r>   11.8650    1.0000 </r>
       <r>   14.4746    1.0000 </r>
       <r>   21.2666    1.0001 </r>
       <r>   23.7161    1.0007 </r>
       <r>   25.4141    0.0910 </r>
       <r>   27.5873   -0.0033 </r>
       <r>   55.5326    0.0000 </r>
       <r>   55.7547    0.0000 </r>
       <r>   66.3469    0.0000 </r>
       <r>   69.3688    0.0000 </r>
       <r>   70.2791    0.0000 </r>
       <r>   75.6990    0.0000 </r>
      </set>
      <set comment="kpoint 11">
       <r>   14.3711    1.0000 </r>
       <r>   15.1184    1.0000 </r>
       <r>   19.1857    1.0000 </r>
       <r>   20.8088    1.0000 </r>
       <r>   24.5752    0.3719 </r>
       <r>   28.3672   -0.0135 </r>
       <r>   56.8610    0.0000 </r>
       <r>   58.2045    0.0000 </r>
       <r>   65.5047    0.0000 </r>
       <r>   66.9953    0.0000 </r>
       <r>   71.9051    0.0000 </r>
       <r>   73.6654    0.0000 </r>
      </set>
      <set comment="kpoint 12">
       <r>    9.5776    1.0000 </r>
       <r>   13.2770    1.0000 </r>
       <r>   22.8981    1.0021 </r>
       <r>   24.1805    0.9369 </r>
       <r>   29.1898   -0.0009 </r>
       <r>   32.3969    0.0000 </r>
       <r>   51.4543    0.0000 </r>
       <r>   52.6575    0.0000 </r>
       <r>   64.5985    0.0000 </r>
       <r>   70.7216    0.0000 </r>
       <r>   72.9887    0.0000 </r>
       <r>   76.8647    0.0000 </r>
      </set>
      <set comment="kpoint 13">
       <r>   11.9002    1.0000 </r>
       <r>   14.3038    1.0000 </r>
       <r>   19.6020    1.0001 </r>
       <r>   22.6558    1.0323 </r>
       <r>   26.8039   -0.0117 </r>
       <r>   34.5286    0.0000 </r>
       <r>   53.2890    0.0000 </r>
       <r>   54.7733    0.0000 </r>
       <r>   64.4057    0.0000 </r>
       <r>   68.2604    0.0000 </r>
       <r>   74.7093    0.0000 </r>
       <r>   75.1945    0.0000 </r>
      </set>
      <set comment="kpoint 14">
       <r>   10.7771    1.0000 </r>
       <r>   14.1437    1.0000 </r>
       <r>   19.8224    1.0008 </r>
       <r>   23.1833    1.0580 </r>
       <r>   28.1707    0.0000 </r>
       <r>   38.4979    0.0000 </r>
       <r>   50.1087    0.0000 </r>
       <r>   53.5194    0.0000 </r>
       <r>   63.0406    0.0000 </r>
       <r>   70.2289    0.0000 </r>
       <r>   73.3634    0.0000 </r>
       <r>   75.7843    0.0000 </r>
      </set>
      <set comment="kpoint 15">
       <r>   12.9454    1.0000 </r>
       <r>   14.1226    1.0000 </r>
       <r>   17.2463    1.0000 </r>
       <r>   24.0147    0.9840 </r>
       <r>   26.4939    0.0000 </r>
       <r>   42.0070    0.0000 </r>
       <r>   49.6152    0.0000 </r>
[...]
       </set>
       <set comment="band 5">
        <r>  0.0218  0.0115  0.0115  0.0762  0.1294  0.4420  0.0641  0.1294  0.1924 </r>
       </set>
       <set comment="band 6">
        <r>  0.0629  0.1453  0.1453  0.6927  0.1556  0.3291  0.1448  0.1556  0.4343 </r>
       </set>
       <set comment="band 7">
        <r>  0.0000  0.3059  0.3059  0.0000  0.4636  0.0000  0.8564  0.4636  0.2855 </r>
       </set>
       <set comment="band 8">
        <r>  0.4160  0.0162  0.0162  0.0251  0.5550  0.3618  0.0028  0.5550  0.0085 </r>
       </set>
       <set comment="band 9">
        <r>  0.0521  0.8305  0.8305  0.4785  0.0155  0.0181  0.0097  0.0155  0.0290 </r>
       </set>
       <set comment="band 10">
        <r>  0.0000  0.2451  0.2451  0.0000  0.3592  0.0000  0.7649  0.3592  0.2550 </r>
       </set>
       <set comment="band 11">
        <r>  0.0046  0.0339  0.0339  1.1035  0.0036  0.3290  0.2441  0.0036  0.7323 </r>
       </set>
       <set comment="band 12">
        <r>  1.6033  0.1897  0.1917  1.9855  0.2498  0.7994  0.0173  0.2491  0.0518 </r>
       </set>
      </set>
      <set comment="kpoint 16">
       <set comment="band 1">
        <r>  0.0000  0.1884  0.0825  0.0596  0.3105  0.2242  0.0379  0.7090  0.0633 </r>
       </set>
       <set comment="band 2">
        <r>  0.0000  0.0319  0.1378  0.1608  0.5186  0.6049  0.0633  0.1201  0.0379 </r>
       </set>
       <set comment="band 3">
        <r>  0.2737  0.2762  0.2762  0.2762  0.2318  0.2318  0.0000  0.2318  0.0000 </r>
       </set>
       <set comment="band 4">
        <r>  0.0000  0.0004  0.0001  0.0003  0.0058  0.0342  0.0930  0.0447  0.8178 </r>
       </set>
       <set comment="band 5">
        <r>  0.0000  0.0001  0.0005  0.0002  0.0506  0.0222  0.8178  0.0117  0.0930 </r>
       </set>
       <set comment="band 6">
        <r>  0.1304  0.2712  0.2712  0.2712  0.3979  0.3979  0.0000  0.3979  0.0000 </r>
       </set>
       <set comment="band 7">
        <r>  0.0000  0.1969  0.1072  0.1166  0.3951  0.4298  0.1005  0.7256  0.1625 </r>
       </set>
       <set comment="band 8">
        <r>  0.0000  0.0836  0.1733  0.1639  0.6385  0.6039  0.1625  0.3081  0.1005 </r>
       </set>
       <set comment="band 9">
        <r>  0.8234  0.1283  0.1283  0.1283  0.0330  0.0330  0.0000  0.0330  0.0000 </r>
       </set>
       <set comment="band 10">
        <r>  0.0000  1.4779  3.3319  0.3728  0.0113  0.0013  0.1193  0.0050  0.0044 </r>
       </set>
       <set comment="band 11">
        <r>  0.0000  1.9772  0.1232  3.0822  0.0004  0.0105  0.0044  0.0067  0.1193 </r>
       </set>
       <set comment="band 12">
        <r>  0.0000  0.0000  0.0000  0.0000  0.0000  0.0000  0.0000  0.0000  0.0000 </r>
       </set>
      </set>
      <set comment="kpoint 17">
       <set comment="band 1">
        <r>  0.0000  0.1837  0.1837  0.0000  0.6645  0.0000  0.0000  0.6645  0.0000 </r>
       </set>
       <set comment="band 2">
        <r>  0.0666  0.0000  0.0000  0.5098  0.0000  1.0357  0.0296  0.0000  0.0889 </r>
       </set>
       <set comment="band 3">
        <r>  0.0000  0.4013  0.4013  0.0000  0.4243  0.0000  0.0000  0.4243  0.0000 </r>
       </set>
       <set comment="band 4">
        <r>  0.0012  0.0000  0.0000  0.0025  0.0000  0.1002  0.2248  0.0000  0.6743 </r>
       </set>
       <set comment="band 5">
        <r>  0.0000  0.0000  0.0000  0.0000  0.0000  0.0000  0.7542  0.0000  0.2514 </r>
       </set>
       <set comment="band 6">
        <r>  0.0000  0.4229  0.4229  0.0000  0.6843  0.0000  0.0000  0.6843  0.0000 </r>
       </set>
       <set comment="band 7">
        <r>  0.0965  0.0000  0.0000  0.4814  0.0000  1.6659  0.0470  0.0000  0.1411 </r>
       </set>
       <set comment="band 8">
        <r>  0.0000  0.2284  0.2284  0.0000  0.8365  0.0000  0.0000  0.8365  0.0000 </r>
       </set>
       <set comment="band 9">
        <r>  0.9097  0.0000  0.0000  0.2079  0.0000  0.0076  0.0018  0.0000  0.0055 </r>
       </set>
       <set comment="band 10">
        <r>  0.0000  2.6130  2.6130  0.0000  0.0064  0.0000  0.0000  0.0064  0.0000 </r>
       </set>
       <set comment="band 11">
        <r>  0.1900  0.0000  0.0000  4.7749  0.0000  0.0084  0.0353  0.0000  0.1058 </r>
       </set>
       <set comment="band 12">
        <r>  0.0000  2.1497  2.1497  0.0000  0.0031  0.0000  0.0000  0.0031  0.0000 </r>
       </set>
      </set>
      <set comment="kpoint 18">
       <set comment="band 1">
        <r>  0.0000  0.0000  0.0000  0.0000  0.0000  0.0000  0.8657  0.0000  0.2886 </r>
       </set>
       <set comment="band 2">
        <r>  1.2047  0.0000  0.0000  0.7496  0.0000  0.0000  0.0971  0.0000  0.2913 </r>
       </set>
       <set comment="band 3">
        <r>  0.0000  0.0457  0.0457  0.0000  0.5761  0.0000  0.0000  0.5761  0.0000 </r>
       </set>
       <set comment="band 4">
        <r>  0.0000  0.0457  0.0457  0.0000  0.5761  0.0000  0.0000  0.5761  0.0000 </r>
       </set>
       <set comment="band 5">
        <r>  0.0000  0.0000  0.0000  0.0000  0.0000  1.0805  0.0000  0.0000  0.0000 </r>
       </set>
       <set comment="band 6">
        <r>  0.4226  0.0000  0.0000  0.2874  0.0000  0.0000  0.1906  0.0000  0.5719 </r>
       </set>
       <set comment="band 7">
        <r>  0.0000  0.0000  0.0000  0.0000  0.0000  0.0000  2.0678  0.0000  0.6893 </r>
       </set>
       <set comment="band 8">
        <r>  0.2311  0.0000  0.0000  0.6824  0.0000  0.0000  0.0056  0.0000  0.0169 </r>
       </set>
       <set comment="band 9">
        <r>  0.0000  0.2901  0.2889  0.0000  1.0649  0.0000  0.0000  1.0607  0.0000 </r>
       </set>
       <set comment="band 10">
        <r>  0.0000  0.2889  0.2901  0.0000  1.0607  0.0000  0.0000  1.0649  0.0000 </r>
       </set>
       <set comment="band 11">
        <r>  0.0000  1.6493  1.6879  0.0000  0.0290  0.0000  0.0000  0.0297  0.0000 </r>
       </set>
       <set comment="band 12">
        <r>  0.0000  1.6879  1.6493  0.0000  0.0297  0.0000  0.0000  0.0290  0.0000 </r>
       </set>
      </set>
      <set comment="kpoint 19">
       <set comment="band 1">
        <r>  0.0907  0.0441  0.0000  0.0527  0.2495  0.0000  1.0379  0.0000  0.0830 </r>
       </set>
       <set comment="band 2">
        <r>  0.3840  0.0179  0.0000  0.4838  0.1497  0.0000  0.0033  0.0000  0.7212 </r>
       </set>
       <set comment="band 3">
        <r>  0.0000  0.0000  0.0909  0.0000  0.0000  0.3948  0.0000  0.8028  0.0000 </r>
       </set>
       <set comment="band 4">
        <r>  0.0121  0.1289  0.0000  0.1212  0.6816  0.0000  0.1942  0.0000  0.0679 </r>
       </set>
       <set comment="band 5">
        <r>  0.0000  0.0000  0.0373  0.0000  0.0000  0.6740  0.0000  0.2901  0.0000 </r>
       </set>
       <set comment="band 6">
        <r>  0.4835  0.0824  0.0000  0.6909  0.0153  0.0000  0.1322  0.0000  0.4876 </r>
       </set>
       <set comment="band 7">
        <r>  0.0781  0.1673  0.0000  0.0269  0.8893  0.0000  1.3194  0.0000  0.4905 </r>
       </set>
       <set comment="band 8">
        <r>  0.1257  0.0134  0.0000  0.1301  0.2448  0.0000  0.9209  0.0000  0.0976 </r>
       </set>
       <set comment="band 9">
        <r>  0.0000  0.0000  0.8404  0.0000  0.0000  0.0389  0.0000  2.0349  0.0000 </r>
       </set>
       <set comment="band 10">
        <r>  0.0290  1.0033  0.0000  0.1794  0.9442  0.0000  0.1455  0.0000  0.3261 </r>
       </set>
       <set comment="band 11">
        <r>  0.0000  0.0000  2.7934  0.0000  0.0000  0.3256  0.0000  0.5742  0.0000 </r>
       </set>
       <set comment="band 12">
        <r>  0.0274  1.4490  0.0000  1.9422  0.2463  0.0000  0.1649  0.0000  0.1952 </r>
       </set>
      </set>
      <set comment="kpoint 20">
       <set comment="band 1">
        <r>  0.1489  0.0760  0.0000  0.0819  0.3629  0.0000  1.1569  0.0000  0.0091 </r>
       </set>
       <set comment="band 2">
        <r>  0.0538  0.1618  0.0000  0.3622  0.0237  0.0000  0.0024  0.0000  0.9903 </r>
       </set>
       <set comment="band 3">
        <r>  0.0000  0.0000  0.0926  0.0000  0.0000  0.5779  0.0000  0.6846  0.0000 </r>
       </set>
       <set comment="band 4">
        <r>  0.0710  0.0561  0.0000  0.0026  0.6567  0.0000  0.2583  0.0000  0.0196 </r>
       </set>
       <set comment="band 5">
        <r>  0.0000  0.0000  0.0106  0.0000  0.0000  0.6110  0.0000  0.4837  0.0000 </r>
       </set>
       <set comment="band 6">
        <r>  0.1277  0.4152  0.0000  0.8855  0.0370  0.0000  0.0444  0.0000  0.6151 </r>
       </set>
       <set comment="band 7">
        <r>  0.2904  0.2332  0.0000  0.0008  1.4599  0.0000  0.6584  0.0000  0.1247 </r>
       </set>
       <set comment="band 8">
        <r>  0.0668  0.0631  0.0000  0.0714  0.1181  0.0000  1.4836  0.0000  0.0190 </r>
       </set>
       <set comment="band 9">
        <r>  0.0000  0.0000  0.8979  0.0000  0.0000  0.2694  0.0000  1.0719  0.0000 </r>
       </set>
       <set comment="band 10">
        <r>  0.0177  0.9976  0.0000  0.1185  0.1510  0.0000  0.2044  0.0000  1.0349 </r>
       </set>
       <set comment="band 11">
        <r>  0.0618  1.0449  0.0000  2.3005  0.0036  0.0000  0.3650  0.0000  0.3949 </r>
       </set>
       <set comment="band 12">
        <r>  0.0000  0.0000  2.4162  0.0000  0.0000  0.9484  0.0000  1.0275  0.0000 </r>
       </set>
      </set>
      <set comment="kpoint 21">
       <set comment="band 1">
        <r>  0.0000  0.0667  0.0667  0.0000  0.0474  0.0000  1.0731  0.0474  0.3577 </r>
       </set>
       <set comment="band 2">
        <r>  0.1793  0.0058  0.0058  0.4583  0.1075  0.0208  0.2254  0.1075  0.6763 </r>
       </set>
       <set comment="band 3">
        <r>  0.0142  0.0575  0.0575  0.0491  0.2799  0.3917  0.0393  0.2799  0.1180 </r>
       </set>
       <set comment="band 4">
        <r>  0.0000  0.0764  0.0764  0.0000  0.4301  0.0000  0.0527  0.4301  0.0176 </r>
       </set>
       <set comment="band 5">
        <r>  0.0293  0.0018  0.0018  0.0235  0.1424  0.6528  0.0120  0.1424  0.0361 </r>
       </set>
       <set comment="band 6">
        <r>  0.2719  0.0765  0.0765  0.8697  0.0523  0.0443  0.1624  0.0523  0.4871 </r>
       </set>
       <set comment="band 7">
        <r>  0.0000  0.2265  0.2265  0.0000  0.4173  0.0000  1.3765  0.4173  0.4588 </r>
       </set>
       <set comment="band 8">
        <r>  0.2508  0.1096  0.1096  0.0312  0.5988  0.1032  0.0359  0.5988  0.1076 </r>
       </set>
       <set comment="band 9">
        <r>  0.0000  0.1749  0.1749  0.0000  0.4491  0.0000  1.1977  0.4491  0.3992 </r>
       </set>
       <set comment="band 10">
        <r>  0.0364  0.4179  0.4179  0.0833  0.0978  0.0195  0.1586  0.0978  0.4757 </r>
       </set>
       <set comment="band 11">
        <r>  0.0883  0.5179  0.5179  2.0471  0.0441  0.1248  0.1742  0.0441  0.5225 </r>
       </set>
       <set comment="band 12">
        <r>  0.0000  1.9352  1.9351  0.0000  0.2244  0.0000  0.0470  0.2244  0.0157 </r>
       </set>
      </set>
      <set comment="kpoint 22">
       <set comment="band 1">
        <r>  0.0364  0.0762  0.0795  0.0762  0.1330  0.0001  1.3916  0.0001  0.0000 </r>
       </set>
       <set comment="band 2">
        <r>  0.0000  0.2102  0.0000  0.2102  0.0000  0.0118  0.0000  0.0118  1.2599 </r>
       </set>
       <set comment="band 3">
        <r>  0.0836  0.0059  0.0671  0.0059  0.2490  0.4444  0.0219  0.4444  0.0000 </r>
       </set>
       <set comment="band 4">
        <r>  0.0286  0.0328  0.0607  0.0328  0.5887  0.1138  0.0871  0.1138  0.0000 </r>
       </set>
       <set comment="band 5">
        <r>  0.0000  0.0396  0.0000  0.0396  0.0000  0.4936  0.0000  0.4936  0.0381 </r>
       </set>
       <set comment="band 6">
        <r>  0.0000  0.5831  0.0000  0.5831  0.0000  0.1217  0.0000  0.1217  0.8747 </r>
       </set>
       <set comment="band 7">
        <r>  0.2290  0.1699  0.1185  0.1699  1.0696  0.0001  0.8044  0.0001  0.0000 </r>
       </set>
       <set comment="band 8">
        <r>  0.1953  0.0013  0.3931  0.0013  0.1155  0.4403  0.5249  0.4403  0.0000 </r>
       </set>
       <set comment="band 9">
        <r>  0.0113  0.0149  0.4150  0.0149  0.1510  0.1227  1.5474  0.1227  0.0000 </r>
       </set>
       <set comment="band 10">
        <r>  0.0000  0.1386  0.0000  0.1386  0.0000  0.0430  0.0000  0.0430  2.0116 </r>
       </set>
       <set comment="band 11">
        <r>  0.1200  1.3471  0.4122  1.3471  0.0015  0.0778  0.3580  0.0778  0.0000 </r>
       </set>
       <set comment="band 12">
        <r>  0.1372  0.4949  2.5801  0.4949  0.0015  0.4668  0.0255  0.4668  0.0000 </r>
       </set>
      </set>
      <set comment="kpoint 23">
       <set comment="band 1">
        <r>  0.0000  0.0000  0.0000  0.0000  0.0000  0.0000  1.2436  0.0000  0.4145 </r>
       </set>
       <set comment="band 2">
        <r>  0.1537  0.0000  0.0000  0.5571  0.0000  0.0000  0.2848  0.0000  0.8545 </r>
       </set>
       <set comment="band 3">
        <r>  0.0000  0.0952  0.0952  0.0000  0.4670  0.0000  0.0000  0.4670  0.0000 </r>
       </set>
       <set comment="band 4">
        <r>  0.0000  0.0952  0.0952  0.0000  0.4670  0.0000  0.0000  0.4670  0.0000 </r>
       </set>
       <set comment="band 5">
        <r>  0.0000  0.0000  0.0000  0.0000  0.0000  0.9783  0.0000  0.0000  0.0000 </r>
       </set>
       <set comment="band 6">
        <r>  0.4357  0.0000  0.0000  0.9149  0.0000  0.0000  0.1592  0.0000  0.4775 </r>
       </set>
       <set comment="band 7">
        <r>  0.0000  0.3627  0.3627  0.0000  0.8760  0.0000  0.0000  0.8762  0.0000 </r>
       </set>
       <set comment="band 8">
        <r>  0.0000  0.3627  0.3627  0.0000  0.8762  0.0000  0.0000  0.8760  0.0000 </r>
       </set>
       <set comment="band 9">
        <r>  0.0000  0.0000  0.0000  0.0000  0.0000  0.0000  3.0103  0.0000  1.0034 </r>
       </set>
       <set comment="band 10">
        <r>  0.2307  0.0000  0.0000  0.0547  0.0000  0.0000  0.2732  0.0000  0.8196 </r>
       </set>
       <set comment="band 11">
        <r>  0.5394  0.0000  0.0000  3.6021  0.0000  0.0000  0.1302  0.0000  0.3907 </r>
       </set>
       <set comment="band 12">
        <r>  0.0000  0.0654  3.6449  0.0000  0.0085  0.0000  0.0000  0.4731  0.0000 </r>
       </set>
      </set>
      <set comment="kpoint 24">
       <set comment="band 1">
        <r>  0.0064  0.0511  0.0000  0.0122  0.0217  0.0000  1.5842  0.0000  0.1912 </r>
       </set>
       <set comment="band 2">
        <r>  0.0218  0.0327  0.0000  0.2917  0.0046  0.0000  0.1509  0.0000  1.3607 </r>
       </set>
       <set comment="band 3">
        <r>  0.0000  0.0000  0.1481  0.0000  0.0000  0.3643  0.0000  0.5773  0.0000 </r>
       </set>
       <set comment="band 4">
        <r>  0.0435  0.1315  0.0000  0.0250  0.8613  0.0000  0.0208  0.0000  0.0005 </r>
       </set>
       <set comment="band 5">
        <r>  0.0000  0.0000  0.0117  0.0000  0.0000  0.6711  0.0000  0.3901  0.0000 </r>
       </set>
       <set comment="band 6">
        <r>  0.1670  0.1255  0.0000  0.9888  0.0599  0.0000  0.1037  0.0000  0.5639 </r>
       </set>
       <set comment="band 7">
        <r>  0.1265  0.6418  0.0000  0.0019  0.9575  0.0000  0.2787  0.0000  0.2412 </r>
       </set>
       <set comment="band 8">
        <r>  0.0000  0.0000  0.8574  0.0000  0.0000  0.1508  0.0000  0.8765  0.0000 </r>
       </set>
       <set comment="band 9">
        <r>  0.0569  0.0008  0.0000  0.0020  0.0771  0.0000  3.4191  0.0000  0.0237 </r>
       </set>
       <set comment="band 10">
        <r>  0.0341  0.1727  0.0000  0.0087  0.0458  0.0000  0.0081  0.0000  2.5654 </r>
       </set>
       <set comment="band 11">
        <r>  0.5980  0.9492  0.0000  2.0850  0.0036  0.0000  0.1905  0.0000  0.1458 </r>
       </set>
       <set comment="band 12">
        <r>  0.0000  0.0000  3.8201  0.0000  0.0000  0.2326  0.0000  0.4083  0.0000 </r>
       </set>
      </set>
      <set comment="kpoint 25">
       <set comment="band 1">
        <r>  0.0000  0.0648  0.0000  0.0651  0.0000  0.0031  0.0000  0.0030  1.8071 </r>
       </set>
       <set comment="band 2">
        <r>  0.0000  0.0218  0.0866  0.0215  0.0041  0.0010  1.8071  0.0010  0.0000 </r>
       </set>
       <set comment="band 3">
        <r>  0.0356  0.0465  0.0465  0.0465  0.3034  0.3034  0.0000  0.3034  0.0000 </r>
       </set>
       <set comment="band 4">
        <r>  0.0000  0.0127  0.0508  0.0127  0.6620  0.1655  0.0070  0.1655  0.0000 </r>
       </set>
       <set comment="band 5">
        <r>  0.0000  0.0381  0.0000  0.0381  0.0000  0.4965  0.0000  0.4965  0.0070 </r>
       </set>
       <set comment="band 6">
        <r>  0.0000  0.5418  0.0000  0.5418  0.0000  0.1339  0.0000  0.1339  0.6429 </r>
       </set>
       <set comment="band 7">
        <r>  0.0000  0.1806  0.7224  0.1806  0.1786  0.0446  0.6429  0.0446  0.0000 </r>
       </set>
       <set comment="band 8">
        <r>  0.2264  0.2124  0.2124  0.2124  0.2761  0.2761  0.0000  0.2761  0.0000 </r>
       </set>
       <set comment="band 9">
        <r>  0.0000  0.0530  0.0000  0.0533  0.0000  0.0259  0.0001  0.0258  3.4861 </r>
       </set>
       <set comment="band 10">
        <r>  0.0000  0.0179  0.0709  0.0176  0.0344  0.0085  3.4861  0.0087  0.0001 </r>
       </set>
       <set comment="band 11">
        <r>  0.8557  0.8601  0.8601  0.8601  0.0092  0.0092  0.0000  0.0092  0.0000 </r>
       </set>
       <set comment="band 12">
        <r>  0.0000  0.6190  2.1284  1.8255  0.0400  0.0343  0.0084  0.0116  0.0036 </r>
       </set>
      </set>
      <set comment="kpoint 26">
       <set comment="band 1">
        <r>  0.0000  0.0000  0.0000  0.0000  0.0000  0.0000  1.5360  0.0000  0.5120 </r>
       </set>
       <set comment="band 2">
        <r>  0.0018  0.0000  0.0000  0.0885  0.0000  0.0000  0.4883  0.0000  1.4649 </r>
       </set>
       <set comment="band 3">
        <r>  0.0000  0.0393  0.0393  0.0000  0.4945  0.0000  0.0000  0.4945  0.0000 </r>
       </set>
       <set comment="band 4">
        <r>  0.0000  0.0393  0.0393  0.0000  0.4945  0.0000  0.0000  0.4945  0.0000 </r>
       </set>
       <set comment="band 5">
        <r>  0.0000  0.0000  0.0000  0.0000  0.0000  1.0578  0.0000  0.0000  0.0000 </r>
       </set>
       <set comment="band 6">
        <r>  0.0856  0.0000  0.0000  1.1664  0.0000  0.0000  0.0792  0.0000  0.2376 </r>
       </set>
       <set comment="band 7">
        <r>  0.0000  0.5548  0.5548  0.0000  0.1598  0.0000  0.0000  0.1598  0.0000 </r>
       </set>
       <set comment="band 8">
        <r>  0.0000  0.5548  0.5548  0.0000  0.1598  0.0000  0.0000  0.1598  0.0000 </r>
       </set>
       <set comment="band 9">
        <r>  0.0000  0.0000  0.0000  0.0000  0.0000  0.0000  3.4847  0.0000  1.1616 </r>
       </set>
       <set comment="band 10">
        <r>  0.0200  0.0000  0.0000  0.0255  0.0000  0.0000  1.0125  0.0000  3.0374 </r>
       </set>
       <set comment="band 11">
        <r>  2.1093  0.0000  0.0000  1.4425  0.0000  0.0000  0.0114  0.0000  0.0342 </r>
       </set>
       <set comment="band 12">
        <r>  0.0000  0.3662  4.1396  0.0000  0.0073  0.0000  0.0000  0.0823  0.0000 </r>
       </set>
      </set>
     </set>
    </set>
   </array>
  </projected>
 </calculation>
 <structure name="finalpos" >
  <crystal>
   <varray name="basis" >
    <v>      -1.00000000       1.00000000       1.00000000 </v>
    <v>       1.00000000      -1.00000000       1.00000000 </v>
    <v>       1.00000000       1.00000000      -1.00000000 </v>
   </varray>
   <i name="volume">      4.00000000 </i>
   <varray name="rec_basis" >
    <v>       0.00000000       0.50000000       0.50000000 </v>
    <v>       0.50000000       0.00000000       0.50000000 </v>
    <v>       0.50000000       0.50000000       0.00000000 </v>
   </varray>
  </crystal>
  <varray name="positions" >
   <v>       0.00000000       0.00000000       0.00000000 </v>
  </varray>
 </structure>
</modeling>
