Si beta-tin                             
   2.30000000000000     
     1.000267    0.000000    0.000000
    -0.500133    0.866256   -0.000000
     0.000000    0.000000    1.632120
    S
     2
Direct
  0.000000  0.000000  0.000000
  0.333333  0.666667  0.500000
 
   32   32   56
 -3.4583     -3.1713     -2.3380     -1.0409     0.58855      2.3841      4.1694      5.7874      7.1247      8.1244    
  8.7856      9.1526      9.2988      9.3109      9.2729      9.2410      9.2293      9.2410      9.2729      9.3109    
  9.2988      9.1526      8.7856      8.1244      7.1247      5.7874      4.1694      2.3841     0.58855     -1.0409    
 -2.3380     -3.1713     -3.1713     -3.1713     -2.6107     -1.5450     -.81728E-01  1.6286      3.4129      5.1033    
  6.5642      7.7118      8.5191      9.0100      9.2452      9.3064      9.2799      9.2399      9.2165      9.2165    
  9.2399      9.2799      9.3064      9.2452      9.0100      8.5191      7.7118      6.5642      5.1033      3.4129    
  1.6286     -.81729E-01 -1.5450     -2.6107     -2.3380     -2.6116     -2.3380     -1.5450     -.31372      1.2273    
  2.9181      4.5910      6.0982      7.3345      8.2487      8.8425      9.1600      9.2734      9.2664      9.2200    
  9.1841      9.1710      9.1841      9.2200      9.2664      9.2734      9.1600      8.8425      8.2487      7.3345    
  6.0982      4.5910      2.9181      1.2273     -.31372     -1.5450     -1.0409     -1.5474     -1.5474     -1.0409    
 -.81727E-01  1.2273      2.7461      4.3168      5.7898      7.0467      8.0165      8.6795      9.0615      9.2213    
  9.2360      9.1861      9.1363      9.1082      9.1082      9.1363      9.1861      9.2360      9.2213      9.0615    
  8.6795      8.0165      7.0467      5.7898      4.3168      2.7461      1.2273     -.81729E-01 0.58855     -.85990E-01
 -.31953     -.85989E-01 0.58855      1.6286      2.9181      4.3168      5.6819      6.8910      7.8598      8.5506    
  8.9707      9.1636      9.1962      9.1448      9.0797      9.0342      9.0180      9.0342      9.0797      9.1448    
  9.1962      9.1636      8.9707      8.5506      7.8598      6.8910      5.6819      4.3168      2.9181      1.6286    
  2.3841      1.6227      1.2180      1.2180      1.6227      2.3841      3.4129      4.5910      5.7898      6.8910    
  7.8045      8.4795      8.9070      9.1147      9.1573      9.1033      9.0224      8.9576      8.9222      8.9222    
  8.9576      9.0224      9.1033      9.1573      9.1147      8.9070      8.4795      7.8045      6.8910      5.7898    
  4.5910      3.4129      4.1694      3.4060      2.9061      2.7322      2.9061      3.4060      4.1694      5.1033    
  6.0982      7.0467      7.8598      8.4795      8.8841      9.0868      9.1290      9.0696      8.9733      8.8882    
  8.8313      8.8114      8.8313      8.8882      8.9733      9.0696      9.1290      9.0868      8.8841      8.4795    
  7.8598      7.0467      6.0982      5.1033      5.7874      5.0962      4.5779      4.3002      4.3002      4.5779    
  5.0962      5.7874      6.5642      7.3345      8.0165      8.5506      8.9070      9.0868      9.1187      9.0506    
  8.9401      8.8354      8.7563      8.7139      8.7139      8.7563      8.8354      8.9401      9.0506      9.1187    
  9.0868      8.9070      8.5506      8.0165      7.3345      6.5642      7.1247      6.5580      6.0858      5.7728    
  5.6632      5.7728      6.0858      6.5580      7.1247      7.7118      8.2487      8.6795      8.9707      9.1147    
  9.1290      9.0506      8.9284      8.8069      8.7067      8.6412      8.6184      8.6412      8.7067      8.8069    
  8.9284      9.0506      9.1290      9.1147      8.9707      8.6795      8.2487      7.7118      8.1244      7.7071    
  7.3244      7.0318      6.8734      6.8734      7.0318      7.3244      7.7071      8.1244      8.5191      8.8425    
  9.0615      9.1636      9.1573      9.0696      8.9401      8.8069      8.6894      8.6023      8.5561      8.5561    
  8.6023      8.6894      8.8069      8.9401      9.0696      9.1573      9.1636      9.0615      8.8425      8.5191    
  8.7856      8.5164      8.2421      8.0057      7.8460      7.7895      7.8460      8.0057      8.2421      8.5164    
  8.7856      9.0100      9.1600      9.2213      9.1962      9.1033      8.9733      8.8354      8.7067      8.6023    
  8.5344      8.5108      8.5344      8.6023      8.7067      8.8354      8.9733      9.1033      9.1962      9.2213    
  9.1600      9.0100      9.1526      9.0093      8.8396      8.6738      8.5423      8.4697      8.4697      8.5423    
  8.6738      8.8396      9.0093      9.1526      9.2452      9.2734      9.2360      9.1448      9.0224      8.8882    
  8.7563      8.6412      8.5561      8.5108      8.5108      8.5561      8.6412      8.7563      8.8882      9.0224    
  9.1448      9.2360      9.2734      9.2452      9.2988      9.2463      9.1608      9.0610      8.9685      8.9035    
  8.8801      8.9035      8.9685      9.0610      9.1608      9.2463      9.2988      9.3064      9.2664      9.1861    
  9.0797      8.9576      8.8313      8.7139      8.6184      8.5561      8.5344      8.5561      8.6184      8.7139    
  8.8313      8.9576      9.0797      9.1861      9.2664      9.3064      9.3109      9.3089      9.2772      9.2253    
  9.1672      9.1177      9.0894      9.0894      9.1177      9.1672      9.2253      9.2772      9.3089      9.3109    
  9.2799      9.2200      9.1363      9.0342      8.9222      8.8114      8.7139      8.6412      8.6023      8.6023    
  8.6412      8.7139      8.8114      8.9222      9.0342      9.1363      9.2200      9.2799      9.2729      9.2834    
  9.2724      9.2436      9.2046      9.1658      9.1376      9.1272      9.1376      9.1658      9.2046      9.2436    
  9.2724      9.2834      9.2729      9.2399      9.1841      9.1082      9.0180      8.9222      8.8313      8.7563    
  8.7067      8.6894      8.7067      8.7563      8.8313      8.9222      9.0180      9.1082      9.1841      9.2399    
  9.2410      9.2439      9.2275      9.1962      9.1567      9.1162      9.0829      9.0642      9.0642      9.0829    
  9.1162      9.1567      9.1962      9.2275      9.2439      9.2410      9.2165      9.1710      9.1082      9.0342    
  8.9576      8.8882      8.8354      8.8069      8.8069      8.8354      8.8882      8.9576      9.0342      9.1082    
  9.1710      9.2165      9.2293      9.2208      9.1924      9.1480      9.0938      9.0383      8.9901      8.9575    
  8.9459      8.9575      8.9901      9.0383      9.0938      9.1480      9.1924      9.2208      9.2293      9.2165    
  9.1841      9.1363      9.0797      9.0224      8.9733      8.9401      8.9284      8.9401      8.9733      9.0224    
  9.0797      9.1363      9.1841      9.2165      9.2410      9.2208      9.1797      9.1206      9.0497      8.9753    
  8.9072      8.8552      8.8270      8.8270      8.8552      8.9072      8.9753      9.0497      9.1206      9.1796    
  9.2208      9.2410      9.2399      9.2200      9.1861      9.1448      9.1033      9.0696      9.0506      9.0506    
  9.0696      9.1033      9.1448      9.1861      9.2200      9.2399      9.2729      9.2439      9.1924      9.1206    
  9.0339      8.9407      8.8515      8.7775      8.7284      8.7113      8.7284      8.7775      8.8515      8.9407    
  9.0339      9.1206      9.1924      9.2439      9.2729      9.2799      9.2664      9.2360      9.1962      9.1573    
  9.1290      9.1187      9.1290      9.1573      9.1962      9.2360      9.2664      9.2799      9.3109      9.2834    
  9.2275      9.1480      9.0497      8.9407      8.8320      8.7357      8.6636      8.6250      8.6250      8.6636    
  8.7357      8.8320      8.9407      9.0497      9.1480      9.2275      9.2834      9.3109      9.3064      9.2734    
  9.2213      9.1636      9.1147      9.0868      9.0868      9.1147      9.1636      9.2213      9.2734      9.3064    
  9.2988      9.3089      9.2724      9.1962      9.0938      8.9753      8.8515      8.7357      8.6411      8.5791    
  8.5575      8.5791      8.6411      8.7357      8.8515      8.9753      9.0938      9.1962      9.2724      9.3089    
  9.2988      9.2452      9.1600      9.0615      8.9707      8.9070      8.8841      8.9070      8.9707      9.0615    
  9.1600      9.2452      9.1526      9.2463      9.2772      9.2436      9.1567      9.0383      8.9072      8.7775    
  8.6636      8.5791      8.5340      8.5340      8.5791      8.6636      8.7775      8.9072      9.0383      9.1567    
  9.2436      9.2772      9.2463      9.1526      9.0100      8.8425      8.6795      8.5506      8.4795      8.4795    
  8.5506      8.6795      8.8425      9.0100      8.7856      9.0093      9.1608      9.2253      9.2046      9.1162    
  8.9901      8.8552      8.7284      8.6250      8.5575      8.5340      8.5575      8.6250      8.7284      8.8552    
  8.9901      9.1162      9.2046      9.2253      9.1608      9.0093      8.7856      8.5191      8.2487      8.0165    
  7.8598      7.8045      7.8598      8.0165      8.2487      8.5191      8.1244      8.5164      8.8396      9.0610    
  9.1672      9.1658      9.0829      8.9575      8.8270      8.7113      8.6250      8.5791      8.5791      8.6250    
  8.7113      8.8270      8.9575      9.0829      9.1658      9.1672      9.0610      8.8396      8.5164      8.1244    
  7.7118      7.3345      7.0467      6.8910      6.8910      7.0467      7.3345      7.7118      7.1247      7.7071    
  8.2421      8.6738      8.9685      9.1177      9.1376      9.0642      8.9459      8.8270      8.7284      8.6636    
  8.6411      8.6636      8.7284      8.8270      8.9459      9.0642      9.1376      9.1177      8.9685      8.6738    
  8.2421      7.7071      7.1247      6.5642      6.0982      5.7898      5.6819      5.7898      6.0982      6.5642    
  5.7874      6.5580      7.3244      8.0057      8.5423      8.9035      9.0894      9.1272      9.0642      8.9575    
  8.8552      8.7775      8.7357      8.7357      8.7775      8.8552      8.9575      9.0642      9.1272      9.0894    
  8.9035      8.5423      8.0057      7.3244      6.5580      5.7874      5.1033      4.5910      4.3168      4.3168    
  4.5910      5.1033      4.1694      5.0962      6.0858      7.0318      7.8460      8.4697      8.8801      9.0894    
  9.1376      9.0829      8.9901      8.9072      8.8515      8.8320      8.8515      8.9072      8.9901      9.0829    
  9.1376      9.0894      8.8801      8.4697      7.8460      7.0318      6.0858      5.0962      4.1694      3.4129    
  2.9181      2.7461      2.9181      3.4129      2.3841      3.4060      4.5779      5.7728      6.8734      7.7895    
  8.4697      8.9035      9.1177      9.1658      9.1162      9.0383      8.9753      8.9407      8.9407      8.9753    
  9.0383      9.1162      9.1658      9.1177      8.9035      8.4697      7.7895      6.8734      5.7728      4.5779    
  3.4060      2.3841      1.6286      1.2273      1.2273      1.6286     0.58855      1.6227      2.9061      4.3002    
  5.6632      6.8734      7.8460      8.5423      8.9685      9.1672      9.2046      9.1567      9.0938      9.0497    
  9.0339      9.0497      9.0938      9.1567      9.2046      9.1672      8.9685      8.5423      7.8460      6.8734    
  5.6632      4.3002      2.9061      1.6227     0.58855     -.81727E-01 -.31372     -.81728E-01 -1.0409     -.85991E-01
  1.2180      2.7322      4.3002      5.7728      7.0318      8.0057      8.6738      9.0610      9.2253      9.2436    
  9.1962      9.1480      9.1206      9.1206      9.1480      9.1962      9.2436      9.2253      9.0610      8.6738    
  8.0057      7.0318      5.7728      4.3002      2.7322      1.2180     -.85989E-01 -1.0409     -1.5450     -1.5450    
 -2.3380     -1.5474     -.31953      1.2180      2.9061      4.5779      6.0858      7.3244      8.2421      8.8396    
  9.1608      9.2772      9.2724      9.2275      9.1924      9.1797      9.1924      9.2275      9.2724      9.2772    
  9.1608      8.8396      8.2421      7.3244      6.0858      4.5779      2.9061      1.2180     -.31953     -1.5474    
 -2.3380     -2.6107     -3.1713     -2.6116     -1.5474     -.85991E-01  1.6227      3.4060      5.0962      6.5580    
  7.7071      8.5164      9.0093      9.2463      9.3089      9.2834      9.2439      9.2208      9.2208      9.2439    
  9.2834      9.3089      9.2463      9.0093      8.5164      7.7071      6.5580      5.0962      3.4060      1.6227    
 -.85990E-01 -1.5474     -2.6116     -3.1713     -3.2036     -2.9211     -2.1015     -.82625     0.77440      2.5365    
  4.2867      5.8707      7.1775      8.1518      8.7932      9.1458      9.2825      9.2891      9.2487      9.2157    
  9.2035      9.2157      9.2487      9.2891      9.2825      9.1458      8.7932      8.1518      7.1775      5.8707    
  4.2867      2.5365     0.77440     -.82625     -2.1015     -2.9211     -2.9211     -2.9211     -2.3699     -1.3223    
 0.11503      1.7937      3.5433      5.1988      6.6275      7.7473      8.5322      9.0063      9.2300      9.2839    
  9.2537      9.2121      9.1880      9.1880      9.2121      9.2537      9.2839      9.2300      9.0063      8.5322    
  7.7473      6.6275      5.1988      3.5433      1.7937     0.11503     -1.3223     -2.3699     -2.1015     -2.3703    
 -2.1015     -1.3223     -.11325      1.3990      3.0568      4.6954      6.1698      7.3770      8.2670      8.8421    
  9.1462      9.2507      9.2387      9.1901      9.1531      9.1397      9.1531      9.1901      9.2387      9.2507    
  9.1462      8.8421      8.2670      7.3770      6.1698      4.6954      3.0568      1.3990     -.11325     -1.3223    
 -.82625     -1.3234     -1.3234     -.82625     0.11503      1.3990      2.8876      4.4258      5.8667      7.0942    
  8.0389      8.6820      9.0492      9.1988      9.2073      9.1544      9.1032      9.0744      9.0744      9.1032    
  9.1544      9.2073      9.1988      9.0492      8.6820      8.0389      7.0942      5.8667      4.4258      2.8876    
  1.3990     0.11503     0.77440     0.11307     -.11594     0.11307     0.77440      1.7937      3.0568      4.4258    
  5.7606      6.9412      7.8850      8.5553      8.9597      9.1415      9.1670      9.1118      9.0449      8.9984    
  8.9819      8.9984      9.0449      9.1118      9.1670      9.1415      8.9597      8.5553      7.8850      6.9412    
  5.7606      4.4258      3.0568      1.7937      2.5365      1.7911      1.3948      1.3948      1.7911      2.5365    
  3.5433      4.6954      5.8667      6.9411      7.8306      8.4853      8.8969      9.0930      9.1278      9.0693    
  8.9863      8.9203      8.8843      8.8843      8.9203      8.9863      9.0693      9.1278      9.0930      8.8969    
  8.4853      7.8306      6.9412      5.8667      4.6954      3.5433      4.2867      3.5406      3.0519      2.8819    
  3.0519      3.5406      4.2867      5.1988      6.1698      7.0942      7.8850      8.4853      8.8743      9.0654    
  9.0995      9.0351      8.9363      8.8497      8.7920      8.7718      8.7920      8.8497      8.9363      9.0351    
  9.0995      9.0654      8.8743      8.4853      7.8850      7.0942      6.1698      5.1988      5.8707      5.1966    
  4.6909      4.4199      4.4199      4.6909      5.1966      5.8707      6.6275      7.3770      8.0389      8.5553    
  8.8969      9.0654      9.0891      9.0159      8.9026      8.7962      8.7160      8.6730      8.6730      8.7160    
  8.7962      8.9026      9.0159      9.0891      9.0654      8.8969      8.5553      8.0389      7.3770      6.6275    
  7.1775      6.6266      6.1672      5.8625      5.7559      5.8625      6.1672      6.6266      7.1775      7.7473    
  8.2670      8.6820      8.9597      9.0930      9.0995      9.0159      8.8907      8.7673      8.6659      8.5996    
  8.5765      8.5996      8.6659      8.7673      8.8907      9.0159      9.0995      9.0930      8.9597      8.6820    
  8.2670      7.7473      8.1518      7.7482      7.3775      7.0937      6.9399      6.9399      7.0937      7.3775    
  7.7482      8.1518      8.5322      8.8421      9.0492      9.1415      9.1278      9.0351      8.9026      8.7673    
  8.6484      8.5604      8.5136      8.5136      8.5604      8.6484      8.7673      8.9026      9.0351      9.1278    
  9.1415      9.0492      8.8421      8.5322      8.7932      8.5353      8.2714      8.0435      7.8892      7.8347    
  7.8892      8.0435      8.2714      8.5353      8.7932      9.0063      9.1462      9.1988      9.1670      9.0693    
  8.9363      8.7962      8.6659      8.5604      8.4917      8.4679      8.4917      8.5604      8.6659      8.7962    
  8.9363      9.0693      9.1670      9.1988      9.1462      9.0063      9.1458      9.0114      8.8505      8.6922    
  8.5662      8.4966      8.4966      8.5662      8.6922      8.8505      9.0114      9.1458      9.2300      9.2507    
  9.2073      9.1118      8.9863      8.8497      8.7160      8.5996      8.5136      8.4679      8.4679      8.5136    
  8.5996      8.7160      8.8497      8.9863      9.1118      9.2073      9.2507      9.2300      9.2825      9.2368    
  9.1583      9.0648      8.9776      8.9159      8.8937      8.9159      8.9776      9.0648      9.1583      9.2368    
  9.2825      9.2839      9.2387      9.1544      9.0449      8.9203      8.7920      8.6730      8.5765      8.5136    
  8.4917      8.5136      8.5765      8.6730      8.7920      8.9203      9.0449      9.1544      9.2387      9.2839    
  9.2891      9.2922      9.2658      9.2192      9.1656      9.1195      9.0929      9.0929      9.1195      9.1656    
  9.2192      9.2658      9.2922      9.2891      9.2537      9.1901      9.1032      8.9984      8.8843      8.7718    
  8.6730      8.5996      8.5604      8.5604      8.5996      8.6730      8.7718      8.8843      8.9984      9.1032    
  9.1901      9.2537      9.2487      9.2629      9.2561      9.2314      9.1963      9.1606      9.1343      9.1247    
  9.1343      9.1606      9.1963      9.2314      9.2561      9.2629      9.2487      9.2121      9.1531      9.0744    
  8.9819      8.8843      8.7920      8.7160      8.6659      8.6484      8.6659      8.7160      8.7920      8.8843    
  8.9819      9.0744      9.1531      9.2121      9.2157      9.2220      9.2090      9.1812      9.1448      9.1070    
  9.0758      9.0581      9.0581      9.0758      9.1070      9.1448      9.1812      9.2090      9.2220      9.2157    
  9.1880      9.1397      9.0744      8.9984      8.9203      8.8497      8.7962      8.7673      8.7673      8.7962    
  8.8497      8.9203      8.9984      9.0744      9.1397      9.1880      9.2035      9.1982      9.1729      9.1316    
  9.0804      9.0274      8.9813      8.9499      8.9388      8.9499      8.9813      9.0274      9.0804      9.1316    
  9.1729      9.1982      9.2035      9.1880      9.1531      9.1032      9.0449      8.9863      8.9363      8.9026    
  8.8907      8.9026      8.9363      8.9863      9.0449      9.1032      9.1531      9.1880      9.2157      9.1982    
  9.1598      9.1036      9.0354      8.9635      8.8975      8.8470      8.8196      8.8196      8.8470      8.8975    
  8.9635      9.0354      9.1036      9.1598      9.1982      9.2157      9.2121      9.1901      9.1544      9.1118    
  9.0693      9.0351      9.0159      9.0159      9.0351      9.0693      9.1118      9.1544      9.1901      9.2121    
  9.2487      9.2220      9.1729      9.1036      9.0194      8.9285      8.8414      8.7689      8.7208      8.7040    
  8.7208      8.7689      8.8414      8.9285      9.0194      9.1036      9.1729      9.2220      9.2487      9.2537    
  9.2387      9.2073      9.1670      9.1278      9.0995      9.0891      9.0995      9.1278      9.1670      9.2073    
  9.2387      9.2537      9.2891      9.2629      9.2090      9.1316      9.0354      8.9285      8.8216      8.7269    
  8.6559      8.6179      8.6179      8.6559      8.7269      8.8216      8.9285      9.0354      9.1316      9.2090    
  9.2629      9.2891      9.2839      9.2507      9.1988      9.1415      9.0930      9.0654      9.0654      9.0930    
  9.1415      9.1988      9.2507      9.2839      9.2825      9.2922      9.2561      9.1812      9.0804      8.9635    
  8.8414      8.7269      8.6333      8.5720      8.5507      8.5720      8.6333      8.7269      8.8414      8.9635    
  9.0804      9.1812      9.2561      9.2922      9.2825      9.2300      9.1462      9.0492      8.9597      8.8969    
  8.8743      8.8969      8.9597      9.0492      9.1462      9.2300      9.1458      9.2368      9.2658      9.2314    
  9.1448      9.0274      8.8975      8.7689      8.6559      8.5720      8.5274      8.5274      8.5720      8.6559    
  8.7689      8.8975      9.0274      9.1448      9.2314      9.2658      9.2368      9.1458      9.0063      8.8421    
  8.6820      8.5553      8.4853      8.4853      8.5553      8.6820      8.8421      9.0063      8.7932      9.0114    
  9.1583      9.2192      9.1963      9.1070      8.9813      8.8470      8.7208      8.6179      8.5507      8.5274    
  8.5507      8.6179      8.7208      8.8470      8.9813      9.1070      9.1963      9.2192      9.1583      9.0114    
  8.7932      8.5322      8.2670      8.0389      7.8850      7.8306      7.8850      8.0389      8.2670      8.5322    
  8.1518      8.5353      8.8505      9.0648      9.1656      9.1606      9.0758      8.9499      8.8196      8.7040    
  8.6179      8.5720      8.5720      8.6179      8.7040      8.8196      8.9499      9.0758      9.1606      9.1656    
  9.0648      8.8505      8.5353      8.1518      7.7473      7.3770      7.0942      6.9411      6.9412      7.0942    
  7.3770      7.7473      7.1775      7.7482      8.2714      8.6922      8.9776      9.1195      9.1343      9.0581    
  8.9388      8.8196      8.7208      8.6559      8.6333      8.6559      8.7208      8.8196      8.9388      9.0581    
  9.1343      9.1195      8.9776      8.6922      8.2714      7.7482      7.1775      6.6275      6.1698      5.8667    
  5.7606      5.8667      6.1698      6.6275      5.8707      6.6266      7.3775      8.0435      8.5662      8.9159    
  9.0929      9.1247      9.0581      8.9499      8.8470      8.7689      8.7269      8.7269      8.7689      8.8470    
  8.9499      9.0581      9.1247      9.0929      8.9159      8.5662      8.0435      7.3775      6.6266      5.8707    
  5.1988      4.6954      4.4258      4.4258      4.6954      5.1988      4.2867      5.1966      6.1672      7.0937    
  7.8892      8.4966      8.8937      9.0929      9.1343      9.0758      8.9813      8.8975      8.8414      8.8216    
  8.8414      8.8975      8.9813      9.0758      9.1343      9.0929      8.8937      8.4966      7.8892      7.0937    
  6.1672      5.1966      4.2867      3.5433      3.0568      2.8876      3.0568      3.5433      2.5365      3.5406    
  4.6909      5.8625      6.9399      7.8347      8.4966      8.9159      9.1195      9.1606      9.1070      9.0274    
  8.9635      8.9285      8.9285      8.9635      9.0274      9.1070      9.1606      9.1195      8.9159      8.4966    
  7.8347      6.9399      5.8625      4.6909      3.5406      2.5365      1.7937      1.3990      1.3990      1.7937    
 0.77440      1.7911      3.0519      4.4199      5.7559      6.9399      7.8892      8.5662      8.9776      9.1656    
  9.1963      9.1448      9.0804      9.0354      9.0194      9.0354      9.0804      9.1448      9.1963      9.1656    
  8.9776      8.5662      7.8892      6.9399      5.7559      4.4199      3.0519      1.7911     0.77440     0.11503    
 -.11325     0.11503     -.82625     0.11307      1.3948      2.8819      4.4199      5.8625      7.0937      8.0435    
  8.6922      9.0648      9.2192      9.2314      9.1812      9.1316      9.1036      9.1036      9.1316      9.1812    
  9.2314      9.2192      9.0648      8.6922      8.0435      7.0937      5.8625      4.4199      2.8819      1.3948    
 0.11307     -.82625     -1.3223     -1.3223     -2.1015     -1.3234     -.11594      1.3948      3.0519      4.6909    
  6.1672      7.3775      8.2714      8.8505      9.1583      9.2658      9.2561      9.2090      9.1729      9.1598    
  9.1729      9.2090      9.2561      9.2658      9.1583      8.8505      8.2714      7.3775      6.1672      4.6909    
  3.0519      1.3948     -.11594     -1.3234     -2.1015     -2.3699     -2.9211     -2.3703     -1.3234     0.11307    
  1.7911      3.5406      5.1966      6.6266      7.7482      8.5353      9.0114      9.2368      9.2922      9.2629    
  9.2220      9.1982      9.1982      9.2220      9.2629      9.2922      9.2368      9.0114      8.5353      7.7482    
  6.6266      5.1966      3.5406      1.7911     0.11307     -1.3234     -2.3703     -2.9211     -2.4608     -2.1919    
 -1.4124     -.20177      1.3142      2.9784      4.6258      6.1107      7.3289      8.2294      8.8134      9.1244    
  9.2338      9.2247      9.1774      9.1411      9.1279      9.1411      9.1774      9.2247      9.2338      9.1244    
  8.8134      8.2294      7.3289      6.1107      4.6258      2.9784      1.3142     -.20177     -1.4124     -2.1919    
 -2.1919     -2.1919     -1.6682     -.67414     0.68703      2.2728      3.9209      5.4748      6.8096      7.8486    
  8.5687      8.9941      9.1841      9.2172      9.1764      9.1304      9.1041      9.1041      9.1304      9.1764    
  9.2172      9.1841      8.9941      8.5687      7.8486      6.8096      5.4748      3.9209      2.2728     0.68703    
 -.67414     -1.6682     -1.4124     -1.6673     -1.4124     -.67414     0.46970      1.8975      3.4588      4.9973    
  6.3761      7.4986      8.3185      8.8392      9.1043      9.1834      9.1570      9.1020      9.0619      9.0475    
  9.0619      9.1020      9.1570      9.1834      9.1043      8.8392      8.3185      7.4986      6.3761      4.9973    
  3.4588      1.8975     0.46970     -.67414     -.20177     -.67171     -.67171     -.20177     0.68703      1.8975    
  3.2979      4.7413      6.0886      7.2306      8.1025      8.6876      9.0117      9.1320      9.1227      9.0612    
  9.0059      8.9751      8.9751      9.0059      9.0612      9.1227      9.1320      9.0117      8.6876      8.1025    
  7.2306      6.0886      4.7413      3.2979      1.8975     0.68703      1.3142     0.69149     0.47573     0.69149    
  1.3142      2.2728      3.4588      4.7413      5.9879      7.0854      7.9564      8.5672      8.9261      9.0758    
  9.0808      9.0145      8.9426      8.8933      8.8758      8.8933      8.9426      9.0145      9.0808      9.0758    
  8.9261      8.5672      7.9564      7.0854      5.9879      4.7413      3.4588      2.2728      2.9784      2.2796    
  1.9078      1.9078      2.2796      2.9784      3.9209      4.9973      6.0886      7.0854      7.9048      8.5007    
  8.8660      9.0284      9.0408      8.9694      8.8803      8.8106      8.7728      8.7728      8.8106      8.8803    
  8.9694      9.0408      9.0284      8.8660      8.5007      7.9048      7.0854      6.0886      4.9973      3.9209    
  4.6258      3.9301      3.4739      3.3151      3.4739      3.9301      4.6258      5.4748      6.3761      7.2306    
  7.9564      8.5007      8.8444      9.0015      9.0122      8.9336      8.8277      8.7368      8.6765      8.6555    
  8.6765      8.7368      8.8277      8.9336      9.0122      9.0015      8.8444      8.5007      7.9564      7.2306    
  6.3761      5.4748      6.1107      5.4866      5.0175      4.7659      4.7659      5.0175      5.4866      6.1107    
  6.8096      7.4986      8.1025      8.5672      8.8660      9.0015      9.0018      8.9137      8.7925      8.6812    
  8.5978      8.5532      8.5532      8.5978      8.6812      8.7925      8.9137      9.0018      9.0015      8.8660    
  8.5672      8.1025      7.4986      6.8096      7.3289      6.8240      6.4016      6.1210      6.0227      6.1210    
  6.4016      6.8240      7.3289      7.8486      8.3185      8.6876      8.9261      9.0284      9.0122      8.9137    
  8.7802      8.6514      8.5461      8.4775      8.4537      8.4775      8.5461      8.6514      8.7802      8.9137    
  9.0122      9.0284      8.9261      8.6876      8.3185      7.8486      8.2294      7.8657      7.5295      7.2711    
  7.1309      7.1309      7.2711      7.5295      7.8657      8.2294      8.5687      8.8392      9.0117      9.0758    
  9.0408      8.9336      8.7925      8.6514      8.5282      8.4372      8.3890      8.3890      8.4372      8.5282    
  8.6514      8.7925      8.9336      9.0408      9.0758      9.0117      8.8392      8.5687      8.8134      8.5884    
  8.3546      8.1511      8.0128      7.9638      8.0128      8.1511      8.3546      8.5884      8.8134      8.9941    
  9.1043      9.1320      9.0808      8.9694      8.8277      8.6812      8.5461      8.4372      8.3666      8.3422    
  8.3666      8.4372      8.5461      8.6812      8.8277      8.9694      9.0808      9.1320      9.1043      8.9941    
  9.1244      9.0161      8.8802      8.7438      8.6339      8.5728      8.5728      8.6339      8.7438      8.8802    
  9.0161      9.1244      9.1841      9.1834      9.1227      9.0145      8.8803      8.7368      8.5978      8.4775    
  8.3890      8.3422      8.3422      8.3890      8.4775      8.5978      8.7368      8.8803      9.0145      9.1227    
  9.1834      9.1841      9.2338      9.2079      9.1495      9.0745      9.0022      8.9504      8.9316      8.9504    
  9.0022      9.0745      9.1495      9.2079      9.2338      9.2172      9.1570      9.0612      8.9426      8.8106    