Si beta-tin                             
   2.30000000000000     
     1.002164    0.000000    0.000000
    -0.501082    0.867900   -0.000000
     0.000000    0.000000    1.625945
    S
     2
Direct
 -0.000000 -0.000000  0.000000
  0.333333  0.666667  0.500000
 
   32   32   56
 -.34575576449E+01 -.31698320099E+01 -.23346926146E+01 -.10352357785E+01 0.59595730290E+00
 0.23915907944E+01 0.41745598642E+01 0.57873922641E+01 0.71169343812E+01 0.81070408109E+01
 0.87577329216E+01 0.91142807632E+01 0.92513446414E+01 0.92562793554E+01 0.92138467622E+01
 0.91794079451E+01 0.91667970148E+01 0.91794079278E+01 0.92138467337E+01 0.92562793258E+01
 0.92513446214E+01 0.91142807610E+01 0.87577329403E+01 0.81070408474E+01 0.71169344275E+01
 0.57873923096E+01 0.41745598995E+01 0.23915908139E+01 0.59595730633E+00 -.10352357865E+01
 -.23346926265E+01 -.31698320182E+01 -.31698320182E+01 -.31698318952E+01 -.26081667005E+01
 -.15406400699E+01 -.75850438768E-01 0.16348362776E+01 0.34174946407E+01 0.51035853768E+01
 0.65576814834E+01 0.76962746396E+01 0.84932746732E+01 0.89735126260E+01 0.91988890449E+01
 0.92518904508E+01 0.92196322678E+01 0.91762473836E+01 0.91511266178E+01 0.91511264161E+01
 0.91762468176E+01 0.92196314432E+01 0.92518895099E+01 0.91988881277E+01 0.89735118336E+01
 0.84932740461E+01 0.76962741563E+01 0.65576810787E+01 0.51035849737E+01 0.34174941835E+01
 0.16348357558E+01 -.75850984253E-01 -.15406405593E+01 -.26081670426E+01 -.23346926265E+01
 -.26086606838E+01 -.23346921656E+01 -.15406397457E+01 -.30843969908E+00 0.12327315135E+01
 0.29219889919E+01 0.45910755854E+01 0.60920524626E+01 0.73199675284E+01 0.82241985114E+01
 0.88073017977E+01 0.91145736362E+01 0.92189713019E+01 0.92051391137E+01 0.91544030450E+01
 0.91160052861E+01 0.91021023771E+01 0.91160046011E+01 0.91544018173E+01 0.92051375856E+01
 0.92189697451E+01 0.91145722752E+01 0.88073007519E+01 0.82241977733E+01 0.73199669848E+01
 0.60920519487E+01 0.45910749537E+01 0.29219881720E+01 0.12327305424E+01 -.30844068606E+00
 -.15406405593E+01 -.10352357865E+01 -.15419864719E+01 -.15419861452E+01 -.10352348943E+01
 -.75849760660E-01 0.12327317965E+01 0.27496221060E+01 0.43166233399E+01 0.57836251356E+01
 0.70324918665E+01 0.79926389395E+01 0.86451399605E+01 0.90166495984E+01 0.91669390828E+01
 0.91739062013E+01 0.91188057762E+01 0.90657502173E+01 0.90359779309E+01 0.90359775086E+01
 0.90657490527E+01 0.91188041450E+01 0.91739044665E+01 0.91669375840E+01 0.90166485518E+01
 0.86451394024E+01 0.79926387300E+01 0.70324917526E+01 0.57836248498E+01 0.43166227010E+01
 0.27496210880E+01 0.12327305424E+01 -.75850984253E-01 0.59595730633E+00 -.78148554327E-01
 -.31158970182E+00 -.78147880396E-01 0.59595844830E+00 0.16348370233E+01 0.29219892011E+01
 0.43166232281E+01 0.56757003653E+01 0.68768777107E+01 0.78362368785E+01 0.85166331374E+01
 0.89261723210E+01 0.91092544852E+01 0.91335861696E+01 0.90760632008E+01 0.90069920881E+01
 0.89591241956E+01 0.89421246629E+01 0.89591234542E+01 0.90069908214E+01 0.90760617702E+01
 0.91335849641E+01 0.91092537950E+01 0.89261722466E+01 0.85166335620E+01 0.78362375145E+01
 0.68768782028E+01 0.56757004156E+01 0.43166227010E+01 0.29219881720E+01 0.16348357558E+01
 0.23915908139E+01 0.16318246038E+01 0.12279186830E+01 0.12279189581E+01 0.16318253303E+01
 0.23915917281E+01 0.34174949455E+01 0.45910752617E+01 0.57836245411E+01 0.68768773094E+01
 0.77810062492E+01 0.84457005628E+01 0.88626412646E+01 0.90603929414E+01 0.90942155851E+01
 0.90334544081E+01 0.89480002382E+01 0.88801346720E+01 0.88431631113E+01 0.88431628734E+01
 0.88801340515E+01 0.89479994827E+01 0.90334538333E+01 0.90942154644E+01 0.90603934088E+01
 0.88626422641E+01 0.84457018614E+01 0.77810075106E+01 0.68768782028E+01 0.57836248498E+01
 0.45910749537E+01 0.34174941835E+01 0.41745598995E+01 0.34143324445E+01 0.29163167725E+01
 0.27430035816E+01 0.29163169594E+01 0.34143327134E+01 0.41745600759E+01 0.51035848723E+01
 0.60920514364E+01 0.70324907953E+01 0.78362361925E+01 0.84457003481E+01 0.88398113779E+01
 0.90325020603E+01 0.90657137893E+01 0.89989923375E+01 0.88975799188E+01 0.88088224505E+01
 0.87496882749E+01 0.87289953593E+01 0.87496882536E+01 0.88088224875E+01 0.88975801421E+01
 0.89989928717E+01 0.90657147014E+01 0.90325033235E+01 0.88398128655E+01 0.84457018614E+01
 0.78362375145E+01 0.70324917526E+01 0.60920519487E+01 0.51035849737E+01 0.57873923096E+01
 0.51010363770E+01 0.45858686267E+01 0.43097655836E+01 0.43097654593E+01 0.45858682690E+01
 0.51010358265E+01 0.57873916191E+01 0.65576802965E+01 0.73199661410E+01 0.79926378306E+01
 0.85166325937E+01 0.88626412084E+01 0.90325021752E+01 0.90553285311E+01 0.89797109167E+01
 0.88636304433E+01 0.87547576080E+01 0.86727511948E+01 0.86288813241E+01 0.86288815358E+01
 0.86727518014E+01 0.87547585310E+01 0.88636315732E+01 0.89797121382E+01 0.90553297474E+01
 0.90325033235E+01 0.88626422641E+01 0.85166335620E+01 0.79926387300E+01 0.73199669848E+01
 0.65576810787E+01 0.71169344275E+01 0.65565084534E+01 0.60888243035E+01 0.57785918135E+01
 0.56699609876E+01 0.57785912008E+01 0.60888232441E+01 0.65565072235E+01 0.71169333220E+01
 0.76962733912E+01 0.82241974164E+01 0.86451393550E+01 0.89261722834E+01 0.90603932622E+01
 0.90657141611E+01 0.89797111336E+01 0.88516555113E+01 0.87255946049E+01 0.86220927241E+01
 0.85544283472E+01 0.85309312498E+01 0.85544290590E+01 0.86220939669E+01 0.87255960743E+01
 0.88516568761E+01 0.89797121382E+01 0.90657147014E+01 0.90603934088E+01 0.89261722466E+01
 0.86451394024E+01 0.82241977733E+01 0.76962741563E+01 0.81070408474E+01 0.76970403535E+01
 0.73200166368E+01 0.70312984317E+01 0.68748005217E+01 0.68748001177E+01 0.70312973517E+01
 0.73200152326E+01 0.76970390788E+01 0.81070401054E+01 0.84932740550E+01 0.88073014725E+01
 0.90166497025E+01 0.91092549478E+01 0.90942161911E+01 0.89989928897E+01 0.88636308420E+01
 0.87255948103E+01 0.86044108394E+01 0.85147117877E+01 0.84670949999E+01 0.84670954018E+01
 0.85147128617E+01 0.86044122345E+01 0.87255960743E+01 0.88636315732E+01 0.89989928717E+01
 0.90942154644E+01 0.91092537950E+01 0.90166485518E+01 0.88073007519E+01 0.84932740461E+01
 0.87577329403E+01 0.84962255216E+01 0.82282969180E+01 0.79967353639E+01 0.78399354708E+01
 0.77844987191E+01 0.78399347938E+01 0.79967342682E+01 0.82282958328E+01 0.84962249017E+01
 0.87577331114E+01 0.89735128804E+01 0.91145740095E+01 0.91669396034E+01 0.91335867812E+01
 0.90334550331E+01 0.88975805131E+01 0.87547581273E+01 0.86220930815E+01 0.85147119189E+01
 0.84449294724E+01 0.84207461015E+01 0.84449300666E+01 0.85147128617E+01 0.86220939669E+01
 0.87547585310E+01 0.88975801421E+01 0.90334538333E+01 0.91335849641E+01 0.91669375840E+01
 0.91145722752E+01 0.89735118336E+01 0.91142807610E+01 0.89785782745E+01 0.88155890408E+01
 0.86551228948E+01 0.85273022995E+01 0.84565566882E+01 0.84565564841E+01 0.85273017843E+01
 0.86551223268E+01 0.88155887508E+01 0.89785785510E+01 0.91142817487E+01 0.91988897721E+01
 0.92189718026E+01 0.91739065763E+01 0.90760635635E+01 0.89480006932E+01 0.88088230269E+01
 0.86727517743E+01 0.85544287139E+01 0.84670950355E+01 0.84207459497E+01 0.84207461015E+01
 0.84670954018E+01 0.85544290590E+01 0.86727518014E+01 0.88088224875E+01 0.89479994827E+01
 0.90760617702E+01 0.91739044665E+01 0.92189697451E+01 0.91988881277E+01 0.92513446214E+01
 0.92057720590E+01 0.91266578258E+01 0.90322793554E+01 0.89439456803E+01 0.88815044669E+01
 0.88590006221E+01 0.88815044350E+01 0.89439456855E+01 0.90322795110E+01 0.91266582481E+01
 0.92057728233E+01 0.92513457300E+01 0.92518908832E+01 0.92051390789E+01 0.91188055859E+01
 0.90069920547E+01 0.88801349788E+01 0.87496888524E+01 0.86288818545E+01 0.85309313798E+01
 0.84670950355E+01 0.84449294724E+01 0.84670949999E+01 0.85309312498E+01 0.86288815358E+01
 0.87496882536E+01 0.88801340515E+01 0.90069908214E+01 0.91188041450E+01 0.92051375856E+01
 0.92518895099E+01 0.92562793258E+01 0.92601863710E+01 0.92341457278E+01 0.91873861420E+01
 0.91333947987E+01 0.90868154312E+01 0.90599988099E+01 0.90599989350E+01 0.90868157806E+01
 0.91333953031E+01 0.91873867102E+01 0.92341462747E+01 0.92601868428E+01 0.92562797128E+01
 0.92196317784E+01 0.91544021587E+01 0.90657494572E+01 0.89591239519E+01 0.88431634510E+01
 0.87289959582E+01 0.86288818545E+01 0.85544287139E+01 0.85147119189E+01 0.85147117877E+01
 0.85544283472E+01 0.86288813241E+01 0.87289953593E+01 0.88431628734E+01 0.89591234542E+01
 0.90657490527E+01 0.91544018173E+01 0.92196314432E+01 0.92138467337E+01 0.92289266256E+01
 0.92225991703E+01 0.91980714845E+01 0.91628539891E+01 0.91269993566E+01 0.91005321249E+01
 0.90908098953E+01 0.91005325065E+01 0.91269999808E+01 0.91628546251E+01 0.91980718875E+01
 0.92225991648E+01 0.92289261653E+01 0.92138459185E+01 0.91762458613E+01 0.91160037617E+01
 0.90359770035E+01 0.89421245989E+01 0.88431634510E+01 0.87496888524E+01 0.86727517743E+01
 0.86220930815E+01 0.86044108394E+01 0.86220927241E+01 0.86727511948E+01 0.87496882749E+01
 0.88431631113E+01 0.89421246629E+01 0.90359775086E+01 0.91160046011E+01 0.91762468176E+01
 0.91794079278E+01 0.91861658473E+01 0.91733883691E+01 0.91455778215E+01 0.91090798277E+01
 0.90710771486E+01 0.90396101705E+01 0.90217944463E+01 0.90217946626E+01 0.90396107209E+01
 0.90710777715E+01 0.91090801892E+01 0.91455776325E+01 0.91733874881E+01 0.91861643358E+01
 0.91794060381E+01 0.91511245155E+01 0.91021008346E+01 0.90359770035E+01 0.89591239519E+01
 0.88801349788E+01 0.88088230269E+01 0.87547581273E+01 0.87255948103E+01 0.87255946049E+01
 0.87547576080E+01 0.88088224505E+01 0.88801346720E+01 0.89591241956E+01 0.90359779309E+01
 0.91021023771E+01 0.91511264161E+01 0.91667970148E+01 0.91613425404E+01 0.91358514365E+01
 0.90941383795E+01 0.90424781279E+01 0.89889575649E+01 0.89423543667E+01 0.89106361608E+01
 0.88993925600E+01 0.89106365505E+01 0.89423549445E+01 0.89889579983E+01 0.90424780711E+01
 0.90941375978E+01 0.91358498955E+01 0.91613404291E+01 0.91667946950E+01 0.91511245155E+01
 0.91160037617E+01 0.90657494572E+01 0.90069920547E+01 0.89480006932E+01 0.88975805131E+01
 0.88636308420E+01 0.88516555113E+01 0.88636304433E+01 0.88975799188E+01 0.89480002382E+01
 0.90069920881E+01 0.90657502173E+01 0.91160052861E+01 0.91511266178E+01 0.91794079451E+01
 0.91613423535E+01 0.91222254189E+01 0.90651312618E+01 0.89959866623E+01 0.89231206997E+01
 0.88562695684E+01 0.88050678748E+01 0.87772917513E+01 0.87772919510E+01 0.88050683775E+01
 0.88562701194E+01 0.89231209751E+01 0.89959863847E+01 0.90651303015E+01 0.91222238471E+01
 0.91613404291E+01 0.91794060381E+01 0.91762458613E+01 0.91544021587E+01 0.91188055859E+01
 0.90760635635E+01 0.90334550331E+01 0.89989928897E+01 0.89797111336E+01 0.89797109167E+01
 0.89989923375E+01 0.90334544081E+01 0.90760632008E+01 0.91188057762E+01 0.91544030450E+01
 0.91762473836E+01 0.92138467622E+01 0.91861653203E+01 0.91358507634E+01 0.90651308356E+01
 0.89794263459E+01 0.88870945843E+01 0.87985889008E+01 0.87250105329E+01 0.86762595052E+01
 0.86591918797E+01 0.86762598528E+01 0.87250110942E+01 0.87985894539E+01 0.88870948960E+01
 0.89794262526E+01 0.90651303015E+01 0.91358498955E+01 0.91861643358E+01 0.92138459185E+01
 0.92196317784E+01 0.92051390789E+01 0.91739065763E+01 0.91335867812E+01 0.90942161911E+01
 0.90657141611E+01 0.90553285311E+01 0.90657137893E+01 0.90942155851E+01 0.91335861696E+01
 0.91739062013E+01 0.92051391137E+01 0.92196322678E+01 0.92562793554E+01 0.92289258505E+01
 0.91733871607E+01 0.90941372046E+01 0.89959858987E+01 0.88870943322E+01 0.87783522731E+01
 0.86820242496E+01 0.86098935482E+01 0.85712619201E+01 0.85712620476E+01 0.86098939047E+01
 0.86820247657E+01 0.87783528568E+01 0.88870948960E+01 0.89959863847E+01 0.90941375978E+01
 0.91733874881E+01 0.92289261653E+01 0.92562797128E+01 0.92518908832E+01 0.92189718026E+01
 0.91669396034E+01 0.91092549478E+01 0.90603932622E+01 0.90325021752E+01 0.90325020603E+01
 0.90603929414E+01 0.91092544852E+01 0.91669390828E+01 0.92189713019E+01 0.92518904508E+01
 0.92513446414E+01 0.92601854723E+01 0.92225976617E+01 0.91455761766E+01 0.90424768246E+01
 0.89231200416E+01 0.87985888572E+01 0.86820244552E+01 0.85867944308E+01 0.85244257547E+01
 0.85027174082E+01 0.85244257840E+01 0.85867945511E+01 0.86820247657E+01 0.87985894539E+01
 0.89231209751E+01 0.90424780711E+01 0.91455776325E+01 0.92225991648E+01 0.92601868428E+01
 0.92513457300E+01 0.91988897721E+01 0.91145740095E+01 0.90166497025E+01 0.89261722834E+01
 0.88626412084E+01 0.88398113779E+01 0.88626412646E+01 0.89261723210E+01 0.90166495984E+01
 0.91145736362E+01 0.91988890449E+01 0.91142807632E+01 0.92057711603E+01 0.92341441830E+01
 0.91980697370E+01 0.91090783590E+01 0.89889567623E+01 0.88562695695E+01 0.87250111240E+01
 0.86098942598E+01 0.85244261603E+01 0.84789097626E+01 0.84789096066E+01 0.85244257840E+01
 0.86098939047E+01 0.87250110942E+01 0.88562701194E+01 0.89889579983E+01 0.91090801892E+01
 0.91980718875E+01 0.92341462747E+01 0.92057728233E+01 0.91142817487E+01 0.89735128804E+01
 0.88073014725E+01 0.86451393550E+01 0.85166325937E+01 0.84457003481E+01 0.84457005628E+01
 0.85166331374E+01 0.86451399605E+01 0.88073017977E+01 0.89735126260E+01 0.87577329216E+01
 0.89785774675E+01 0.91266564638E+01 0.91873846359E+01 0.91628527580E+01 0.90710765351E+01
 0.89423545547E+01 0.88050687794E+01 0.86762607480E+01 0.85712630036E+01 0.85027180114E+01
 0.84789097626E+01 0.85027174082E+01 0.85712620476E+01 0.86762598528E+01 0.88050683775E+01
 0.89423549445E+01 0.90710777715E+01 0.91628546251E+01 0.91873867102E+01 0.91266582481E+01
 0.89785785510E+01 0.87577331114E+01 0.84932740550E+01 0.82241974164E+01 0.79926378306E+01
 0.78362361925E+01 0.77810062492E+01 0.78362368785E+01 0.79926389395E+01 0.82241985114E+01
 0.84932746732E+01 0.81070408109E+01 0.84962248474E+01 0.88155879796E+01 0.90322783102E+01
 0.91333941066E+01 0.91269992219E+01 0.90396106851E+01 0.89106372777E+01 0.87772932211E+01
 0.86591932856E+01 0.85712630036E+01 0.85244261603E+01 0.85244257547E+01 0.85712619201E+01
 0.86591918797E+01 0.87772919510E+01 0.89106365505E+01 0.90396107209E+01 0.91269999808E+01
 0.91333953031E+01 0.90322795110E+01 0.88155887508E+01 0.84962249017E+01 0.81070401054E+01
 0.76962733912E+01 0.73199661410E+01 0.70324907953E+01 0.68768773094E+01 0.68768777107E+01
 0.70324918665E+01 0.73199675284E+01 0.76962746396E+01 0.71169343812E+01 0.76970398004E+01
 0.82282961536E+01 0.86551223479E+01 0.89439456321E+01 0.90868159188E+01 0.91005330438E+01
 0.90217956670E+01 0.88993939254E+01 0.87772932211E+01 0.86762607480E+01 0.86098942598E+01
 0.85867944308E+01 0.86098935482E+01 0.86762595052E+01 0.87772917513E+01 0.88993925600E+01
 0.90217946626E+01 0.91005325065E+01 0.90868157806E+01 0.89439456855E+01 0.86551223268E+01
 0.82282958328E+01 0.76970390788E+01 0.71169333220E+01 0.65576802965E+01 0.60920514364E+01
 0.57836245411E+01 0.56757003653E+01 0.57836251356E+01 0.60920524626E+01 0.65576814834E+01
 0.57873922641E+01 0.65565079724E+01 0.73200160627E+01 0.79967351747E+01 0.85273027754E+01
 0.88815055200E+01 0.90600001088E+01 0.90908111254E+01 0.90217956670E+01 0.89106372777E+01
 0.88050687794E+01 0.87250111240E+01 0.86820244552E+01 0.86820242496E+01 0.87250105329E+01
 0.88050678748E+01 0.89106361608E+01 0.90217944463E+01 0.90908098953E+01 0.90599989350E+01
 0.88815044350E+01 0.85273017843E+01 0.79967342682E+01 0.73200152326E+01 0.65565072235E+01
 0.57873916191E+01 0.51035848723E+01 0.45910752617E+01 0.43166232281E+01 0.43166233399E+01
 0.45910755854E+01 0.51035853768E+01 0.41745598642E+01 0.51010359084E+01 0.60888237633E+01
 0.70312983446E+01 0.78399361736E+01 0.84565580634E+01 0.88590021675E+01 0.90600001088E+01
 0.91005330438E+01 0.90396106851E+01 0.89423545547E+01 0.88562695695E+01 0.87985888572E+01
 0.87783522731E+01 0.87985889008E+01 0.88562695684E+01 0.89423543667E+01 0.90396101705E+01
 0.91005321249E+01 0.90599988099E+01 0.88590006221E+01 0.84565564841E+01 0.78399347938E+01
 0.70312973517E+01 0.60888232441E+01 0.51010358265E+01 0.41745600759E+01 0.34174949455E+01
 0.29219892011E+01 0.27496221060E+01 0.29219889919E+01 0.34174946407E+01 0.23915907944E+01
 0.34143319452E+01 0.45858679796E+01 0.57785915573E+01 0.68748010831E+01 0.77845000635E+01
 0.84565580634E+01 0.88815055200E+01 0.90868159188E+01 0.91269992219E+01 0.90710765351E+01
 0.89889567623E+01 0.89231200416E+01 0.88870943322E+01 0.88870945843E+01 0.89231206997E+01
 0.89889575649E+01 0.90710771486E+01 0.91269993566E+01 0.90868154312E+01 0.88815044669E+01
 0.84565566882E+01 0.77844987191E+01 0.68748001177E+01 0.57785912008E+01 0.45858682690E+01
 0.34143327134E+01 0.23915917281E+01 0.16348370233E+01 0.12327317965E+01 0.12327315135E+01
 0.16348362776E+01 0.59595730290E+00 0.16318240680E+01 0.29163159517E+01 0.43097649735E+01
 0.56699610973E+01 0.68748010831E+01 0.78399361736E+01 0.85273027754E+01 0.89439456321E+01
 0.91333941066E+01 0.91628527580E+01 0.91090783590E+01 0.90424768246E+01 0.89959858987E+01
 0.89794263459E+01 0.89959866623E+01 0.90424781279E+01 0.91090798277E+01 0.91628539891E+01
 0.91333947987E+01 0.89439456803E+01 0.85273022995E+01 0.78399354708E+01 0.68748005217E+01
 0.56699609876E+01 0.43097654593E+01 0.29163169594E+01 0.16318253303E+01 0.59595844830E+00
 -.75849760660E-01 -.30843969908E+00 -.75850438768E-01 -.10352357785E+01 -.78149090164E-01
 0.12279177239E+01 0.27430025888E+01 0.43097649735E+01 0.57785915573E+01 0.70312983446E+01
 0.79967351747E+01 0.86551223479E+01 0.90322783102E+01 0.91873846359E+01 0.91980697370E+01
 0.91455761766E+01 0.90941372046E+01 0.90651308356E+01 0.90651312618E+01 0.90941383795E+01
 0.91455778215E+01 0.91980714845E+01 0.91873861420E+01 0.90322793554E+01 0.86551228948E+01
 0.79967353639E+01 0.70312984317E+01 0.57785918135E+01 0.43097655836E+01 0.27430035816E+01
 0.12279189581E+01 -.78147880396E-01 -.10352348943E+01 -.15406397457E+01 -.15406400699E+01
 -.23346926146E+01 -.15419869394E+01 -.31159066924E+00 0.12279177239E+01 0.29163159517E+01
 0.45858679796E+01 0.60888237633E+01 0.73200160627E+01 0.82282961536E+01 0.88155879796E+01
 0.91266564638E+01 0.92341441830E+01 0.92225976617E+01 0.91733871607E+01 0.91358507634E+01
 0.91222254189E+01 0.91358514365E+01 0.91733883691E+01 0.92225991703E+01 0.92341457278E+01
 0.91266578258E+01 0.88155890408E+01 0.82282969180E+01 0.73200166368E+01 0.60888243035E+01
 0.45858686267E+01 0.29163167725E+01 0.12279186830E+01 -.31158970182E+00 -.15419861452E+01
 -.23346921656E+01 -.26081667005E+01 -.31698320099E+01 -.26086610052E+01 -.15419869394E+01
 -.78149090164E-01 0.16318240680E+01 0.34143319452E+01 0.51010359084E+01 0.65565079724E+01
 0.76970398004E+01 0.84962248474E+01 0.89785774675E+01 0.92057711603E+01 0.92601854723E+01
 0.92289258505E+01 0.91861653203E+01 0.91613423535E+01 0.91613425404E+01 0.91861658473E+01
 0.92289266256E+01 0.92601863710E+01 0.92057720590E+01 0.89785782745E+01 0.84962255216E+01
 0.76970403535E+01 0.65565084534E+01 0.51010363770E+01 0.34143324445E+01 0.16318246038E+01
 -.78148554327E-01 -.15419864719E+01 -.26086606838E+01 -.31698318952E+01 -.32041614835E+01
 -.29209646456E+01 -.20992483726E+01 -.82147421958E+00 0.78116900637E+00 0.25436482125E+01
 0.42917270119E+01 0.58708409896E+01 0.71701970638E+01 0.81351203228E+01 0.87661931844E+01
 0.91085385608E+01 0.92362220023E+01 0.92357693419E+01 0.91909630698E+01 0.91554141811E+01
 0.91424391019E+01 0.91554141677E+01 0.91909630470E+01 0.92357693163E+01 0.92362219812E+01
 0.91085385501E+01 0.87661931868E+01 0.81351203373E+01 0.71701970860E+01 0.58708410136E+01
 0.42917270318E+01 0.25436482247E+01 0.78116900999E+00 -.82147422239E+00 -.20992483779E+01
 -.29209646496E+01 -.29209646496E+01 -.29209645466E+01 -.23685043968E+01 -.13189514856E+01
 0.12018628492E+00 0.17994795746E+01 0.35476825817E+01 0.51992260415E+01 0.66213405162E+01
 0.77323986984E+01 0.85072585047E+01 0.89708882982E+01 0.91847666301E+01 0.92306402269E+01
 0.91947397450E+01 0.91498363550E+01 0.91239882433E+01 0.91239880488E+01 0.91498358080E+01
 0.91947389441E+01 0.92306393057E+01 0.91847657220E+01 0.89708875025E+01 0.85072578662E+01
 0.77323982049E+01 0.66213401141E+01 0.51992256634E+01 0.35476821758E+01 0.17994791263E+01
 0.12018582358E+00 -.13189518967E+01 -.23685046833E+01 -.20992483779E+01 -.23685456395E+01
 -.20992479793E+01 -.13189511943E+01 -.10872615574E+00 0.14038917526E+01 0.30604302025E+01
 0.46954988885E+01 0.61639391703E+01 0.73629767152E+01 0.82432913878E+01 0.88078849362E+01
 0.91018486187E+01 0.91975317734E+01 0.91787650154E+01 0.91258746156E+01 0.90864063687E+01
 0.90721510053E+01 0.90864057021E+01 0.91258734180E+01 0.91787635184E+01 0.91975302385E+01
 0.91018472651E+01 0.88078838862E+01 0.82432906446E+01 0.73629761809E+01 0.61639386951E+01
 0.46954983336E+01 0.30604294960E+01 0.14038909180E+01 -.10872700578E+00 -.13189518967E+01
 -.82147422239E+00 -.13190371778E+01 -.13190368858E+01 -.82147342684E+00 0.12018690884E+00
 0.14038920194E+01 0.28908867310E+01 0.44256368589E+01 0.58607827121E+01 0.70805251611E+01
 0.80158586350E+01 0.86485968940E+01 0.90054319468E+01 0.91456955779E+01 0.91465773308E+01
 0.90885028801E+01 0.90340662763E+01 0.90036145317E+01 0.90036141178E+01 0.90340651336E+01
 0.90885012754E+01 0.91465756165E+01 0.91456940865E+01 0.90054308942E+01 0.86485963244E+01
 0.80158584236E+01 0.70805250715E+01 0.58607824896E+01 0.44256363257E+01 0.28908858523E+01
 0.14038909180E+01 0.12018582358E+00 0.78116900999E+00 0.12014949794E+00 -.10880659048E+00
 0.12015011831E+00 0.78117005668E+00 0.17994802772E+01 0.30604304106E+01 0.44256367608E+01
 0.57546716318E+01 0.69275585975E+01 0.78621357747E+01 0.85222485925E+01 0.89162841230E+01
 0.90883966328E+01 0.91057198037E+01 0.90444087461E+01 0.89736270508E+01 0.89247860063E+01
 0.89074641033E+01 0.89247852739E+01 0.89736257971E+01 0.90444073247E+01 0.91057185964E+01
 0.90883959274E+01 0.89162840240E+01 0.85222489937E+01 0.78621364029E+01 0.69275591108E+01
 0.57546717397E+01 0.44256363257E+01 0.30604294960E+01 0.17994791263E+01 0.25436482247E+01
 0.17997454715E+01 0.14041669574E+01 0.14041672195E+01 0.17997461624E+01 0.25436490903E+01
 0.35476828891E+01 0.46954986050E+01 0.58607821651E+01 0.69275582250E+01 0.78078332877E+01
 0.84524721173E+01 0.88536602665E+01 0.90399201397E+01 0.90660969067E+01 0.90009065453E+01
 0.89133614432E+01 0.88442652173E+01 0.88066824075E+01 0.88066821711E+01 0.88442645997E+01
 0.89133606872E+01 0.90009059613E+01 0.90660967646E+01 0.90399205739E+01 0.88536612256E+01
 0.84524733770E+01 0.78078345217E+01 0.69275591108E+01 0.58607824896E+01 0.46954983336E+01
 0.35476821758E+01 0.42917270318E+01 0.35486863813E+01 0.30617556482E+01 0.28922708140E+01
 0.30617558443E+01 0.35486866691E+01 0.42917272374E+01 0.51992256014E+01 0.61639382313E+01
 0.70805241692E+01 0.78621351381E+01 0.84524719186E+01 0.88311519236E+01 0.90122632593E+01
 0.90375033529E+01 0.89659188861E+01 0.88620591068E+01 0.87718478910E+01 0.87118478067E+01
 0.86908663074E+01 0.87118477857E+01 0.87718479267E+01 0.88620593238E+01 0.89659194055E+01
 0.90375042392E+01 0.90122644850E+01 0.88311533634E+01 0.84524733770E+01 0.78621364029E+01
 0.70805250715E+01 0.61639386951E+01 0.51992256634E+01 0.58708410136E+01 0.52015223910E+01
 0.46988681408E+01 0.44293911632E+01 0.44293910595E+01 0.46988678419E+01 0.52015219289E+01
 0.58708404289E+01 0.66213394418E+01 0.73629754389E+01 0.80158576092E+01 0.85222480893E+01
 0.88536602124E+01 0.90122633608E+01 0.90270981884E+01 0.89463984477E+01 0.88275948845E+01
 0.87170734167E+01 0.86339787498E+01 0.85895646247E+01 0.85895648372E+01 0.86339793585E+01
 0.87170743426E+01 0.88275960162E+01 0.89463996670E+01 0.90270993941E+01 0.90122644850E+01
 0.88536612256E+01 0.85222489937E+01 0.80158584236E+01 0.73629761809E+01 0.66213401141E+01
 0.71701970860E+01 0.66254673364E+01 0.61704394942E+01 0.58684342038E+01 0.57626571360E+01
 0.58684336519E+01 0.61704385447E+01 0.66254662455E+01 0.71701961249E+01 0.77323975675E+01
 0.82432903832E+01 0.86485963339E+01 0.89162840815E+01 0.90399204210E+01 0.90375036779E+01
 0.89463986378E+01 0.88154511462E+01 0.86875652068E+01 0.85827798463E+01 0.85143469948E+01
 0.84905932526E+01 0.85143477091E+01 0.85827810958E+01 0.86875666895E+01 0.88154525315E+01
 0.89463996670E+01 0.90375042392E+01 0.90399205739E+01 0.89162840240E+01 0.86485963244E+01
 0.82432906446E+01 0.77323982049E+01 0.81351203373E+01 0.77387269472E+01 0.73734978750E+01
 0.70934935737E+01 0.69416284899E+01 0.69416281192E+01 0.70934925860E+01 0.73734966012E+01
 0.77387258120E+01 0.81351197156E+01 0.85072579547E+01 0.88078846365E+01 0.90054320284E+01
 0.90883970315E+01 0.90660974295E+01 0.89659193662E+01 0.88275952436E+01 0.86875654035E+01
 0.85649212778E+01 0.84742570856E+01 0.84261580809E+01 0.84261584816E+01 0.84742581587E+01
 0.85649226796E+01 0.86875666895E+01 0.88275960162E+01 0.89659194055E+01 0.90660967646E+01
 0.90883959274E+01 0.90054308942E+01 0.88078838862E+01 0.85072578662E+01 0.87661931868E+01
 0.85158994391E+01 0.82582849316E+01 0.80350705802E+01 0.78837121473E+01 0.78301659057E+01
 0.78837115216E+01 0.80350695720E+01 0.82582839444E+01 0.85158988992E+01 0.87661933970E+01
 0.89708885368E+01 0.91018489391E+01 0.91456960142E+01 0.91057203140E+01 0.90009070761E+01
 0.88620596392E+01 0.87170739164E+01 0.85827802138E+01 0.84742572310E+01 0.84037952774E+01
 0.83793859589E+01 0.84037958594E+01 0.84742581587E+01 0.85827810958E+01 0.87170743426E+01
 0.88620593238E+01 0.90009059613E+01 0.91057185964E+01 0.91456940865E+01 0.91018472651E+01
 0.89708875025E+01 0.91085385501E+01 0.89816940018E+01 0.88272812941E+01 0.86742649397E+01
 0.85519569120E+01 0.84841451174E+01 0.84841449256E+01 0.85519564281E+01 0.86742644062E+01
 0.88272810216E+01 0.89816942616E+01 0.91085394788E+01 0.91847672694E+01 0.91975321770E+01
 0.91465776082E+01 0.90444090233E+01 0.89133618421E+01 0.87718484533E+01 0.86339793528E+01
 0.85143474018E+01 0.84261581489E+01 0.83793858203E+01 0.83793859589E+01 0.84261584816E+01
 0.85143477091E+01 0.86339793585E+01 0.87718479267E+01 0.89133606872E+01 0.90444073247E+01
 0.91465756165E+01 0.91975302385E+01 0.91847657220E+01 0.92362219812E+01 0.91974062594E+01
 0.91251451521E+01 0.90370788366E+01 0.89538577676E+01 0.88947511070E+01 0.88734060656E+01
 0.88947510629E+01 0.89538577448E+01 0.90370789428E+01 0.91251454997E+01 0.91974069246E+01
 0.92362229739E+01 0.92306405602E+01 0.91787649070E+01 0.90885026418E+01 0.89736269969E+01
 0.88442655354E+01 0.87118484260E+01 0.85895652138E+01 0.84905934367E+01 0.84261581489E+01
 0.84037952774E+01 0.84261580809E+01 0.84905932526E+01 0.85895648372E+01 0.87118477857E+01
 0.88442645997E+01 0.89736257971E+01 0.90885012754E+01 0.91787635184E+01 0.92306393057E+01
 0.92357693163E+01 0.92447018242E+01 0.92239780155E+01 0.91823693061E+01 0.91328537614E+01
 0.90895871128E+01 0.90645338076E+01 0.90645339099E+01 0.90895873971E+01 0.91328541669E+01
 0.91823697547E+01 0.92239784374E+01 0.92447021809E+01 0.92357696118E+01 0.91947392206E+01
 0.91258737376E+01 0.90340655518E+01 0.89247858143E+01 0.88066828096E+01 0.86908669725E+01
 0.85895652138E+01 0.85143474018E+01 0.84742572310E+01 0.84742570856E+01 0.85143469948E+01
 0.85895646247E+01 0.86908663074E+01 0.88066821711E+01 0.89247852739E+01 0.90340651336E+01
 0.91258734180E+01 0.91947389441E+01 0.91909630470E+01 0.92098110005E+01 0.92075457509E+01
 0.91871252448E+01 0.91556855773E+01 0.91228893867E+01 0.90984167511E+01 0.90893876591E+01
 0.90984170691E+01 0.91228898985E+01 0.91556860773E+01 0.91871255178E+01 0.92075456474E+01
 0.92098104911E+01 0.91909622355E+01 0.91498349004E+01 0.90864049400E+01 0.90036136997E+01
 0.89074641191E+01 0.88066828096E+01 0.87118484260E+01 0.86339793528E+01 0.85827802138E+01
 0.85649212778E+01 0.85827798463E+01 0.86339787498E+01 0.87118478067E+01 0.88066824075E+01
 0.89074641033E+01 0.90036141178E+01 0.90864057021E+01 0.91498358080E+01 0.91554141677E+01
 0.91655440823E+01 0.91562257890E+01 0.91317862707E+01 0.90984244713E+01 0.90631366773E+01
 0.90336759867E+01 0.90169275402E+01 0.90169277243E+01 0.90336764504E+01 0.90631371856E+01
 0.90984247257E+01 0.91317860150E+01 0.91562249031E+01 0.91655426310E+01 0.91554123887E+01
 0.91239862825E+01 0.90721495900E+01 0.90036136997E+01 0.89247858143E+01 0.88442655354E+01
 0.87718484533E+01 0.87170739164E+01 0.86875654035E+01 0.86875652068E+01 0.87170734167E+01
 0.87718478910E+01 0.88442652173E+01 0.89247860063E+01 0.90036145317E+01 0.90721510053E+01
 0.91239880488E+01 0.91424391019E+01 0.91400016815E+01 0.91176524073E+01 0.90790648346E+01
 0.90303451638E+01 0.89793927390E+01 0.89347962601E+01 0.89043583156E+01 0.88935549731E+01
 0.89043586652E+01 0.89347967750E+01 0.89793931151E+01 0.90303450852E+01 0.90790640873E+01
 0.91176509612E+01 0.91399997112E+01 0.91424369405E+01 0.91239862825E+01 0.90864049400E+01
 0.90340655518E+01 0.89736269969E+01 0.89133618421E+01 0.88620596392E+01 0.88275952436E+01
 0.88154511462E+01 0.88275948845E+01 0.88620591068E+01 0.89133614432E+01 0.89736270508E+01
 0.90340662763E+01 0.90864063687E+01 0.91239882433E+01 0.91554141811E+01 0.91400014978E+01
 0.91036867398E+01 0.90494334438E+01 0.89830324853E+01 0.89126552455E+01 0.88478698163E+01
 0.87981519332E+01 0.87711524039E+01 0.87711525999E+01 0.87981524299E+01 0.88478703720E+01
 0.89126555521E+01 0.89830322765E+01 0.90494325906E+01 0.91036853018E+01 0.91399997112E+01
 0.91554123887E+01 0.91498349004E+01 0.91258737376E+01 0.90885026418E+01 0.90444090233E+01
 0.90009070761E+01 0.89659193662E+01 0.89463986378E+01 0.89463984477E+01 0.89659188861E+01
 0.90009065453E+01 0.90444087461E+01 0.90885028801E+01 0.91258746156E+01 0.91498363550E+01
 0.91909630698E+01 0.91655435642E+01 0.91176517461E+01 0.90494330238E+01 0.89662030164E+01
 0.88761909840E+01 0.87897060670E+01 0.87177036543E+01 0.86699566661E+01 0.86532340701E+01
 0.86699570405E+01 0.87177042684E+01 0.87897066965E+01 0.88761913905E+01 0.89662030273E+01
 0.90494325906E+01 0.91176509612E+01 0.91655426310E+01 0.91909622355E+01 0.91947392206E+01
 0.91787649070E+01 0.91465776082E+01 0.91057203140E+01 0.90660974295E+01 0.90375036779E+01
 0.90270981884E+01 0.90375033529E+01 0.90660969067E+01 0.91057198037E+01 0.91465773308E+01