   2   2   0   0
  0.8603352E+01  0.2300000E-09  0.2300000E-09  0.3755877E-09  0.5000000E-15
  1.000000000000000E-004
  CAR 
 Si beta-tin                             
     34.99853725     -2.94896069  301     18.50904953      1.00000000
     -2.949  0.0000E+00  0.0000E+00
     -2.822  0.0000E+00  0.0000E+00
     -2.696  0.0000E+00  0.0000E+00
     -2.569  0.0000E+00  0.0000E+00
     -2.443  0.0000E+00  0.0000E+00
     -2.317  0.0000E+00  0.0000E+00
     -2.190  0.0000E+00  0.0000E+00
     -2.064  0.0000E+00  0.0000E+00
     -1.937  0.0000E+00  0.0000E+00
     -1.811  0.1625E-18  0.2056E-19
     -1.684  0.1138E-12  0.1439E-13
     -1.558  0.3520E-08  0.4452E-09
     -1.431  0.5003E-05  0.6333E-06
     -1.305  0.3683E-03  0.4722E-04
     -1.178  0.1800E-02  0.2749E-03
     -1.052  0.7330E-03  0.3676E-03
     -0.925  0.2775E-04  0.3712E-03
     -0.799  0.4619E-03  0.4296E-03
     -0.672  0.2902E-02  0.7967E-03
     -0.546  0.2275E-02  0.1084E-02
     -0.419  0.2095E-03  0.1111E-02
     -0.293  0.7142E-04  0.1120E-02
     -0.166  0.1174E-02  0.1269E-02
     -0.040  0.1523E-02  0.1461E-02
      0.087  0.1821E-03  0.1484E-02
      0.213  0.1098E-02  0.1623E-02
      0.340  0.3743E-02  0.2097E-02
      0.466  0.2152E-02  0.2369E-02
      0.593  0.1608E-02  0.2572E-02
      0.719  0.1095E-02  0.2711E-02
      0.846  0.4764E-02  0.3313E-02
      0.972  0.4254E-02  0.3851E-02
      1.099  0.1630E-02  0.4057E-02
      1.225  0.3119E-03  0.4097E-02
      1.352  0.1573E-02  0.4296E-02
      1.478  0.1114E-02  0.4437E-02
      1.605  0.1516E-03  0.4456E-02
      1.731  0.2005E-02  0.4710E-02
      1.858  0.3704E-02  0.5178E-02
      1.984  0.3675E-02  0.5643E-02
      2.111  0.2738E-02  0.5989E-02
      2.237  0.2722E-02  0.6334E-02
      2.364  0.4405E-02  0.6891E-02
      2.490  0.3201E-02  0.7296E-02
      2.617  0.1677E-02  0.7508E-02
      2.743  0.1802E-02  0.7736E-02
      2.870  0.3270E-03  0.7777E-02
      2.996  0.8123E-05  0.7778E-02
      3.123  0.4679E-03  0.7837E-02
      3.249  0.3378E-02  0.8265E-02
      3.376  0.3347E-02  0.8688E-02
      3.502  0.3941E-02  0.9187E-02
      3.629  0.4422E-02  0.9746E-02
      3.755  0.8570E-02  0.1083E-01
      3.882  0.4747E-02  0.1143E-01
      4.008  0.6168E-03  0.1151E-01
      4.135  0.1906E-02  0.1175E-01
      4.261  0.4057E-02  0.1226E-01
      4.388  0.4042E-02  0.1277E-01
      4.514  0.1455E-02  0.1296E-01
      4.641  0.1079E-02  0.1309E-01
      4.767  0.2408E-02  0.1340E-01
      4.894  0.5332E-02  0.1407E-01
      5.020  0.4390E-02  0.1463E-01
      5.147  0.5650E-02  0.1534E-01
      5.273  0.4936E-02  0.1597E-01
      5.399  0.4318E-02  0.1651E-01
      5.526  0.1213E-02  0.1667E-01
      5.652  0.9912E-03  0.1679E-01
      5.779  0.3589E-02  0.1725E-01
      5.905  0.3701E-02  0.1772E-01
      6.032  0.1652E-02  0.1792E-01
      6.158  0.3937E-02  0.1842E-01
      6.285  0.3860E-02  0.1891E-01
      6.411  0.3491E-02  0.1935E-01
      6.538  0.4569E-02  0.1993E-01
      6.664  0.5151E-02  0.2058E-01
      6.791  0.3367E-02  0.2101E-01
      6.917  0.3078E-02  0.2140E-01
      7.044  0.4828E-02  0.2201E-01
      7.170  0.3157E-02  0.2241E-01
      7.297  0.3689E-02  0.2287E-01
      7.423  0.1876E-02  0.2311E-01
      7.550  0.5975E-02  0.2387E-01
      7.676  0.5613E-02  0.2458E-01
      7.803  0.3251E-02  0.2499E-01
      7.929  0.4324E-02  0.2553E-01
      8.056  0.6041E-02  0.2630E-01
      8.182  0.2891E-02  0.2666E-01
      8.309  0.2146E-02  0.2694E-01
      8.435  0.6600E-02  0.2777E-01
      8.562  0.7047E-02  0.2866E-01
      8.688  0.4344E-02  0.2921E-01
      8.815  0.2701E-02  0.2955E-01
      8.941  0.9723E-02  0.3078E-01
      9.068  0.1190E-01  0.3229E-01
      9.194  0.4975E-02  0.3292E-01
      9.321  0.6396E-02  0.3373E-01
      9.447  0.2613E-02  0.3406E-01
      9.574  0.1388E-02  0.3423E-01
      9.700  0.2186E-02  0.3451E-01
      9.827  0.3712E-02  0.3498E-01
      9.953  0.1636E-02  0.3519E-01
     10.080  0.1281E-02  0.3535E-01
     10.206  0.5294E-02  0.3602E-01
     10.333  0.8877E-02  0.3714E-01
     10.459  0.2911E-02  0.3751E-01
     10.586  0.5004E-02  0.3814E-01
     10.712  0.2841E-02  0.3850E-01
     10.839  0.2125E-03  0.3853E-01
     10.965  0.1793E-02  0.3875E-01
     11.092  0.8680E-02  0.3985E-01
     11.218  0.8787E-02  0.4096E-01
     11.345  0.1194E-02  0.4112E-01
     11.471  0.1052E-02  0.4125E-01
     11.598  0.3160E-02  0.4165E-01
     11.724  0.4249E-02  0.4219E-01
     11.851  0.6184E-02  0.4297E-01
     11.977  0.5397E-02  0.4365E-01
     12.104  0.7628E-03  0.4375E-01
     12.230  0.5030E-02  0.4438E-01
     12.357  0.9578E-02  0.4559E-01
     12.483  0.6801E-02  0.4645E-01
     12.610  0.7939E-02  0.4746E-01
     12.736  0.3948E-02  0.4796E-01
     12.862  0.6321E-02  0.4876E-01
     12.989  0.9241E-02  0.4993E-01
     13.115  0.3410E-02  0.5036E-01
     13.242  0.1183E-02  0.5051E-01
     13.368  0.5439E-02  0.5120E-01
     13.495  0.5132E-02  0.5185E-01
     13.621  0.6334E-02  0.5265E-01
     13.748  0.4246E-02  0.5318E-01
     13.874  0.1981E-02  0.5343E-01
     14.001  0.6161E-02  0.5421E-01
     14.127  0.1071E-01  0.5557E-01
     14.254  0.8207E-02  0.5661E-01
     14.380  0.3909E-02  0.5710E-01
     14.507  0.4533E-02  0.5767E-01
     14.633  0.3238E-02  0.5808E-01
     14.760  0.1343E-02  0.5825E-01
     14.886  0.2119E-02  0.5852E-01
     15.013  0.4037E-02  0.5903E-01
     15.139  0.5254E-02  0.5970E-01
     15.266  0.2958E-02  0.6007E-01
     15.392  0.4350E-02  0.6062E-01
     15.519  0.7090E-02  0.6152E-01
     15.645  0.1331E-01  0.6320E-01
     15.772  0.1599E-01  0.6522E-01
     15.898  0.5415E-02  0.6591E-01
     16.025  0.1676E-02  0.6612E-01
     16.151  0.5667E-02  0.6684E-01
     16.278  0.5172E-02  0.6749E-01
     16.404  0.4662E-02  0.6808E-01
     16.531  0.1428E-02  0.6826E-01
     16.657  0.5983E-02  0.6902E-01
     16.784  0.7198E-02  0.6993E-01
     16.910  0.3926E-02  0.7043E-01
     17.037  0.2591E-02  0.7075E-01
     17.163  0.3223E-02  0.7116E-01
     17.290  0.7200E-02  0.7207E-01
     17.416  0.1500E-01  0.7397E-01
     17.543  0.1056E-01  0.7530E-01
     17.669  0.2927E-02  0.7567E-01
     17.796  0.4296E-02  0.7622E-01
     17.922  0.5394E-02  0.7690E-01
     18.049  0.4122E-02  0.7742E-01
     18.175  0.4434E-02  0.7798E-01
     18.302  0.6947E-02  0.7886E-01
     18.428  0.7051E-02  0.7975E-01
     18.555  0.3146E-02  0.8015E-01
     18.681  0.1121E-01  0.8157E-01
     18.808  0.1029E-01  0.8287E-01
     18.934  0.4412E-02  0.8343E-01
     19.061  0.5496E-02  0.8412E-01
     19.187  0.7500E-02  0.8507E-01
     19.314  0.6841E-02  0.8594E-01
     19.440  0.7361E-02  0.8687E-01
     19.567  0.9442E-02  0.8806E-01
     19.693  0.4993E-02  0.8870E-01
     19.820  0.4946E-02  0.8932E-01
     19.946  0.4794E-02  0.8993E-01
     20.073  0.5703E-03  0.9000E-01
     20.199  0.1644E-03  0.9002E-01
     20.326  0.1859E-02  0.9026E-01
     20.452  0.4558E-02  0.9083E-01
     20.578  0.5364E-02  0.9151E-01
     20.705  0.4398E-02  0.9207E-01
     20.831  0.5181E-02  0.9272E-01
     20.958  0.7685E-02  0.9369E-01
     21.084  0.3837E-02  0.9418E-01
     21.211  0.7255E-02  0.9510E-01
     21.337  0.9904E-02  0.9635E-01
     21.464  0.8801E-02  0.9746E-01
     21.590  0.1045E-01  0.9878E-01
     21.717  0.5681E-02  0.9950E-01
     21.843  0.8252E-02  0.1005E+00
     21.970  0.8103E-02  0.1016E+00
     22.096  0.7347E-02  0.1025E+00
     22.223  0.3468E-02  0.1029E+00
     22.349  0.1504E-02  0.1031E+00
     22.476  0.1479E-02  0.1033E+00
     22.602  0.1363E-02  0.1035E+00
     22.729  0.9631E-02  0.1047E+00
     22.855  0.1013E-01  0.1060E+00
     22.982  0.7046E-02  0.1069E+00
     23.108  0.1285E-01  0.1085E+00
     23.235  0.1520E-01  0.1104E+00
     23.361  0.1318E-01  0.1121E+00
     23.488  0.7629E-02  0.1131E+00
     23.614  0.4875E-02  0.1137E+00
     23.741  0.4422E-02  0.1142E+00
     23.867  0.1968E-02  0.1145E+00
     23.994  0.4330E-02  0.1150E+00
     24.120  0.1061E-01  0.1164E+00
     24.247  0.5381E-02  0.1171E+00
     24.373  0.5337E-02  0.1177E+00
     24.500  0.1098E-01  0.1191E+00
     24.626  0.6160E-02  0.1199E+00
     24.753  0.2470E-02  0.1202E+00
     24.879  0.4639E-02  0.1208E+00
     25.006  0.6225E-02  0.1216E+00
     25.132  0.6295E-02  0.1224E+00
     25.259  0.1061E-01  0.1237E+00
     25.385  0.7208E-02  0.1246E+00
     25.512  0.2868E-02  0.1250E+00
     25.638  0.5642E-02  0.1257E+00
     25.765  0.9018E-02  0.1269E+00
     25.891  0.5247E-02  0.1275E+00
     26.018  0.6151E-02  0.1283E+00
     26.144  0.1285E-01  0.1299E+00
     26.271  0.1109E-01  0.1313E+00
     26.397  0.1244E-02  0.1315E+00
     26.524  0.3944E-04  0.1315E+00
     26.650  0.1163E-02  0.1316E+00
     26.777  0.7198E-02  0.1325E+00
     26.903  0.1362E-01  0.1343E+00
     27.030  0.1212E-01  0.1358E+00
     27.156  0.5835E-02  0.1365E+00
     27.283  0.4506E-02  0.1371E+00
     27.409  0.6129E-02  0.1379E+00
     27.536  0.7411E-02  0.1388E+00
     27.662  0.3465E-02  0.1393E+00
     27.789  0.5351E-02  0.1399E+00
     27.915  0.2004E-01  0.1425E+00
     28.041  0.1235E-01  0.1440E+00
     28.168  0.6070E-02  0.1448E+00
     28.294  0.5140E-02  0.1454E+00
     28.421  0.5007E-02  0.1461E+00
     28.547  0.4772E-02  0.1467E+00
     28.674  0.6773E-02  0.1475E+00
     28.800  0.6232E-02  0.1483E+00
     28.927  0.1444E-02  0.1485E+00
     29.053  0.2345E-03  0.1485E+00
     29.180  0.1609E-02  0.1487E+00
     29.306  0.1212E-02  0.1489E+00
     29.433  0.2210E-02  0.1492E+00
     29.559  0.5551E-02  0.1499E+00
     29.686  0.9947E-02  0.1511E+00
     29.812  0.1578E-01  0.1531E+00
     29.939  0.9593E-02  0.1543E+00
     30.065  0.3709E-02  0.1548E+00
     30.192  0.3945E-02  0.1553E+00
     30.318  0.4469E-02  0.1559E+00
     30.445  0.2573E-02  0.1562E+00
     30.571  0.7371E-03  0.1563E+00
     30.698  0.1143E-02  0.1564E+00
     30.824  0.1563E-02  0.1566E+00
     30.951  0.1827E-03  0.1567E+00
     31.077  0.6500E-03  0.1567E+00
     31.204  0.4605E-02  0.1573E+00
     31.330  0.3285E-02  0.1577E+00
     31.457  0.5985E-03  0.1578E+00
     31.583  0.2939E-02  0.1582E+00
     31.710  0.2375E-02  0.1585E+00
     31.836  0.3444E-03  0.1585E+00
     31.963  0.1531E-02  0.1587E+00
     32.089  0.1166E-02  0.1589E+00
     32.216  0.6865E-04  0.1589E+00
     32.342  0.7109E-05  0.1589E+00
     32.469  0.5722E-03  0.1590E+00
     32.595  0.3393E-02  0.1594E+00
     32.722  0.1806E-02  0.1596E+00
     32.848  0.7816E-04  0.1596E+00
     32.975  0.2429E-06  0.1596E+00
     33.101  0.2151E-04  0.1596E+00
     33.228  0.7330E-03  0.1597E+00
     33.354  0.1800E-02  0.1600E+00
     33.481  0.3683E-03  0.1600E+00
     33.607  0.5003E-05  0.1600E+00
     33.734  0.3520E-08  0.1600E+00
     33.860  0.1138E-12  0.1600E+00
     33.987  0.0000E+00  0.1600E+00
     34.113  0.0000E+00  0.1600E+00
     34.240  0.0000E+00  0.1600E+00
     34.366  0.0000E+00  0.1600E+00
     34.493  0.0000E+00  0.1600E+00
     34.619  0.0000E+00  0.1600E+00
     34.746  0.0000E+00  0.1600E+00
     34.872  0.0000E+00  0.1600E+00
     34.999  0.0000E+00  0.1600E+00
