    2    2  100    1
  0.8603352E+01  0.2300000E-09  0.2300000E-09  0.3755877E-09  0.5000000E-15
  1.000000000000000E-004
  CAR 
 Si beta-tin                             
      8     36      8
 
  0.8333333E-01  0.8333333E-01  0.8333333E-01  0.1851852E-01
    1       -0.722414   1.000000
    2        7.500906   1.000000
    3       10.977951   1.000000
    4       24.478814   0.000000
    5       25.191101   0.000000
    6       31.548397   0.000000
    7       31.594381   0.000000
    8       31.948806   0.000000
 
  0.2500000E+00  0.8333333E-01  0.8333333E-01  0.3703704E-01
    1        1.757075   1.000000
    2        9.785127   1.000000
    3       12.951058   1.000000
    4       16.668738   1.000000
    5       21.506931   0.000000
    6       24.124747   0.000000
    7       27.014882   0.000000
    8       29.582171   0.000000
 
  0.4166667E+00  0.8333333E-01  0.8333333E-01  0.3703704E-01
    1        6.091898   1.000000
    2        8.853985   1.000000
    3       14.115387   1.000000
    4       16.692093   1.000000
    5       17.434647   1.000000
    6       19.459386   0.000000
    7       22.707317   0.000000
    8       28.141707   0.000000
 
 -0.4166667E+00  0.8333333E-01  0.8333333E-01  0.3703704E-01
    1        3.705695   1.000000
    2       11.140207   1.000000
    3       12.550857   1.000000
    4       15.605387   1.000000
    5       19.570837   0.000000
    6       21.285512   0.000000
    7       24.351850   0.000000
    8       28.615092   0.000000
 
 -0.2500000E+00  0.8333333E-01  0.8333333E-01  0.3703704E-01
    1        0.275123   1.000000
    2        8.426617   1.000000
    3       11.846644   1.000000
    4       20.436414   0.000000
    5       23.101726   0.000000
    6       27.834417   0.000000
    7       29.739182   0.000000
    8       31.167336   0.000000
 
 -0.8333333E-01  0.8333333E-01  0.8333333E-01  0.1851852E-01
    1       -1.224074   1.000000
    2        7.034611   1.000000
    3       10.527726   1.000000
    4       26.909534   0.000000
    5       28.729740   0.000000
    6       30.250159   0.000000
    7       32.547010   0.000000
    8       33.273651   0.000000
 
  0.2500000E+00  0.2500000E+00  0.8333333E-01  0.1851852E-01
    1        5.146738   1.000000
    2       12.227758   1.000000
    3       13.487793   1.000000
    4       14.068833   1.000000
    5       17.536236   1.000000
    6       21.355501   0.000000
    7       22.357863   0.000000
    8       25.305775   0.000000
 
  0.4166667E+00  0.2500000E+00  0.8333333E-01  0.3703704E-01
    1        7.502457   1.000000
    2       10.224848   1.000000
    3       12.787499   1.000000
    4       15.724690   1.000000
    5       17.945816   1.000000
    6       19.415808   0.000000
    7       21.799994   0.000000
    8       23.167635   0.000000
 
 -0.4166667E+00  0.2500000E+00  0.8333333E-01  0.3703704E-01
    1        3.221705   1.000000
    2       11.070538   1.000000
    3       13.605439   1.000000
    4       15.570238   1.000000
    5       18.142814   1.000000
    6       22.685163   0.000000
    7       25.179492   0.000000
    8       26.814877   0.000000
 
 -0.2500000E+00  0.2500000E+00  0.8333333E-01  0.1851852E-01
    1        0.771038   1.000000
    2        8.883946   1.000000
    3       12.244712   1.000000
    4       18.329702   0.994399
    5       24.941151   0.000000
    6       25.543840   0.000000
    7       26.998836   0.000000
    8       30.714698   0.000000
 
  0.4166667E+00  0.4166667E+00  0.8333333E-01  0.1851852E-01
    1        7.882971   1.000000
    2        8.037929   1.000000
    3       15.071060   1.000000
    4       16.074550   1.000000
    5       16.581711   1.000000
    6       19.125116   0.000000
    7       21.989017   0.000000
    8       24.774564   0.000000
 
 -0.4166667E+00  0.4166667E+00  0.8333333E-01  0.1851852E-01
    1        4.667142   1.000000
    2       10.099471   1.000000
    3       12.862523   1.000000
    4       16.312772   1.000000
    5       18.293710   0.998838
    6       21.227508   0.000000
    7       23.956056   0.000000
    8       27.789613   0.000000
 
  0.8333333E-01  0.8333333E-01  0.2500000E+00  0.1851852E-01
    1       -0.152788   1.000000
    2        4.858131   1.000000
    3       14.562348   1.000000
    4       24.814511   0.000000
    5       25.580795   0.000000
    6       27.937612   0.000000
    7       29.814507   0.000000
    8       30.223236   0.000000
 
  0.2500000E+00  0.8333333E-01  0.2500000E+00  0.3703704E-01
    1        2.315612   1.000000
    2        7.215176   1.000000
    3       15.719674   1.000000
    4       17.808512   1.000000
    5       20.739295   0.000000
    6       23.197753   0.000000
    7       26.768038   0.000000
    8       29.676476   0.000000
 
  0.4166667E+00  0.8333333E-01  0.2500000E+00  0.3703704E-01
    1        6.619296   1.000000
    2        9.228361   1.000000
    3       11.853050   1.000000
    4       14.369916   1.000000
    5       19.846542   0.000000
    6       21.921713   0.000000
    7       24.467789   0.000000
    8       26.179642   0.000000
 
 -0.4166667E+00  0.8333333E-01  0.2500000E+00  0.3703704E-01
    1        4.254111   1.000000
    2        8.992212   1.000000
    3       12.948250   1.000000
    4       17.380327   1.000000
    5       18.668246   0.012181
    6       22.102488   0.000000
    7       25.767564   0.000000
    8       27.529070   0.000000
 
 -0.2500000E+00  0.8333333E-01  0.2500000E+00  0.3703704E-01
    1        0.840386   1.000000
    2        5.809816   1.000000
    3       15.345915   1.000000
    4       20.924941   0.000000
    5       23.329066   0.000000
    6       25.691347   0.000000
    7       27.892221   0.000000
    8       29.794568   0.000000
 
 -0.8333333E-01  0.8333333E-01  0.2500000E+00  0.1851852E-01
    1       -0.652265   1.000000
    2        4.378825   1.000000
    3       14.140282   1.000000
    4       26.840857   0.000000
    5       28.146058   0.000000
    6       29.158845   0.000000
    7       30.393188   0.000000
    8       32.576487   0.000000
 
  0.2500000E+00  0.2500000E+00  0.2500000E+00  0.1851852E-01
    1        5.686488   1.000000
    2       10.279414   1.000000
    3       13.962082   1.000000
    4       14.497145   1.000000
    5       18.414411   0.909615
    6       19.452405   0.000000
    7       22.005781   0.000000
    8       28.761661   0.000000
 
  0.4166667E+00  0.2500000E+00  0.2500000E+00  0.3703704E-01
    1        8.017281   1.000000
    2       10.568732   1.000000
    3       12.557719   1.000000
    4       14.153880   1.000000
    5       16.283853   1.000000
    6       18.668988   0.011853
    7       23.541127   0.000000
    8       26.159391   0.000000
 
 -0.4166667E+00  0.2500000E+00  0.2500000E+00  0.3703704E-01
    1        3.773056   1.000000
    2        8.583939   1.000000
    3       14.998375   1.000000
    4       17.159684   1.000000
    5       18.689250   0.005411
    6       21.186089   0.000000
    7       23.295734   0.000000
    8       29.733577   0.000000
 
 -0.2500000E+00  0.2500000E+00  0.2500000E+00  0.1851852E-01
    1        1.334061   1.000000
    2        6.281387   1.000000
    3       15.617194   1.000000
    4       18.960404   0.000000
    5       22.871339   0.000000
    6       25.998821   0.000000
    7       27.416268   0.000000
    8       30.125141   0.000000
 
  0.4166667E+00  0.4166667E+00  0.2500000E+00  0.1851852E-01
    1        8.377826   1.000000
    2        8.525906   1.000000
    3       13.304050   1.000000
    4       13.521958   1.000000
    5       17.282348   1.000000
    6       21.160829   0.000000
    7       24.085617   0.000000
    8       24.471652   0.000000
 
 -0.4166667E+00  0.4166667E+00  0.2500000E+00  0.1851852E-01
    1        5.208795   1.000000
    2        9.586782   1.000000
    3       11.497449   1.000000
    4       15.722076   1.000000
    5       19.693845   0.000000
    6       24.044283   0.000000
    7       24.410049   0.000000
    8       28.507466   0.000000
 
  0.8333333E-01  0.8333333E-01  0.4166667E+00  0.1851852E-01
    1        0.978890   1.000000
    2        2.657563   1.000000
    3       18.626163   0.048838
    4       22.962701   0.000000
    5       25.930841   0.000000
    6       26.126153   0.000000
    7       28.415833   0.000000
    8       28.681348   0.000000
 
  0.2500000E+00  0.8333333E-01  0.4166667E+00  0.3703704E-01
    1        3.424747   1.000000
    2        5.067778   1.000000
    3       17.411167   1.000000
    4       18.942798   0.000000
    5       20.896729   0.000000
    6       23.388926   0.000000
    7       25.156346   0.000000
    8       26.915663   0.000000
 
  0.4166667E+00  0.8333333E-01  0.4166667E+00  0.3703704E-01
    1        7.643383   1.000000
    2        8.965183   1.000000
    3       11.097825   1.000000
    4       12.390365   1.000000
    5       21.581699   0.000000
    6       23.005834   0.000000
    7       26.043592   0.000000
    8       27.909752   0.000000
 
 -0.4166667E+00  0.8333333E-01  0.4166667E+00  0.3703704E-01
    1        5.340946   1.000000
    2        6.941568   1.000000
    3       13.969975   1.000000
    4       15.488692   1.000000
    5       21.489918   0.000000
    6       23.072823   0.000000
    7       24.967242   0.000000
    8       27.869725   0.000000
 
 -0.2500000E+00  0.8333333E-01  0.4166667E+00  0.3703704E-01
    1        1.963279   1.000000
    2        3.628460   1.000000
    3       19.184509   0.000000
    4       21.767435   0.000000
    5       22.771748   0.000000
    6       23.699712   0.000000
    7       26.151626   0.000000
    8       27.182935   0.000000
 
 -0.8333333E-01  0.8333333E-01  0.4166667E+00  0.1851852E-01
    1        0.483791   1.000000
    2        2.169086   1.000000
    3       18.253866   0.999846
    4       22.739048   0.000000
    5       28.359662   0.000000
    6       29.426523   0.000000
    7       30.005440   0.000000
    8       31.221181   0.000000
 
  0.2500000E+00  0.2500000E+00  0.4166667E+00  0.1851852E-01
    1        6.753481   1.000000
    2        8.314998   1.000000
    3       14.800017   1.000000
    4       15.159144   1.000000
    5       17.283983   1.000000
    6       17.705497   1.000000
    7       25.320455   0.000000
    8       29.488761   0.000000
 
  0.4166667E+00  0.2500000E+00  0.4166667E+00  0.3703704E-01
    1        9.009625   1.000000
    2       10.269398   1.000000
    3       12.299374   1.000000
    4       13.336503   1.000000
    5       15.739844   1.000000
    6       16.896634   1.000000
    7       27.353689   0.000000
    8       29.871907   0.000000
 
 -0.4166667E+00  0.2500000E+00  0.4166667E+00  0.3703704E-01
    1        4.866819   1.000000
    2        6.483284   1.000000
    3       16.100411   1.000000
    4       17.369236   1.000000
    5       19.199713   0.000000
    6       20.569601   0.000000
    7       24.043189   0.000000
    8       27.860271   0.000000
 
 -0.2500000E+00  0.2500000E+00  0.4166667E+00  0.1851852E-01
    1        2.452463   1.000000
    2        4.110553   1.000000
    3       18.725081   0.001125
    4       20.312577   0.000000
    5       21.383166   0.000000
    6       24.575477   0.000000
    7       26.911753   0.000000
    8       28.287543   0.000000
 
  0.4166667E+00  0.4166667E+00  0.4166667E+00  0.1851852E-01
    1        9.243291   1.000000
    2        9.340347   1.000000
    3       11.636913   1.000000
    4       11.647926   1.000000
    5       18.348406   0.988452
    6       19.819151   0.000000
    7       27.477217   0.000000
    8       27.966605   0.000000
 
 -0.4166667E+00  0.4166667E+00  0.4166667E+00  0.1851852E-01
    1        6.277938   1.000000
    2        7.828353   1.000000
    3       12.220526   1.000000
    4       13.723166   1.000000
    5       23.220705   0.000000
    6       25.320517   0.000000
    7       25.696819   0.000000
    8       26.689611   0.000000
