 vasp.5.4.1 24Jun15 (build Jul 19 2016 16:50:41) complex                        
  
 executed on           IFC91_ompi date 2019.10.10  11:10:27
 running on    4 total cores
 distrk:  each k-point on    4 cores,    1 groups
 distr:  one band on NCORES_PER_BAND=   1 cores,    4 groups


--------------------------------------------------------------------------------------------------------


 INCAR:
 POTCAR:    PAW_PBE Si 05Jan2001                  
 POTCAR:    PAW_PBE Si 05Jan2001                  
   VRHFIN = Si: s2p2                                                            
   LEXCH  = PE                                                                  
   EATOM  =   103.0669 eV,    7.5752 Ry                                         
                                                                                
   TITEL  = PAW_PBE Si 05Jan2001                                                
   LULTRA =        F    use ultrasoft PP ?                                      
   IUNSCR =        1    unscreen: 0-lin 1-nonlin 2-no                           
   RPACOR =    1.500    partial core radius                                     
   POMASS =   28.085; ZVAL   =    4.000    mass and valenz                      
   RCORE  =    1.900    outmost cutoff radius                                   
   RWIGS  =    2.480; RWIGS  =    1.312    wigner-seitz radius (au A)           
   ENMAX  =  245.345; ENMIN  =  184.009 eV                                      
   ICORE  =        2    local potential                                         
   LCOR   =        T    correct aug charges                                     
   LPAW   =        T    paw PP                                                  
   EAUG   =  322.069                                                            
   DEXC   =    0.000                                                            
   RMAX   =    1.950    core radius for proj-oper                               
   RAUG   =    1.300    factor for augmentation sphere                          
   RDEP   =    1.993    radius for radial grids                                 
   RDEPT  =    1.837    core radius for aug-charge                              
                                                                                
   Atomic configuration                                                         
    6 entries                                                                   
     n  l   j            E        occ.                                          
     1  0  0.50     -1785.8828   2.0000                                         
     2  0  0.50      -139.4969   2.0000                                         
     2  1  1.50       -95.5546   6.0000                                         
     3  0  0.50       -10.8127   2.0000                                         
     3  1  0.50        -4.0811   2.0000                                         
     3  2  1.50        -4.0817   0.0000                                         
   Description                                                                  
     l       E           TYP  RCUT    TYP  RCUT                                 
     0    -10.8127223     23  1.900                                             
     0     -7.6451159     23  1.900                                             
     1     -4.0811372     23  1.900                                             
     1      2.4879257     23  1.900                                             
     2     -4.0817478      7  1.900                                             
  local pseudopotential read in
  partial core-charges read in
  partial kinetic energy density read in
  atomic valenz-charges read in
  non local Contribution for L=           0  read in
    real space projection operators read in
  non local Contribution for L=           0  read in
    real space projection operators read in
  non local Contribution for L=           1  read in
    real space projection operators read in
  non local Contribution for L=           1  read in
    real space projection operators read in
    PAW grid and wavefunctions read in
 
   number of l-projection  operators is LMAX  =           4
   number of lm-projection operators is LMMAX =           8
 
  PAW_PBE Si 05Jan2001                  :
 energy of atom  1       EATOM= -103.0669
 kinetic energy error for atom=    0.0009 (will be added to EATOM!!)
 
 
 POSCAR: Si HCP                                  
  positions in direct lattice
  No initial velocities read in
 exchange correlation table for  LEXCH =        8
   RHO(1)=    0.500       N(1)  =     2000
   RHO(2)=  100.500       N(2)  =     4000
 


--------------------------------------------------------------------------------------------------------


 ion  position               nearest neighbor table
   1  0.000  0.000  0.000-   2 2.30   2 2.30   2 2.30   2 2.30   2 2.30   2 2.30
   2  0.333  0.667  0.500-   1 2.30   1 2.30   1 2.30   1 2.30   1 2.30   1 2.30
 
  LATTYP: Found a hexagonal cell.
 ALAT       =     2.3000000000
 C/A-ratio  =     1.6329900000
  
  Lattice vectors:
  
 A1 = (   2.3000000000,   0.0000000000,   0.0000000000)
 A2 = (  -1.1500000000,   1.9918584287,   0.0000000000)
 A3 = (   0.0000000000,   0.0000000000,   3.7558770000)


Analysis of symmetry for initial positions (statically):
=====================================================================
 Subroutine PRICEL returns:
 Original cell was already a primitive cell.
 

 Routine SETGRP: Setting up the symmetry group for a 
 hexagonal supercell.


 Subroutine GETGRP returns: Found 24 space group operations
 (whereof 12 operations were pure point group operations)
 out of a pool of 24 trial point group operations.


The static configuration has the point symmetry D_3h.
 The point group associated with its full space group is D_6h.


Analysis of symmetry for dynamics (positions and initial velocities):
=====================================================================
 Subroutine PRICEL returns:
 Original cell was already a primitive cell.
 

 Routine SETGRP: Setting up the symmetry group for a 
 hexagonal supercell.


 Subroutine GETGRP returns: Found 24 space group operations
 (whereof 12 operations were pure point group operations)
 out of a pool of 24 trial point group operations.


The dynamic configuration has the point symmetry D_3h.
 The point group associated with its full space group is D_6h.


 Subroutine INISYM returns: Found 24 space group operations
 (whereof 12 operations are pure point group operations),
 and found     1 'primitive' translations

 
 
 KPOINTS: K-Points                                

Automatic generation of k-mesh.
Space group operators:
 irot       det(A)        alpha          n_x          n_y          n_z        tau_x        tau_y        tau_z
    1     1.000000     0.000000     1.000000     0.000000     0.000000     0.000000     0.000000     0.000000
    2    -1.000000    60.000000     0.000000     0.000000    -1.000000     0.000000     0.000000     0.000000
    3     1.000000   120.000000     0.000000     0.000000    -1.000000     0.000000     0.000000     0.000000
    4    -1.000000   180.000000     0.000000     0.000000     1.000000     0.000000     0.000000     0.000000
    5     1.000000   120.000000     0.000000     0.000000     1.000000     0.000000     0.000000     0.000000
    6    -1.000000    60.000000     0.000000     0.000000     1.000000     0.000000     0.000000     0.000000
    7    -1.000000   180.000000     1.000000     0.000000     0.000000     0.000000     0.000000     0.000000
    8     1.000000   180.000000     0.866025    -0.500000     0.000000     0.000000     0.000000     0.000000
    9    -1.000000   180.000000     0.500000    -0.866025     0.000000     0.000000     0.000000     0.000000
   10     1.000000   179.999999     0.000000     1.000000     0.000000     0.000000     0.000000     0.000000
   11    -1.000000   180.000000    -0.500000    -0.866025     0.000000     0.000000     0.000000     0.000000
   12     1.000000   180.000000     0.866025     0.500000     0.000000     0.000000     0.000000     0.000000
   13    -1.000000     0.000000     1.000000     0.000000     0.000000     0.333333     0.666667     0.500000
   14     1.000000    60.000000     0.000000     0.000000    -1.000000     0.333333     0.666667     0.500000
   15    -1.000000   120.000000     0.000000     0.000000    -1.000000     0.333333     0.666667     0.500000
   16     1.000000   180.000000     0.000000     0.000000     1.000000     0.333333     0.666667     0.500000
   17    -1.000000   120.000000     0.000000     0.000000     1.000000     0.333333     0.666667     0.500000
   18     1.000000    60.000000     0.000000     0.000000     1.000000     0.333333     0.666667     0.500000
   19     1.000000   180.000000     1.000000     0.000000     0.000000     0.333333     0.666667     0.500000
   20    -1.000000   180.000000     0.866025    -0.500000     0.000000     0.333333     0.666667     0.500000
   21     1.000000   180.000000     0.500000    -0.866025     0.000000     0.333333     0.666667     0.500000
   22    -1.000000   179.999999     0.000000     1.000000     0.000000     0.333333     0.666667     0.500000
   23     1.000000   180.000000    -0.500000    -0.866025     0.000000     0.333333     0.666667     0.500000
   24    -1.000000   180.000000     0.866025     0.500000     0.000000     0.333333     0.666667     0.500000
 
 Subroutine IBZKPT returns following result:
 ===========================================
 
 Found     36 irreducible k-points:
 
 Following reciprocal coordinates:
            Coordinates               Weight
  0.083333  0.083333  0.083333     96.000000
  0.250000  0.083333  0.083333    192.000000
  0.416667  0.083333  0.083333    192.000000
 -0.416667  0.083333  0.083333    192.000000
 -0.250000  0.083333  0.083333    192.000000
 -0.083333  0.083333  0.083333     96.000000
  0.250000  0.250000  0.083333     96.000000
  0.416667  0.250000  0.083333    192.000000
 -0.416667  0.250000  0.083333    192.000000
 -0.250000  0.250000  0.083333     96.000000
  0.416667  0.416667  0.083333     96.000000
 -0.416667  0.416667  0.083333     96.000000
  0.083333  0.083333  0.250000     96.000000
  0.250000  0.083333  0.250000    192.000000
  0.416667  0.083333  0.250000    192.000000
 -0.416667  0.083333  0.250000    192.000000
 -0.250000  0.083333  0.250000    192.000000
 -0.083333  0.083333  0.250000     96.000000
  0.250000  0.250000  0.250000     96.000000
  0.416667  0.250000  0.250000    192.000000
 -0.416667  0.250000  0.250000    192.000000
 -0.250000  0.250000  0.250000     96.000000
  0.416667  0.416667  0.250000     96.000000
 -0.416667  0.416667  0.250000     96.000000
  0.083333  0.083333  0.416667     96.000000
  0.250000  0.083333  0.416667    192.000000
  0.416667  0.083333  0.416667    192.000000
 -0.416667  0.083333  0.416667    192.000000
 -0.250000  0.083333  0.416667    192.000000
 -0.083333  0.083333  0.416667     96.000000
  0.250000  0.250000  0.416667     96.000000
  0.416667  0.250000  0.416667    192.000000
 -0.416667  0.250000  0.416667    192.000000
 -0.250000  0.250000  0.416667     96.000000
  0.416667  0.416667  0.416667     96.000000
 -0.416667  0.416667  0.416667     96.000000
 
 Following cartesian coordinates:
            Coordinates               Weight
  0.083333  0.144338  0.051031     96.000000
  0.250000  0.240563  0.051031    192.000000
  0.416667  0.336788  0.051031    192.000000
 -0.416667 -0.144338  0.051031    192.000000
 -0.250000 -0.048113  0.051031    192.000000
 -0.083333  0.048113  0.051031     96.000000
  0.250000  0.433013  0.051031     96.000000
  0.416667  0.529238  0.051031    192.000000
 -0.416667  0.048113  0.051031    192.000000
 -0.250000  0.144338  0.051031     96.000000
  0.416667  0.721688  0.051031     96.000000
 -0.416667  0.240563  0.051031     96.000000
  0.083333  0.144338  0.153093     96.000000
  0.250000  0.240563  0.153093    192.000000
  0.416667  0.336788  0.153093    192.000000
 -0.416667 -0.144338  0.153093    192.000000
 -0.250000 -0.048113  0.153093    192.000000
 -0.083333  0.048113  0.153093     96.000000
  0.250000  0.433013  0.153093     96.000000
  0.416667  0.529238  0.153093    192.000000
 -0.416667  0.048113  0.153093    192.000000
 -0.250000  0.144338  0.153093     96.000000
  0.416667  0.721688  0.153093     96.000000
 -0.416667  0.240563  0.153093     96.000000
  0.083333  0.144338  0.255156     96.000000
  0.250000  0.240563  0.255156    192.000000
  0.416667  0.336788  0.255156    192.000000
 -0.416667 -0.144338  0.255156    192.000000
 -0.250000 -0.048113  0.255156    192.000000
 -0.083333  0.048113  0.255156     96.000000
  0.250000  0.433013  0.255156     96.000000
  0.416667  0.529238  0.255156    192.000000
 -0.416667  0.048113  0.255156    192.000000
 -0.250000  0.144338  0.255156     96.000000
  0.416667  0.721688  0.255156     96.000000
 -0.416667  0.240563  0.255156     96.000000
 


--------------------------------------------------------------------------------------------------------




 Dimension of arrays:
   k-points           NKPTS =     36   k-points in BZ     NKDIM =     36   number of bands    NBANDS=      8
   number of dos      NEDOS =    301   number of ions     NIONS =      2
   non local maximal  LDIM  =      4   non local SUM 2l+1 LMDIM =      8
   total plane-waves  NPLWV =   7168
   max r-space proj   IRMAX =      1   max aug-charges    IRDMAX=  14126
   dimension x,y,z NGX =    16 NGY =   16 NGZ =   28
   dimension x,y,z NGXF=    32 NGYF=   32 NGZF=   56
   support grid    NGXF=    32 NGYF=   32 NGZF=   56
   ions per type =               2
 NGX,Y,Z   is equivalent  to a cutoff of  11.56, 11.56, 12.39 a.u.
 NGXF,Y,Z  is equivalent  to a cutoff of  23.13, 23.13, 24.79 a.u.


 I would recommend the setting:
   dimension x,y,z NGX =    16 NGY =   16 NGZ =   26
 SYSTEM =  Si beta-tin                             
 POSCAR =  Si HCP                                  

 Startparameter for this run:
   NWRITE =      2    write-flag & timer
   PREC   = accura    normal or accurate (medium, high low for compatibility)
   ISTART =      0    job   : 0-new  1-cont  2-samecut
   ICHARG =      2    charge: 1-file 2-atom 10-const
   ISPIN  =      1    spin polarized calculation?
   LNONCOLLINEAR =      F non collinear calculations
   LSORBIT =      F    spin-orbit coupling
   INIWAV =      1    electr: 0-lowe 1-rand  2-diag
   LASPH  =      F    aspherical Exc in radial PAW
   METAGGA=      F    non-selfconsistent MetaGGA calc.

 Electronic Relaxation 1
   ENCUT  =  450.0 eV  33.07 Ry    5.75 a.u.   3.98  3.98  6.50*2*pi/ulx,y,z
   ENINI  =  450.0     initial cutoff
   ENAUG  =  322.1 eV  augmentation charge cutoff
   NELM   =     60;   NELMIN=  2; NELMDL= -5     # of ELM steps 
   EDIFF  = 0.1E-04   stopping-criterion for ELM
   LREAL  =      F    real-space projection
   NLSPLINE    = F    spline interpolate recip. space projectors
   LCOMPAT=      F    compatible to vasp.4.4
   GGA_COMPAT  = T    GGA compatible to vasp.4.4-vasp.4.6
   LMAXPAW     = -100 max onsite density
   LMAXMIX     =    2 max onsite mixed and CHGCAR
   VOSKOWN=      0    Vosko Wilk Nusair interpolation
   ROPT   =    0.00000
 Ionic relaxation
   EDIFFG = -.1E-01   stopping-criterion for IOM
   NSW    =    100    number of steps for IOM
   NBLOCK =      1;   KBLOCK =    100    inner block; outer block 
   IBRION =      2    ionic relax: 0-MD 1-quasi-New 2-CG
   NFREE  =      1    steps in history (QN), initial steepest desc. (CG)
   ISIF   =      4    stress and relaxation
   IWAVPR =     11    prediction:  0-non 1-charg 2-wave 3-comb
   ISYM   =      2    0-nonsym 1-usesym 2-fastsym
   LCORR  =      T    Harris-Foulkes like correction to forces

   POTIM  = 0.5000    time-step for ionic-motion
   TEIN   =    0.0    initial temperature
   TEBEG  =    0.0;   TEEND  =   0.0 temperature during run
   SMASS  =  -3.00    Nose mass-parameter (am)
   estimated Nose-frequenzy (Omega)   =  0.10E-29 period in steps =****** mass=  -0.121E-27a.u.
   SCALEE = 1.0000    scale energy and forces
   NPACO  =    256;   APACO  = 16.0  distance and # of slots for P.C.
   PSTRESS=    0.0 pullay stress

  Mass of Ions in am
   POMASS =  28.09
  Ionic Valenz
   ZVAL   =   4.00
  Atomic Wigner-Seitz radii
   RWIGS  =  -1.00
  virtual crystal weights 
   VCA    =   1.00
   NELECT =       8.0000    total number of electrons
   NUPDOWN=      -1.0000    fix difference up-down

 DOS related values:
   EMIN   =  10.00;   EMAX   =-10.00  energy-range for DOS
   EFERMI =   0.00
   ISMEAR =     0;   SIGMA  =   0.10  broadening in eV -4-tet -1-fermi 0-gaus

 Electronic relaxation 2 (details)
   IALGO  =     38    algorithm
   LDIAG  =      T    sub-space diagonalisation (order eigenvalues)
   LSUBROT=      F    optimize rotation matrix (better conditioning)
   TURBO    =      0    0=normal 1=particle mesh
   IRESTART =      0    0=no restart 2=restart with 2 vectors
   NREBOOT  =      0    no. of reboots
   NMIN     =      0    reboot dimension
   EREF     =   0.00    reference energy to select bands
   IMIX   =      4    mixing-type and parameters
     AMIX     =   0.40;   BMIX     =  1.00
     AMIX_MAG =   1.60;   BMIX_MAG =  1.00
     AMIN     =   0.10
     WC   =   100.;   INIMIX=   1;  MIXPRE=   1;  MAXMIX= -45

 Intra band minimization:
   WEIMIN = 0.0010     energy-eigenvalue tresh-hold
   EBREAK =  0.31E-06  absolut break condition
   DEPER  =   0.30     relativ break condition  

   TIME   =   0.40     timestep for ELM

  volume/ion in A,a.u.               =       8.60        58.06
  Fermi-wavevector in a.u.,A,eV,Ry     =   1.268252  2.396649 21.884474  1.608463
  Thomas-Fermi vector in A             =   2.401357
 
 Write flags
   LWAVE  =      T    write WAVECAR
   LCHARG =      T    write CHGCAR
   LVTOT  =      F    write LOCPOT, total local potential
   LVHAR  =      F    write LOCPOT, Hartree potential only
   LELF   =      F    write electronic localiz. function (ELF)
   LORBIT =      0    0 simple, 1 ext, 2 COOP (PROOUT)


 Dipole corrections
   LMONO  =      F    monopole corrections only (constant potential shift)
   LDIPOL =      F    correct potential (dipole corrections)
   IDIPOL =      0    1-x, 2-y, 3-z, 4-all directions 
   EPSILON=  1.0000000 bulk dielectric constant

 Exchange correlation treatment:
   GGA     =    --    GGA type
   LEXCH   =     8    internal setting for exchange type
   VOSKOWN=      0    Vosko Wilk Nusair interpolation
   LHFCALC =     F    Hartree Fock is set to
   LHFONE  =     F    Hartree Fock one center treatment
   AEXX    =    0.0000 exact exchange contribution

 Linear response parameters
   LEPSILON=     F    determine dielectric tensor
   LRPA    =     F    only Hartree local field effects (RPA)
   LNABLA  =     F    use nabla operator in PAW spheres
   LVEL    =     F    velocity operator in full k-point grid
   LINTERFAST=   F  fast interpolation
   KINTER  =     0    interpolate to denser k-point grid
   CSHIFT  =0.1000    complex shift for real part using Kramers Kronig
   OMEGAMAX=  -1.0    maximum frequency
   DEG_THRESHOLD= 0.2000000E-02 threshold for treating states as degnerate
   RTIME   =    0.100 relaxation time in fs

 Orbital magnetization related:
   ORBITALMAG=     F  switch on orbital magnetization
   LCHIMAG   =     F  perturbation theory with respect to B field
   DQ        =  0.001000  dq finite difference perturbation B field



--------------------------------------------------------------------------------------------------------


 conjugate gradient relaxation of ions
 charge density and potential will be updated during run
 non-spin polarized calculation
 Variant of blocked Davidson
 Davidson routine will perform the subspace rotation
 perform sub-space diagonalisation
    after iterative eigenvector-optimisation
 modified Broyden-mixing scheme, WC =      100.0
 initial mixing is a Kerker type mixing with AMIX =  0.4000 and BMIX =      1.0000
 Hartree-type preconditioning will be used
 using additional bands            4
 reciprocal scheme for non local part
 use partial core corrections
 calculate Harris-corrections to forces 
   (improved forces if not selfconsistent)
 use gradient corrections 
 use of overlap-Matrix (Vanderbilt PP)
 Gauss-broadening in eV      SIGMA  =   0.10


--------------------------------------------------------------------------------------------------------


  energy-cutoff  :      450.00
  volume of cell :       17.21
      direct lattice vectors                 reciprocal lattice vectors
     2.300000000  0.000000000  0.000000000     0.434782609  0.251021856  0.000000000
    -1.150000000  1.991858429  0.000000000     0.000000000  0.502043712  0.000000000
     0.000000000  0.000000000  3.755877000     0.000000000  0.000000000  0.266249401

  length of vectors
     2.300000000  2.300000000  3.755877000     0.502043712  0.502043712  0.266249401


 
 k-points in units of 2pi/SCALE and weight: K-Points                                
   0.08333333  0.14433757  0.05103114       0.019
   0.25000000  0.24056261  0.05103114       0.037
   0.41666667  0.33678766  0.05103114       0.037
  -0.41666667 -0.14433757  0.05103114       0.037
  -0.25000000 -0.04811252  0.05103114       0.037
  -0.08333333  0.04811252  0.05103114       0.019
   0.25000000  0.43301270  0.05103114       0.019
   0.41666667  0.52923775  0.05103114       0.037
  -0.41666667  0.04811252  0.05103114       0.037
  -0.25000000  0.14433757  0.05103114       0.019
   0.41666667  0.72168784  0.05103114       0.019
  -0.41666667  0.24056261  0.05103114       0.019
   0.08333333  0.14433757  0.15309341       0.019
   0.25000000  0.24056261  0.15309341       0.037
   0.41666667  0.33678766  0.15309341       0.037
  -0.41666667 -0.14433757  0.15309341       0.037
  -0.25000000 -0.04811252  0.15309341       0.037
  -0.08333333  0.04811252  0.15309341       0.019
   0.25000000  0.43301270  0.15309341       0.019
   0.41666667  0.52923775  0.15309341       0.037
  -0.41666667  0.04811252  0.15309341       0.037
  -0.25000000  0.14433757  0.15309341       0.019
   0.41666667  0.72168784  0.15309341       0.019
  -0.41666667  0.24056261  0.15309341       0.019
   0.08333333  0.14433757  0.25515568       0.019
   0.25000000  0.24056261  0.25515568       0.037
   0.41666667  0.33678766  0.25515568       0.037
  -0.41666667 -0.14433757  0.25515568       0.037
  -0.25000000 -0.04811252  0.25515568       0.037
  -0.08333333  0.04811252  0.25515568       0.019
   0.25000000  0.43301270  0.25515568       0.019
   0.41666667  0.52923775  0.25515568       0.037
  -0.41666667  0.04811252  0.25515568       0.037
  -0.25000000  0.14433757  0.25515568       0.019
   0.41666667  0.72168784  0.25515568       0.019
  -0.41666667  0.24056261  0.25515568       0.019
 
 k-points in reciprocal lattice and weights: K-Points                                
   0.08333333  0.08333333  0.08333333       0.019
   0.25000000  0.08333333  0.08333333       0.037
   0.41666667  0.08333333  0.08333333       0.037
  -0.41666667  0.08333333  0.08333333       0.037
  -0.25000000  0.08333333  0.08333333       0.037
  -0.08333333  0.08333333  0.08333333       0.019
   0.25000000  0.25000000  0.08333333       0.019
   0.41666667  0.25000000  0.08333333       0.037
  -0.41666667  0.25000000  0.08333333       0.037
  -0.25000000  0.25000000  0.08333333       0.019
   0.41666667  0.41666667  0.08333333       0.019
  -0.41666667  0.41666667  0.08333333       0.019
   0.08333333  0.08333333  0.25000000       0.019
   0.25000000  0.08333333  0.25000000       0.037
   0.41666667  0.08333333  0.25000000       0.037
  -0.41666667  0.08333333  0.25000000       0.037
  -0.25000000  0.08333333  0.25000000       0.037
  -0.08333333  0.08333333  0.25000000       0.019
   0.25000000  0.25000000  0.25000000       0.019
   0.41666667  0.25000000  0.25000000       0.037
  -0.41666667  0.25000000  0.25000000       0.037
  -0.25000000  0.25000000  0.25000000       0.019
   0.41666667  0.41666667  0.25000000       0.019
  -0.41666667  0.41666667  0.25000000       0.019
   0.08333333  0.08333333  0.41666667       0.019
   0.25000000  0.08333333  0.41666667       0.037
   0.41666667  0.08333333  0.41666667       0.037
  -0.41666667  0.08333333  0.41666667       0.037
  -0.25000000  0.08333333  0.41666667       0.037
  -0.08333333  0.08333333  0.41666667       0.019
   0.25000000  0.25000000  0.41666667       0.019
   0.41666667  0.25000000  0.41666667       0.037
  -0.41666667  0.25000000  0.41666667       0.037
  -0.25000000  0.25000000  0.41666667       0.019
   0.41666667  0.41666667  0.41666667       0.019
  -0.41666667  0.41666667  0.41666667       0.019
 
 position of ions in fractional coordinates (direct lattice) 
   0.00000000  0.00000000  0.00000000
   0.33333333  0.66666667  0.50000000
 
 position of ions in cartesian coordinates  (Angst):
   0.00000000  0.00000000  0.00000000
  -0.00000000  1.32790562  1.87793850
 


--------------------------------------------------------------------------------------------------------


 k-point  1 :   0.0833 0.0833 0.0833  plane waves:     370
 k-point  2 :   0.2500 0.0833 0.0833  plane waves:     372
 k-point  3 :   0.4167 0.0833 0.0833  plane waves:     373
 k-point  4 :  -0.4167 0.0833 0.0833  plane waves:     376
 k-point  5 :  -0.2500 0.0833 0.0833  plane waves:     370
 k-point  6 :  -0.0833 0.0833 0.0833  plane waves:     371
 k-point  7 :   0.2500 0.2500 0.0833  plane waves:     382
 k-point  8 :   0.4167 0.2500 0.0833  plane waves:     375
 k-point  9 :  -0.4167 0.2500 0.0833  plane waves:     379
 k-point 10 :  -0.2500 0.2500 0.0833  plane waves:     373
 k-point 11 :   0.4167 0.4167 0.0833  plane waves:     379
 k-point 12 :  -0.4167 0.4167 0.0833  plane waves:     372
 k-point 13 :   0.0833 0.0833 0.2500  plane waves:     363
 k-point 14 :   0.2500 0.0833 0.2500  plane waves:     375
 k-point 15 :   0.4167 0.0833 0.2500  plane waves:     377
 k-point 16 :  -0.4167 0.0833 0.2500  plane waves:     377
 k-point 17 :  -0.2500 0.0833 0.2500  plane waves:     368
 k-point 18 :  -0.0833 0.0833 0.2500  plane waves:     358
 k-point 19 :   0.2500 0.2500 0.2500  plane waves:     375
 k-point 20 :   0.4167 0.2500 0.2500  plane waves:     377
 k-point 21 :  -0.4167 0.2500 0.2500  plane waves:     376
 k-point 22 :  -0.2500 0.2500 0.2500  plane waves:     367
 k-point 23 :   0.4167 0.4167 0.2500  plane waves:     376
 k-point 24 :  -0.4167 0.4167 0.2500  plane waves:     380
 k-point 25 :   0.0833 0.0833 0.4167  plane waves:     360
 k-point 26 :   0.2500 0.0833 0.4167  plane waves:     371
 k-point 27 :   0.4167 0.0833 0.4167  plane waves:     379
 k-point 28 :  -0.4167 0.0833 0.4167  plane waves:     374
 k-point 29 :  -0.2500 0.0833 0.4167  plane waves:     368
 k-point 30 :  -0.0833 0.0833 0.4167  plane waves:     352
 k-point 31 :   0.2500 0.2500 0.4167  plane waves:     375
 k-point 32 :   0.4167 0.2500 0.4167  plane waves:     374
 k-point 33 :  -0.4167 0.2500 0.4167  plane waves:     378
 k-point 34 :  -0.2500 0.2500 0.4167  plane waves:     369
 k-point 35 :   0.4167 0.4167 0.4167  plane waves:     377
 k-point 36 :  -0.4167 0.4167 0.4167  plane waves:     373

 maximum and minimum number of plane-waves per node :       382      352

 maximum number of plane-waves:       382
 maximum index in each direction: 
   IXMAX=    4   IYMAX=    3   IZMAX=    6
   IXMIN=   -4   IYMIN=   -4   IZMIN=   -6

 WARNING: aliasing errors must be expected set NGX to  18 to avoid them
 NGY is ok and might be reduce to  16
 NGZ is ok and might be reduce to  26
 aliasing errors are usually negligible using standard VASP settings
 and one can safely disregard these warnings

 serial   3D FFT for wavefunctions
 parallel 3D FFT for charge:
    minimum data exchange during FFTs selected (reduces bandwidth)


 total amount of memory used by VASP on root node    32881. kBytes
========================================================================

   base      :      30000. kBytes
   nonl-proj :        897. kBytes
   fftplans  :        523. kBytes
   grid      :        995. kBytes
   one-center:          6. kBytes
   wavefun   :        460. kBytes
 
     INWAV:  cpu time    0.0000: real time    0.0000
 Broyden mixing: mesh for mixing (old mesh)
   NGX =  7   NGY =  7   NGZ = 13
  (NGX  = 32   NGY  = 32   NGZ  = 56)
  gives a total of    637 points

 initial charge density was supplied:
 charge density of overlapping atoms calculated
 number of electron       8.0000000 magnetization 
 keeping initial charge density in first step


--------------------------------------------------------------------------------------------------------


 Maximum index for augmentation-charges         3390 (set IRDMAX)


--------------------------------------------------------------------------------------------------------


 First call to EWALD:  gamma=   0.687
 Maximum number of real-space cells 3x 3x 2
 Maximum number of reciprocal cells 3x 3x 4

 FEWALD executed in parallel
    FEWALD:  cpu time    0.0060: real time    0.0027


----------------------------------------- Iteration    1(   1)  ---------------------------------------


    POTLOK:  cpu time    0.0290: real time    0.0174
    SETDIJ:  cpu time    0.0090: real time    0.0053
     EDDAV:  cpu time    1.3578: real time    0.8405
       DOS:  cpu time    0.0030: real time    0.0009
    --------------------------------------------
      LOOP:  cpu time    1.4028: real time    0.8661

 eigenvalue-minimisations  :   600
 total energy-change (2. order) : 0.8735524E+01  (-0.3790938E+03)
 number of electron       8.0000000 magnetization 
 augmentation part        8.0000000 magnetization 

 Free energy of the ion-electron system (eV)
  ---------------------------------------------------
  alpha Z        PSCENC =         7.82558532
  Ewald energy   TEWEN  =      -324.74508008
  -Hartree energ DENC   =        -0.32294769
  -exchange      EXHF   =         0.00000000
  -V(xc)+E(xc)   XCENC  =       -14.50301548
  PAW double counting   =       176.24759923     -141.06103558
  entropy T*S    EENTRO =        -0.00408648
  eigenvalues    EBANDS =        99.16657686
  atomic energy  EATOM  =       206.13192747
  Solvation  Ediel_sol  =         0.00000000
  ---------------------------------------------------
  free energy    TOTEN  =         8.73552358 eV

  energy without entropy =        8.73961005  energy(sigma->0) =        8.73756681


--------------------------------------------------------------------------------------------------------




----------------------------------------- Iteration    1(   2)  ---------------------------------------


     EDDAV:  cpu time    1.7267: real time    1.0469
       DOS:  cpu time    0.0020: real time    0.0008
    --------------------------------------------
      LOOP:  cpu time    1.7337: real time    1.0503

 eigenvalue-minimisations  :   840
 total energy-change (2. order) :-0.1528430E+02  (-0.1461992E+02)
 number of electron       8.0000000 magnetization 
 augmentation part        8.0000000 magnetization 

 Free energy of the ion-electron system (eV)
  ---------------------------------------------------
  alpha Z        PSCENC =         7.82558532
  Ewald energy   TEWEN  =      -324.74508008
  -Hartree energ DENC   =        -0.32294769
  -exchange      EXHF   =         0.00000000
  -V(xc)+E(xc)   XCENC  =       -14.50301548
  PAW double counting   =       176.24759923     -141.06103558
  entropy T*S    EENTRO =        -0.00360113
  eigenvalues    EBANDS =        83.88179245
  atomic energy  EATOM  =       206.13192747
  Solvation  Ediel_sol  =         0.00000000
  ---------------------------------------------------
  free energy    TOTEN  =        -6.54877549 eV

  energy without entropy =       -6.54517436  energy(sigma->0) =       -6.54697492


--------------------------------------------------------------------------------------------------------




----------------------------------------- Iteration    1(   3)  ---------------------------------------


     EDDAV:  cpu time    1.6058: real time    1.1302
       DOS:  cpu time    0.0080: real time    0.0056
    --------------------------------------------
      LOOP:  cpu time    1.6178: real time    1.1381

 eigenvalue-minimisations  :   760
 total energy-change (2. order) :-0.1940577E+00  (-0.1924155E+00)
 number of electron       8.0000000 magnetization 
 augmentation part        8.0000000 magnetization 

 Free energy of the ion-electron system (eV)
  ---------------------------------------------------
  alpha Z        PSCENC =         7.82558532
  Ewald energy   TEWEN  =      -324.74508008
  -Hartree energ DENC   =        -0.32294769
  -exchange      EXHF   =         0.00000000
  -V(xc)+E(xc)   XCENC  =       -14.50301548
  PAW double counting   =       176.24759923     -141.06103558
  entropy T*S    EENTRO =        -0.00364594
  eigenvalues    EBANDS =        83.68777953
  atomic energy  EATOM  =       206.13192747
  Solvation  Ediel_sol  =         0.00000000
  ---------------------------------------------------
  free energy    TOTEN  =        -6.74283322 eV

  energy without entropy =       -6.73918728  energy(sigma->0) =       -6.74101025


--------------------------------------------------------------------------------------------------------




----------------------------------------- Iteration    1(   4)  ---------------------------------------


     EDDAV:  cpu time    1.5048: real time    1.0804
       DOS:  cpu time    0.0010: real time    0.0011
    --------------------------------------------
      LOOP:  cpu time    1.5088: real time    1.0842

 eigenvalue-minimisations  :   904
 total energy-change (2. order) :-0.2416928E-03  (-0.2416914E-03)
 number of electron       8.0000000 magnetization 
 augmentation part        8.0000000 magnetization 

 Free energy of the ion-electron system (eV)
  ---------------------------------------------------
  alpha Z        PSCENC =         7.82558532
  Ewald energy   TEWEN  =      -324.74508008
  -Hartree energ DENC   =        -0.32294769
  -exchange      EXHF   =         0.00000000
  -V(xc)+E(xc)   XCENC  =       -14.50301548
  PAW double counting   =       176.24759923     -141.06103558
  entropy T*S    EENTRO =        -0.00364517
  eigenvalues    EBANDS =        83.68753706
  atomic energy  EATOM  =       206.13192747
  Solvation  Ediel_sol  =         0.00000000
  ---------------------------------------------------
  free energy    TOTEN  =        -6.74307491 eV

  energy without entropy =       -6.73942975  energy(sigma->0) =       -6.74125233


--------------------------------------------------------------------------------------------------------




----------------------------------------- Iteration    1(   5)  ---------------------------------------


     EDDAV:  cpu time    1.8607: real time    1.2160
       DOS:  cpu time    0.0020: real time    0.0012
    CHARGE:  cpu time    0.0150: real time    0.0081
    MIXING:  cpu time    0.0010: real time    0.0006
    --------------------------------------------
      LOOP:  cpu time    1.8827: real time    1.2289

 eigenvalue-minimisations  :   768
 total energy-change (2. order) :-0.6590653E-07  (-0.6560186E-07)
 number of electron       8.0000001 magnetization 
 augmentation part       -0.4688388 magnetization 

 Broyden mixing:
  rms(total) = 0.10247E+01    rms(broyden)= 0.10247E+01
  rms(prec ) = 0.10770E+01
  weight for this iteration     100.00

 Free energy of the ion-electron system (eV)
  ---------------------------------------------------
  alpha Z        PSCENC =         7.82558532
  Ewald energy   TEWEN  =      -324.74508008
  -Hartree energ DENC   =        -0.32294769
  -exchange      EXHF   =         0.00000000
  -V(xc)+E(xc)   XCENC  =       -14.50301548
  PAW double counting   =       176.24759923     -141.06103558
  entropy T*S    EENTRO =        -0.00364517
  eigenvalues    EBANDS =        83.68753700
  atomic energy  EATOM  =       206.13192747
  Solvation  Ediel_sol  =         0.00000000
  ---------------------------------------------------
  free energy    TOTEN  =        -6.74307498 eV

  energy without entropy =       -6.73942981  energy(sigma->0) =       -6.74125239


--------------------------------------------------------------------------------------------------------




----------------------------------------- Iteration    1(   6)  ---------------------------------------


    POTLOK:  cpu time    0.0280: real time    0.0165
    SETDIJ:  cpu time    0.0110: real time    0.0082
     EDDAV:  cpu time    1.4638: real time    0.9079
       DOS:  cpu time    0.0010: real time    0.0010
    CHARGE:  cpu time    0.0150: real time    0.0112
    MIXING:  cpu time    0.0020: real time    0.0007
    --------------------------------------------
      LOOP:  cpu time    1.5258: real time    0.9478

 eigenvalue-minimisations  :   688
 total energy-change (2. order) : 0.8331449E-01  (-0.5635567E-03)
 number of electron       8.0000001 magnetization 
 augmentation part       -0.4716467 magnetization 

 Broyden mixing:
  rms(total) = 0.57901E+00    rms(broyden)= 0.57901E+00
  rms(prec ) = 0.61337E+00
  weight for this iteration     100.00

 eigenvalues of (default mixing * dielectric matrix)
  average eigenvalue GAMMA=   2.2935
  2.2935

 Free energy of the ion-electron system (eV)
  ---------------------------------------------------
  alpha Z        PSCENC =         7.82558532
  Ewald energy   TEWEN  =      -324.74508008
  -Hartree energ DENC   =        -0.45267685
  -exchange      EXHF   =         0.00000000
  -V(xc)+E(xc)   XCENC  =       -14.31531509
  PAW double counting   =       801.24978841     -766.22309951
  entropy T*S    EENTRO =        -0.00355014
  eigenvalues    EBANDS =        83.87265998
  atomic energy  EATOM  =       206.13192747
  Solvation  Ediel_sol  =         0.00000000
  ---------------------------------------------------
  free energy    TOTEN  =        -6.65976049 eV

  energy without entropy =       -6.65621035  energy(sigma->0) =       -6.65798542


--------------------------------------------------------------------------------------------------------




----------------------------------------- Iteration    1(   7)  ---------------------------------------


    POTLOK:  cpu time    0.0290: real time    0.0151
    SETDIJ:  cpu time    0.0020: real time    0.0018
     EDDAV:  cpu time    1.5488: real time    0.9225
       DOS:  cpu time    0.0030: real time    0.0009
    CHARGE:  cpu time    0.0280: real time    0.0189
    MIXING:  cpu time    0.0040: real time    0.0014
    --------------------------------------------
      LOOP:  cpu time    1.6198: real time    0.9630

 eigenvalue-minimisations  :   600
 total energy-change (2. order) : 0.5017787E-01  (-0.1306990E-02)
 number of electron       8.0000001 magnetization 
 augmentation part       -0.4761693 magnetization 

 Broyden mixing:
  rms(total) = 0.30694E-01    rms(broyden)= 0.30694E-01
  rms(prec ) = 0.36577E-01
  weight for this iteration     100.00

 eigenvalues of (default mixing * dielectric matrix)
  average eigenvalue GAMMA=   2.5908
  2.5908  2.5908

 Free energy of the ion-electron system (eV)
  ---------------------------------------------------
  alpha Z        PSCENC =         7.82558532
  Ewald energy   TEWEN  =      -324.74508008
  -Hartree energ DENC   =        -0.72497740
  -exchange      EXHF   =         0.00000000
  -V(xc)+E(xc)   XCENC  =       -14.03153453
  PAW double counting   =      2426.37932281    -2391.59268932
  entropy T*S    EENTRO =        -0.00342379
  eigenvalues    EBANDS =        84.15128689
  atomic energy  EATOM  =       206.13192747
  Solvation  Ediel_sol  =         0.00000000
  ---------------------------------------------------
  free energy    TOTEN  =        -6.60958262 eV

  energy without entropy =       -6.60615883  energy(sigma->0) =       -6.60787072


--------------------------------------------------------------------------------------------------------




----------------------------------------- Iteration    1(   8)  ---------------------------------------


    POTLOK:  cpu time    0.0240: real time    0.0169
    SETDIJ:  cpu time    0.0060: real time    0.0041
     EDDAV:  cpu time    1.5218: real time    0.9263
       DOS:  cpu time    0.0020: real time    0.0009
    CHARGE:  cpu time    0.0280: real time    0.0176
    MIXING:  cpu time    0.0010: real time    0.0007
    --------------------------------------------
      LOOP:  cpu time    1.5868: real time    0.9692

 eigenvalue-minimisations  :   920
 total energy-change (2. order) : 0.4384590E-03  (-0.1341072E-04)
 number of electron       8.0000001 magnetization 
 augmentation part       -0.4765221 magnetization 

 Broyden mixing:
  rms(total) = 0.77924E-02    rms(broyden)= 0.77923E-02
  rms(prec ) = 0.87359E-02
  weight for this iteration     100.00

 eigenvalues of (default mixing * dielectric matrix)
  average eigenvalue GAMMA=   2.0262
  1.0195  2.4220  2.6372

 Free energy of the ion-electron system (eV)
  ---------------------------------------------------
  alpha Z        PSCENC =         7.82558532
  Ewald energy   TEWEN  =      -324.74508008
  -Hartree energ DENC   =        -0.75420281
  -exchange      EXHF   =         0.00000000
  -V(xc)+E(xc)   XCENC  =       -14.00318672
  PAW double counting   =      2355.75231255    -2320.98742791
  entropy T*S    EENTRO =        -0.00342147
  eigenvalues    EBANDS =        84.17434947
  atomic energy  EATOM  =       206.13192747
  Solvation  Ediel_sol  =         0.00000000
  ---------------------------------------------------
  free energy    TOTEN  =        -6.60914416 eV

  energy without entropy =       -6.60572269  energy(sigma->0) =       -6.60743342


--------------------------------------------------------------------------------------------------------




----------------------------------------- Iteration    1(   9)  ---------------------------------------


    POTLOK:  cpu time    0.0300: real time    0.0180
    SETDIJ:  cpu time    0.0040: real time    0.0029
     EDDAV:  cpu time    1.3348: real time    0.8567
       DOS:  cpu time    0.0050: real time    0.0033
    CHARGE:  cpu time    0.0180: real time    0.0091
    MIXING:  cpu time    0.0010: real time    0.0014
    --------------------------------------------
      LOOP:  cpu time    1.3978: real time    0.8938

 eigenvalue-minimisations  :   520
 total energy-change (2. order) : 0.1168301E-04  (-0.6143897E-06)
 number of electron       8.0000001 magnetization 
 augmentation part       -0.4766207 magnetization 

 Broyden mixing:
  rms(total) = 0.19192E-03    rms(broyden)= 0.19190E-03
  rms(prec ) = 0.37243E-03
  weight for this iteration     100.00

 eigenvalues of (default mixing * dielectric matrix)
  average eigenvalue GAMMA=   2.0738
  0.9925  2.6207  2.3410  2.3410

 Free energy of the ion-electron system (eV)
  ---------------------------------------------------
  alpha Z        PSCENC =         7.82558532
  Ewald energy   TEWEN  =      -324.74508008
  -Hartree energ DENC   =        -0.76167471
  -exchange      EXHF   =         0.00000000
  -V(xc)+E(xc)   XCENC  =       -13.99645134
  PAW double counting   =      2382.32888176    -2347.56933447
  entropy T*S    EENTRO =        -0.00341919
  eigenvalues    EBANDS =        84.18043276
  atomic energy  EATOM  =       206.13192747
  Solvation  Ediel_sol  =         0.00000000
  ---------------------------------------------------
  free energy    TOTEN  =        -6.60913248 eV

  energy without entropy =       -6.60571328  energy(sigma->0) =       -6.60742288


--------------------------------------------------------------------------------------------------------




----------------------------------------- Iteration    1(  10)  ---------------------------------------


    POTLOK:  cpu time    0.0400: real time    0.0238
    SETDIJ:  cpu time    0.0040: real time    0.0016
     EDDAV:  cpu time    0.8899: real time    0.5586
       DOS:  cpu time    0.0020: real time    0.0011
    --------------------------------------------
      LOOP:  cpu time    0.9389: real time    0.5877

 eigenvalue-minimisations  :   384
 total energy-change (2. order) : 0.2768866E-06  (-0.2093773E-07)
 number of electron       8.0000001 magnetization 
 augmentation part       -0.4766207 magnetization 

 Free energy of the ion-electron system (eV)
  ---------------------------------------------------
  alpha Z        PSCENC =         7.82558532
  Ewald energy   TEWEN  =      -324.74508008
  -Hartree energ DENC   =        -0.76170831
  -exchange      EXHF   =         0.00000000
  -V(xc)+E(xc)   XCENC  =       -13.99647674
  PAW double counting   =      2382.84456509    -2348.08480456
  entropy T*S    EENTRO =        -0.00341896
  eigenvalues    EBANDS =        84.18027857
  atomic energy  EATOM  =       206.13192747
  Solvation  Ediel_sol  =         0.00000000
  ---------------------------------------------------
  free energy    TOTEN  =        -6.60913220 eV

  energy without entropy =       -6.60571324  energy(sigma->0) =       -6.60742272


--------------------------------------------------------------------------------------------------------




 average (electrostatic) potential at core
  the test charge radii are     0.9892
  (the norm of the test charge is              1.0000)
       1 -71.4637       2 -71.4637
 
 
 
 E-fermi :  18.4658     XC(G=0): -13.4289     alpha+bet :-27.8781


 k-point     1 :       0.0833    0.0833    0.0833
  band No.  band energies     occupation 
      1      -0.7195      2.00000
      2       7.4425      2.00000
      3      10.8739      2.00000
      4      24.5703      0.00000
      5      25.3038      0.00000
      6      31.6035      0.00000
      7      31.6349      0.00000
      8      31.9447      0.00000

 k-point     2 :       0.2500    0.0833    0.0833
  band No.  band energies     occupation 
      1       1.7704      2.00000
      2       9.7392      2.00000
      3      12.8784      2.00000
      4      16.7182      2.00000
      5      21.5755      0.00000
      6      24.1649      0.00000
      7      27.0198      0.00000
      8      29.6298      0.00000

 k-point     3 :       0.4167    0.0833    0.0833
  band No.  band energies     occupation 
      1       6.1220      2.00000
      2       8.8932      2.00000
      3      14.0946      2.00000
      4      16.6641      2.00000
      5      17.3994      2.00000
      6      19.4368      0.00000
      7      22.7445      0.00000
      8      28.1886      0.00000

 k-point     4 :      -0.4167    0.0833    0.0833
  band No.  band energies     occupation 
      1       3.7269      2.00000
      2      11.1293      2.00000
      3      12.5651      2.00000
      4      15.5406      2.00000
      5      19.5867      0.00000
      6      21.3282      0.00000
      7      24.3511      0.00000
      8      28.6624      0.00000

 k-point     5 :      -0.2500    0.0833    0.0833
  band No.  band energies     occupation 
      1       0.2823      2.00000
      2       8.3731      2.00000
      3      11.7498      2.00000
      4      20.5169      0.00000
      5      23.1948      0.00000
      6      27.8810      0.00000
      7      29.7813      0.00000
      8      31.2345      0.00000

 k-point     6 :      -0.0833    0.0833    0.0833
  band No.  band energies     occupation 
      1      -1.2233      2.00000
      2       6.9737      2.00000
      3      10.4207      2.00000
      4      27.0144      0.00000
      5      28.8612      0.00000
      6      30.3145      0.00000
      7      32.4059      0.00000
      8      33.3928      0.00000

 k-point     7 :       0.2500    0.2500    0.0833
  band No.  band energies     occupation 
      1       5.1736      2.00000
      2      12.2279      2.00000
      3      13.5382      2.00000
      4      14.0797      2.00000
      5      17.4759      2.00000
      6      21.3828      0.00000
      7      22.3599      0.00000
      8      25.2653      0.00000

 k-point     8 :       0.4167    0.2500    0.0833
  band No.  band energies     occupation 
      1       7.5378      2.00000
      2      10.2686      2.00000
      3      12.8321      2.00000
      4      15.7151      2.00000
      5      17.9103      2.00000
      6      19.3894      0.00000
      7      21.7958      0.00000
      8      23.1216      0.00000

 k-point     9 :      -0.4167    0.2500    0.0833
  band No.  band energies     occupation 
      1       3.2410      2.00000
      2      11.0336      2.00000
      3      13.5883      2.00000
      4      15.5871      2.00000
      5      18.1810      1.99994
      6      22.7122      0.00000
      7      25.1898      0.00000
      8      26.8000      0.00000

 k-point    10 :      -0.2500    0.2500    0.0833
  band No.  band energies     occupation 
      1       0.7803      2.00000
      2       8.8329      2.00000
      3      12.1537      2.00000
      4      18.3990      1.65546
      5      24.9702      0.00000
      6      25.6700      0.00000
      7      27.0473      0.00000
      8      30.6933      0.00000

 k-point    11 :       0.4167    0.4167    0.0833
  band No.  band energies     occupation 
      1       7.9117      2.00000
      2       8.0833      2.00000
      3      15.0889      2.00000
      4      16.0423      2.00000
      5      16.6052      2.00000
      6      19.0559      0.00000
      7      21.9613      0.00000
      8      24.8011      0.00000

 k-point    12 :      -0.4167    0.4167    0.0833
  band No.  band energies     occupation 
      1       4.6921      2.00000
      2      10.1352      2.00000
      3      12.8404      2.00000
      4      16.2364      2.00000
      5      18.2888      1.98768
      6      21.1918      0.00000
      7      24.0786      0.00000
      8      27.8385      0.00000

 k-point    13 :       0.0833    0.0833    0.2500
  band No.  band energies     occupation 
      1      -0.1547      2.00000
      2       4.8156      2.00000
      3      14.4367      2.00000
      4      24.8816      0.00000
      5      25.6865      0.00000
      6      27.7978      0.00000
      7      29.8823      0.00000
      8      30.2780      0.00000

 k-point    14 :       0.2500    0.0833    0.2500
  band No.  band energies     occupation 
      1       2.3242      2.00000
      2       7.1842      2.00000
      3      15.6986      2.00000
      4      17.7852      2.00000
      5      20.7793      0.00000
      6      23.2683      0.00000
      7      26.8116      0.00000
      8      29.7127      0.00000

 k-point    15 :       0.4167    0.0833    0.2500
  band No.  band energies     occupation 
      1       6.6446      2.00000
      2       9.2580      2.00000
      3      11.8500      2.00000
      4      14.3710      2.00000
      5      19.8485      0.00000
      6      21.8803      0.00000
      7      24.4556      0.00000
      8      26.2124      0.00000

 k-point    16 :      -0.4167    0.0833    0.2500
  band No.  band energies     occupation 
      1       4.2706      2.00000
      2       8.9718      2.00000
      3      12.9934      2.00000
      4      17.3834      2.00000
      5      18.6059      0.04759
      6      22.1548      0.00000
      7      25.8000      0.00000
      8      27.5247      0.00000

 k-point    17 :      -0.2500    0.0833    0.2500
  band No.  band energies     occupation 
      1       0.8427      2.00000
      2       5.7720      2.00000
      3      15.2316      2.00000
      4      20.9965      0.00000
      5      23.4087      0.00000
      6      25.7305      0.00000
      7      27.9043      0.00000
      8      29.7133      0.00000

 k-point    18 :      -0.0833    0.0833    0.2500
  band No.  band energies     occupation 
      1      -0.6564      2.00000
      2       4.3340      2.00000
      3      14.0107      2.00000
      4      26.7767      0.00000
      5      28.1170      0.00000
      6      29.2859      0.00000
      7      30.4778      0.00000
      8      32.6738      0.00000

 k-point    19 :       0.2500    0.2500    0.2500
  band No.  band energies     occupation 
      1       5.7087      2.00000
      2      10.2673      2.00000
      3      14.0073      2.00000
      4      14.5474      2.00000
      5      18.3899      1.71699
      6      19.4894      0.00000
      7      21.9512      0.00000
      8      28.6946      0.00000

 k-point    20 :       0.4167    0.2500    0.2500
  band No.  band energies     occupation 
      1       8.0479      2.00000
      2      10.6033      2.00000
      3      12.5772      2.00000
      4      14.1734      2.00000
      5      16.3028      2.00000
      6      18.6878      0.00169
      7      23.4584      0.00000
      8      26.0830      0.00000

 k-point    21 :      -0.4167    0.2500    0.2500
  band No.  band energies     occupation 
      1       3.7876      2.00000
      2       8.5601      2.00000
      3      15.0421      2.00000
      4      17.1723      2.00000
      5      18.6608      0.00582
      6      21.2120      0.00000
      7      23.3259      0.00000
      8      29.6760      0.00000

 k-point    22 :      -0.2500    0.2500    0.2500
  band No.  band energies     occupation 
      1       1.3385      2.00000
      2       6.2458      2.00000
      3      15.5201      2.00000
      4      19.0101      0.00000
      5      22.9090      0.00000
      6      26.1209      0.00000
      7      27.4016      0.00000
      8      30.2125      0.00000

 k-point    23 :       0.4167    0.4167    0.2500
  band No.  band energies     occupation 
      1       8.4016      2.00000
      2       8.5657      2.00000
      3      13.3149      2.00000
      4      13.5093      2.00000
      5      17.3376      2.00000
      6      21.1487      0.00000
      7      24.0373      0.00000
      8      24.4087      0.00000

 k-point    24 :      -0.4167    0.4167    0.2500
  band No.  band energies     occupation 
      1       5.2290      2.00000
      2       9.5826      2.00000
      3      11.5264      2.00000
      4      15.7269      2.00000
      5      19.6065      0.00000
      6      24.0124      0.00000
      7      24.5286      0.00000
      8      28.5890      0.00000

 k-point    25 :       0.0833    0.0833    0.4167
  band No.  band energies     occupation 
      1       0.9674      2.00000
      2       2.6323      2.00000
      3      18.4733      0.91594
      4      22.7943      0.00000
      5      26.0094      0.00000
      6      26.2158      0.00000
      7      28.5052      0.00000
      8      28.7687      0.00000

 k-point    26 :       0.2500    0.0833    0.4167
  band No.  band energies     occupation 
      1       3.4239      2.00000
      2       5.0534      2.00000
      3      17.4517      2.00000
      4      18.9738      0.00000
      5      20.8156      0.00000
      6      23.3911      0.00000
      7      25.1895      0.00000
      8      26.8483      0.00000

 k-point    27 :       0.4167    0.0833    0.4167
  band No.  band energies     occupation 
      1       7.6594      2.00000
      2       8.9721      2.00000
      3      11.1244      2.00000
      4      12.4080      2.00000
      5      21.6306      0.00000
      6      23.0364      0.00000
      7      25.9796      0.00000
      8      27.8722      0.00000

 k-point    28 :      -0.4167    0.0833    0.4167
  band No.  band energies     occupation 
      1       5.3482      2.00000
      2       6.9357      2.00000
      3      14.0105      2.00000
      4      15.5171      2.00000
      5      21.4741      0.00000
      6      23.0877      0.00000
      7      24.9627      0.00000
      8      27.7738      0.00000

 k-point    29 :      -0.2500    0.0833    0.4167
  band No.  band energies     occupation 
      1       1.9561      2.00000
      2       3.6076      2.00000
      3      19.0619      0.00000
      4      21.7919      0.00000
      5      22.8106      0.00000
      6      23.6461      0.00000
      7      26.2084      0.00000
      8      27.2212      0.00000

 k-point    30 :      -0.0833    0.0833    0.4167
  band No.  band energies     occupation 
      1       0.4701      2.00000
      2       2.1415      2.00000
      3      18.0947      2.00000
      4      22.5515      0.00000
      5      28.4593      0.00000
      6      29.5173      0.00000
      7      30.1237      0.00000
      8      31.3268      0.00000

 k-point    31 :       0.2500    0.2500    0.4167
  band No.  band energies     occupation 
      1       6.7665      2.00000
      2       8.3154      2.00000
      3      14.8355      2.00000
      4      15.2015      2.00000
      5      17.3157      2.00000
      6      17.7541      2.00000
      7      25.1996      0.00000
      8      29.3243      0.00000

 k-point    32 :       0.4167    0.2500    0.4167
  band No.  band energies     occupation 
      1       9.0313      2.00000
      2      10.2833      2.00000
      3      12.3268      2.00000
      4      13.3564      2.00000
      5      15.7889      2.00000
      6      16.9365      2.00000
      7      27.2307      0.00000
      8      29.7516      0.00000

 k-point    33 :      -0.4167    0.2500    0.4167
  band No.  band energies     occupation 
      1       4.8721      2.00000
      2       6.4753      2.00000
      3      16.1461      2.00000
      4      17.4082      2.00000
      5      19.2234      0.00000
      6      20.6031      0.00000
      7      23.9599      0.00000
      8      27.7067      0.00000

 k-point    34 :      -0.2500    0.2500    0.4167
  band No.  band energies     occupation 
      1       2.4474      2.00000
      2       4.0919      2.00000
      3      18.7010      0.00088
      4      20.3013      0.00000
      5      21.3764      0.00000
      6      24.4368      0.00000
      7      27.0259      0.00000
      8      28.3898      0.00000

 k-point    35 :       0.4167    0.4167    0.4167
  band No.  band energies     occupation 
      1       9.2584      2.00000
      2       9.3666      2.00000
      3      11.6467      2.00000
      4      11.6704      2.00000
      5      18.4046      1.61297
      6      19.8627      0.00000
      7      27.3559      0.00000
      8      27.8673      0.00000

 k-point    36 :      -0.4167    0.4167    0.4167
  band No.  band energies     occupation 
      1       6.2890      2.00000
      2       7.8268      2.00000
      3      12.2549      2.00000
      4      13.7455      2.00000
      5      23.1281      0.00000
      6      25.4311      0.00000
      7      25.6649      0.00000
      8      26.7886      0.00000


--------------------------------------------------------------------------------------------------------


 soft charge-density along one line, spin component           1
         0         1         2         3         4         5         6         7         8         9
 total charge-density along one line
 
 pseudopotential strength for first ion, spin component:           1
 17.059  23.792  -0.000  -0.000   0.000  -0.000  -0.000   0.000
 23.792  33.185  -0.000  -0.000   0.000  -0.000  -0.000   0.000
 -0.000  -0.000   3.987  -0.000   0.000   7.418  -0.000   0.000
 -0.000  -0.000  -0.000   3.987  -0.000  -0.000   7.418  -0.000
  0.000   0.000   0.000  -0.000   3.987   0.000  -0.000   7.418
 -0.000  -0.000   7.418  -0.000   0.000  13.815  -0.000   0.000
 -0.000  -0.000  -0.000   7.418  -0.000  -0.000  13.815  -0.000
  0.000   0.000   0.000  -0.000   7.418   0.000  -0.000  13.815
 total augmentation occupancy for first ion, spin component:           1
 11.780  -6.089   0.000   0.000  -0.000   0.000   0.000   0.000
 -6.089   3.468   0.000   0.000   0.000   0.000   0.000  -0.000
  0.000   0.000   5.151   0.000  -0.000  -1.527   0.000  -0.000
  0.000   0.000  -0.000   5.154   0.000   0.000  -1.524   0.000
 -0.000  -0.000   0.000   0.000   5.151   0.000  -0.000  -1.527
 -0.000  -0.000  -1.527  -0.000  -0.000   0.480   0.000   0.000
  0.000   0.000   0.000  -1.524  -0.000   0.000   0.479  -0.000
  0.000   0.000  -0.000   0.000  -1.527   0.000   0.000   0.480


------------------------ aborting loop because EDIFF is reached ----------------------------------------


    CHARGE:  cpu time    0.0230: real time    0.0149
    FORLOC:  cpu time    0.0020: real time    0.0009
    FORNL :  cpu time    0.0380: real time    0.0253
    STRESS:  cpu time    0.2080: real time    0.1444
    FORCOR:  cpu time    0.0350: real time    0.0229
    FORHAR:  cpu time    0.0030: real time    0.0080
    MIXING:  cpu time    0.0000: real time    0.0004
    OFIELD:  cpu time    0.0000: real time    0.0000

  FORCE on cell =-STRESS in cart. coord.  units (eV):
  Direction    XX          YY          ZZ          XY          YZ          ZX
  --------------------------------------------------------------------------------------
  Alpha Z     7.82559     7.82559     7.82559
  Ewald    -108.32251  -108.32251  -108.10028    -0.00000    -0.00000    -0.00000
  Hartree     0.24573     0.24573     0.27027    -0.00000    -0.00000    -0.00000
  E(xc)     -29.84953   -29.84953   -29.88228    -0.00000     0.00000     0.00000
  Local      -3.87229    -3.87230    -4.30039    -0.00001     0.00000    -0.00000
  n-local    78.83246    87.06516    83.78525    -2.33121     0.40096    -0.99528
  augment   -11.88840   -11.88839   -11.90829     0.00001     0.00000     0.00000
  Kinetic    98.75648    58.13968    77.81245    13.30839     0.31441     0.43544
  Fock        0.00000     0.00000     0.00000     0.00000     0.00000     0.00000
  -------------------------------------------------------------------------------------
  Total      15.53546    15.53546    15.50231     0.00000     0.00000     0.00000
  in kB    1446.56203  1446.56203  1443.47548     0.00000     0.00000     0.00000
  external pressure =     1445.53 kB  Pullay stress =        0.00 kB


 VOLUME and BASIS-vectors are now :
 -----------------------------------------------------------------------------
  energy-cutoff  :      450.00
  volume of cell :       17.21
      direct lattice vectors                 reciprocal lattice vectors
     2.300000000  0.000000000  0.000000000     0.434782609  0.251021856  0.000000000
    -1.150000000  1.991858429  0.000000000     0.000000000  0.502043712  0.000000000
     0.000000000  0.000000000  3.755877000     0.000000000  0.000000000  0.266249401

  length of vectors
     2.300000000  2.300000000  3.755877000     0.502043712  0.502043712  0.266249401


 FORCES acting on ions
    electron-ion (+dipol)            ewald-force                    non-local-force                 convergence-correction
 -----------------------------------------------------------------------------------------------
   -.186E-08 0.107E-08 0.126E-13   -.132E-12 0.100E-12 -.568E-14   0.226E-16 0.555E-16 0.000E+00   0.597E-09 -.345E-09 -.121E-15
   -.374E-07 0.216E-07 -.663E-13   0.131E-12 -.979E-13 0.568E-14   -.434E-16 -.538E-16 0.000E+00   -.597E-09 0.345E-09 -.214E-16
 -----------------------------------------------------------------------------------------------
   -.392E-07 0.226E-07 -.537E-13   -.693E-15 0.242E-14 0.000E+00   -.208E-16 0.173E-17 0.000E+00   0.222E-13 -.131E-13 -.143E-15
 
 
 POSITION                                       TOTAL-FORCE (eV/Angst)
 -----------------------------------------------------------------------------------
      0.00000      0.00000      0.00000        -0.000000     -0.000000      0.000000
     -0.00000      1.32791      1.87794         0.000000      0.000000      0.000000
 -----------------------------------------------------------------------------------
    total drift:                               -0.000000      0.000000     -0.000000


--------------------------------------------------------------------------------------------------------



  FREE ENERGIE OF THE ION-ELECTRON SYSTEM (eV)
  ---------------------------------------------------
  free  energy   TOTEN  =        -6.60913220 eV

  energy  without entropy=       -6.60571324  energy(sigma->0) =       -6.60742272
 


--------------------------------------------------------------------------------------------------------


    POTLOK:  cpu time    0.0090: real time    0.0197


--------------------------------------------------------------------------------------------------------




--------------------------------------------------------------------------------------------------------


    WAVPRE:  cpu time    0.0020: real time    0.0016
 FEWALD executed in parallel
    FEWALD:  cpu time    0.0000: real time    0.0001
    GENKIN:  cpu time    0.0040: real time    0.0050
    ORTHCH:  cpu time    0.1540: real time    0.1035
     LOOP+:  cpu time   15.7686: real time   10.1581


----------------------------------------- Iteration    2(   1)  ---------------------------------------


    POTLOK:  cpu time    0.0300: real time    0.0190
    SETDIJ:  cpu time    0.0090: real time    0.0067
     EDDAV:  cpu time    2.0987: real time    1.2726
       DOS:  cpu time    0.0020: real time    0.0009
    CHARGE:  cpu time    0.0230: real time    0.0148
    MIXING:  cpu time    0.0010: real time    0.0005
    --------------------------------------------
      LOOP:  cpu time    2.1657: real time    1.3160

 eigenvalue-minimisations  :   840
 total energy-change (2. order) :-0.3781363E-04  (-0.3961077E-04)
 number of electron       8.0000001 magnetization 
 augmentation part       -0.4766949 magnetization 

 Broyden mixing:
  rms(total) = 0.13149E-02    rms(broyden)= 0.13149E-02
  rms(prec ) = 0.30589E-02
  weight for this iteration     100.00

 Free energy of the ion-electron system (eV)
  ---------------------------------------------------
  alpha Z        PSCENC =         7.82558532
  Ewald energy   TEWEN  =      -324.74493249
  -Hartree energ DENC   =        -0.76175243
  -exchange      EXHF   =         0.00000000
  -V(xc)+E(xc)   XCENC  =       -13.99645568
  PAW double counting   =      2382.37171462    -2347.61193435
  entropy T*S    EENTRO =        -0.00312355
  eigenvalues    EBANDS =        84.17980080
  atomic energy  EATOM  =       206.13192747
  Solvation  Ediel_sol  =         0.00000000
  ---------------------------------------------------
  free energy    TOTEN  =        -6.60917029 eV

  energy without entropy =       -6.60604674  energy(sigma->0) =       -6.60760852


--------------------------------------------------------------------------------------------------------




----------------------------------------- Iteration    2(   2)  ---------------------------------------


    POTLOK:  cpu time    0.0290: real time    0.0183
    SETDIJ:  cpu time    0.0050: real time    0.0024
     EDDAV:  cpu time    1.0348: real time    0.6379
       DOS:  cpu time    0.0020: real time    0.0011
    --------------------------------------------
      LOOP:  cpu time    1.0748: real time    0.6621

 eigenvalue-minimisations  :   456
 total energy-change (2. order) : 0.3277542E-05  (-0.5168196E-06)
 number of electron       8.0000001 magnetization 
 augmentation part       -0.4766949 magnetization 

 Free energy of the ion-electron system (eV)
  ---------------------------------------------------
  alpha Z        PSCENC =         7.82558532
  Ewald energy   TEWEN  =      -324.74493249
  -Hartree energ DENC   =        -0.76169402
  -exchange      EXHF   =         0.00000000
  -V(xc)+E(xc)   XCENC  =       -13.99649367
  PAW double counting   =      2382.36025390    -2347.60045824
  entropy T*S    EENTRO =        -0.00312532
  eigenvalues    EBANDS =        84.17977002
  atomic energy  EATOM  =       206.13192747
  Solvation  Ediel_sol  =         0.00000000
  ---------------------------------------------------
  free energy    TOTEN  =        -6.60916701 eV

  energy without entropy =       -6.60604170  energy(sigma->0) =       -6.60760436


--------------------------------------------------------------------------------------------------------




 average (electrostatic) potential at core
  the test charge radii are     0.9892
  (the norm of the test charge is              1.0000)
       1 -71.4637       2 -71.4637
 
 
 
 E-fermi :  18.4700     XC(G=0): -13.4289     alpha+bet :-27.8781


 k-point     1 :       0.0833    0.0833    0.0833
  band No.  band energies     occupation 
      1      -0.7199      2.00000
      2       7.4495      2.00000
      3      10.8869      2.00000
      4      24.5593      0.00000
      5      25.2898      0.00000
      6      31.5972      0.00000
      7      31.6318      0.00000
      8      31.9445      0.00000

 k-point     2 :       0.2500    0.0833    0.0833
  band No.  band energies     occupation 
      1       1.7688      2.00000
      2       9.7447      2.00000
      3      12.8876      2.00000
      4      16.7121      2.00000
      5      21.5672      0.00000
      6      24.1596      0.00000
      7      27.0194      0.00000
      8      29.6238      0.00000

 k-point     3 :       0.4167    0.0833    0.0833
  band No.  band energies     occupation 
      1       6.1183      2.00000
      2       8.8884      2.00000
      3      14.0969      2.00000
      4      16.6676      2.00000
      5      17.4039      2.00000
      6      19.4396      0.00000
      7      22.7398      0.00000
      8      28.1825      0.00000

 k-point     4 :      -0.4167    0.0833    0.0833
  band No.  band energies     occupation 
      1       3.7243      2.00000
      2      11.1308      2.00000
      3      12.5630      2.00000
      4      15.5489      2.00000
      5      19.5849      0.00000
      6      21.3226      0.00000
      7      24.3513      0.00000
      8      28.6563      0.00000

 k-point     5 :      -0.2500    0.0833    0.0833
  band No.  band energies     occupation 
      1       0.2814      2.00000
      2       8.3795      2.00000
      3      11.7620      2.00000
      4      20.5071      0.00000
      5      23.1834      0.00000
      6      27.8751      0.00000
      7      29.7763      0.00000
      8      31.2263      0.00000

 k-point     6 :      -0.0833    0.0833    0.0833
  band No.  band energies     occupation 
      1      -1.2234      2.00000
      2       6.9810      2.00000
      3      10.4341      2.00000
      4      27.0017      0.00000
      5      28.8451      0.00000
      6      30.3071      0.00000
      7      32.4231      0.00000
      8      33.3784      0.00000

 k-point     7 :       0.2500    0.2500    0.0833
  band No.  band energies     occupation 
      1       5.1703      2.00000
      2      12.2280      2.00000
      3      13.5322      2.00000
      4      14.0779      2.00000
      5      17.4836      2.00000
      6      21.3788      0.00000
      7      22.3595      0.00000
      8      25.2704      0.00000

 k-point     8 :       0.4167    0.2500    0.0833
  band No.  band energies     occupation 
      1       7.5334      2.00000
      2      10.2633      2.00000
      3      12.8267      2.00000
      4      15.7159      2.00000
      5      17.9148      2.00000
      6      19.3924      0.00000
      7      21.7961      0.00000
      8      23.1274      0.00000

 k-point     9 :      -0.4167    0.2500    0.0833
  band No.  band energies     occupation 
      1       3.2386      2.00000
      2      11.0381      2.00000
      3      13.5906      2.00000
      4      15.5851      2.00000
      5      18.1763      1.99997
      6      22.7084      0.00000
      7      25.1885      0.00000
      8      26.8018      0.00000

 k-point    10 :      -0.2500    0.2500    0.0833
  band No.  band energies     occupation 
      1       0.7791      2.00000
      2       8.8390      2.00000
      3      12.1652      2.00000
      4      18.3905      1.73897
      5      24.9668      0.00000
      6      25.6544      0.00000
      7      27.0410      0.00000
      8      30.6961      0.00000

 k-point    11 :       0.4167    0.4167    0.0833
  band No.  band energies     occupation 
      1       7.9084      2.00000
      2       8.0776      2.00000
      3      15.0868      2.00000
      4      16.0463      2.00000
      5      16.6018      2.00000
      6      19.0646      0.00000
      7      21.9648      0.00000
      8      24.7975      0.00000

 k-point    12 :      -0.4167    0.4167    0.0833
  band No.  band energies     occupation 
      1       4.6890      2.00000
      2      10.1308      2.00000
      3      12.8428      2.00000
      4      16.2462      2.00000
      5      18.2893      1.98939
      6      21.1964      0.00000
      7      24.0635      0.00000
      8      27.8322      0.00000

 k-point    13 :       0.0833    0.0833    0.2500
  band No.  band energies     occupation 
      1      -0.1545      2.00000
      2       4.8208      2.00000
      3      14.4522      2.00000
      4      24.8737      0.00000
      5      25.6734      0.00000
      6      27.8152      0.00000
      7      29.8741      0.00000
      8      30.2708      0.00000

 k-point    14 :       0.2500    0.0833    0.2500
  band No.  band energies     occupation 
      1       2.3231      2.00000
      2       7.1880      2.00000
      3      15.7016      2.00000
      4      17.7878      2.00000
      5      20.7745      0.00000
      6      23.2594      0.00000
      7      26.8063      0.00000
      8      29.7086      0.00000

 k-point    15 :       0.4167    0.0833    0.2500
  band No.  band energies     occupation 
      1       6.6415      2.00000
      2       9.2543      2.00000
      3      11.8502      2.00000
      4      14.3708      2.00000
      5      19.8486      0.00000
      6      21.8853      0.00000
      7      24.4571      0.00000
      8      26.2082      0.00000

 k-point    16 :      -0.4167    0.0833    0.2500
  band No.  band energies     occupation 
      1       4.2686      2.00000
      2       8.9743      2.00000
      3      12.9878      2.00000
      4      17.3831      2.00000
      5      18.6137      0.04207
      6      22.1482      0.00000
      7      25.7960      0.00000
      8      27.5253      0.00000

 k-point    17 :      -0.2500    0.0833    0.2500
  band No.  band energies     occupation 
      1       0.8424      2.00000
      2       5.7766      2.00000
      3      15.2458      2.00000
      4      20.9878      0.00000
      5      23.3990      0.00000
      6      25.7257      0.00000
      7      27.9033      0.00000
      8      29.7230      0.00000

 k-point    18 :      -0.0833    0.0833    0.2500
  band No.  band energies     occupation 
      1      -0.6559      2.00000
      2       4.3395      2.00000
      3      14.0268      2.00000
      4      26.7867      0.00000
      5      28.1188      0.00000
      6      29.2704      0.00000
      7      30.4675      0.00000
      8      32.6619      0.00000

 k-point    19 :       0.2500    0.2500    0.2500
  band No.  band energies     occupation 
      1       5.7059      2.00000
      2      10.2688      2.00000
      3      14.0019      2.00000
      4      14.5410      2.00000
      5      18.3931      1.72272
      6      19.4844      0.00000
      7      21.9579      0.00000
      8      28.7029      0.00000

 k-point    20 :       0.4167    0.2500    0.2500
  band No.  band energies     occupation 
      1       8.0441      2.00000
      2      10.5990      2.00000
      3      12.5749      2.00000
      4      14.1710      2.00000
      5      16.3002      2.00000
      6      18.6852      0.00233
      7      23.4686      0.00000
      8      26.0925      0.00000

 k-point    21 :      -0.4167    0.2500    0.2500
  band No.  band energies     occupation 
      1       3.7858      2.00000
      2       8.5630      2.00000
      3      15.0367      2.00000
      4      17.1711      2.00000
      5      18.6642      0.00600
      6      21.2084      0.00000
      7      23.3221      0.00000
      8      29.6832      0.00000

 k-point    22 :      -0.2500    0.2500    0.2500
  band No.  band energies     occupation 
      1       1.3379      2.00000
      2       6.2502      2.00000
      3      15.5322      2.00000
      4      19.0040      0.00000
      5      22.9044      0.00000
      6      26.1059      0.00000
      7      27.4039      0.00000
      8      30.2017      0.00000

 k-point    23 :       0.4167    0.4167    0.2500
  band No.  band energies     occupation 
      1       8.3989      2.00000
      2       8.5607      2.00000
      3      13.3134      2.00000
      4      13.5110      2.00000
      5      17.3306      2.00000
      6      21.1503      0.00000
      7      24.0431      0.00000
      8      24.4165      0.00000

 k-point    24 :      -0.4167    0.4167    0.2500
  band No.  band energies     occupation 
      1       5.2265      2.00000
      2       9.5832      2.00000
      3      11.5227      2.00000
      4      15.7263      2.00000
      5      19.6174      0.00000
      6      24.0164      0.00000
      7      24.5140      0.00000
      8      28.5809      0.00000

 k-point    25 :       0.0833    0.0833    0.4167
  band No.  band energies     occupation 
      1       0.9688      2.00000
      2       2.6354      2.00000
      3      18.4922      0.75334
      4      22.8152      0.00000
      5      25.9999      0.00000
      6      26.2048      0.00000
      7      28.4942      0.00000
      8      28.7577      0.00000

 k-point    26 :       0.2500    0.0833    0.4167
  band No.  band energies     occupation 
      1       3.4240      2.00000
      2       5.0552      2.00000
      3      17.4467      2.00000
      4      18.9701      0.00000
      5      20.8257      0.00000
      6      23.3911      0.00000
      7      25.1854      0.00000
      8      26.8561      0.00000

 k-point    27 :       0.4167    0.0833    0.4167
  band No.  band energies     occupation 
      1       7.6575      2.00000
      2       8.9713      2.00000
      3      11.1211      2.00000
      4      12.4057      2.00000
      5      21.6246      0.00000
      6      23.0327      0.00000
      7      25.9875      0.00000
      8      27.8771      0.00000

 k-point    28 :      -0.4167    0.0833    0.4167
  band No.  band energies     occupation 
      1       5.3473      2.00000
      2       6.9364      2.00000
      3      14.0055      2.00000
      4      15.5136      2.00000
      5      21.4765      0.00000
      6      23.0858      0.00000
      7      24.9630      0.00000
      8      27.7859      0.00000

 k-point    29 :      -0.2500    0.0833    0.4167
  band No.  band energies     occupation 
      1       1.9570      2.00000
      2       3.6102      2.00000
      3      19.0772      0.00000
      4      21.7892      0.00000
      5      22.8062      0.00000
      6      23.6525      0.00000
      7      26.2012      0.00000
      8      27.2161      0.00000

 k-point    30 :      -0.0833    0.0833    0.4167
  band No.  band energies     occupation 
      1       0.4718      2.00000
      2       2.1449      2.00000
      3      18.1144      2.00000
      4      22.5746      0.00000
      5      28.4471      0.00000
      6      29.5062      0.00000
      7      30.1092      0.00000
      8      31.3139      0.00000

 k-point    31 :       0.2500    0.2500    0.4167
  band No.  band energies     occupation 
      1       6.7649      2.00000
      2       8.3153      2.00000
      3      14.8313      2.00000
      4      15.1963      2.00000
      5      17.3117      2.00000
      6      17.7477      2.00000
      7      25.2145      0.00000
      8      29.3445      0.00000

 k-point    32 :       0.4167    0.2500    0.4167
  band No.  band energies     occupation 
      1       9.0287      2.00000
      2      10.2816      2.00000
      3      12.3234      2.00000
      4      13.3540      2.00000
      5      15.7826      2.00000
      6      16.9313      2.00000
      7      27.2459      0.00000
      8      29.7664      0.00000

 k-point    33 :      -0.4167    0.2500    0.4167
[...]

 k-point     2 :       0.2500    0.0833    0.0833
  band No.  band energies     occupation 
      1       1.7571      2.00000
      2       9.7851      2.00000
      3      12.9511      2.00000
      4      16.6687      2.00000
      5      21.5069      0.00000
      6      24.1247      0.00000
      7      27.0149      0.00000
      8      29.5822      0.00000

 k-point     3 :       0.4167    0.0833    0.0833
  band No.  band energies     occupation 
      1       6.0919      2.00000
      2       8.8540      2.00000
      3      14.1154      2.00000
      4      16.6921      2.00000
      5      17.4346      2.00000
      6      19.4594      0.00000
      7      22.7073      0.00000
      8      28.1417      0.00000

 k-point     4 :      -0.4167    0.0833    0.0833
  band No.  band energies     occupation 
      1       3.7057      2.00000
      2      11.1402      2.00000
      3      12.5509      2.00000
      4      15.6054      2.00000
      5      19.5708      0.00000
      6      21.2855      0.00000
      7      24.3519      0.00000
      8      28.6151      0.00000

 k-point     5 :      -0.2500    0.0833    0.0833
  band No.  band energies     occupation 
      1       0.2751      2.00000
      2       8.4266      2.00000
      3      11.8466      2.00000
      4      20.4364      0.00000
      5      23.1017      0.00000
      6      27.8344      0.00000
      7      29.7392      0.00000
      8      31.1673      0.00000

 k-point     6 :      -0.0833    0.0833    0.0833
  band No.  band energies     occupation 
      1      -1.2241      2.00000
      2       7.0346      2.00000
      3      10.5277      2.00000
      4      26.9095      0.00000
      5      28.7297      0.00000
      6      30.2502      0.00000
      7      32.5470      0.00000
      8      33.2737      0.00000

 k-point     7 :       0.2500    0.2500    0.0833
  band No.  band energies     occupation 
      1       5.1467      2.00000
      2      12.2278      2.00000
      3      13.4878      2.00000
      4      14.0688      2.00000
      5      17.5362      2.00000
      6      21.3555      0.00000
      7      22.3579      0.00000
      8      25.3058      0.00000

 k-point     8 :       0.4167    0.2500    0.0833
  band No.  band energies     occupation 
      1       7.5025      2.00000
      2      10.2248      2.00000
      3      12.7875      2.00000
      4      15.7247      2.00000
      5      17.9458      2.00000
      6      19.4158      0.00000
      7      21.8000      0.00000
      8      23.1676      0.00000

 k-point     9 :      -0.4167    0.2500    0.0833
  band No.  band energies     occupation 
      1       3.2217      2.00000
      2      11.0705      2.00000
      3      13.6054      2.00000
      4      15.5702      2.00000
      5      18.1428      2.00000
      6      22.6852      0.00000
      7      25.1795      0.00000
      8      26.8149      0.00000

 k-point    10 :      -0.2500    0.2500    0.0833
  band No.  band energies     occupation 
      1       0.7710      2.00000
      2       8.8839      2.00000
      3      12.2447      2.00000
      4      18.3297      1.98880
      5      24.9412      0.00000
      6      25.5438      0.00000
      7      26.9988      0.00000
      8      30.7147      0.00000

 k-point    11 :       0.4167    0.4167    0.0833
  band No.  band energies     occupation 
      1       7.8830      2.00000
      2       8.0379      2.00000
      3      15.0711      2.00000
      4      16.0745      2.00000
      5      16.5817      2.00000
      6      19.1251      0.00000
      7      21.9890      0.00000
      8      24.7746      0.00000

 k-point    12 :      -0.4167    0.4167    0.0833
  band No.  band energies     occupation 
      1       4.6671      2.00000
      2      10.0995      2.00000
      3      12.8625      2.00000
      4      16.3128      2.00000
      5      18.2937      1.99768
      6      21.2275      0.00000
      7      23.9561      0.00000
      8      27.7896      0.00000

 k-point    13 :       0.0833    0.0833    0.2500
  band No.  band energies     occupation 
      1      -0.1528      2.00000
      2       4.8581      2.00000
      3      14.5623      2.00000
      4      24.8145      0.00000
      5      25.5808      0.00000
      6      27.9376      0.00000
      7      29.8145      0.00000
      8      30.2232      0.00000

 k-point    14 :       0.2500    0.0833    0.2500
  band No.  band energies     occupation 
      1       2.3156      2.00000
      2       7.2152      2.00000
      3      15.7197      2.00000
      4      17.8085      2.00000
      5      20.7393      0.00000
      6      23.1978      0.00000
      7      26.7680      0.00000
      8      29.6765      0.00000

 k-point    15 :       0.4167    0.0833    0.2500
  band No.  band energies     occupation 
      1       6.6193      2.00000
      2       9.2284      2.00000
      3      11.8530      2.00000
      4      14.3699      2.00000
      5      19.8465      0.00000
      6      21.9217      0.00000
      7      24.4678      0.00000
      8      26.1796      0.00000

 k-point    16 :      -0.4167    0.0833    0.2500
  band No.  band energies     occupation 
      1       4.2541      2.00000
      2       8.9922      2.00000
      3      12.9482      2.00000
      4      17.3803      2.00000
      5      18.6682      0.02436
      6      22.1025      0.00000
      7      25.7676      0.00000
      8      27.5291      0.00000

 k-point    17 :      -0.2500    0.0833    0.2500
  band No.  band energies     occupation 
      1       0.8404      2.00000
      2       5.8098      2.00000
      3      15.3459      2.00000
      4      20.9249      0.00000
      5      23.3291      0.00000
      6      25.6913      0.00000
      7      27.8922      0.00000
      8      29.7946      0.00000

 k-point    18 :      -0.0833    0.0833    0.2500
  band No.  band energies     occupation 
      1      -0.6523      2.00000
      2       4.3788      2.00000
      3      14.1403      2.00000
      4      26.8409      0.00000
      5      28.1461      0.00000
      6      29.1588      0.00000
      7      30.3932      0.00000
      8      32.5765      0.00000

 k-point    19 :       0.2500    0.2500    0.2500
  band No.  band energies     occupation 
      1       5.6865      2.00000
      2      10.2794      2.00000
      3      13.9621      2.00000
      4      14.4971      2.00000
      5      18.4144      1.81923
      6      19.4524      0.00000
      7      22.0058      0.00000
      8      28.7617      0.00000

 k-point    20 :       0.4167    0.2500    0.2500
  band No.  band energies     occupation 
      1       8.0173      2.00000
      2      10.5687      2.00000
      3      12.5577      2.00000
      4      14.1539      2.00000
      5      16.2839      2.00000
      6      18.6690      0.02371
      7      23.5411      0.00000
      8      26.1594      0.00000

 k-point    21 :      -0.4167    0.2500    0.2500
  band No.  band energies     occupation 
      1       3.7731      2.00000
      2       8.5839      2.00000
      3      14.9984      2.00000
      4      17.1597      2.00000
      5      18.6893      0.01082
      6      21.1861      0.00000
      7      23.2957      0.00000
      8      29.7336      0.00000

 k-point    22 :      -0.2500    0.2500    0.2500
  band No.  band energies     occupation 
      1       1.3341      2.00000
      2       6.2814      2.00000
      3      15.6172      2.00000
      4      18.9604      0.00000
      5      22.8713      0.00000
      6      25.9988      0.00000
      7      27.4163      0.00000
      8      30.1251      0.00000

 k-point    23 :       0.4167    0.4167    0.2500
  band No.  band energies     occupation 
      1       8.3778      2.00000
      2       8.5259      2.00000
      3      13.3041      2.00000
      4      13.5220      2.00000
      5      17.2823      2.00000
      6      21.1608      0.00000
      7      24.0856      0.00000
      8      24.4717      0.00000

 k-point    24 :      -0.4167    0.4167    0.2500
  band No.  band energies     occupation 
      1       5.2088      2.00000
      2       9.5868      2.00000
      3      11.4974      2.00000
      4      15.7221      2.00000
      5      19.6938      0.00000
      6      24.0443      0.00000
      7      24.4100      0.00000
      8      28.5075      0.00000

 k-point    25 :       0.0833    0.0833    0.4167
  band No.  band energies     occupation 
      1       0.9789      2.00000
      2       2.6576      2.00000
      3      18.6262      0.09768
      4      22.9627      0.00000
      5      25.9308      0.00000
      6      26.1262      0.00000
      7      28.4158      0.00000
      8      28.6813      0.00000

 k-point    26 :       0.2500    0.0833    0.4167
  band No.  band energies     occupation 
      1       3.4247      2.00000
      2       5.0678      2.00000
      3      17.4112      2.00000
      4      18.9428      0.00000
      5      20.8967      0.00000
      6      23.3889      0.00000
      7      25.1563      0.00000
      8      26.9157      0.00000

 k-point    27 :       0.4167    0.0833    0.4167
  band No.  band energies     occupation 
      1       7.6434      2.00000
      2       8.9652      2.00000
      3      11.0978      2.00000
      4      12.3904      2.00000
      5      21.5817      0.00000
      6      23.0058      0.00000
      7      26.0436      0.00000
      8      27.9098      0.00000

 k-point    28 :      -0.4167    0.0833    0.4167
  band No.  band energies     occupation 
      1       5.3409      2.00000
      2       6.9416      2.00000
      3      13.9700      2.00000
      4      15.4887      2.00000
      5      21.4899      0.00000
      6      23.0728      0.00000
      7      24.9672      0.00000
      8      27.8697      0.00000

 k-point    29 :      -0.2500    0.0833    0.4167
  band No.  band energies     occupation 
      1       1.9633      2.00000
      2       3.6285      2.00000
      3      19.1845      0.00000
      4      21.7674      0.00000
      5      22.7717      0.00000
      6      23.6997      0.00000
      7      26.1516      0.00000
      8      27.1829      0.00000

 k-point    30 :      -0.0833    0.0833    0.4167
  band No.  band energies     occupation 
      1       0.4838      2.00000
      2       2.1691      2.00000
      3      18.2539      1.99969
      4      22.7390      0.00000
      5      28.3597      0.00000
      6      29.4265      0.00000
      7      30.0054      0.00000
      8      31.2212      0.00000

 k-point    31 :       0.2500    0.2500    0.4167
  band No.  band energies     occupation 
      1       6.7535      2.00000
      2       8.3150      2.00000
      3      14.8000      2.00000
      4      15.1591      2.00000
      5      17.2840      2.00000
      6      17.7055      2.00000
      7      25.3205      0.00000
      8      29.4888      0.00000

 k-point    32 :       0.4167    0.2500    0.4167
  band No.  band energies     occupation 
      1       9.0096      2.00000
      2      10.2694      2.00000
      3      12.2994      2.00000
      4      13.3365      2.00000
      5      15.7398      2.00000
      6      16.8966      2.00000
      7      27.3537      0.00000
      8      29.8719      0.00000

 k-point    33 :      -0.4167    0.2500    0.4167
  band No.  band energies     occupation 
      1       4.8668      2.00000
      2       6.4833      2.00000
      3      16.1004      2.00000
      4      17.3692      2.00000
      5      19.1997      0.00000
      6      20.5696      0.00000
      7      24.0432      0.00000
      8      27.8603      0.00000

 k-point    34 :      -0.2500    0.2500    0.4167
  band No.  band energies     occupation 
      1       2.4525      2.00000
      2       4.1106      2.00000
      3      18.7251      0.00225
      4      20.3126      0.00000
      5      21.3832      0.00000
      6      24.5755      0.00000
      7      26.9118      0.00000
      8      28.2875      0.00000

 k-point    35 :       0.4167    0.4167    0.4167
  band No.  band energies     occupation 
      1       9.2433      2.00000
      2       9.3403      2.00000
      3      11.6369      2.00000
      4      11.6479      2.00000
      5      18.3484      1.97690
      6      19.8192      0.00000
      7      27.4772      0.00000
      8      27.9666      0.00000

 k-point    36 :      -0.4167    0.4167    0.4167
  band No.  band energies     occupation 
      1       6.2779      2.00000
      2       7.8284      2.00000
      3      12.2205      2.00000
      4      13.7232      2.00000
      5      23.2207      0.00000
      6      25.3205      0.00000
      7      25.6968      0.00000
      8      26.6896      0.00000


--------------------------------------------------------------------------------------------------------


 soft charge-density along one line, spin component           1
         0         1         2         3         4         5         6         7         8         9
 total charge-density along one line
 
 pseudopotential strength for first ion, spin component:           1
 17.059  23.792  -0.000  -0.000   0.000  -0.000  -0.000   0.000
 23.792  33.185  -0.000  -0.000   0.000  -0.000  -0.000   0.000
 -0.000  -0.000   3.987  -0.000   0.000   7.418  -0.000   0.000
 -0.000  -0.000  -0.000   3.987  -0.000  -0.000   7.419  -0.000
  0.000   0.000   0.000  -0.000   3.987   0.000  -0.000   7.418
 -0.000  -0.000   7.418  -0.000   0.000  13.815  -0.000   0.000
 -0.000  -0.000  -0.000   7.419  -0.000  -0.000  13.816  -0.000
  0.000   0.000   0.000  -0.000   7.418   0.000  -0.000  13.815
 total augmentation occupancy for first ion, spin component:           1
 11.779  -6.090   0.000   0.000   0.000   0.000   0.000   0.000
 -6.090   3.470  -0.000   0.000  -0.000   0.000   0.000   0.000
  0.000   0.000   5.134   0.000  -0.000  -1.522   0.000   0.000
  0.000   0.000  -0.000   5.183   0.000   0.000  -1.535  -0.000
  0.000  -0.000  -0.000   0.000   5.134  -0.000  -0.000  -1.522
  0.000   0.000  -1.522   0.000  -0.000   0.478   0.000   0.000
  0.000   0.000   0.000  -1.535  -0.000   0.000   0.482   0.000
  0.000   0.000   0.000  -0.000  -1.522   0.000   0.000   0.478


------------------------ aborting loop because EDIFF is reached ----------------------------------------


    CHARGE:  cpu time    0.0220: real time    0.0157
    FORLOC:  cpu time    0.0010: real time    0.0004
    FORNL :  cpu time    0.0280: real time    0.0194
    STRESS:  cpu time    0.2070: real time    0.1383
    FORCOR:  cpu time    0.0320: real time    0.0185
    FORHAR:  cpu time    0.0120: real time    0.0079
    MIXING:  cpu time    0.0010: real time    0.0008
    OFIELD:  cpu time    0.0000: real time    0.0000

  FORCE on cell =-STRESS in cart. coord.  units (eV):
  Direction    XX          YY          ZZ          XY          YZ          ZX
  --------------------------------------------------------------------------------------
  Alpha Z     7.82559     7.82559     7.82559
  Ewald    -108.61357  -108.61357  -107.51531    -0.00000    -0.00000     0.00000
  Hartree     0.25033     0.25033     0.26090    -0.00000    -0.00000    -0.00000
  E(xc)     -29.84183   -29.84183   -29.89784    -0.00000     0.00000     0.00000
  Local      -3.60067    -3.60068    -4.85055    -0.00001    -0.00000     0.00000
  n-local    78.73126    86.95228    84.09187    -2.33234     0.39873    -1.00679
  augment   -11.89488   -11.89487   -11.92358     0.00001     0.00000    -0.00000
  Kinetic    98.73659    58.39248    77.54779    13.27489     0.25765     0.52336
  Fock        0.00000     0.00000     0.00000     0.00000     0.00000     0.00000
  -------------------------------------------------------------------------------------
  Total      15.53127    15.53127    15.53888     0.00000    -0.00000     0.00000
  in kB    1446.17157  1446.17157  1446.88052     0.00000    -0.00000     0.00000
  external pressure =     1446.41 kB  Pullay stress =        0.00 kB


 VOLUME and BASIS-vectors are now :
 -----------------------------------------------------------------------------
  energy-cutoff  :      450.00
  volume of cell :       17.21
      direct lattice vectors                 reciprocal lattice vectors
     2.304977299  0.000000000  0.000000000     0.433843752  0.250479807 -0.000000000
    -1.152488649  1.996168896 -0.000000000     0.000000000  0.500959614  0.000000000
     0.000000000  0.000000000  3.739673857    -0.000000000  0.000000000  0.267402998

  length of vectors
     2.304977299  2.304977299  3.739673857     0.500959614  0.500959614  0.267402998


 FORCES acting on ions
    electron-ion (+dipol)            ewald-force                    non-local-force                 convergence-correction
 -----------------------------------------------------------------------------------------------
   -.230E-08 0.133E-08 0.134E-13   -.120E-12 0.262E-12 -.575E-14   -.251E-16 0.520E-17 0.000E+00   0.187E-08 -.108E-08 -.534E-15
   -.363E-07 0.209E-07 -.665E-13   0.117E-12 -.263E-12 0.576E-14   0.217E-16 -.347E-17 0.000E+00   -.187E-08 0.108E-08 0.535E-15
 -----------------------------------------------------------------------------------------------
   -.386E-07 0.223E-07 -.530E-13   -.222E-14 -.840E-15 0.522E-17   -.347E-17 0.173E-17 0.000E+00   0.251E-11 -.145E-11 0.992E-18
 
 
 POSITION                                       TOTAL-FORCE (eV/Angst)
 -----------------------------------------------------------------------------------
     -0.00000     -0.00000     -0.00000         0.000000     -0.000000     -0.000000
     -0.00000      1.33078      1.86984        -0.000000      0.000000      0.000000
 -----------------------------------------------------------------------------------
    total drift:                               -0.000000      0.000000     -0.000000


--------------------------------------------------------------------------------------------------------



  FREE ENERGIE OF THE ION-ELECTRON SYSTEM (eV)
  ---------------------------------------------------
  free  energy   TOTEN  =        -6.60957096 eV

  energy  without entropy=       -6.60832790  energy(sigma->0) =       -6.60894943
 
 d Force = 0.0000000E+00[ 0.000E+00, 0.000E+00]  d Energy = 0.1255323E-04-0.126E-04
 d Force = 0.0000000E+00[ 0.000E+00, 0.000E+00]  d Ewald  =-0.6380603E-03 0.638E-03


--------------------------------------------------------------------------------------------------------


    POTLOK:  cpu time    0.0390: real time    0.0240


--------------------------------------------------------------------------------------------------------




--------------------------------------------------------------------------------------------------------


  
 reached required accuracy - stopping structural energy minimisation
 writing wavefunctions
     LOOP+:  cpu time    3.3895: real time    2.3002
    4ORBIT:  cpu time    0.0000: real time    0.0000

 total amount of memory used by VASP on root node    32881. kBytes
========================================================================

   base      :      30000. kBytes
   nonl-proj :        897. kBytes
   fftplans  :        523. kBytes
   grid      :        995. kBytes
   one-center:          6. kBytes
   wavefun   :        460. kBytes
 
  
  
 General timing and accounting informations for this job:
 ========================================================
  
                  Total CPU time used (sec):       45.849
                            User time (sec):       41.370
                          System time (sec):        4.479
                         Elapsed time (sec):       29.573
  
                   Maximum memory used (kb):       34788.
                   Average memory used (kb):           0.
  
                          Minor page faults:        36770
                          Major page faults:            5
                 Voluntary context switches:          875
