 running on    4 total cores
 distrk:  each k-point on    4 cores,    1 groups
 distr:  one band on    1 cores,    4 groups
 using from now: INCAR     
 vasp.5.4.1 24Jun15 (build Jul 19 2016 16:50:41) complex                        
  
 POSCAR found :  1 types and       2 ions
 LDA part: xc-table for Pade appr. of Perdew
 POSCAR, INCAR and KPOINTS ok, starting setup
 WARNING: small aliasing (wrap around) errors must be expected
 FFT: planning ...
 WAVECAR not read
 entering main loop
       N       E                     dE             d eps       ncg     rms          rms(c)
DAV:   1     0.873552357541E+01    0.87355E+01   -0.37909E+03   600   0.761E+02
DAV:   2    -0.654877548731E+01   -0.15284E+02   -0.14620E+02   840   0.877E+01
DAV:   3    -0.674283321897E+01   -0.19406E+00   -0.19242E+00   760   0.108E+01
DAV:   4    -0.674307491181E+01   -0.24169E-03   -0.24169E-03   904   0.361E-01
DAV:   5    -0.674307497772E+01   -0.65907E-07   -0.65602E-07   768   0.361E-03    0.102E+01
DAV:   6    -0.665976048923E+01    0.83314E-01   -0.56356E-03   688   0.610E-01    0.579E+00
DAV:   7    -0.660958261955E+01    0.50178E-01   -0.13070E-02   600   0.938E-01    0.307E-01
DAV:   8    -0.660914416057E+01    0.43846E-03   -0.13411E-04   920   0.111E-01    0.779E-02
DAV:   9    -0.660913247756E+01    0.11683E-04   -0.61439E-06   520   0.208E-02    0.192E-03
DAV:  10    -0.660913220067E+01    0.27689E-06   -0.20938E-07   384   0.421E-03
   1 F= -.66091322E+01 E0= -.66074227E+01  d E =-.660913E+01
 curvature:   0.00 expect dE= 0.000E+00 dE for cont linesearch  0.000E+00
 trial: gam= 0.00000 g(F)=  0.261E-48 g(S)=  0.177E-04 ort = 0.000E+00 (trialstep = 0.100E+01)
 search vector abs. value=  0.177E-04
 bond charge predicted
       N       E                     dE             d eps       ncg     rms          rms(c)
DAV:   1    -0.660917029119E+01   -0.37814E-04   -0.39611E-04   840   0.125E-01    0.131E-02
DAV:   2    -0.660916701365E+01    0.32775E-05   -0.51682E-06   456   0.204E-02
   2 F= -.66091670E+01 E0= -.66076044E+01  d E =-.348130E-04
 ZBRENT: can't locate minimum, use default step
 trial-energy change:   -0.000035  1 .order   -0.000035   -0.000018   -0.000053
 step:   4.0000(harm=  4.0000)  dis= 0.00000  next Energy=    -6.609488 (dE=-0.355E-03)
 bond charge predicted
       N       E                     dE             d eps       ncg     rms          rms(c)
DAV:   1    -0.660942187694E+01   -0.25159E-03   -0.34018E-03   856   0.367E-01    0.388E-02
DAV:   2    -0.660939376704E+01    0.28110E-04   -0.45286E-05   616   0.595E-02    0.205E-02
DAV:   3    -0.660938167751E+01    0.12090E-04   -0.28825E-05   616   0.338E-02    0.141E-03
DAV:   4    -0.660938178302E+01   -0.10551E-06   -0.82608E-07   296   0.923E-03
   3 F= -.66093818E+01 E0= -.66083109E+01  d E =-.249582E-03
 curvature:  -1.99 expect dE=-0.726E-03 dE for cont linesearch -0.726E-03
 ZBRENT: increasing intervall
 opt :  10.0000  next Energy=    -6.610025 (dE=-0.893E-03)
 bond charge predicted
       N       E                     dE             d eps       ncg     rms          rms(c)
DAV:   1    -0.660963087553E+01   -0.24920E-03   -0.14083E-02   840   0.748E-01    0.753E-02
DAV:   2    -0.660952832683E+01    0.10255E-03   -0.18282E-04   616   0.121E-01    0.396E-02
DAV:   3    -0.660948320895E+01    0.45118E-04   -0.10756E-04   848   0.651E-02    0.272E-03
DAV:   4    -0.660948346269E+01   -0.25374E-06   -0.22366E-06   312   0.151E-02
   4 F= -.66094835E+01 E0= -.66089471E+01  d E =-.351262E-03
 curvature:  -1.77 expect dE=-0.688E-03 dE for cont linesearch -0.688E-03
 ZBRENT: bracketing found
 ZBRENT: interpolating
 opt :   6.9494  next Energy=    -6.609500 (dE=-0.368E-03)
 bond charge predicted
       N       E                     dE             d eps       ncg     rms          rms(c)
DAV:   1    -0.660959694881E+01   -0.11374E-03   -0.36250E-03   840   0.379E-01    0.384E-02
DAV:   2    -0.660957015553E+01    0.26793E-04   -0.47707E-05   608   0.616E-02    0.202E-02
DAV:   3    -0.660955832691E+01    0.11829E-04   -0.27942E-05   600   0.334E-02    0.127E-03
DAV:   4    -0.660955840343E+01   -0.76526E-07   -0.86563E-07   296   0.941E-03
   5 F= -.66095584E+01 E0= -.66088510E+01  d E =-.426203E-03
 curvature:  -0.30 expect dE=-0.129E-04 dE for cont linesearch -0.129E-04
 ZBRENT: interpolating
 opt :   8.1019  next Energy=    -6.609578 (dE=-0.446E-03)
 bond charge predicted
       N       E                     dE             d eps       ncg     rms          rms(c)
DAV:   1    -0.660957484243E+01   -0.16516E-04   -0.51970E-04   832   0.144E-01    0.147E-02
DAV:   2    -0.660957095666E+01    0.38858E-05   -0.67836E-06   504   0.234E-02
   6 F= -.66095710E+01 E0= -.66089494E+01  d E =-.438756E-03
 curvature:  -0.46 expect dE=-0.432E-06 dE for cont linesearch -0.432E-06
 trial: gam= 0.00000 g(F)=  0.761E-48 g(S)=  0.932E-06 ort =-0.406E-05 (trialstep = 0.242E+01)
 search vector abs. value=  0.932E-06
 reached required accuracy - stopping structural energy minimisation
 writing wavefunctions
