<?xml version="1.0" encoding="ISO-8859-1"?>
<modeling>
 <generator>
  <i name="program" type="string">vasp </i>
  <i name="version" type="string">5.4.1  </i>
  <i name="subversion" type="string">24Jun15 (build Jul 19 2016 16:50:41) complex                          parallel </i>
  <i name="platform" type="string">IFC91_ompi </i>
  <i name="date" type="string">2019 10 10 </i>
  <i name="time" type="string">11:10:27 </i>
 </generator>
 <incar>
  <i type="string" name="SYSTEM"> Si beta-tin</i>
  <i type="string" name="PREC">accurate</i>
  <i type="int" name="IBRION">     2</i>
  <i name="EDIFF">      0.00001000</i>
  <i name="EDIFFG">     -0.01000000</i>
  <i type="int" name="NSW">   100</i>
  <i type="int" name="ISIF">     4</i>
  <i name="ENMAX">    450.00000000</i>
  <i type="int" name="ISMEAR">     0</i>
  <i name="SIGMA">      0.10000000</i>
  <v type="int" name="KPOINT_BSE">    -1     0     0     0</v>
 </incar>
 <kpoints>
  <generation param="Monkhorst-Pack">
   <v type="int" name="divisions">       6        6        6 </v>
   <v name="usershift">      0.00000000       0.00000000       0.00000000 </v>
   <v name="genvec1">      0.16666667       0.00000000       0.00000000 </v>
   <v name="genvec2">      0.00000000       0.16666667       0.00000000 </v>
   <v name="genvec3">      0.00000000       0.00000000       0.16666667 </v>
   <v name="shift">      0.50000000       0.50000000       0.50000000 </v>
  </generation>
  <varray name="kpointlist" >
   <v>       0.08333333       0.08333333       0.08333333 </v>
   <v>       0.25000000       0.08333333       0.08333333 </v>
   <v>       0.41666667       0.08333333       0.08333333 </v>
   <v>      -0.41666667       0.08333333       0.08333333 </v>
   <v>      -0.25000000       0.08333333       0.08333333 </v>
   <v>      -0.08333333       0.08333333       0.08333333 </v>
   <v>       0.25000000       0.25000000       0.08333333 </v>
   <v>       0.41666667       0.25000000       0.08333333 </v>
   <v>      -0.41666667       0.25000000       0.08333333 </v>
   <v>      -0.25000000       0.25000000       0.08333333 </v>
   <v>       0.41666667       0.41666667       0.08333333 </v>
   <v>      -0.41666667       0.41666667       0.08333333 </v>
   <v>       0.08333333       0.08333333       0.25000000 </v>
   <v>       0.25000000       0.08333333       0.25000000 </v>
   <v>       0.41666667       0.08333333       0.25000000 </v>
   <v>      -0.41666667       0.08333333       0.25000000 </v>
   <v>      -0.25000000       0.08333333       0.25000000 </v>
   <v>      -0.08333333       0.08333333       0.25000000 </v>
   <v>       0.25000000       0.25000000       0.25000000 </v>
   <v>       0.41666667       0.25000000       0.25000000 </v>
   <v>      -0.41666667       0.25000000       0.25000000 </v>
   <v>      -0.25000000       0.25000000       0.25000000 </v>
   <v>       0.41666667       0.41666667       0.25000000 </v>
   <v>      -0.41666667       0.41666667       0.25000000 </v>
   <v>       0.08333333       0.08333333       0.41666667 </v>
   <v>       0.25000000       0.08333333       0.41666667 </v>
   <v>       0.41666667       0.08333333       0.41666667 </v>
   <v>      -0.41666667       0.08333333       0.41666667 </v>
   <v>      -0.25000000       0.08333333       0.41666667 </v>
   <v>      -0.08333333       0.08333333       0.41666667 </v>
   <v>       0.25000000       0.25000000       0.41666667 </v>
   <v>       0.41666667       0.25000000       0.41666667 </v>
   <v>      -0.41666667       0.25000000       0.41666667 </v>
   <v>      -0.25000000       0.25000000       0.41666667 </v>
   <v>       0.41666667       0.41666667       0.41666667 </v>
   <v>      -0.41666667       0.41666667       0.41666667 </v>
  </varray>
  <varray name="weights" >
   <v>       0.01851852 </v>
   <v>       0.03703704 </v>
   <v>       0.03703704 </v>
   <v>       0.03703704 </v>
   <v>       0.03703704 </v>
   <v>       0.01851852 </v>
   <v>       0.01851852 </v>
   <v>       0.03703704 </v>
   <v>       0.03703704 </v>
   <v>       0.01851852 </v>
   <v>       0.01851852 </v>
   <v>       0.01851852 </v>
   <v>       0.01851852 </v>
   <v>       0.03703704 </v>
   <v>       0.03703704 </v>
   <v>       0.03703704 </v>
   <v>       0.03703704 </v>
   <v>       0.01851852 </v>
   <v>       0.01851852 </v>
   <v>       0.03703704 </v>
   <v>       0.03703704 </v>
   <v>       0.01851852 </v>
   <v>       0.01851852 </v>
   <v>       0.01851852 </v>
   <v>       0.01851852 </v>
   <v>       0.03703704 </v>
   <v>       0.03703704 </v>
   <v>       0.03703704 </v>
   <v>       0.03703704 </v>
   <v>       0.01851852 </v>
   <v>       0.01851852 </v>
   <v>       0.03703704 </v>
   <v>       0.03703704 </v>
   <v>       0.01851852 </v>
   <v>       0.01851852 </v>
   <v>       0.01851852 </v>
  </varray>
 </kpoints>
 <parameters>
  <separator name="general" >
   <i type="string" name="SYSTEM">Si beta-tin</i>
   <i type="logical" name="LCOMPAT"> F  </i>
  </separator>
  <separator name="electronic" >
   <i type="string" name="PREC">accura</i>
   <i name="ENMAX">    450.00000000</i>
   <i name="ENAUG">    322.06900000</i>
   <i name="EDIFF">      0.00001000</i>
   <i type="int" name="IALGO">    38</i>
   <i type="int" name="IWAVPR">    11</i>
   <i type="int" name="NBANDS">     8</i>
   <i name="NELECT">      8.00000000</i>
   <i type="int" name="TURBO">     0</i>
   <i type="int" name="IRESTART">     0</i>
   <i type="int" name="NREBOOT">     0</i>
   <i type="int" name="NMIN">     0</i>
   <i name="EREF">      0.00000000</i>
   <separator name="electronic smearing" >
    <i type="int" name="ISMEAR">     0</i>
    <i name="SIGMA">      0.10000000</i>
    <i name="KSPACING">      0.50000000</i>
    <i type="logical" name="KGAMMA"> T  </i>
   </separator>
   <separator name="electronic projectors" >
    <i type="logical" name="LREAL"> F  </i>
    <v name="ROPT">      0.00000000</v>
    <i type="int" name="LMAXPAW">  -100</i>
    <i type="int" name="LMAXMIX">     2</i>
    <i type="logical" name="NLSPLINE"> F  </i>
   </separator>
   <separator name="electronic startup" >
    <i type="int" name="ISTART">     0</i>
    <i type="int" name="ICHARG">     2</i>
    <i type="int" name="INIWAV">     1</i>
   </separator>
   <separator name="electronic spin" >
    <i type="int" name="ISPIN">     1</i>
    <i type="logical" name="LNONCOLLINEAR"> F  </i>
    <v name="MAGMOM">      1.00000000      1.00000000</v>
    <i name="NUPDOWN">     -1.00000000</i>
    <i type="logical" name="LSORBIT"> F  </i>
    <v name="SAXIS">      0.00000000      0.00000000      1.00000000</v>
    <i type="logical" name="LSPIRAL"> F  </i>
    <v name="QSPIRAL">      0.00000000      0.00000000      0.00000000</v>
    <i type="logical" name="LZEROZ"> F  </i>
   </separator>
   <separator name="electronic exchange-correlation" >
    <i type="logical" name="LASPH"> F  </i>
    <i type="logical" name="LMETAGGA"> F  </i>
   </separator>
   <separator name="electronic convergence" >
    <i type="int" name="NELM">    60</i>
    <i type="int" name="NELMDL">    -5</i>
    <i type="int" name="NELMIN">     2</i>
    <i name="ENINI">    450.00000000</i>
    <separator name="electronic convergence detail" >
     <i type="logical" name="LDIAG"> T  </i>
     <i type="logical" name="LSUBROT"> F  </i>
     <i name="WEIMIN">      0.00100000</i>
     <i name="EBREAK">      0.00000031</i>
     <i name="DEPER">      0.30000000</i>
     <i type="int" name="NRMM">     4</i>
     <i name="TIME">      0.40000000</i>
    </separator>
   </separator>
   <separator name="electronic mixer" >
    <i name="AMIX">      0.40000000</i>
    <i name="BMIX">      1.00000000</i>
    <i name="AMIN">      0.10000000</i>
    <i name="AMIX_MAG">      1.60000000</i>
    <i name="BMIX_MAG">      1.00000000</i>
    <separator name="electronic mixer details" >
     <i type="int" name="IMIX">     4</i>
     <i type="logical" name="MIXFIRST"> F  </i>
     <i type="int" name="MAXMIX">   -45</i>
     <i name="WC">    100.00000000</i>
     <i type="int" name="INIMIX">     1</i>
     <i type="int" name="MIXPRE">     1</i>
     <i type="int" name="MREMOVE">     5</i>
    </separator>
   </separator>
   <separator name="electronic dipolcorrection" >
    <i type="logical" name="LDIPOL"> F  </i>
    <i type="logical" name="LMONO"> F  </i>
    <i type="int" name="IDIPOL">     0</i>
    <i name="EPSILON">      1.00000000</i>
    <v name="DIPOL">   -100.00000000   -100.00000000   -100.00000000</v>
    <i name="EFIELD">      0.00000000</i>
   </separator>
  </separator>
  <separator name="grids" >
   <i type="int" name="NGX">    16</i>
   <i type="int" name="NGY">    16</i>
   <i type="int" name="NGZ">    28</i>
   <i type="int" name="NGXF">    32</i>
   <i type="int" name="NGYF">    32</i>
   <i type="int" name="NGZF">    56</i>
   <i type="logical" name="ADDGRID"> F  </i>
  </separator>
  <separator name="ionic" >
   <i type="int" name="NSW">   100</i>
   <i type="int" name="IBRION">     2</i>
   <i type="int" name="ISIF">     4</i>
   <i name="PSTRESS">      0.00000000</i>
   <i name="EDIFFG">     -0.01000000</i>
   <i type="int" name="NFREE">     1</i>
   <i name="POTIM">      0.50000000</i>
   <i name="SMASS">     -3.00000000</i>
   <i name="SCALEE">      1.00000000</i>
  </separator>
  <separator name="ionic md" >
   <i name="TEBEG">      0.00010000</i>
   <i name="TEEND">      0.00010000</i>
   <i type="int" name="NBLOCK">     1</i>
   <i type="int" name="KBLOCK">   100</i>
   <i type="int" name="NPACO">   256</i>
   <i name="APACO">     16.00000000</i>
  </separator>
  <separator name="symmetry" >
   <i type="int" name="ISYM">     2</i>
   <i name="SYMPREC">      0.00001000</i>
  </separator>
  <separator name="dos" >
   <i type="logical" name="LORBIT"> F  </i>
   <v name="RWIGS">     -1.00000000</v>
   <i type="int" name="NEDOS">   301</i>
   <i name="EMIN">     10.00000000</i>
   <i name="EMAX">    -10.00000000</i>
   <i name="EFERMI">      0.00000000</i>
  </separator>
  <separator name="writing" >
   <i type="int" name="NWRITE">     2</i>
   <i type="logical" name="LWAVE"> T  </i>
   <i type="logical" name="LCHARG"> T  </i>
   <i type="logical" name="LPARD"> F  </i>
   <i type="logical" name="LVTOT"> F  </i>
   <i type="logical" name="LVHAR"> F  </i>
   <i type="logical" name="LELF"> F  </i>
   <i type="logical" name="LOPTICS"> F  </i>
   <v name="STM">      0.00000000      0.00000000      0.00000000      0.00000000      0.00000000      0.00000000      0.00000000</v>
  </separator>
  <separator name="performance" >
   <i type="int" name="NPAR">     4</i>
   <i type="int" name="NSIM">     4</i>
   <i type="int" name="NBLK">    -1</i>
   <i type="logical" name="LPLANE"> T  </i>
   <i type="logical" name="LSCALAPACK"> F  </i>
   <i type="logical" name="LSCAAWARE"> F  </i>
   <i type="logical" name="LSCALU"> F  </i>
   <i type="logical" name="LASYNC"> F  </i>
   <i type="logical" name="LORBITALREAL"> F  </i>
  </separator>
  <separator name="miscellaneous" >
   <i type="int" name="IDIOT">     3</i>
   <i type="logical" name="LMUSIC"> F  </i>
   <v name="POMASS">     28.08500000</v>
   <v name="DARWINR">      0.00000000</v>
   <v name="DARWINV">      1.00000000</v>
   <i type="logical" name="LCORR"> T  </i>
  </separator>
  <i type="logical" name="GGA_COMPAT"> T  </i>
  <i type="logical" name="LBERRY"> F  </i>
  <i type="int" name="ICORELEVEL">     0</i>
  <i type="logical" name="LDAU"> F  </i>
  <i type="int" name="I_CONSTRAINED_M">     0</i>
  <separator name="electronic exchange-correlation" >
   <i type="string" name="GGA">--</i>
   <i type="int" name="VOSKOWN">     0</i>
   <i type="logical" name="LHFCALC"> F  </i>
   <i type="string" name="PRECFOCK"></i>
   <i type="logical" name="LSYMGRAD"> F  </i>
   <i type="logical" name="LHFONE"> F  </i>
   <i type="logical" name="LRHFCALC"> F  </i>
   <i type="logical" name="LTHOMAS"> F  </i>
   <i type="logical" name="LMODELHF"> F  </i>
   <i name="ENCUT4O">     -1.00000000</i>
   <i type="int" name="EXXOEP">     0</i>
   <i type="int" name="FOURORBIT">     0</i>
   <i name="AEXX">      0.00000000</i>
   <i name="HFALPHA">      0.00000000</i>
   <i name="MCALPHA">      0.00000000</i>
   <i name="ALDAX">      1.00000000</i>
   <i name="AGGAX">      1.00000000</i>
   <i name="ALDAC">      1.00000000</i>
   <i name="AGGAC">      1.00000000</i>
   <i type="int" name="NKREDX">     1</i>
   <i type="int" name="NKREDY">     1</i>
   <i type="int" name="NKREDZ">     1</i>
   <i type="logical" name="SHIFTRED"> F  </i>
   <i type="logical" name="ODDONLY"> F  </i>
   <i type="logical" name="EVENONLY"> F  </i>
   <i type="int" name="LMAXFOCK">     0</i>
   <i type="int" name="NMAXFOCKAE">     0</i>
   <i type="logical" name="LFOCKAEDFT"> F  </i>
   <i name="HFSCREEN">      0.00000000</i>
   <i name="HFSCREENC">      0.00000000</i>
   <i type="int" name="NBANDSGWLOW">     0</i>
  </separator>
  <separator name="vdW DFT" >
   <i type="logical" name="LUSE_VDW"> F  </i>
   <i name="Zab_VDW">     -0.84910000</i>
   <i name="PARAM1">      0.12340000</i>
   <i name="PARAM2">      1.00000000</i>
   <i name="PARAM3">      0.00000000</i>
  </separator>
  <separator name="model GW" >
   <i type="int" name="MODEL_GW">     0</i>
   <i name="MODEL_EPS0">      5.16201093</i>
   <i name="MODEL_ALPHA">      1.00000000</i>
  </separator>
  <separator name="linear response parameters" >
   <i type="logical" name="LEPSILON"> F  </i>
   <i type="logical" name="LRPA"> F  </i>
   <i type="logical" name="LNABLA"> F  </i>
   <i type="logical" name="LVEL"> F  </i>
   <i type="int" name="KINTER">     0</i>
   <i name="CSHIFT">      0.10000000</i>
   <i name="OMEGAMAX">     -1.00000000</i>
   <i name="DEG_THRESHOLD">      0.00200000</i>
  </separator>
  <separator name="orbital magnetization" >
   <i type="logical" name="NUCIND"> F  </i>
   <v name="MAGPOS">      0.00000000      0.00000000      0.00000000</v>
   <i type="logical" name="LNICSALL"> T  </i>
   <i type="logical" name="ORBITALMAG"> F  </i>
   <i type="logical" name="LMAGBLOCH"> F  </i>
   <i type="logical" name="LCHIMAG"> F  </i>
   <i type="logical" name="LGAUGE"> T  </i>
   <i type="int" name="MAGATOM">     0</i>
   <v name="MAGDIPOL">      0.00000000      0.00000000      0.00000000</v>
   <v name="AVECCONST">      0.00000000      0.00000000      0.00000000</v>
  </separator>
  <separator name="response functions" >
   <i type="logical" name="LADDER"> F  </i>
   <i type="logical" name="LFXC"> F  </i>
   <i type="logical" name="LHARTREE"> T  </i>
   <i type="int" name="IBSE">     0</i>
   <v type="int" name="KPOINT">    -1     0     0     0</v>
   <i type="logical" name="LTCTE"> F  </i>
   <i type="logical" name="LTETE"> F  </i>
   <i type="logical" name="LTRIPLET"> F  </i>
   <i type="logical" name="LFXCEPS"> F  </i>
   <i type="logical" name="LFXHEG"> F  </i>
   <i type="int" name="NATURALO">     0</i>
   <i type="logical" name="L2ORDER"> F  </i>
   <i type="logical" name="LUSEW"> F  </i>
   <i name="ENCUTGW">     -2.00000000</i>
   <i name="ENCUTGWSOFT">     -2.00000000</i>
   <i name="ENCUTLF">     -1.00000000</i>
   <i type="int" name="LMAXMP2">    -1</i>
   <i name="SCISSOR">      0.00000000</i>
   <i type="int" name="NOMEGA">     0</i>
   <i type="int" name="NOMEGAR">     0</i>
   <i type="int" name="NBANDSGW">    -1</i>
   <i type="int" name="NBANDSO">    -1</i>
   <i type="int" name="NBANDSV">    -1</i>
   <i type="int" name="NELM">     1</i>
   <i type="int" name="NELMHF">     1</i>
   <i type="int" name="DIM">     3</i>
   <i type="int" name="ANTIRES">     0</i>
   <i name="OMEGAMAX">    -30.00000000</i>
   <i name="OMEGAMIN">    -30.00000000</i>
   <i name="OMEGATL">   -200.00000000</i>
   <i type="int" name="OMEGAGRID">     0</i>
   <i name="CSHIFT">     -0.10000000</i>
   <i type="logical" name="SELFENERGY"> F  </i>
   <i type="logical" name="LSPECTRAL"> F  </i>
   <i type="logical" name="LSPECTRALGW"> F  </i>
   <i type="logical" name="LSINGLES"> F  </i>
   <i type="logical" name="LFERMIGW"> F  </i>
   <i type="logical" name="ODDONLYGW"> F  </i>
   <i type="logical" name="EVENONLYGW"> F  </i>
   <i type="int" name="NKREDLFX">     1</i>
   <i type="int" name="NKREDLFY">     1</i>
   <i type="int" name="NKREDLFZ">     1</i>
   <i type="int" name="MAXMEM">  1800</i>
   <i type="int" name="TELESCOPE">     0</i>
   <i type="int" name="TAUPAR">     1</i>
   <i type="int" name="OMEGAPAR">    -1</i>
   <i name="LAMBDA">      1.00000000</i>
  </separator>
  <separator name="External order field" >
   <i name="OFIELD_KAPPA">      0.00000000</i>
   <v name="OFIELD_K">      0.00000000      0.00000000      0.00000000</v>
   <i name="OFIELD_Q6_NEAR">      0.00000000</i>
   <i name="OFIELD_Q6_FAR">      0.00000000</i>
   <i name="OFIELD_A">      0.00000000</i>
  </separator>
 </parameters>
 <atominfo>
  <atoms>       2 </atoms>
  <types>       1 </types>
  <array name="atoms" >
   <dimension dim="1">ion</dimension>
   <field type="string">element</field>
   <field type="int">atomtype</field>
   <set>
    <rc><c> S</c><c>   1</c></rc>
    <rc><c> S</c><c>   1</c></rc>
   </set>
  </array>
  <array name="atomtypes" >
   <dimension dim="1">type</dimension>
   <field type="int">atomspertype</field>
   <field type="string">element</field>
   <field>mass</field>
   <field>valence</field>
   <field type="string">pseudopotential</field>
   <set>
    <rc><c>   2</c><c> S</c><c>     28.08500000</c><c>      4.00000000</c><c>  PAW_PBE Si 05Jan2001                  </c></rc>
   </set>
  </array>
 </atominfo>
 <structure name="initialpos" >
  <crystal>
   <varray name="basis" >
    <v>       2.30000000       0.00000000       0.00000000 </v>
    <v>      -1.15000000       1.99185843       0.00000000 </v>
    <v>       0.00000000       0.00000000       3.75587700 </v>
   </varray>
   <i name="volume">     17.20670310 </i>
   <varray name="rec_basis" >
    <v>       0.43478261       0.25102186       0.00000000 </v>
    <v>       0.00000000       0.50204371       0.00000000 </v>
    <v>       0.00000000       0.00000000       0.26624940 </v>
   </varray>
  </crystal>
  <varray name="positions" >
   <v>       0.00000000       0.00000000       0.00000000 </v>
   <v>       0.33333333       0.66666667       0.50000000 </v>
  </varray>
 </structure>
 <calculation>
  <scstep>
   <time name="dav">    1.36    0.84</time>
   <time name="total">    1.40    0.87</time>
   <energy>
    <i name="alphaZ">      7.82558532 </i>
    <i name="ewald">   -324.74508008 </i>
    <i name="hartreedc">     -0.32294769 </i>
    <i name="XCdc">    -14.50301548 </i>
    <i name="pawpsdc">    176.24759923 </i>
    <i name="pawaedc">   -141.06103558 </i>
    <i name="eentropy">     -0.00408648 </i>
    <i name="bandstr">     99.16657686 </i>
    <i name="atom">    206.13192747 </i>
    <i name="e_fr_energy">      8.73552358 </i>
    <i name="e_wo_entrp">      8.73961005 </i>
    <i name="e_0_energy">      8.73756681 </i>
   </energy>
  </scstep>
  <scstep>
   <time name="dav">    1.73    1.05</time>
   <time name="total">    1.73    1.05</time>
   <energy>
    <i name="e_fr_energy">     -6.54877549 </i>
    <i name="e_wo_entrp">     -6.54517436 </i>
    <i name="e_0_energy">     -6.54697492 </i>
   </energy>
  </scstep>
  <scstep>
   <time name="dav">    1.61    1.13</time>
   <time name="total">    1.62    1.14</time>
   <energy>
    <i name="e_fr_energy">     -6.74283322 </i>
    <i name="e_wo_entrp">     -6.73918728 </i>
    <i name="e_0_energy">     -6.74101025 </i>
   </energy>
  </scstep>
  <scstep>
   <time name="dav">    1.50    1.08</time>
   <time name="total">    1.51    1.08</time>
   <energy>
    <i name="e_fr_energy">     -6.74307491 </i>
    <i name="e_wo_entrp">     -6.73942975 </i>
    <i name="e_0_energy">     -6.74125233 </i>
   </energy>
  </scstep>
  <scstep>
   <time name="dav">    1.86    1.22</time>
   <time name="total">    1.88    1.23</time>
   <energy>
    <i name="e_fr_energy">     -6.74307498 </i>
    <i name="e_wo_entrp">     -6.73942981 </i>
    <i name="e_0_energy">     -6.74125239 </i>
   </energy>
  </scstep>
  <scstep>
   <time name="dav">    1.46    0.91</time>
   <time name="total">    1.53    0.95</time>
   <energy>
    <i name="e_fr_energy">     -6.65976049 </i>
    <i name="e_wo_entrp">     -6.65621035 </i>
    <i name="e_0_energy">     -6.65798542 </i>
   </energy>
  </scstep>
  <scstep>
   <time name="dav">    1.55    0.92</time>
   <time name="total">    1.62    0.96</time>
   <energy>
    <i name="e_fr_energy">     -6.60958262 </i>
    <i name="e_wo_entrp">     -6.60615883 </i>
    <i name="e_0_energy">     -6.60787072 </i>
   </energy>
  </scstep>
  <scstep>
   <time name="dav">    1.52    0.93</time>
   <time name="total">    1.59    0.97</time>
   <energy>
    <i name="e_fr_energy">     -6.60914416 </i>
    <i name="e_wo_entrp">     -6.60572269 </i>
    <i name="e_0_energy">     -6.60743342 </i>
   </energy>
  </scstep>
  <scstep>
   <time name="dav">    1.33    0.86</time>
   <time name="total">    1.40    0.89</time>
   <energy>
    <i name="e_fr_energy">     -6.60913248 </i>
    <i name="e_wo_entrp">     -6.60571328 </i>
    <i name="e_0_energy">     -6.60742288 </i>
   </energy>
  </scstep>
  <scstep>
   <time name="dav">    0.89    0.56</time>
   <time name="total">    0.94    0.59</time>
   <energy>
    <i name="alphaZ">      7.82558532 </i>
    <i name="ewald">   -324.74508008 </i>
    <i name="hartreedc">     -0.76170831 </i>
    <i name="XCdc">    -13.99647674 </i>
    <i name="pawpsdc">   2382.84456509 </i>
    <i name="pawaedc">  -2348.08480456 </i>
    <i name="eentropy">     -0.00341896 </i>
    <i name="bandstr">     84.18027857 </i>
    <i name="atom">    206.13192747 </i>
    <i name="e_fr_energy">     -6.60913220 </i>
    <i name="e_wo_entrp">     -6.60571324 </i>
    <i name="e_0_energy">     -6.60742272 </i>
   </energy>
  </scstep>
  <structure>
   <crystal>
    <varray name="basis" >
     <v>       2.30000000       0.00000000       0.00000000 </v>
     <v>      -1.15000000       1.99185843       0.00000000 </v>
     <v>       0.00000000       0.00000000       3.75587700 </v>
    </varray>
    <i name="volume">     17.20670310 </i>
    <varray name="rec_basis" >
     <v>       0.43478261       0.25102186       0.00000000 </v>
     <v>       0.00000000       0.50204371       0.00000000 </v>
     <v>       0.00000000       0.00000000       0.26624940 </v>
    </varray>
   </crystal>
   <varray name="positions" >
    <v>       0.00000000       0.00000000       0.00000000 </v>
    <v>       0.33333333       0.66666667       0.50000000 </v>
   </varray>
  </structure>
  <varray name="forces" >
   <v>      -0.00000000      -0.00000000       0.00000000 </v>
   <v>       0.00000000       0.00000000       0.00000000 </v>
  </varray>
  <varray name="stress" >
   <v>    1446.56203399       0.00000000       0.00000000 </v>
   <v>       0.00000000    1446.56203399       0.00000000 </v>
   <v>       0.00000000       0.00000000    1443.47547647 </v>
  </varray>
  <energy>
   <i name="e_fr_energy">     -6.60913220 </i>
   <i name="e_wo_entrp">     -6.60742272 </i>
   <i name="e_0_energy">     -0.00341896 </i>
  </energy>
  <time name="totalsc">   15.77   10.16</time>
 </calculation>
 <calculation>
  <scstep>
   <time name="dav">    2.10    1.27</time>
   <time name="total">    2.17    1.32</time>
   <energy>
    <i name="alphaZ">      7.82558532 </i>
    <i name="ewald">   -324.74493249 </i>
    <i name="hartreedc">     -0.76175243 </i>
    <i name="XCdc">    -13.99645568 </i>
    <i name="pawpsdc">   2382.37171462 </i>
    <i name="pawaedc">  -2347.61193435 </i>
    <i name="eentropy">     -0.00312355 </i>
    <i name="bandstr">     84.17980080 </i>
    <i name="atom">    206.13192747 </i>
    <i name="e_fr_energy">     -6.60917029 </i>
    <i name="e_wo_entrp">     -6.60604674 </i>
    <i name="e_0_energy">     -6.60760852 </i>
   </energy>
  </scstep>
  <scstep>
   <time name="dav">    1.03    0.64</time>
   <time name="total">    1.07    0.66</time>
   <energy>
    <i name="alphaZ">      7.82558532 </i>
    <i name="ewald">   -324.74493249 </i>
    <i name="hartreedc">     -0.76169402 </i>
    <i name="XCdc">    -13.99649367 </i>
    <i name="pawpsdc">   2382.36025390 </i>
    <i name="pawaedc">  -2347.60045824 </i>
    <i name="eentropy">     -0.00312532 </i>
    <i name="bandstr">     84.17977002 </i>
    <i name="atom">    206.13192747 </i>
    <i name="e_fr_energy">     -6.60916701 </i>
    <i name="e_wo_entrp">     -6.60604170 </i>
    <i name="e_0_energy">     -6.60760436 </i>
   </energy>
  </scstep>
  <structure>
   <crystal>
    <varray name="basis" >
     <v>       2.30061318       0.00000000       0.00000000 </v>
     <v>      -1.15030659       1.99238945      -0.00000000 </v>
     <v>       0.00000000       0.00000000       3.75387518 </v>
    </varray>
    <i name="volume">     17.20670310 </i>
    <varray name="rec_basis" >
     <v>       0.43466673       0.25095495      -0.00000000 </v>
     <v>       0.00000000       0.50190990       0.00000000 </v>
     <v>      -0.00000000       0.00000000       0.26639138 </v>
    </varray>
   </crystal>
   <varray name="positions" >
    <v>      -0.00000000      -0.00000000       0.00000000 </v>
    <v>       0.33333333       0.66666667       0.50000000 </v>
   </varray>
  </structure>
  <varray name="forces" >
   <v>       0.00000000      -0.00000000       0.00000000 </v>
   <v>      -0.00000000       0.00000000       0.00000000 </v>
  </varray>
  <varray name="stress" >
   <v>    1448.86253603       0.00000000      -0.00000000 </v>
   <v>       0.00000000    1448.86253603       0.00000000 </v>
   <v>       0.00000000       0.00000000    1439.56049463 </v>
  </varray>
  <energy>
   <i name="e_fr_energy">     -6.60916701 </i>
   <i name="e_wo_entrp">     -6.60760436 </i>
   <i name="e_0_energy">     -0.00312532 </i>
  </energy>
  <time name="totalsc">    3.73    2.33</time>
 </calculation>
 <calculation>
  <scstep>
   <time name="dav">    1.76    1.21</time>
   <time name="total">    1.83    1.26</time>
   <energy>
    <i name="alphaZ">      7.82558532 </i>
    <i name="ewald">   -324.74414126 </i>
    <i name="hartreedc">     -0.76162483 </i>
    <i name="XCdc">    -13.99657684 </i>
    <i name="pawpsdc">   2382.28358183 </i>
    <i name="pawaedc">  -2347.52378124 </i>
    <i name="eentropy">     -0.00213444 </i>
    <i name="bandstr">     84.17774210 </i>
    <i name="atom">    206.13192747 </i>
    <i name="e_fr_energy">     -6.60942188 </i>
    <i name="e_wo_entrp">     -6.60728744 </i>
    <i name="e_0_energy">     -6.60835466 </i>
   </energy>
  </scstep>
  <scstep>
   <time name="dav">    1.19    0.75</time>
   <time name="total">    1.27    0.79</time>
   <energy>
    <i name="e_fr_energy">     -6.60939377 </i>
    <i name="e_wo_entrp">     -6.60725616 </i>
    <i name="e_0_energy">     -6.60832496 </i>
   </energy>
  </scstep>
  <scstep>
   <time name="dav">    1.72    1.06</time>
   <time name="total">    1.84    1.12</time>
   <energy>
    <i name="e_fr_energy">     -6.60938168 </i>
    <i name="e_wo_entrp">     -6.60723998 </i>
    <i name="e_0_energy">     -6.60831083 </i>
   </energy>
  </scstep>
  <scstep>
   <time name="dav">    0.68    0.45</time>
   <time name="total">    0.74    0.49</time>
   <energy>
    <i name="alphaZ">      7.82558532 </i>
    <i name="ewald">   -324.74414126 </i>
    <i name="hartreedc">     -0.76133623 </i>
    <i name="XCdc">    -13.99679158 </i>
    <i name="pawpsdc">   2382.02225611 </i>
    <i name="pawaedc">  -2347.26244364 </i>
    <i name="eentropy">     -0.00214180 </i>
    <i name="bandstr">     84.17770383 </i>
    <i name="atom">    206.13192747 </i>
    <i name="e_fr_energy">     -6.60938178 </i>
    <i name="e_wo_entrp">     -6.60723998 </i>
    <i name="e_0_energy">     -6.60831088 </i>
   </energy>
  </scstep>
  <structure>
   <crystal>
    <varray name="basis" >
     <v>       2.30245467       0.00000000       0.00000000 </v>
     <v>      -1.15122733       1.99398423      -0.00000000 </v>
     <v>       0.00000000       0.00000000       3.74787292 </v>
    </varray>
    <i name="volume">     17.20670310 </i>
    <varray name="rec_basis" >
     <v>       0.43431908       0.25075424      -0.00000000 </v>
     <v>       0.00000000       0.50150848       0.00000000 </v>
     <v>      -0.00000000       0.00000000       0.26681801 </v>
    </varray>
   </crystal>
   <varray name="positions" >
    <v>      -0.00000000      -0.00000000       0.00000000 </v>
    <v>       0.33333333       0.66666667       0.50000000 </v>
   </varray>
  </structure>
  <varray name="forces" >
   <v>      -0.00000000      -0.00000000      -0.00000000 </v>
   <v>       0.00000000       0.00000000       0.00000000 </v>
  </varray>
  <varray name="stress" >
   <v>    1450.89329695       0.00000000      -0.00000000 </v>
   <v>       0.00000000    1450.89329695       0.00000000 </v>
   <v>       0.00000000       0.00000000    1436.88297530 </v>
  </varray>
  <energy>
   <i name="e_fr_energy">     -6.60938178 </i>
   <i name="e_wo_entrp">     -6.60831088 </i>
   <i name="e_0_energy">     -0.00214180 </i>
  </energy>
  <time name="totalsc">    6.21    3.99</time>
 </calculation>
 <calculation>
  <scstep>
   <time name="dav">    2.33    1.42</time>
   <time name="total">    2.40    1.46</time>
   <energy>
    <i name="alphaZ">      7.82558532 </i>
    <i name="ewald">   -324.74100141 </i>
    <i name="hartreedc">     -0.76133343 </i>
    <i name="XCdc">    -13.99686504 </i>
    <i name="pawpsdc">   2382.00055113 </i>
    <i name="pawaedc">  -2347.24075020 </i>
    <i name="eentropy">     -0.00109344 </i>
    <i name="bandstr">     84.17334872 </i>
    <i name="atom">    206.13192747 </i>
    <i name="e_fr_energy">     -6.60963088 </i>
    <i name="e_wo_entrp">     -6.60853743 </i>
    <i name="e_0_energy">     -6.60908415 </i>
   </energy>
  </scstep>
  <scstep>
   <time name="dav">    1.49    0.90</time>
   <time name="total">    1.56    0.94</time>
   <energy>
    <i name="e_fr_energy">     -6.60952833 </i>
    <i name="e_wo_entrp">     -6.60844515 </i>
    <i name="e_0_energy">     -6.60898674 </i>
   </energy>
  </scstep>
  <scstep>
   <time name="dav">    2.35    1.38</time>
   <time name="total">    2.40    1.41</time>
   <energy>
    <i name="e_fr_energy">     -6.60948321 </i>
    <i name="e_wo_entrp">     -6.60841084 </i>
    <i name="e_0_energy">     -6.60894702 </i>
   </energy>
  </scstep>
  <scstep>
   <time name="dav">    0.76    0.48</time>
   <time name="total">    0.82    0.52</time>
   <energy>
    <i name="alphaZ">      7.82558532 </i>
    <i name="ewald">   -324.74100141 </i>
    <i name="hartreedc">     -0.76188544 </i>
    <i name="XCdc">    -13.99698753 </i>
    <i name="pawpsdc">   2381.53037387 </i>
    <i name="pawaedc">  -2346.77042656 </i>
    <i name="eentropy">     -0.00107263 </i>
    <i name="bandstr">     84.17400345 </i>
    <i name="atom">    206.13192747 </i>
    <i name="e_fr_energy">     -6.60948346 </i>
    <i name="e_wo_entrp">     -6.60841083 </i>
    <i name="e_0_energy">     -6.60894715 </i>
   </energy>
  </scstep>
  <structure>
   <crystal>
    <varray name="basis" >
     <v>       2.30614654       0.00000000       0.00000000 </v>
     <v>      -1.15307327       1.99718148      -0.00000000 </v>
     <v>       0.00000000       0.00000000       3.73588272 </v>
    </varray>
    <i name="volume">     17.20670310 </i>
    <varray name="rec_basis" >
     <v>       0.43362379       0.25035281      -0.00000000 </v>
     <v>       0.00000000       0.50070562       0.00000000 </v>
     <v>      -0.00000000       0.00000000       0.26767436 </v>
    </varray>
   </crystal>
   <varray name="positions" >
    <v>      -0.00000000      -0.00000000       0.00000000 </v>
    <v>       0.33333333       0.66666667       0.50000000 </v>
   </varray>
  </structure>
  <varray name="forces" >
   <v>       0.00000000      -0.00000000       0.00000000 </v>
   <v>      -0.00000000       0.00000000       0.00000000 </v>
  </varray>
  <varray name="stress" >
   <v>    1441.61848038       0.00000000       0.00000000 </v>
   <v>       0.00000000    1441.61848038       0.00000000 </v>
   <v>      -0.00000000       0.00000000    1456.10945990 </v>
  </varray>
  <energy>
   <i name="e_fr_energy">     -6.60948346 </i>
   <i name="e_wo_entrp">     -6.60894715 </i>
   <i name="e_0_energy">     -0.00107263 </i>
  </energy>
  <time name="totalsc">    7.67    4.64</time>
 </calculation>
 <calculation>
  <scstep>
   <time name="dav">    2.54    1.41</time>
   <time name="total">    2.61    1.45</time>
   <energy>
    <i name="alphaZ">      7.82558532 </i>
    <i name="ewald">   -324.74285623 </i>
    <i name="hartreedc">     -0.76180328 </i>
    <i name="XCdc">    -13.99697873 </i>
    <i name="pawpsdc">   2381.45807937 </i>
    <i name="pawaedc">  -2346.69814505 </i>
    <i name="eentropy">     -0.00141252 </i>
    <i name="bandstr">     84.17600669 </i>
    <i name="atom">    206.13192747 </i>
    <i name="e_fr_energy">     -6.60959695 </i>
    <i name="e_wo_entrp">     -6.60818443 </i>
    <i name="e_0_energy">     -6.60889069 </i>
   </energy>
  </scstep>
  <scstep>
   <time name="dav">    1.65    0.90</time>
   <time name="total">    1.76    0.96</time>
   <energy>
    <i name="e_fr_energy">     -6.60957016 </i>
    <i name="e_wo_entrp">     -6.60815649 </i>
    <i name="e_0_energy">     -6.60886332 </i>
   </energy>
  </scstep>
  <scstep>
   <time name="dav">    2.26    1.18</time>
   <time name="total">    2.35    1.23</time>
   <energy>
    <i name="e_fr_energy">     -6.60955833 </i>
    <i name="e_wo_entrp">     -6.60814342 </i>
    <i name="e_0_energy">     -6.60885087 </i>
   </energy>
  </scstep>
  <scstep>
   <time name="dav">    1.02    0.53</time>
   <time name="total">    1.10    0.57</time>
   <energy>
    <i name="alphaZ">      7.82558532 </i>
    <i name="ewald">   -324.74285623 </i>
    <i name="hartreedc">     -0.76134677 </i>
    <i name="XCdc">    -13.99694932 </i>
    <i name="pawpsdc">   2381.66742465 </i>
    <i name="pawaedc">  -2346.90758072 </i>
    <i name="eentropy">     -0.00141480 </i>
    <i name="bandstr">     84.17565199 </i>
    <i name="atom">    206.13192747 </i>
    <i name="e_fr_energy">     -6.60955840 </i>
    <i name="e_wo_entrp">     -6.60814360 </i>
    <i name="e_0_energy">     -6.60885100 </i>
   </energy>
  </scstep>
  <structure>
   <crystal>
    <varray name="basis" >
     <v>       2.30426799       0.00000000       0.00000000 </v>
     <v>      -1.15213399       1.99555461      -0.00000000 </v>
     <v>       0.00000000       0.00000000       3.74197654 </v>
    </varray>
    <i name="volume">     17.20670310 </i>
    <varray name="rec_basis" >
     <v>       0.43397730       0.25055691      -0.00000000 </v>
     <v>       0.00000000       0.50111382       0.00000000 </v>
     <v>      -0.00000000       0.00000000       0.26723845 </v>
    </varray>
   </crystal>
   <varray name="positions" >
    <v>      -0.00000000      -0.00000000      -0.00000000 </v>
    <v>       0.33333333       0.66666667       0.50000000 </v>
   </varray>
  </structure>
  <varray name="forces" >
   <v>      -0.00000000       0.00000000       0.00000000 </v>
   <v>       0.00000000      -0.00000000       0.00000000 </v>
  </varray>
  <varray name="stress" >
   <v>    1447.98431296       0.00000000      -0.00000000 </v>
   <v>       0.00000000    1447.98431296       0.00000000 </v>
   <v>      -0.00000000       0.00000000    1443.19146965 </v>
  </varray>
  <energy>
   <i name="e_fr_energy">     -6.60955840 </i>
   <i name="e_wo_entrp">     -6.60885100 </i>
   <i name="e_0_energy">     -0.00141480 </i>
  </energy>
  <time name="totalsc">    8.38    4.56</time>
 </calculation>
 <calculation>
  <scstep>
   <time name="dav">    1.86    1.29</time>
   <time name="total">    1.93    1.33</time>
   <energy>
    <i name="alphaZ">      7.82558532 </i>
    <i name="ewald">   -324.74221817 </i>
    <i name="hartreedc">     -0.76139091 </i>
    <i name="XCdc">    -13.99695064 </i>
    <i name="pawpsdc">   2381.72124348 </i>
    <i name="pawaedc">  -2346.96139168 </i>
    <i name="eentropy">     -0.00124416 </i>
    <i name="bandstr">     84.17486444 </i>
    <i name="atom">    206.13192747 </i>
    <i name="e_fr_energy">     -6.60957484 </i>
    <i name="e_wo_entrp">     -6.60833068 </i>
    <i name="e_0_energy">     -6.60895276 </i>
   </energy>
  </scstep>
  <scstep>
   <time name="dav">    1.04    0.66</time>
   <time name="total">    1.08    0.70</time>
   <energy>
    <i name="alphaZ">      7.82558532 </i>
    <i name="ewald">   -324.74221817 </i>
    <i name="hartreedc">     -0.76147482 </i>
    <i name="XCdc">    -13.99695153 </i>
    <i name="pawpsdc">   2381.71657083 </i>
    <i name="pawaedc">  -2346.95669715 </i>
    <i name="eentropy">     -0.00124305 </i>
    <i name="bandstr">     84.17493014 </i>
    <i name="atom">    206.13192747 </i>
    <i name="e_fr_energy">     -6.60957096 </i>
    <i name="e_wo_entrp">     -6.60832790 </i>
    <i name="e_0_energy">     -6.60894943 </i>
   </energy>
  </scstep>
  <structure>
   <crystal>
    <varray name="basis" >
     <v>       2.30497730       0.00000000       0.00000000 </v>
     <v>      -1.15248865       1.99616890      -0.00000000 </v>
     <v>       0.00000000       0.00000000       3.73967386 </v>
    </varray>
    <i name="volume">     17.20670310 </i>
    <varray name="rec_basis" >
     <v>       0.43384375       0.25047981      -0.00000000 </v>
     <v>       0.00000000       0.50095961       0.00000000 </v>
     <v>      -0.00000000       0.00000000       0.26740300 </v>
    </varray>
   </crystal>
   <varray name="positions" >
    <v>      -0.00000000      -0.00000000       0.00000000 </v>
    <v>       0.33333333       0.66666667       0.50000000 </v>
   </varray>
  </structure>
  <varray name="forces" >
   <v>       0.00000000      -0.00000000      -0.00000000 </v>
   <v>      -0.00000000       0.00000000       0.00000000 </v>
  </varray>
  <varray name="stress" >
   <v>    1446.17156583       0.00000000       0.00000000 </v>
   <v>       0.00000000    1446.17156583       0.00000000 </v>
   <v>      -0.00000000      -0.00000000    1446.88051919 </v>
  </varray>
  <energy>
   <i name="e_fr_energy">     -6.60957096 </i>
   <i name="e_wo_entrp">     -6.60894943 </i>
   <i name="e_0_energy">     -0.00124305 </i>
  </energy>
  <time name="totalsc">    3.39    2.30</time>
  <eigenvalues>
   <array>
    <dimension dim="1">band</dimension>
    <dimension dim="2">kpoint</dimension>
    <dimension dim="3">spin</dimension>
    <field>eigene</field>
    <field>occ</field>
    <set>
     <set comment="spin 1">
      <set comment="kpoint 1">
       <r>   -0.7224    1.0000 </r>
       <r>    7.5009    1.0000 </r>
       <r>   10.9780    1.0000 </r>
       <r>   24.4788    0.0000 </r>
       <r>   25.1911    0.0000 </r>
       <r>   31.5484    0.0000 </r>
       <r>   31.5944    0.0000 </r>
       <r>   31.9488    0.0000 </r>
      </set>
      <set comment="kpoint 2">
       <r>    1.7571    1.0000 </r>
       <r>    9.7851    1.0000 </r>
       <r>   12.9511    1.0000 </r>
       <r>   16.6687    1.0000 </r>
       <r>   21.5069    0.0000 </r>
       <r>   24.1247    0.0000 </r>
       <r>   27.0149    0.0000 </r>
       <r>   29.5822    0.0000 </r>
      </set>
      <set comment="kpoint 3">
       <r>    6.0919    1.0000 </r>
       <r>    8.8540    1.0000 </r>
       <r>   14.1154    1.0000 </r>
       <r>   16.6921    1.0000 </r>
       <r>   17.4346    1.0000 </r>
       <r>   19.4594    0.0000 </r>
       <r>   22.7073    0.0000 </r>
       <r>   28.1417    0.0000 </r>
      </set>
      <set comment="kpoint 4">
       <r>    3.7057    1.0000 </r>
       <r>   11.1402    1.0000 </r>
       <r>   12.5509    1.0000 </r>
       <r>   15.6054    1.0000 </r>
       <r>   19.5708    0.0000 </r>
       <r>   21.2855    0.0000 </r>
       <r>   24.3519    0.0000 </r>
       <r>   28.6151    0.0000 </r>
      </set>
      <set comment="kpoint 5">
       <r>    0.2751    1.0000 </r>
       <r>    8.4266    1.0000 </r>
       <r>   11.8466    1.0000 </r>
       <r>   20.4364    0.0000 </r>
       <r>   23.1017    0.0000 </r>
       <r>   27.8344    0.0000 </r>
       <r>   29.7392    0.0000 </r>
       <r>   31.1673    0.0000 </r>
      </set>
      <set comment="kpoint 6">
       <r>   -1.2241    1.0000 </r>
       <r>    7.0346    1.0000 </r>
       <r>   10.5277    1.0000 </r>
       <r>   26.9095    0.0000 </r>
       <r>   28.7297    0.0000 </r>
       <r>   30.2502    0.0000 </r>
       <r>   32.5470    0.0000 </r>
       <r>   33.2737    0.0000 </r>
      </set>
      <set comment="kpoint 7">
       <r>    5.1467    1.0000 </r>
       <r>   12.2278    1.0000 </r>
       <r>   13.4878    1.0000 </r>
       <r>   14.0688    1.0000 </r>
       <r>   17.5362    1.0000 </r>
       <r>   21.3555    0.0000 </r>
       <r>   22.3579    0.0000 </r>
       <r>   25.3058    0.0000 </r>
      </set>
      <set comment="kpoint 8">
       <r>    7.5025    1.0000 </r>
       <r>   10.2248    1.0000 </r>
       <r>   12.7875    1.0000 </r>
       <r>   15.7247    1.0000 </r>
       <r>   17.9458    1.0000 </r>
       <r>   19.4158    0.0000 </r>
       <r>   21.8000    0.0000 </r>
       <r>   23.1676    0.0000 </r>
      </set>
      <set comment="kpoint 9">
       <r>    3.2217    1.0000 </r>
       <r>   11.0705    1.0000 </r>
       <r>   13.6054    1.0000 </r>
       <r>   15.5702    1.0000 </r>
       <r>   18.1428    1.0000 </r>
       <r>   22.6852    0.0000 </r>
       <r>   25.1795    0.0000 </r>
       <r>   26.8149    0.0000 </r>
      </set>
      <set comment="kpoint 10">
       <r>    0.7710    1.0000 </r>
       <r>    8.8839    1.0000 </r>
       <r>   12.2447    1.0000 </r>
       <r>   18.3297    0.9944 </r>
       <r>   24.9412    0.0000 </r>
       <r>   25.5438    0.0000 </r>
       <r>   26.9988    0.0000 </r>
       <r>   30.7147    0.0000 </r>
      </set>
      <set comment="kpoint 11">
       <r>    7.8830    1.0000 </r>
       <r>    8.0379    1.0000 </r>
       <r>   15.0711    1.0000 </r>
       <r>   16.0745    1.0000 </r>
       <r>   16.5817    1.0000 </r>
       <r>   19.1251    0.0000 </r>
       <r>   21.9890    0.0000 </r>
       <r>   24.7746    0.0000 </r>
      </set>
      <set comment="kpoint 12">
       <r>    4.6671    1.0000 </r>
       <r>   10.0995    1.0000 </r>
       <r>   12.8625    1.0000 </r>
       <r>   16.3128    1.0000 </r>
       <r>   18.2937    0.9988 </r>
       <r>   21.2275    0.0000 </r>
       <r>   23.9561    0.0000 </r>
       <r>   27.7896    0.0000 </r>
      </set>
      <set comment="kpoint 13">
       <r>   -0.1528    1.0000 </r>
       <r>    4.8581    1.0000 </r>
       <r>   14.5623    1.0000 </r>
       <r>   24.8145    0.0000 </r>
       <r>   25.5808    0.0000 </r>
       <r>   27.9376    0.0000 </r>
       <r>   29.8145    0.0000 </r>
       <r>   30.2232    0.0000 </r>
      </set>
      <set comment="kpoint 14">
       <r>    2.3156    1.0000 </r>
       <r>    7.2152    1.0000 </r>
       <r>   15.7197    1.0000 </r>
       <r>   17.8085    1.0000 </r>
       <r>   20.7393    0.0000 </r>
       <r>   23.1978    0.0000 </r>
       <r>   26.7680    0.0000 </r>
       <r>   29.6765    0.0000 </r>
      </set>
      <set comment="kpoint 15">
       <r>    6.6193    1.0000 </r>
       <r>    9.2284    1.0000 </r>
       <r>   11.8530    1.0000 </r>
       <r>   14.3699    1.0000 </r>
       <r>   19.8465    0.0000 </r>
       <r>   21.9217    0.0000 </r>
       <r>   24.4678    0.0000 </r>
       <r>   26.1796    0.0000 </r>
      </set>
      <set comment="kpoint 16">
       <r>    4.2541    1.0000 </r>
       <r>    8.9922    1.0000 </r>
       <r>   12.9482    1.0000 </r>
       <r>   17.3803    1.0000 </r>
       <r>   18.6682    0.0122 </r>
       <r>   22.1025    0.0000 </r>
       <r>   25.7676    0.0000 </r>
       <r>   27.5291    0.0000 </r>
      </set>
      <set comment="kpoint 17">
       <r>    0.8404    1.0000 </r>
       <r>    5.8098    1.0000 </r>
       <r>   15.3459    1.0000 </r>
       <r>   20.9249    0.0000 </r>
       <r>   23.3291    0.0000 </r>
       <r>   25.6913    0.0000 </r>
       <r>   27.8922    0.0000 </r>
       <r>   29.7946    0.0000 </r>
      </set>
      <set comment="kpoint 18">
       <r>   -0.6523    1.0000 </r>
       <r>    4.3788    1.0000 </r>
       <r>   14.1403    1.0000 </r>
       <r>   26.8409    0.0000 </r>
       <r>   28.1461    0.0000 </r>
       <r>   29.1588    0.0000 </r>
       <r>   30.3932    0.0000 </r>
       <r>   32.5765    0.0000 </r>
      </set>
      <set comment="kpoint 19">
       <r>    5.6865    1.0000 </r>
       <r>   10.2794    1.0000 </r>
       <r>   13.9621    1.0000 </r>
       <r>   14.4971    1.0000 </r>
       <r>   18.4144    0.9096 </r>
       <r>   19.4524    0.0000 </r>
       <r>   22.0058    0.0000 </r>
       <r>   28.7617    0.0000 </r>
      </set>
      <set comment="kpoint 20">
       <r>    8.0173    1.0000 </r>
       <r>   10.5687    1.0000 </r>
       <r>   12.5577    1.0000 </r>
       <r>   14.1539    1.0000 </r>
       <r>   16.2839    1.0000 </r>
       <r>   18.6690    0.0119 </r>
       <r>   23.5411    0.0000 </r>
       <r>   26.1594    0.0000 </r>
      </set>
      <set comment="kpoint 21">
       <r>    3.7731    1.0000 </r>
       <r>    8.5839    1.0000 </r>
       <r>   14.9984    1.0000 </r>
       <r>   17.1597    1.0000 </r>
       <r>   18.6893    0.0054 </r>
       <r>   21.1861    0.0000 </r>
       <r>   23.2957    0.0000 </r>
       <r>   29.7336    0.0000 </r>
      </set>
      <set comment="kpoint 22">
       <r>    1.3341    1.0000 </r>
       <r>    6.2814    1.0000 </r>
       <r>   15.6172    1.0000 </r>
       <r>   18.9604    0.0000 </r>
       <r>   22.8713    0.0000 </r>
       <r>   25.9988    0.0000 </r>
       <r>   27.4163    0.0000 </r>
       <r>   30.1251    0.0000 </r>
      </set>
      <set comment="kpoint 23">
       <r>    8.3778    1.0000 </r>
       <r>    8.5259    1.0000 </r>
       <r>   13.3041    1.0000 </r>
       <r>   13.5220    1.0000 </r>
       <r>   17.2823    1.0000 </r>
       <r>   21.1608    0.0000 </r>
       <r>   24.0856    0.0000 </r>
       <r>   24.4717    0.0000 </r>
      </set>
      <set comment="kpoint 24">
       <r>    5.2088    1.0000 </r>
       <r>    9.5868    1.0000 </r>
       <r>   11.4974    1.0000 </r>
       <r>   15.7221    1.0000 </r>
       <r>   19.6938    0.0000 </r>
       <r>   24.0443    0.0000 </r>
       <r>   24.4100    0.0000 </r>
       <r>   28.5075    0.0000 </r>
      </set>
      <set comment="kpoint 25">
       <r>    0.9789    1.0000 </r>
       <r>    2.6576    1.0000 </r>
       <r>   18.6262    0.0488 </r>
       <r>   22.9627    0.0000 </r>
       <r>   25.9308    0.0000 </r>
       <r>   26.1262    0.0000 </r>
       <r>   28.4158    0.0000 </r>
       <r>   28.6813    0.0000 </r>
      </set>
      <set comment="kpoint 26">
       <r>    3.4247    1.0000 </r>
       <r>    5.0678    1.0000 </r>
       <r>   17.4112    1.0000 </r>
       <r>   18.9428    0.0000 </r>
       <r>   20.8967    0.0000 </r>
       <r>   23.3889    0.0000 </r>
       <r>   25.1563    0.0000 </r>
       <r>   26.9157    0.0000 </r>
      </set>
      <set comment="kpoint 27">
       <r>    7.6434    1.0000 </r>
       <r>    8.9652    1.0000 </r>
       <r>   11.0978    1.0000 </r>
       <r>   12.3904    1.0000 </r>
       <r>   21.5817    0.0000 </r>
       <r>   23.0058    0.0000 </r>
       <r>   26.0436    0.0000 </r>
       <r>   27.9098    0.0000 </r>
      </set>
      <set comment="kpoint 28">
       <r>    5.3409    1.0000 </r>
       <r>    6.9416    1.0000 </r>
       <r>   13.9700    1.0000 </r>
       <r>   15.4887    1.0000 </r>
       <r>   21.4899    0.0000 </r>
       <r>   23.0728    0.0000 </r>
       <r>   24.9672    0.0000 </r>
       <r>   27.8697    0.0000 </r>
      </set>
      <set comment="kpoint 29">
       <r>    1.9633    1.0000 </r>
       <r>    3.6285    1.0000 </r>
       <r>   19.1845    0.0000 </r>
       <r>   21.7674    0.0000 </r>
       <r>   22.7717    0.0000 </r>
       <r>   23.6997    0.0000 </r>
       <r>   26.1516    0.0000 </r>
       <r>   27.1829    0.0000 </r>
      </set>
      <set comment="kpoint 30">
       <r>    0.4838    1.0000 </r>
       <r>    2.1691    1.0000 </r>
       <r>   18.2539    0.9998 </r>
       <r>   22.7390    0.0000 </r>
       <r>   28.3597    0.0000 </r>
       <r>   29.4265    0.0000 </r>
       <r>   30.0054    0.0000 </r>
       <r>   31.2212    0.0000 </r>
      </set>
      <set comment="kpoint 31">
       <r>    6.7535    1.0000 </r>
       <r>    8.3150    1.0000 </r>
       <r>   14.8000    1.0000 </r>
       <r>   15.1591    1.0000 </r>
       <r>   17.2840    1.0000 </r>
       <r>   17.7055    1.0000 </r>
       <r>   25.3205    0.0000 </r>
       <r>   29.4888    0.0000 </r>
      </set>
      <set comment="kpoint 32">
       <r>    9.0096    1.0000 </r>
       <r>   10.2694    1.0000 </r>
       <r>   12.2994    1.0000 </r>
       <r>   13.3365    1.0000 </r>
       <r>   15.7398    1.0000 </r>
       <r>   16.8966    1.0000 </r>
       <r>   27.3537    0.0000 </r>
       <r>   29.8719    0.0000 </r>
      </set>
      <set comment="kpoint 33">
       <r>    4.8668    1.0000 </r>
       <r>    6.4833    1.0000 </r>
       <r>   16.1004    1.0000 </r>
       <r>   17.3692    1.0000 </r>
       <r>   19.1997    0.0000 </r>
       <r>   20.5696    0.0000 </r>
       <r>   24.0432    0.0000 </r>
       <r>   27.8603    0.0000 </r>
      </set>
      <set comment="kpoint 34">
       <r>    2.4525    1.0000 </r>
       <r>    4.1106    1.0000 </r>
       <r>   18.7251    0.0011 </r>
       <r>   20.3126    0.0000 </r>
       <r>   21.3832    0.0000 </r>
       <r>   24.5755    0.0000 </r>
       <r>   26.9118    0.0000 </r>
       <r>   28.2875    0.0000 </r>
      </set>
      <set comment="kpoint 35">
       <r>    9.2433    1.0000 </r>
       <r>    9.3403    1.0000 </r>
       <r>   11.6369    1.0000 </r>
       <r>   11.6479    1.0000 </r>
       <r>   18.3484    0.9885 </r>
       <r>   19.8192    0.0000 </r>
       <r>   27.4772    0.0000 </r>
       <r>   27.9666    0.0000 </r>
      </set>
      <set comment="kpoint 36">
       <r>    6.2779    1.0000 </r>
       <r>    7.8284    1.0000 </r>
       <r>   12.2205    1.0000 </r>
       <r>   13.7232    1.0000 </r>
       <r>   23.2207    0.0000 </r>
       <r>   25.3205    0.0000 </r>
       <r>   25.6968    0.0000 </r>
       <r>   26.6896    0.0000 </r>
      </set>
     </set>
    </set>
   </array>
  </eigenvalues>
  <separator name="orbital magnetization" >
   <v name="MAGDIPOLOUT">      0.00000000      0.00000000      0.00000000</v>
  </separator>
  <dos>
   <i name="efermi">     18.50904953 </i>
   <total>
    <array>
     <dimension dim="1">gridpoints</dimension>
     <dimension dim="2">spin</dimension>
     <field>energy</field>
     <field>total</field>
     <field>integrated</field>
     <set>
      <set comment="spin 1">
       <r>    -2.9490     0.0000     0.0000 </r>
       <r>    -2.8225     0.0000     0.0000 </r>
       <r>    -2.6960     0.0000     0.0000 </r>
       <r>    -2.5695     0.0000     0.0000 </r>
       <r>    -2.4430     0.0000     0.0000 </r>
       <r>    -2.3165     0.0000     0.0000 </r>
       <r>    -2.1900     0.0000     0.0000 </r>
       <r>    -2.0635     0.0000     0.0000 </r>
       <r>    -1.9370     0.0000     0.0000 </r>
       <r>    -1.8105     0.0000     0.0000 </r>
       <r>    -1.6840     0.0000     0.0000 </r>
       <r>    -1.5576     0.0000     0.0000 </r>
       <r>    -1.4311     0.0005     0.0001 </r>
       <r>    -1.3046     0.0368     0.0047 </r>
       <r>    -1.1781     0.1800     0.0275 </r>
       <r>    -1.0516     0.0733     0.0368 </r>
       <r>    -0.9251     0.0028     0.0371 </r>
       <r>    -0.7986     0.0462     0.0430 </r>
       <r>    -0.6721     0.2902     0.0797 </r>
       <r>    -0.5456     0.2275     0.1084 </r>
       <r>    -0.4191     0.0209     0.1111 </r>
       <r>    -0.2926     0.0071     0.1120 </r>
       <r>    -0.1661     0.1174     0.1269 </r>
       <r>    -0.0397     0.1523     0.1461 </r>
       <r>     0.0868     0.0182     0.1484 </r>
       <r>     0.2133     0.1098     0.1623 </r>
       <r>     0.3398     0.3743     0.2097 </r>
       <r>     0.4663     0.2152     0.2369 </r>
       <r>     0.5928     0.1608     0.2572 </r>
       <r>     0.7193     0.1095     0.2711 </r>
       <r>     0.8458     0.4764     0.3313 </r>
       <r>     0.9723     0.4254     0.3851 </r>
       <r>     1.0988     0.1630     0.4057 </r>
       <r>     1.2253     0.0312     0.4097 </r>
       <r>     1.3518     0.1573     0.4296 </r>
       <r>     1.4782     0.1114     0.4437 </r>
       <r>     1.6047     0.0152     0.4456 </r>
       <r>     1.7312     0.2005     0.4710 </r>
       <r>     1.8577     0.3704     0.5178 </r>
       <r>     1.9842     0.3675     0.5643 </r>
       <r>     2.1107     0.2738     0.5989 </r>
       <r>     2.2372     0.2722     0.6334 </r>
       <r>     2.3637     0.4405     0.6891 </r>
       <r>     2.4902     0.3201     0.7296 </r>
       <r>     2.6167     0.1677     0.7508 </r>
       <r>     2.7432     0.1802     0.7736 </r>
       <r>     2.8697     0.0327     0.7777 </r>
       <r>     2.9961     0.0008     0.7778 </r>
       <r>     3.1226     0.0468     0.7837 </r>
       <r>     3.2491     0.3378     0.8265 </r>
       <r>     3.3756     0.3347     0.8688 </r>
       <r>     3.5021     0.3941     0.9187 </r>
       <r>     3.6286     0.4422     0.9746 </r>
       <r>     3.7551     0.8570     1.0830 </r>
       <r>     3.8816     0.4747     1.1431 </r>
       <r>     4.0081     0.0617     1.1509 </r>
       <r>     4.1346     0.1906     1.1750 </r>
       <r>     4.2611     0.4057     1.2263 </r>
       <r>     4.3876     0.4042     1.2774 </r>
       <r>     4.5140     0.1455     1.2958 </r>
       <r>     4.6405     0.1079     1.3095 </r>
       <r>     4.7670     0.2408     1.3399 </r>
       <r>     4.8935     0.5332     1.4074 </r>
       <r>     5.0200     0.4390     1.4629 </r>
       <r>     5.1465     0.5650     1.5344 </r>
       <r>     5.2730     0.4936     1.5968 </r>
       <r>     5.3995     0.4318     1.6514 </r>
       <r>     5.5260     0.1213     1.6668 </r>
       <r>     5.6525     0.0991     1.6793 </r>
       <r>     5.7790     0.3589     1.7247 </r>
       <r>     5.9055     0.3701     1.7715 </r>
       <r>     6.0319     0.1652     1.7924 </r>
       <r>     6.1584     0.3937     1.8422 </r>
       <r>     6.2849     0.3860     1.8910 </r>
       <r>     6.4114     0.3491     1.9352 </r>
       <r>     6.5379     0.4569     1.9930 </r>
       <r>     6.6644     0.5151     2.0581 </r>
       <r>     6.7909     0.3367     2.1007 </r>
       <r>     6.9174     0.3078     2.1397 </r>
       <r>     7.0439     0.4828     2.2007 </r>
       <r>     7.1704     0.3157     2.2407 </r>
       <r>     7.2969     0.3689     2.2873 </r>
       <r>     7.4234     0.1876     2.3110 </r>
       <r>     7.5498     0.5975     2.3866 </r>
       <r>     7.6763     0.5613     2.4576 </r>
       <r>     7.8028     0.3251     2.4988 </r>
       <r>     7.9293     0.4324     2.5534 </r>
       <r>     8.0558     0.6041     2.6299 </r>
       <r>     8.1823     0.2891     2.6664 </r>
       <r>     8.3088     0.2146     2.6936 </r>
       <r>     8.4353     0.6600     2.7771 </r>
       <r>     8.5618     0.7047     2.8662 </r>
       <r>     8.6883     0.4344     2.9211 </r>
       <r>     8.8148     0.2701     2.9553 </r>
       <r>     8.9413     0.9723     3.0783 </r>
       <r>     9.0677     1.1903     3.2289 </r>
       <r>     9.1942     0.4975     3.2918 </r>
       <r>     9.3207     0.6396     3.3727 </r>
       <r>     9.4472     0.2613     3.4057 </r>
       <r>     9.5737     0.1388     3.4233 </r>
       <r>     9.7002     0.2186     3.4509 </r>
       <r>     9.8267     0.3712     3.4979 </r>
       <r>     9.9532     0.1636     3.5186 </r>
       <r>    10.0797     0.1281     3.5348 </r>
       <r>    10.2062     0.5294     3.6018 </r>
       <r>    10.3327     0.8877     3.7140 </r>
       <r>    10.4592     0.2911     3.7509 </r>
       <r>    10.5856     0.5004     3.8142 </r>
       <r>    10.7121     0.2841     3.8501 </r>
       <r>    10.8386     0.0213     3.8528 </r>
       <r>    10.9651     0.1793     3.8755 </r>
       <r>    11.0916     0.8680     3.9853 </r>
       <r>    11.2181     0.8787     4.0964 </r>
       <r>    11.3446     0.1194     4.1115 </r>
       <r>    11.4711     0.1052     4.1248 </r>
       <r>    11.5976     0.3160     4.1648 </r>
       <r>    11.7241     0.4249     4.2186 </r>
       <r>    11.8506     0.6184     4.2968 </r>
       <r>    11.9771     0.5397     4.3650 </r>
       <r>    12.1035     0.0763     4.3747 </r>
       <r>    12.2300     0.5030     4.4383 </r>
       <r>    12.3565     0.9578     4.5595 </r>
       <r>    12.4830     0.6801     4.6455 </r>
       <r>    12.6095     0.7939     4.7459 </r>
       <r>    12.7360     0.3948     4.7958 </r>
       <r>    12.8625     0.6321     4.8758 </r>
       <r>    12.9890     0.9241     4.9927 </r>
       <r>    13.1155     0.3410     5.0358 </r>
       <r>    13.2420     0.1183     5.0508 </r>
       <r>    13.3685     0.5439     5.1196 </r>
       <r>    13.4950     0.5132     5.1845 </r>
       <r>    13.6214     0.6334     5.2646 </r>
       <r>    13.7479     0.4246     5.3183 </r>
       <r>    13.8744     0.1981     5.3434 </r>
       <r>    14.0009     0.6161     5.4213 </r>
       <r>    14.1274     1.0706     5.5568 </r>
       <r>    14.2539     0.8207     5.6606 </r>
       <r>    14.3804     0.3909     5.7100 </r>
       <r>    14.5069     0.4533     5.7674 </r>
       <r>    14.6334     0.3238     5.8083 </r>
       <r>    14.7599     0.1343     5.8253 </r>
       <r>    14.8864     0.2119     5.8521 </r>
       <r>    15.0129     0.4037     5.9032 </r>
       <r>    15.1393     0.5254     5.9696 </r>
       <r>    15.2658     0.2958     6.0070 </r>
       <r>    15.3923     0.4350     6.0621 </r>
       <r>    15.5188     0.7090     6.1518 </r>
       <r>    15.6453     1.3306     6.3201 </r>
       <r>    15.7718     1.5994     6.5224 </r>
       <r>    15.8983     0.5415     6.5909 </r>
       <r>    16.0248     0.1676     6.6121 </r>
       <r>    16.1513     0.5667     6.6837 </r>
       <r>    16.2778     0.5172     6.7492 </r>
       <r>    16.4043     0.4662     6.8081 </r>
       <r>    16.5308     0.1428     6.8262 </r>
       <r>    16.6572     0.5983     6.9019 </r>
       <r>    16.7837     0.7198     6.9929 </r>
       <r>    16.9102     0.3926     7.0426 </r>
       <r>    17.0367     0.2591     7.0754 </r>
       <r>    17.1632     0.3223     7.1161 </r>
       <r>    17.2897     0.7200     7.2072 </r>
       <r>    17.4162     1.4997     7.3969 </r>
       <r>    17.5427     1.0555     7.5304 </r>
       <r>    17.6692     0.2927     7.5675 </r>
       <r>    17.7957     0.4296     7.6218 </r>
       <r>    17.9222     0.5394     7.6900 </r>
       <r>    18.0487     0.4122     7.7422 </r>
       <r>    18.1751     0.4434     7.7983 </r>
       <r>    18.3016     0.6947     7.8861 </r>
       <r>    18.4281     0.7051     7.9753 </r>
       <r>    18.5546     0.3146     8.0151 </r>
       <r>    18.6811     1.1212     8.1569 </r>
       <r>    18.8076     1.0289     8.2871 </r>
       <r>    18.9341     0.4412     8.3429 </r>
       <r>    19.0606     0.5496     8.4124 </r>
       <r>    19.1871     0.7500     8.5073 </r>
       <r>    19.3136     0.6841     8.5938 </r>
       <r>    19.4401     0.7361     8.6869 </r>
       <r>    19.5666     0.9442     8.8064 </r>
       <r>    19.6930     0.4993     8.8695 </r>
       <r>    19.8195     0.4946     8.9321 </r>
       <r>    19.9460     0.4794     8.9927 </r>
       <r>    20.0725     0.0570     9.0000 </r>
       <r>    20.1990     0.0164     9.0020 </r>
       <r>    20.3255     0.1859     9.0256 </r>
       <r>    20.4520     0.4558     9.0832 </r>
       <r>    20.5785     0.5364     9.1511 </r>
       <r>    20.7050     0.4398     9.2067 </r>
       <r>    20.8315     0.5181     9.2722 </r>
       <r>    20.9580     0.7685     9.3694 </r>
       <r>    21.0845     0.3837     9.4180 </r>
       <r>    21.2109     0.7255     9.5097 </r>
       <r>    21.3374     0.9904     9.6350 </r>
       <r>    21.4639     0.8801     9.7463 </r>
       <r>    21.5904     1.0446     9.8785 </r>
       <r>    21.7169     0.5681     9.9503 </r>
       <r>    21.8434     0.8252    10.0547 </r>
       <r>    21.9699     0.8103    10.1572 </r>
       <r>    22.0964     0.7347    10.2501 </r>
       <r>    22.2229     0.3468    10.2940 </r>
       <r>    22.3494     0.1504    10.3130 </r>
       <r>    22.4759     0.1479    10.3317 </r>
       <r>    22.6024     0.1363    10.3490 </r>
       <r>    22.7288     0.9631    10.4708 </r>
       <r>    22.8553     1.0130    10.5989 </r>
       <r>    22.9818     0.7046    10.6881 </r>
       <r>    23.1083     1.2845    10.8505 </r>
       <r>    23.2348     1.5196    11.0428 </r>
       <r>    23.3613     1.3175    11.2094 </r>
       <r>    23.4878     0.7629    11.3059 </r>
       <r>    23.6143     0.4875    11.3676 </r>
       <r>    23.7408     0.4422    11.4235 </r>
       <r>    23.8673     0.1968    11.4484 </r>
       <r>    23.9938     0.4330    11.5032 </r>
       <r>    24.1203     1.0614    11.6374 </r>
       <r>    24.2467     0.5381    11.7055 </r>
       <r>    24.3732     0.5337    11.7730 </r>
       <r>    24.4997     1.0983    11.9119 </r>
       <r>    24.6262     0.6160    11.9899 </r>
       <r>    24.7527     0.2470    12.0211 </r>
       <r>    24.8792     0.4639    12.0798 </r>
       <r>    25.0057     0.6225    12.1585 </r>
       <r>    25.1322     0.6295    12.2382 </r>
       <r>    25.2587     1.0612    12.3724 </r>
       <r>    25.3852     0.7208    12.4636 </r>
       <r>    25.5117     0.2868    12.4998 </r>
       <r>    25.6382     0.5642    12.5712 </r>
       <r>    25.7646     0.9018    12.6853 </r>
       <r>    25.8911     0.5247    12.7517 </r>
       <r>    26.0176     0.6151    12.8295 </r>
       <r>    26.1441     1.2849    12.9920 </r>
       <r>    26.2706     1.1091    13.1323 </r>
       <r>    26.3971     0.1244    13.1480 </r>
       <r>    26.5236     0.0039    13.1485 </r>
       <r>    26.6501     0.1163    13.1632 </r>
       <r>    26.7766     0.7198    13.2543 </r>
       <r>    26.9031     1.3617    13.4265 </r>
       <r>    27.0296     1.2123    13.5799 </r>
       <r>    27.1561     0.5835    13.6537 </r>
       <r>    27.2825     0.4506    13.7107 </r>
       <r>    27.4090     0.6129    13.7882 </r>
       <r>    27.5355     0.7411    13.8819 </r>
       <r>    27.6620     0.3465    13.9258 </r>
       <r>    27.7885     0.5351    13.9934 </r>
       <r>    27.9150     2.0042    14.2470 </r>
       <r>    28.0415     1.2346    14.4031 </r>
       <r>    28.1680     0.6070    14.4799 </r>
       <r>    28.2945     0.5140    14.5449 </r>
       <r>    28.4210     0.5007    14.6083 </r>
       <r>    28.5475     0.4772    14.6686 </r>
       <r>    28.6740     0.6773    14.7543 </r>
       <r>    28.8004     0.6232    14.8331 </r>
       <r>    28.9269     0.1444    14.8514 </r>
       <r>    29.0534     0.0235    14.8544 </r>
       <r>    29.1799     0.1609    14.8747 </r>
       <r>    29.3064     0.1212    14.8900 </r>
       <r>    29.4329     0.2210    14.9180 </r>
       <r>    29.5594     0.5551    14.9882 </r>
       <r>    29.6859     0.9947    15.1140 </r>
       <r>    29.8124     1.5780    15.3136 </r>
       <r>    29.9389     0.9593    15.4350 </r>
       <r>    30.0654     0.3709    15.4819 </r>
       <r>    30.1919     0.3945    15.5318 </r>
       <r>    30.3183     0.4469    15.5883 </r>
       <r>    30.4448     0.2573    15.6209 </r>
       <r>    30.5713     0.0737    15.6302 </r>
       <r>    30.6978     0.1143    15.6447 </r>
       <r>    30.8243     0.1563    15.6644 </r>
       <r>    30.9508     0.0183    15.6667 </r>
       <r>    31.0773     0.0650    15.6750 </r>
       <r>    31.2038     0.4605    15.7332 </r>
       <r>    31.3303     0.3285    15.7748 </r>
       <r>    31.4568     0.0598    15.7823 </r>
       <r>    31.5833     0.2939    15.8195 </r>
       <r>    31.7098     0.2375    15.8495 </r>
       <r>    31.8362     0.0344    15.8539 </r>
       <r>    31.9627     0.1531    15.8733 </r>
       <r>    32.0892     0.1166    15.8880 </r>
       <r>    32.2157     0.0069    15.8889 </r>
       <r>    32.3422     0.0007    15.8890 </r>
       <r>    32.4687     0.0572    15.8962 </r>
       <r>    32.5952     0.3393    15.9391 </r>
       <r>    32.7217     0.1806    15.9620 </r>
       <r>    32.8482     0.0078    15.9630 </r>
       <r>    32.9747     0.0000    15.9630 </r>
       <r>    33.1012     0.0022    15.9632 </r>
       <r>    33.2277     0.0733    15.9725 </r>
       <r>    33.3541     0.1800    15.9953 </r>
       <r>    33.4806     0.0368    15.9999 </r>
       <r>    33.6071     0.0005    16.0000 </r>
       <r>    33.7336     0.0000    16.0000 </r>
       <r>    33.8601     0.0000    16.0000 </r>
       <r>    33.9866     0.0000    16.0000 </r>
       <r>    34.1131     0.0000    16.0000 </r>
       <r>    34.2396     0.0000    16.0000 </r>
       <r>    34.3661     0.0000    16.0000 </r>
       <r>    34.4926     0.0000    16.0000 </r>
       <r>    34.6191     0.0000    16.0000 </r>
       <r>    34.7456     0.0000    16.0000 </r>
       <r>    34.8720     0.0000    16.0000 </r>
       <r>    34.9985     0.0000    16.0000 </r>
      </set>
     </set>
    </array>
   </total>
  </dos>
 </calculation>
 <structure name="finalpos" >
  <crystal>
   <varray name="basis" >
    <v>       2.30497730       0.00000000       0.00000000 </v>
    <v>      -1.15248865       1.99616890      -0.00000000 </v>
    <v>       0.00000000       0.00000000       3.73967386 </v>
   </varray>
   <i name="volume">     17.20670310 </i>
   <varray name="rec_basis" >
    <v>       0.43384375       0.25047981      -0.00000000 </v>
    <v>       0.00000000       0.50095961       0.00000000 </v>
    <v>      -0.00000000       0.00000000       0.26740300 </v>
   </varray>
  </crystal>
  <varray name="positions" >
   <v>      -0.00000000      -0.00000000       0.00000000 </v>
   <v>       0.33333333       0.66666667       0.50000000 </v>
  </varray>
 </structure>
</modeling>
