Fe BCC                                  
   2.80000000000000     
    -0.500000    0.500000    0.500000
     0.500000   -0.500000    0.500000
     0.500000    0.500000   -0.500000
   Fe
     1
Direct
  0.000000  0.000000  0.000000
 
   32   32   32
  92.885      90.780      84.771      75.682      64.647      52.847      41.322      30.863      22.007      15.060    
  10.103      6.9889      5.3434      4.6196      4.2397      4.0023      3.9219      4.0023      4.2397      4.6196    
  5.3434      6.9889      10.103      15.060      22.007      30.863      41.322      52.847      64.647      75.682    
  84.771      90.780      90.780      90.085      85.396      77.372      67.052      55.605      44.116      33.447    
  24.210      16.777      11.300      7.7057      5.6919      4.7626      4.3270      4.0440      3.9125      3.9389    
  4.1224      4.4517      4.9885      6.2160      8.7107      12.912      19.047      27.112      36.883      47.909    
  59.494      70.693      80.374      87.382      84.771      85.396      82.159      75.522      66.372      55.800    
  44.879      34.504      25.336      17.800      12.103      8.2369      5.9698      4.8690      4.3753      4.0591    
  3.8840      3.8592      3.9854      4.2576      4.6694      5.5054      7.3327      10.640      15.731      22.690    
  31.378      41.438      52.283      63.087      72.819      80.374      75.682      77.372      75.522      70.400    
  62.710      53.413      43.513      33.890      25.224      17.970      12.374      8.4780      6.1143      4.9166    
  4.3789      4.0436      3.8364      3.7676      3.8390      4.0492      4.3884      4.9320      6.1416      8.5294    
  12.467      18.125      25.456      34.202      43.888      53.815      63.087      70.693      64.647      67.052    
  66.372      62.710      56.586      48.795      40.229      31.713      23.906      17.269      12.068      8.3794    
  6.0863      4.8866      4.3362      3.9959      3.7698      3.6681      3.6919      3.8416      4.1155      4.5064    
  5.2357      6.7914      9.5906      13.884      19.722      26.944      35.189      43.888      52.283      59.494    
  52.847      55.605      55.800      53.413      48.795      42.570      35.494      28.299      21.595      15.821    
  11.245      7.9587      5.8839      4.7744      4.2497      3.9172      3.6857      3.5636      3.5506      3.6470    
  3.8550      4.1718      4.6208      5.5275      7.3217      10.317      14.655      20.281      26.944      34.202    
  41.438      47.909      41.322      44.116      44.879      43.513      40.229      35.494      29.916      24.117    
  18.631      13.859      10.048      7.2937      5.5424      4.5933      4.1258      3.8117      3.5868      3.4568    
  3.4195      3.4734      3.6219      3.8693      4.2116      4.7185      5.7386      7.6186      10.575      14.655    
  19.722      25.456      31.378      36.883      30.863      33.447      34.504      33.890      31.713      28.299    
  24.117      19.667      15.401      11.661      8.6650      6.4992      5.1225      4.3701      3.9742      3.6862    
  3.4773      3.3503      3.3006      3.3248      3.4250      3.6081      3.8795      4.2350      4.7757      5.8156    
  7.6186      10.317      13.884      18.125      22.690      27.112      22.007      24.210      25.336      25.224    
  23.906      21.595      18.631      15.401      12.264      9.4995      7.2869      5.6965      4.6919      4.1351    
  3.8060      3.5491      3.3628      3.2469      3.1948      3.2013      3.2666      3.3967      3.6008      3.8844    
  4.2430      4.7757      5.7386      7.3217      9.5906      12.467      15.731      19.047      15.060      16.777    
  17.800      17.970      17.269      15.821      13.859      11.661      9.4995      7.5893      6.0677      4.9852    
  4.3054      3.9108      3.6322      3.4096      3.2496      3.1497      3.1024      3.1012      3.1441      3.2353    
  3.3835      3.5985      3.8844      4.2350      4.7185      5.5275      6.7914      8.5294      10.640      12.912    
  10.103      11.300      12.103      12.374      12.068      11.245      10.048      8.6650      7.2869      6.0677    
  5.1037      4.4243      3.9907      3.7013      3.4632      3.2761      3.1436      3.0619      3.0234      3.0214    
  3.0523      3.1181      3.2254      3.3835      3.6008      3.8795      4.2116      4.6208      5.2357      6.1416    
  7.3327      8.7107      6.9889      7.7057      8.2369      8.4780      8.3794      7.9587      7.2937      6.4992    
  5.6965      4.9852      4.4243      4.0233      3.7402      3.5048      3.3075      3.1555      3.0498      2.9862    
  2.9582      2.9593      2.9857      3.0373      3.1181      3.2353      3.3967      3.6081      3.8693      4.1718    
  4.5064      4.9320      5.5054      6.2160      5.3434      5.6919      5.9698      6.1143      6.0863      5.8839    
  5.5424      5.1225      4.6919      4.3054      3.9907      3.7402      3.5205      3.3285      3.1714      3.0526    
  2.9716      2.9248      2.9071      2.9134      2.9400      2.9857      3.0523      3.1441      3.2666      3.4250    
  3.6219      3.8550      4.1155      4.3884      4.6694      4.9885      4.6196      4.7626      4.8690      4.9166    
  4.8866      4.7744      4.5933      4.3701      4.1351      3.9108      3.7013      3.5048      3.3285      3.1785    
  3.0586      2.9698      2.9109      2.8792      2.8713      2.8835      2.9134      2.9593      3.0214      3.1012    
  3.2013      3.3248      3.4734      3.6470      3.8416      4.0492      4.2576      4.4517      4.2397      4.3270    
  4.3753      4.3789      4.3362      4.2497      4.1258      3.9742      3.8060      3.6322      3.4632      3.3075    
  3.1714      3.0586      2.9708      2.9078      2.8682      2.8501      2.8518      2.8713      2.9071      2.9582    
  3.0234      3.1024      3.1948      3.3006      3.4195      3.5506      3.6919      3.8390      3.9854      4.1224    
  4.0023      4.0440      4.0591      4.0436      3.9959      3.9172      3.8117      3.6862      3.5491      3.4096    
  3.2761      3.1555      3.0526      2.9698      2.9078      2.8658      2.8429      2.8379      2.8501      2.8792    
  2.9248      2.9862      3.0619      3.1497      3.2469      3.3503      3.4568      3.5636      3.6681      3.7676    
  3.8592      3.9389      3.9219      3.9125      3.8840      3.8364      3.7698      3.6857      3.5868      3.4773    
  3.3628      3.2496      3.1436      3.0498      2.9716      2.9109      2.8682      2.8429      2.8346      2.8429    
  2.8682      2.9109      2.9716      3.0498      3.1436      3.2496      3.3628      3.4773      3.5868      3.6857    
  3.7698      3.8364      3.8840      3.9125      4.0023      3.9389      3.8592      3.7676      3.6681      3.5636    
  3.4568      3.3503      3.2469      3.1497      3.0619      2.9862      2.9248      2.8792      2.8501      2.8379    
  2.8429      2.8658      2.9078      2.9698      3.0526      3.1555      3.2761      3.4096      3.5491      3.6862    
  3.8117      3.9172      3.9959      4.0436      4.0591      4.0440      4.2397      4.1224      3.9854      3.8390    
  3.6919      3.5506      3.4195      3.3006      3.1948      3.1024      3.0234      2.9582      2.9071      2.8713    
  2.8518      2.8501      2.8682      2.9078      2.9708      3.0586      3.1714      3.3075      3.4632      3.6322    
  3.8060      3.9742      4.1258      4.2497      4.3362      4.3789      4.3753      4.3270      4.6196      4.4517    
  4.2576      4.0492      3.8416      3.6470      3.4734      3.3248      3.2013      3.1012      3.0214      2.9593    
  2.9134      2.8835      2.8713      2.8792      2.9109      2.9698      3.0586      3.1785      3.3285      3.5048    
  3.7013      3.9108      4.1351      4.3701      4.5933      4.7744      4.8866      4.9166      4.8690      4.7626    
  5.3434      4.9885      4.6694      4.3884      4.1155      3.8550      3.6219      3.4250      3.2666      3.1441    
  3.0523      2.9857      2.9400      2.9134      2.9071      2.9248      2.9716      3.0526      3.1714      3.3285    
  3.5205      3.7402      3.9907      4.3054      4.6919      5.1225      5.5424      5.8839      6.0863      6.1143    
  5.9698      5.6919      6.9889      6.2160      5.5054      4.9320      4.5064      4.1718      3.8693      3.6081    
  3.3967      3.2353      3.1181      3.0373      2.9857      2.9593      2.9582      2.9862      3.0498      3.1555    
  3.3075      3.5048      3.7402      4.0233      4.4243      4.9852      5.6965      6.4992      7.2937      7.9587    
  8.3794      8.4780      8.2369      7.7057      10.103      8.7107      7.3327      6.1416      5.2357      4.6208    
  4.2116      3.8795      3.6008      3.3835      3.2254      3.1181      3.0523      3.0214      3.0234      3.0619    
  3.1436      3.2761      3.4632      3.7013      3.9907      4.4243      5.1037      6.0677      7.2869      8.6650    
  10.048      11.245      12.068      12.374      12.103      11.300      15.060      12.912      10.640      8.5294    
  6.7914      5.5275      4.7185      4.2350      3.8844      3.5985      3.3835      3.2353      3.1441      3.1012    
  3.1024      3.1497      3.2496      3.4096      3.6322      3.9108      4.3054      4.9852      6.0677      7.5893    
  9.4995      11.661      13.859      15.821      17.269      17.970      17.800      16.777      22.007      19.047    
  15.731      12.467      9.5906      7.3217      5.7386      4.7757      4.2430      3.8844      3.6008      3.3967    
  3.2666      3.2013      3.1948      3.2469      3.3628      3.5491      3.8060      4.1351      4.6919      5.6965    
  7.2869      9.4995      12.264      15.401      18.631      21.595      23.906      25.224      25.336      24.210    
  30.863      27.112      22.690      18.125      13.884      10.317      7.6186      5.8156      4.7757      4.2350    
  3.8795      3.6081      3.4250      3.3248      3.3006      3.3503      3.4773      3.6862      3.9742      4.3701    
  5.1225      6.4992      8.6650      11.661      15.401      19.667      24.117      28.299      31.713      33.890    
  34.504      33.447      41.322      36.883      31.378      25.456      19.722      14.655      10.575      7.6186    
  5.7386      4.7185      4.2116      3.8693      3.6219      3.4734      3.4195      3.4568      3.5868      3.8117    
  4.1258      4.5933      5.5424      7.2937      10.048      13.859      18.631      24.117      29.916      35.494    
  40.229      43.513      44.879      44.116      52.847      47.909      41.438      34.202      26.944      20.281    
  14.655      10.317      7.3217      5.5275      4.6208      4.1718      3.8550      3.6470      3.5506      3.5636    
  3.6857      3.9172      4.2497      4.7744      5.8839      7.9587      11.245      15.821      21.595      28.299    
  35.494      42.570      48.795      53.413      55.800      55.605      64.647      59.494      52.283      43.888    
  35.189      26.944      19.722      13.884      9.5906      6.7914      5.2357      4.5064      4.1155      3.8416    
  3.6919      3.6681      3.7698      3.9959      4.3362      4.8866      6.0863      8.3794      12.068      17.269    
  23.906      31.713      40.229      48.795      56.586      62.710      66.372      67.052      75.682      70.693    
  63.087      53.815      43.888      34.202      25.456      18.125      12.467      8.5294      6.1416      4.9320    
  4.3884      4.0492      3.8390      3.7676      3.8364      4.0436      4.3789      4.9166      6.1143      8.4780    
  12.374      17.970      25.224      33.890      43.513      53.413      62.710      70.400      75.522      77.372    
  84.771      80.374      72.819      63.087      52.283      41.438      31.378      22.690      15.731      10.640    
  7.3327      5.5054      4.6694      4.2576      3.9854      3.8592      3.8840      4.0591      4.3753      4.8690    
  5.9698      8.2369      12.103      17.800      25.336      34.504      44.879      55.800      66.372      75.522    
  82.159      85.396      90.780      87.382      80.374      70.693      59.494      47.909      36.883      27.112    
  19.047      12.912      8.7107      6.2160      4.9885      4.4517      4.1224      3.9389      3.9125      4.0440    
  4.3270      4.7626      5.6919      7.7057      11.300      16.777      24.210      33.447      44.116      55.605    
  67.052      77.372      85.396      90.085      90.780      90.085      85.396      77.372      67.052      55.605    
  44.116      33.447      24.210      16.777      11.300      7.7057      5.6919      4.7626      4.3270      4.0440    
  3.9125      3.9389      4.1224      4.4517      4.9885      6.2160      8.7107      12.912      19.047      27.112    
  36.883      47.909      59.494      70.693      80.374      87.382      90.085      90.780      87.382      80.374    
  70.693      59.494      47.909      36.883      27.112      19.047      12.912      8.7107      6.2160      4.9885    
  4.4517      4.1224      3.9389      3.9125      4.0440      4.3270      4.7626      5.6919      7.7057      11.300    
  16.777      24.210      33.447      44.116      55.605      67.052      77.372      85.396      85.396      87.382    
  85.396      79.725      71.147      60.732      49.599      38.735      28.894      20.590      14.110      9.5233    
  6.6740      5.1899      4.5365      4.1724      3.9448      3.8680      3.9448      4.1724      4.5365      5.1899    
  6.6740      9.5233      14.110      20.590      28.894      38.735      49.599      60.732      71.147      79.725    
  77.372      80.374      79.725      75.522      68.353      59.147      48.954      38.744      29.301      21.176    
  14.700      9.9974      6.9744      5.3268      4.5775      4.1877      3.9276      3.8079      3.8325      4.0009    
  4.3062      4.7665      5.7585      7.8264      11.400      16.716      23.794      32.438      42.237      52.554    
  62.531      71.147      67.052      70.693      71.147      68.353      62.710      54.976      46.076      36.924    
  28.284      20.720      14.587      10.045      7.0504      5.3625      4.5677      4.1647      3.8857      3.7340    
  3.7136      3.8250      4.0667      4.4276      5.0446      6.3991      8.9548      13.022      18.710      25.919    
  34.341      43.461      52.554      60.732      55.605      59.494      60.732      59.147      54.976      48.795    
  41.383      33.551      26.011      19.308      13.798      9.6578      6.8810      5.2790      4.5019      4.1032    
  3.8190      3.6481      3.5936      3.6551      3.8340      4.1282      4.5404      5.3408      6.9891      9.8491    
  14.115      19.787      26.662      34.341      42.237      49.599      44.116      47.909      49.599      48.954    
  46.076      41.383      35.494      29.097      22.821      17.166      12.470      8.9088      6.4959      5.0847    
  4.3833      4.0066      3.7296      3.5524      3.4760      3.4985      3.6214      3.8482      4.1759      4.6451    
  5.5922      7.4031      10.341      14.501      19.787      25.919      32.438      38.735      33.447      36.883    
  38.735      38.744      36.924      33.551      29.097      24.117      19.142      14.608      10.816      7.9282    
  5.9658      4.8120      4.2244      3.8817      3.6220      3.4497      3.3634      3.3593      3.4373      3.6026    
  3.8603      4.2065      4.7223      5.7364      7.5517      10.341      14.115      18.710      23.794      28.894    
  24.210      27.112      28.894      29.301      28.284      26.011      22.821      19.142      15.401      11.958    
  9.0683      6.8696      5.3809      4.5058      4.0430      3.7375      3.5024      3.3437      3.2578      3.2389    
  3.2848      3.3999      3.5922      3.8675      4.2217      4.7509      5.7364      7.4031      9.8491      13.022    
  16.716      20.590      16.777      19.047      20.590      21.176      20.720      19.308      17.166      14.608    
  11.958      9.4995      7.4353      5.8739      4.8261      4.2087      3.8536      3.5842      3.3782      3.2389    
  3.1608      3.1368      3.1629      3.2412      3.3795      3.5873      3.8698      4.2217      4.7223      5.5922    
  6.9891      8.9548      11.400      14.110      11.300      12.912      14.110      14.700      14.587      13.798    
  12.470      10.816      9.0683      7.4353      6.0677      5.0429      4.3609      3.9468      3.6636      3.4317    
  3.2570      3.1398      3.0740      3.0517      3.0679      3.1225      3.2211      3.3730      3.5873      3.8675    
  4.2065      4.6451      5.3408      6.3991      7.8264      9.5233      7.7057      8.7107      9.5233      9.9974    
  10.045      9.6578      8.9088      7.9282      6.8696      5.8739      5.0429      4.4243      4.0064      3.7199    
  3.4820      3.2886      3.1453      3.0508      2.9989      2.9824      2.9956      3.0371      3.1099      3.2211    
  3.3795      3.5922      3.8603      4.1759      4.5404      5.0446      5.7585      6.6740      5.6919      6.2160    
  6.6740      6.9744      7.0504      6.8810      6.4959      5.9658      5.3809      4.8261      4.3609      4.0064    
  3.7402      3.5124      3.3170      3.1615      3.0483      2.9753      2.9371      2.9279      2.9425      2.9786    
  3.0371      3.1225      3.2412      3.3999      3.6026      3.8482      4.1282      4.4276      4.7665      5.1899    
  4.7626      4.9885      5.1899      5.3268      5.3625      5.2790      5.0847      4.8120      4.5058      4.2087    
  3.9468      3.7199      3.5124      3.3285      3.1747      3.0547      2.9690      2.9154      2.8899      2.8883    
  2.9066      2.9425      2.9956      3.0679      3.1629      3.2848      3.4373      3.6214      3.8340      4.0667    
  4.3062      4.5365      4.3270      4.4517      4.5365      4.5775      4.5677      4.5019      4.3833      4.2244    
  4.0430      3.8536      3.6636      3.4820      3.3170      3.1747      3.0586      2.9701      2.9086      2.8722    
  2.8584      2.8645      2.8883      2.9279      2.9824      3.0517      3.1368      3.2389      3.3593      3.4985    
  3.6551      3.8250      4.0009      4.1724      4.0440      4.1224      4.1724      4.1877      4.1647      4.1032    
  4.0066      3.8817      3.7375      3.5842      3.4317      3.2886      3.1615      3.0547      2.9701      2.9078    
  2.8668      2.8458      2.8433      2.8584      2.8899      2.9371      2.9989      3.0740      3.1608      3.2578    
  3.3634      3.4760      3.5936      3.7136      3.8325      3.9448      3.9125      3.9389      3.9448      3.9276    
  3.8857      3.8190      3.7296      3.6220      3.5024      3.3782      3.2570      3.1453      3.0483      2.9690    
  2.9086      2.8668      2.8429      2.8360      2.8458      2.8722      2.9154      2.9753      3.0508      3.1398    
  3.2389      3.3437      3.4497      3.5524      3.6481      3.7340      3.8079      3.8680      3.9389      3.9125    
  3.8680      3.8079      3.7340      3.6481      3.5524      3.4497      3.3437      3.2389      3.1398      3.0508    
  2.9753      2.9154      2.8722      2.8458      2.8360      2.8429      2.8668      2.9086      2.9690      3.0483    
  3.1453      3.2570      3.3782      3.5024      3.6220      3.7296      3.8190      3.8857      3.9276      3.9448    
  4.1224      4.0440      3.9448      3.8325      3.7136      3.5936      3.4760      3.3634      3.2578      3.1608    
  3.0740      2.9989      2.9371      2.8899      2.8584      2.8433      2.8458      2.8668      2.9078      2.9701    
  3.0547      3.1615      3.2886      3.4317      3.5842      3.7375      3.8817      4.0066      4.1032      4.1647    
  4.1877      4.1724      4.4517      4.3270      4.1724      4.0009      3.8250      3.6551      3.4985      3.3593    
  3.2389      3.1368      3.0517      2.9824      2.9279      2.8883      2.8645      2.8584      2.8722      2.9086    
  2.9701      3.0586      3.1747      3.3170      3.4820      3.6636      3.8536      4.0430      4.2244      4.3833    
  4.5019      4.5677      4.5775      4.5365      4.9885      4.7626      4.5365      4.3062      4.0667      3.8340    
  3.6214      3.4373      3.2848      3.1629      3.0679      2.9956      2.9425      2.9066      2.8883      2.8899    
  2.9154      2.9690      3.0547      3.1747      3.3285      3.5124      3.7199      3.9468      4.2087      4.5058    
  4.8120      5.0847      5.2790      5.3625      5.3268      5.1899      6.2160      5.6919      5.1899      4.7665    
  4.4276      4.1282      3.8482      3.6026      3.3999      3.2412      3.1225      3.0371      2.9786      2.9425    
  2.9279      2.9371      2.9753      3.0483      3.1615      3.3170      3.5124      3.7402      4.0064      4.3609    
  4.8261      5.3809      5.9658      6.4959      6.8810      7.0504      6.9744      6.6740      8.7107      7.7057    
  6.6740      5.7585      5.0446      4.5404      4.1759      3.8603      3.5922      3.3795      3.2211      3.1099    
  3.0371      2.9956      2.9824      2.9989      3.0508      3.1453      3.2886      3.4820      3.7199      4.0064    
  4.4243      5.0429      5.8739      6.8696      7.9282      8.9088      9.6578      10.045      9.9974      9.5233    
  12.912      11.300      9.5233      7.8264      6.3991      5.3408      4.6451      4.2065      3.8675      3.5873    
  3.3730      3.2211      3.1225      3.0679      3.0517      3.0740      3.1398      3.2570      3.4317      3.6636    
  3.9468      4.3609      5.0429      6.0677      7.4353      9.0683      10.816      12.470      13.798      14.587    
  14.700      14.110      19.047      16.777      14.110      11.400      8.9548      6.9891      5.5922      4.7223    
  4.2217      3.8698      3.5873      3.3795      3.2412      3.1629      3.1368      3.1608      3.2389      3.3782    
  3.5842      3.8536      4.2087      4.8261      5.8739      7.4353      9.4995      11.958      14.608      17.166    
  19.308      20.720      21.176      20.590      27.112      24.210      20.590      16.716      13.022      9.8491    
  7.4031      5.7364      4.7509      4.2217      3.8675      3.5922      3.3999      3.2848      3.2389      3.2578    
  3.3437      3.5024      3.7375      4.0430      4.5058      5.3809      6.8696      9.0683      11.958      15.401    
  19.142      22.821      26.011      28.284      29.301      28.894      36.883      33.447      28.894      23.794    
  18.710      14.115      10.341      7.5517      5.7364      4.7223      4.2065      3.8603      3.6026      3.4373    
  3.3593      3.3634      3.4497      3.6220      3.8817      4.2244      4.8120      5.9658      7.9282      10.816    
  14.608      19.142      24.117      29.097      33.551      36.924      38.744      38.735      47.909      44.116    
  38.735      32.438      25.919      19.787      14.501      10.341      7.4031      5.5922      4.6451      4.1759    
  3.8482      3.6214      3.4985      3.4760      3.5524      3.7296      4.0066      4.3833      5.0847      6.4959    
  8.9088      12.470      17.166      22.821      29.097      35.494      41.383      46.076      48.954      49.599    
  59.494      55.605      49.599      42.237      34.341      26.662      19.787      14.115      9.8491      6.9891    
  5.3408      4.5404      4.1282      3.8340      3.6551      3.5936      3.6481      3.8190      4.1032      4.5019    
  5.2790      6.8810      9.6578      13.798      19.308      26.011      33.551      41.383      48.795      54.976    
  59.147      60.732      70.693      67.052      60.732      52.554      43.461      34.341      25.919      18.710    
  13.022      8.9548      6.3991      5.0446      4.4276      4.0667      3.8250      3.7136      3.7340      3.8857    
  4.1647      4.5677      5.3625      7.0504      10.045      14.587      20.720      28.284      36.924      46.076    
  54.976      62.710      68.353      71.147      80.374      77.372      71.147      62.531      52.554      42.237    
  32.438      23.794      16.716      11.400      7.8264      5.7585      4.7665      4.3062      4.0009      3.8325    
  3.8079      3.9276      4.1877      4.5775      5.3268      6.9744      9.9974      14.700      21.176      29.301    
  38.744      48.954      59.147      68.353      75.522      79.725      87.382      85.396      79.725      71.147    
  60.732      49.599      38.735      28.894      20.590      14.110      9.5233      6.6740      5.1899      4.5365    
  4.1724      3.9448      3.8680      3.9448      4.1724      4.5365      5.1899      6.6740      9.5233      14.110    
  20.590      28.894      38.735      49.599      60.732      71.147      79.725      85.396      84.771      85.396    
  82.159      75.522      66.372      55.800      44.879      34.504      25.336      17.800      12.103      8.2369    
  5.9698      4.8690      4.3753      4.0591      3.8840      3.8592      3.9854      4.2576      4.6694      5.5054    
  7.3327      10.640      15.731      22.690      31.378      41.438      52.283      63.087      72.819      80.374    
  85.396      87.382      85.396      79.725      71.147      60.732      49.599      38.735      28.894      20.590    
  14.110      9.5233      6.6740      5.1899      4.5365      4.1724      3.9448      3.8680      3.9448      4.1724    
  4.5365      5.1899      6.6740      9.5233      14.110      20.590      28.894      38.735      49.599      60.732    
  71.147      79.725      82.159      85.396      84.771      80.374      72.819      63.087      52.283      41.438    
  31.378      22.690      15.731      10.640      7.3327      5.5054      4.6694      4.2576      3.9854      3.8592    
  3.8840      4.0591      4.3753      4.8690      5.9698      8.2369      12.103      17.800      25.336      34.504    
  44.879      55.800      66.372      75.522      75.522      79.725      80.374      77.372      71.147      62.531    
  52.554      42.237      32.438      23.794      16.716      11.400      7.8264      5.7585      4.7665      4.3062    
  4.0009      3.8325      3.8079      3.9276      4.1877      4.5775      5.3268      6.9744      9.9974      14.700    
  21.176      29.301      38.744      48.954      59.147      68.353      66.372      71.147      72.819      71.147    
  66.372      59.147      50.380      41.023      31.924      23.738      16.908      11.671      8.0571      5.8921    
  4.8093      4.3123      3.9875      3.7877      3.7208      3.7877      3.9875      4.3123      4.8093      5.8921    
  8.0571      11.671      16.908      23.738      31.924      41.023      50.380      59.147      55.800      60.732    
  63.087      62.531      59.147      53.413      46.076      37.984      29.927      22.544      16.285      11.406    
  7.9763      5.8696      4.7815      4.2741      3.9435      3.7250      3.6263      3.6475      3.7889      4.0497    
  4.4206      5.0749      6.4727      9.0209      12.971      18.382      25.117      32.840      41.023      48.954    
  44.879      49.599      52.283      52.554      50.380      46.076      40.229      33.551      26.746      20.404    
  14.956      10.658      7.5975      5.6879      4.6791      4.1937      3.8698      3.6456      3.5272      3.5131    
  3.6032      3.8001      4.1024      4.5199      5.3306      6.9484      9.6824      13.679      18.899      25.117    
  31.924      38.744      34.504      38.735      41.438      42.237      41.023      37.984      33.551      28.299    
  22.821      17.637      13.135      9.5564      6.9914      5.3786      4.5136      4.0772      3.7703      3.5519    
  3.4258      3.3884      3.4380      3.5777      3.8124      4.1396      4.6034      5.5162      7.2154      9.9174    
  13.679      18.382      23.738      29.301      25.336      28.894      31.378      32.438      31.924      29.927    
  26.746      22.821      18.631      14.608      11.087      8.2780      6.2637      4.9968      4.3089      3.9335    
  3.6514      3.4481      3.3246      3.2754      3.2966      3.3902      3.5630      3.8210      4.1606      4.6520    
  5.5840      7.2154      9.6824      12.971      16.908      21.176      17.800      20.590      22.690      23.794    
  23.738      22.544      20.404      17.637      14.608      11.661      9.0683      7.0017      5.5273      4.6043    
  4.0918      3.7730      3.5211      3.3395      3.2264      3.1749      3.1794      3.2397      3.3619      3.5550    
  3.8250      4.1675      4.6520      5.5162      6.9484      9.0209      11.671      14.700      12.103      14.110    
  15.731      16.716      16.908      16.285      14.956      13.135      11.087      9.0683      7.2870      5.8739    
  4.8750      4.2506      3.8809      3.6066      3.3882      3.2319      3.1341      3.0872      3.0844      3.1236    
  3.2088      3.3486      3.5523      3.8250      4.1606      4.6034      5.3306      6.4727      8.0571      9.9974    
  8.2369      9.5233      10.640      11.400      11.671      11.406      10.658      9.5564      8.2780      7.0017    
  5.8739      4.9852      4.3609      3.9594      3.6788      3.4444      3.2609      3.1311      3.0508      3.0123    
  3.0088      3.0369      3.0982      3.1990      3.3486      3.5550      3.8210      4.1396      4.5199      5.0749    
  5.8921      6.9744      5.9698      6.6740      7.3327      7.8264      8.0571      7.9763      7.5975      6.9914    
  6.2637      5.5273      4.8750      4.3609      3.9907      3.7199      3.4882      3.2946      3.1457      3.0420    