Fe BCC                                  
   2.80000000000000     
    -0.500000    0.500000    0.500000
     0.500000   -0.500000    0.500000
     0.500000    0.500000   -0.500000
   Fe
     1
Direct
  0.000000  0.000000  0.000000
 
   32   32   32
 0.92884608397E+02 0.90780369279E+02 0.84771112470E+02 0.75682499326E+02 0.64646578437E+02
 0.52847369652E+02 0.41321813106E+02 0.30862597111E+02 0.22007118566E+02 0.15059880255E+02
 0.10103095590E+02 0.69889079294E+01 0.53434003889E+01 0.46196179480E+01 0.42397427659E+01
 0.40023051078E+01 0.39218979064E+01 0.40023051078E+01 0.42397427659E+01 0.46196179480E+01
 0.53434003889E+01 0.69889079294E+01 0.10103095590E+02 0.15059880255E+02 0.22007118566E+02
 0.30862597111E+02 0.41321813106E+02 0.52847369652E+02 0.64646578437E+02 0.75682499326E+02
 0.84771112470E+02 0.90780369279E+02 0.90780369279E+02 0.90084860040E+02 0.85396127481E+02
 0.77372244735E+02 0.67051627632E+02 0.55605295693E+02 0.44115776819E+02 0.33447122666E+02
 0.24209849989E+02 0.16776943671E+02 0.11300041874E+02 0.77057137423E+01 0.56919086315E+01
 0.47625734745E+01 0.43269754724E+01 0.40440385033E+01 0.39124534280E+01 0.39389359063E+01
 0.41224273985E+01 0.44517097489E+01 0.49885436414E+01 0.62159766733E+01 0.87106925231E+01
 0.12911815170E+02 0.19046548153E+02 0.27112005544E+02 0.36882786922E+02 0.47908552359E+02
 0.59493785415E+02 0.70692816295E+02 0.80373592584E+02 0.87381757843E+02 0.84771112470E+02
 0.85396127481E+02 0.82159078538E+02 0.75521777557E+02 0.66371500515E+02 0.55800111934E+02
 0.44878974492E+02 0.34504393658E+02 0.25336187678E+02 0.17799854653E+02 0.12103070382E+02
 0.82368522440E+01 0.59697896574E+01 0.48689601878E+01 0.43752761380E+01 0.40590927671E+01
 0.38839994440E+01 0.38591508402E+01 0.39854110594E+01 0.42576123350E+01 0.46694479053E+01
 0.55053978773E+01 0.73326780396E+01 0.10639734351E+02 0.15731348327E+02 0.22690402784E+02
 0.31378083167E+02 0.41437699024E+02 0.52282752091E+02 0.63086563153E+02 0.72819475657E+02
 0.80373592584E+02 0.75682499326E+02 0.77372244735E+02 0.75521777557E+02 0.70399762808E+02
 0.62710421453E+02 0.53413366746E+02 0.43512571299E+02 0.33890498667E+02 0.25224152500E+02
 0.17969669794E+02 0.12373749291E+02 0.84780269668E+01 0.61142881207E+01 0.49165632022E+01
 0.43788634434E+01 0.40436135681E+01 0.38363674703E+01 0.37676060501E+01 0.38389564026E+01
 0.40492343858E+01 0.43884146618E+01 0.49319847158E+01 0.61415851966E+01 0.85293861685E+01
 0.12467073947E+02 0.18124839583E+02 0.25456311633E+02 0.34202185471E+02 0.43887554757E+02
 0.53815066194E+02 0.63086563153E+02 0.70692816295E+02 0.64646578437E+02 0.67051627632E+02
 0.66371500515E+02 0.62710421453E+02 0.56585974436E+02 0.48794708057E+02 0.40228717028E+02
 0.31712670024E+02 0.23905613274E+02 0.17268688235E+02 0.12067970116E+02 0.83794324894E+01
 0.60863482644E+01 0.48865915269E+01 0.43361962353E+01 0.39959307570E+01 0.37698354658E+01
 0.36680861584E+01 0.36918511317E+01 0.38416341029E+01 0.41155103323E+01 0.45064204029E+01
 0.52357441194E+01 0.67914262892E+01 0.95906054293E+01 0.13884293914E+02 0.19721562935E+02
 0.26944308482E+02 0.35189103466E+02 0.43887554757E+02 0.52282752091E+02 0.59493785415E+02
 0.52847369652E+02 0.55605295693E+02 0.55800111934E+02 0.53413366746E+02 0.48794708057E+02
 0.42570368466E+02 0.35494193972E+02 0.28299130699E+02 0.21594562990E+02 0.15821277551E+02
 0.11244800493E+02 0.79586724201E+01 0.58839344147E+01 0.47744318542E+01 0.42496854145E+01
 0.39172324687E+01 0.36857100490E+01 0.35636119801E+01 0.35506340369E+01 0.36470062943E+01
 0.38549978231E+01 0.41718139285E+01 0.46208096673E+01 0.55274856360E+01 0.73216930627E+01
 0.10317440095E+02 0.14655333411E+02 0.20281217573E+02 0.26944308482E+02 0.34202185471E+02
 0.41437699024E+02 0.47908552359E+02 0.41321813106E+02 0.44115776819E+02 0.44878974492E+02
 0.43512571299E+02 0.40228717028E+02 0.35494193972E+02 0.29916441221E+02 0.24116556503E+02
 0.18630824747E+02 0.13858630277E+02 0.10047552791E+02 0.72936627289E+01 0.55423666450E+01
 0.45933186618E+01 0.41257595425E+01 0.38117156881E+01 0.35867532603E+01 0.34568020186E+01
 0.34194748493E+01 0.34734457009E+01 0.36219465638E+01 0.38693287473E+01 0.42115928584E+01
 0.47185218457E+01 0.57385888554E+01 0.76186235906E+01 0.10575352333E+02 0.14655333411E+02
 0.19721562935E+02 0.25456311633E+02 0.31378083167E+02 0.36882786922E+02 0.30862597111E+02
 0.33447122666E+02 0.34504393658E+02 0.33890498667E+02 0.31712670024E+02 0.28299130699E+02
 0.24116556503E+02 0.19667240841E+02 0.15400928228E+02 0.11661236241E+02 0.86649911297E+01
 0.64992255532E+01 0.51224988925E+01 0.43700756048E+01 0.39742470756E+01 0.36861707428E+01
 0.34772765857E+01 0.33502688387E+01 0.33005705190E+01 0.33247864584E+01 0.34250310217E+01
 0.36080942718E+01 0.38795163751E+01 0.42350109511E+01 0.47757165784E+01 0.58155572973E+01
 0.76186235906E+01 0.10317440095E+02 0.13884293914E+02 0.18124839583E+02 0.22690402784E+02
 0.27112005544E+02 0.22007118566E+02 0.24209849989E+02 0.25336187678E+02 0.25224152500E+02
 0.23905613274E+02 0.21594562990E+02 0.18630824747E+02 0.15400928228E+02 0.12263675268E+02
 0.94995237408E+01 0.72869499148E+01 0.56965113861E+01 0.46918530481E+01 0.41351401888E+01
 0.38060016470E+01 0.35491032165E+01 0.33628415182E+01 0.32468653204E+01 0.31948011223E+01
 0.32013443824E+01 0.32665858269E+01 0.33966973122E+01 0.36007999526E+01 0.38843995522E+01
 0.42429968484E+01 0.47757165784E+01 0.57385888554E+01 0.73216930627E+01 0.95906054293E+01
 0.12467073947E+02 0.15731348327E+02 0.19046548153E+02 0.15059880255E+02 0.16776943671E+02
 0.17799854653E+02 0.17969669794E+02 0.17268688235E+02 0.15821277551E+02 0.13858630277E+02
 0.11661236241E+02 0.94995237408E+01 0.75893034223E+01 0.60677210786E+01 0.49851557638E+01
 0.43053531610E+01 0.39107519968E+01 0.36322157634E+01 0.34095892341E+01 0.32496252615E+01
 0.31496887725E+01 0.31023925111E+01 0.31011643378E+01 0.31440831292E+01 0.32352560010E+01
 0.33835151548E+01 0.35984563328E+01 0.38843995522E+01 0.42350109511E+01 0.47185218457E+01
 0.55274856360E+01 0.67914262892E+01 0.85293861685E+01 0.10639734351E+02 0.12911815170E+02
 0.10103095590E+02 0.11300041874E+02 0.12103070382E+02 0.12373749291E+02 0.12067970116E+02
 0.11244800493E+02 0.10047552791E+02 0.86649911297E+01 0.72869499148E+01 0.60677210786E+01
 0.51037340569E+01 0.44243023570E+01 0.39906851440E+01 0.37013371783E+01 0.34632017280E+01
 0.32760996251E+01 0.31436057357E+01 0.30618600591E+01 0.30234266980E+01 0.30213647537E+01
 0.30523296041E+01 0.31181123921E+01 0.32253763251E+01 0.33835151548E+01 0.36007999526E+01
 0.38795163751E+01 0.42115928584E+01 0.46208096673E+01 0.52357441194E+01 0.61415851966E+01
 0.73326780396E+01 0.87106925231E+01 0.69889079294E+01 0.77057137423E+01 0.82368522440E+01
 0.84780269668E+01 0.83794324894E+01 0.79586724201E+01 0.72936627289E+01 0.64992255532E+01
 0.56965113861E+01 0.49851557638E+01 0.44243023570E+01 0.40233474048E+01 0.37401540462E+01
 0.35047835380E+01 0.33075028476E+01 0.31555270533E+01 0.30497780554E+01 0.29861838603E+01
 0.29581533805E+01 0.29592986485E+01 0.29857024040E+01 0.30372980311E+01 0.31181123921E+01
 0.32352560010E+01 0.33966973122E+01 0.36080942718E+01 0.38693287473E+01 0.41718139285E+01
 0.45064204029E+01 0.49319847158E+01 0.55053978773E+01 0.62159766733E+01 0.53434003889E+01
 0.56919086315E+01 0.59697896574E+01 0.61142881207E+01 0.60863482644E+01 0.58839344147E+01
 0.55423666450E+01 0.51224988925E+01 0.46918530481E+01 0.43053531610E+01 0.39906851440E+01
 0.37401540462E+01 0.35204582009E+01 0.33284527575E+01 0.31713731393E+01 0.30526061007E+01
 0.29716177280E+01 0.29248400958E+01 0.29071315778E+01 0.29133851784E+01 0.29399612247E+01
 0.29857024040E+01 0.30523296041E+01 0.31440831292E+01 0.32665858269E+01 0.34250310217E+01
 0.36219465638E+01 0.38549978231E+01 0.41155103323E+01 0.43884146618E+01 0.46694479053E+01
 0.49885436414E+01 0.46196179480E+01 0.47625734745E+01 0.48689601878E+01 0.49165632022E+01
 0.48865915269E+01 0.47744318542E+01 0.45933186618E+01 0.43700756048E+01 0.41351401888E+01
 0.39107519968E+01 0.37013371783E+01 0.35047835380E+01 0.33284527575E+01 0.31785180371E+01
 0.30586233581E+01 0.29698223032E+01 0.29109383462E+01 0.28792428707E+01 0.28712601093E+01
 0.28835485480E+01 0.29133851784E+01 0.29592986485E+01 0.30213647537E+01 0.31011643378E+01
 0.32013443824E+01 0.33247864584E+01 0.34734457009E+01 0.36470062943E+01 0.38416341029E+01
 0.40492343858E+01 0.42576123350E+01 0.44517097489E+01 0.42397427659E+01 0.43269754724E+01
 0.43752761380E+01 0.43788634434E+01 0.43361962353E+01 0.42496854145E+01 0.41257595425E+01
 0.39742470756E+01 0.38060016470E+01 0.36322157634E+01 0.34632017280E+01 0.33075028476E+01
 0.31713731393E+01 0.30586233581E+01 0.29708214438E+01 0.29077758637E+01 0.28681639622E+01
 0.28501355030E+01 0.28517576412E+01 0.28712601093E+01 0.29071315778E+01 0.29581533805E+01
 0.30234266980E+01 0.31023925111E+01 0.31948011223E+01 0.33005705190E+01 0.34194748493E+01
 0.35506340369E+01 0.36918511317E+01 0.38389564026E+01 0.39854110594E+01 0.41224273985E+01
 0.40023051078E+01 0.40440385033E+01 0.40590927671E+01 0.40436135681E+01 0.39959307570E+01
 0.39172324687E+01 0.38117156881E+01 0.36861707428E+01 0.35491032165E+01 0.34095892341E+01
 0.32760996251E+01 0.31555270533E+01 0.30526061007E+01 0.29698223032E+01 0.29077758637E+01
 0.28658414708E+01 0.28428956082E+01 0.28378911063E+01 0.28501355030E+01 0.28792428707E+01
 0.29248400958E+01 0.29861838603E+01 0.30618600591E+01 0.31496887725E+01 0.32468653204E+01
 0.33502688387E+01 0.34568020186E+01 0.35636119801E+01 0.36680861584E+01 0.37676060501E+01
 0.38591508402E+01 0.39389359063E+01 0.39218979064E+01 0.39124534280E+01 0.38839994440E+01
 0.38363674703E+01 0.37698354658E+01 0.36857100490E+01 0.35867532603E+01 0.34772765857E+01
 0.33628415182E+01 0.32496252615E+01 0.31436057357E+01 0.30497780554E+01 0.29716177280E+01
 0.29109383462E+01 0.28681639622E+01 0.28428956082E+01 0.28345574739E+01 0.28428956082E+01
 0.28681639622E+01 0.29109383462E+01 0.29716177280E+01 0.30497780554E+01 0.31436057357E+01
 0.32496252615E+01 0.33628415182E+01 0.34772765857E+01 0.35867532603E+01 0.36857100490E+01
 0.37698354658E+01 0.38363674703E+01 0.38839994440E+01 0.39124534280E+01 0.40023051078E+01
 0.39389359063E+01 0.38591508402E+01 0.37676060501E+01 0.36680861584E+01 0.35636119801E+01
 0.34568020186E+01 0.33502688387E+01 0.32468653204E+01 0.31496887725E+01 0.30618600591E+01
 0.29861838603E+01 0.29248400958E+01 0.28792428707E+01 0.28501355030E+01 0.28378911063E+01
 0.28428956082E+01 0.28658414708E+01 0.29077758637E+01 0.29698223032E+01 0.30526061007E+01
 0.31555270533E+01 0.32760996251E+01 0.34095892341E+01 0.35491032165E+01 0.36861707428E+01
 0.38117156881E+01 0.39172324687E+01 0.39959307570E+01 0.40436135681E+01 0.40590927671E+01
 0.40440385033E+01 0.42397427659E+01 0.41224273985E+01 0.39854110594E+01 0.38389564026E+01
 0.36918511317E+01 0.35506340369E+01 0.34194748493E+01 0.33005705190E+01 0.31948011223E+01
 0.31023925111E+01 0.30234266980E+01 0.29581533805E+01 0.29071315778E+01 0.28712601093E+01
 0.28517576412E+01 0.28501355030E+01 0.28681639622E+01 0.29077758637E+01 0.29708214438E+01
 0.30586233581E+01 0.31713731393E+01 0.33075028476E+01 0.34632017280E+01 0.36322157634E+01
 0.38060016470E+01 0.39742470756E+01 0.41257595425E+01 0.42496854145E+01 0.43361962353E+01
 0.43788634434E+01 0.43752761380E+01 0.43269754724E+01 0.46196179480E+01 0.44517097489E+01
 0.42576123350E+01 0.40492343858E+01 0.38416341029E+01 0.36470062943E+01 0.34734457009E+01
 0.33247864584E+01 0.32013443824E+01 0.31011643378E+01 0.30213647537E+01 0.29592986485E+01
 0.29133851784E+01 0.28835485480E+01 0.28712601093E+01 0.28792428707E+01 0.29109383462E+01
 0.29698223032E+01 0.30586233581E+01 0.31785180371E+01 0.33284527575E+01 0.35047835380E+01
 0.37013371783E+01 0.39107519968E+01 0.41351401888E+01 0.43700756048E+01 0.45933186618E+01
 0.47744318542E+01 0.48865915269E+01 0.49165632022E+01 0.48689601878E+01 0.47625734745E+01
 0.53434003889E+01 0.49885436414E+01 0.46694479053E+01 0.43884146618E+01 0.41155103323E+01
 0.38549978231E+01 0.36219465638E+01 0.34250310217E+01 0.32665858269E+01 0.31440831292E+01
 0.30523296041E+01 0.29857024040E+01 0.29399612247E+01 0.29133851784E+01 0.29071315778E+01
 0.29248400958E+01 0.29716177280E+01 0.30526061007E+01 0.31713731393E+01 0.33284527575E+01
 0.35204582009E+01 0.37401540462E+01 0.39906851440E+01 0.43053531610E+01 0.46918530481E+01
 0.51224988925E+01 0.55423666450E+01 0.58839344147E+01 0.60863482644E+01 0.61142881207E+01
 0.59697896574E+01 0.56919086315E+01 0.69889079294E+01 0.62159766733E+01 0.55053978773E+01
 0.49319847158E+01 0.45064204029E+01 0.41718139285E+01 0.38693287473E+01 0.36080942718E+01
 0.33966973122E+01 0.32352560010E+01 0.31181123921E+01 0.30372980311E+01 0.29857024040E+01
 0.29592986485E+01 0.29581533805E+01 0.29861838603E+01 0.30497780554E+01 0.31555270533E+01
 0.33075028476E+01 0.35047835380E+01 0.37401540462E+01 0.40233474048E+01 0.44243023570E+01
 0.49851557638E+01 0.56965113861E+01 0.64992255532E+01 0.72936627289E+01 0.79586724201E+01
 0.83794324894E+01 0.84780269668E+01 0.82368522440E+01 0.77057137423E+01 0.10103095590E+02
 0.87106925231E+01 0.73326780396E+01 0.61415851966E+01 0.52357441194E+01 0.46208096673E+01
 0.42115928584E+01 0.38795163751E+01 0.36007999526E+01 0.33835151548E+01 0.32253763251E+01
 0.31181123921E+01 0.30523296041E+01 0.30213647537E+01 0.30234266980E+01 0.30618600591E+01
 0.31436057357E+01 0.32760996251E+01 0.34632017280E+01 0.37013371783E+01 0.39906851440E+01
 0.44243023570E+01 0.51037340569E+01 0.60677210786E+01 0.72869499148E+01 0.86649911297E+01
 0.10047552791E+02 0.11244800493E+02 0.12067970116E+02 0.12373749291E+02 0.12103070382E+02
 0.11300041874E+02 0.15059880255E+02 0.12911815170E+02 0.10639734351E+02 0.85293861685E+01
 0.67914262892E+01 0.55274856360E+01 0.47185218457E+01 0.42350109511E+01 0.38843995522E+01
 0.35984563328E+01 0.33835151548E+01 0.32352560010E+01 0.31440831292E+01 0.31011643378E+01
 0.31023925111E+01 0.31496887725E+01 0.32496252615E+01 0.34095892341E+01 0.36322157634E+01
 0.39107519968E+01 0.43053531610E+01 0.49851557638E+01 0.60677210786E+01 0.75893034223E+01
 0.94995237408E+01 0.11661236241E+02 0.13858630277E+02 0.15821277551E+02 0.17268688235E+02
 0.17969669794E+02 0.17799854653E+02 0.16776943671E+02 0.22007118566E+02 0.19046548153E+02
 0.15731348327E+02 0.12467073947E+02 0.95906054293E+01 0.73216930627E+01 0.57385888554E+01
 0.47757165784E+01 0.42429968484E+01 0.38843995522E+01 0.36007999526E+01 0.33966973122E+01
 0.32665858269E+01 0.32013443824E+01 0.31948011223E+01 0.32468653204E+01 0.33628415182E+01
 0.35491032165E+01 0.38060016470E+01 0.41351401888E+01 0.46918530481E+01 0.56965113861E+01
 0.72869499148E+01 0.94995237408E+01 0.12263675268E+02 0.15400928228E+02 0.18630824747E+02
 0.21594562990E+02 0.23905613274E+02 0.25224152500E+02 0.25336187678E+02 0.24209849989E+02
 0.30862597111E+02 0.27112005544E+02 0.22690402784E+02 0.18124839583E+02 0.13884293914E+02
 0.10317440095E+02 0.76186235906E+01 0.58155572973E+01 0.47757165784E+01 0.42350109511E+01
 0.38795163751E+01 0.36080942718E+01 0.34250310217E+01 0.33247864584E+01 0.33005705190E+01
 0.33502688387E+01 0.34772765857E+01 0.36861707428E+01 0.39742470756E+01 0.43700756048E+01
 0.51224988925E+01 0.64992255532E+01 0.86649911297E+01 0.11661236241E+02 0.15400928228E+02
 0.19667240841E+02 0.24116556503E+02 0.28299130699E+02 0.31712670024E+02 0.33890498667E+02
 0.34504393658E+02 0.33447122666E+02 0.41321813106E+02 0.36882786922E+02 0.31378083167E+02
 0.25456311633E+02 0.19721562935E+02 0.14655333411E+02 0.10575352333E+02 0.76186235906E+01
 0.57385888554E+01 0.47185218457E+01 0.42115928584E+01 0.38693287473E+01 0.36219465638E+01
 0.34734457009E+01 0.34194748493E+01 0.34568020186E+01 0.35867532603E+01 0.38117156881E+01
 0.41257595425E+01 0.45933186618E+01 0.55423666450E+01 0.72936627289E+01 0.10047552791E+02
 0.13858630277E+02 0.18630824747E+02 0.24116556503E+02 0.29916441221E+02 0.35494193972E+02
 0.40228717028E+02 0.43512571299E+02 0.44878974492E+02 0.44115776819E+02 0.52847369652E+02
 0.47908552359E+02 0.41437699024E+02 0.34202185471E+02 0.26944308482E+02 0.20281217573E+02
 0.14655333411E+02 0.10317440095E+02 0.73216930627E+01 0.55274856360E+01 0.46208096673E+01
 0.41718139285E+01 0.38549978231E+01 0.36470062943E+01 0.35506340369E+01 0.35636119801E+01
 0.36857100490E+01 0.39172324687E+01 0.42496854145E+01 0.47744318542E+01 0.58839344147E+01
 0.79586724201E+01 0.11244800493E+02 0.15821277551E+02 0.21594562990E+02 0.28299130699E+02
 0.35494193972E+02 0.42570368466E+02 0.48794708057E+02 0.53413366746E+02 0.55800111934E+02
 0.55605295693E+02 0.64646578437E+02 0.59493785415E+02 0.52282752091E+02 0.43887554757E+02
 0.35189103466E+02 0.26944308482E+02 0.19721562935E+02 0.13884293914E+02 0.95906054293E+01
 0.67914262892E+01 0.52357441194E+01 0.45064204029E+01 0.41155103323E+01 0.38416341029E+01
 0.36918511317E+01 0.36680861584E+01 0.37698354658E+01 0.39959307570E+01 0.43361962353E+01
 0.48865915269E+01 0.60863482644E+01 0.83794324894E+01 0.12067970116E+02 0.17268688235E+02
 0.23905613274E+02 0.31712670024E+02 0.40228717028E+02 0.48794708057E+02 0.56585974436E+02
 0.62710421453E+02 0.66371500515E+02 0.67051627632E+02 0.75682499326E+02 0.70692816295E+02
 0.63086563153E+02 0.53815066194E+02 0.43887554757E+02 0.34202185471E+02 0.25456311633E+02
 0.18124839583E+02 0.12467073947E+02 0.85293861685E+01 0.61415851966E+01 0.49319847158E+01
 0.43884146618E+01 0.40492343858E+01 0.38389564026E+01 0.37676060501E+01 0.38363674703E+01
 0.40436135681E+01 0.43788634434E+01 0.49165632022E+01 0.61142881207E+01 0.84780269668E+01
 0.12373749291E+02 0.17969669794E+02 0.25224152500E+02 0.33890498667E+02 0.43512571299E+02
 0.53413366746E+02 0.62710421453E+02 0.70399762808E+02 0.75521777557E+02 0.77372244735E+02
 0.84771112470E+02 0.80373592584E+02 0.72819475657E+02 0.63086563153E+02 0.52282752091E+02
 0.41437699024E+02 0.31378083167E+02 0.22690402784E+02 0.15731348327E+02 0.10639734351E+02
 0.73326780396E+01 0.55053978773E+01 0.46694479053E+01 0.42576123350E+01 0.39854110594E+01
 0.38591508402E+01 0.38839994440E+01 0.40590927671E+01 0.43752761380E+01 0.48689601878E+01
 0.59697896574E+01 0.82368522440E+01 0.12103070382E+02 0.17799854653E+02 0.25336187678E+02
 0.34504393658E+02 0.44878974492E+02 0.55800111934E+02 0.66371500515E+02 0.75521777557E+02
 0.82159078538E+02 0.85396127481E+02 0.90780369279E+02 0.87381757843E+02 0.80373592584E+02
 0.70692816295E+02 0.59493785415E+02 0.47908552359E+02 0.36882786922E+02 0.27112005544E+02
 0.19046548153E+02 0.12911815170E+02 0.87106925231E+01 0.62159766733E+01 0.49885436414E+01
 0.44517097489E+01 0.41224273985E+01 0.39389359063E+01 0.39124534280E+01 0.40440385033E+01
 0.43269754724E+01 0.47625734745E+01 0.56919086315E+01 0.77057137423E+01 0.11300041874E+02
 0.16776943671E+02 0.24209849989E+02 0.33447122666E+02 0.44115776819E+02 0.55605295693E+02
 0.67051627632E+02 0.77372244735E+02 0.85396127481E+02 0.90084860040E+02 0.90780369279E+02
 0.90084860040E+02 0.85396127481E+02 0.77372244735E+02 0.67051627632E+02 0.55605295693E+02
 0.44115776819E+02 0.33447122666E+02 0.24209849989E+02 0.16776943671E+02 0.11300041874E+02
 0.77057137423E+01 0.56919086315E+01 0.47625734745E+01 0.43269754724E+01 0.40440385033E+01
 0.39124534280E+01 0.39389359063E+01 0.41224273985E+01 0.44517097489E+01 0.49885436414E+01
 0.62159766733E+01 0.87106925231E+01 0.12911815170E+02 0.19046548153E+02 0.27112005544E+02
 0.36882786922E+02 0.47908552359E+02 0.59493785415E+02 0.70692816295E+02 0.80373592584E+02
 0.87381757843E+02 0.90084860040E+02 0.90780369232E+02 0.87381757753E+02 0.80373592453E+02
 0.70692816128E+02 0.59493785219E+02 0.47908552146E+02 0.36882786709E+02 0.27112005348E+02
 0.19046547992E+02 0.12911815058E+02 0.87106924639E+01 0.62159766619E+01 0.49885436641E+01
 0.44517097866E+01 0.41224274320E+01 0.39389359214E+01 0.39124534191E+01 0.40440384756E+01
 0.43269754404E+01 0.47625734580E+01 0.56919086503E+01 0.77057138109E+01 0.11300041997E+02
 0.16776943844E+02 0.24209850197E+02 0.33447122889E+02 0.44115777034E+02 0.55605295882E+02
 0.67051627780E+02 0.77372244834E+02 0.85396127530E+02 0.85396127481E+02 0.87381757753E+02
 0.85396127407E+02 0.79725170613E+02 0.71147397714E+02 0.60731799242E+02 0.49599225040E+02
 0.38734742627E+02 0.28894183802E+02 0.20590317942E+02 0.14110269060E+02 0.95232887976E+01
 0.66740237663E+01 0.51898903261E+01 0.45365057751E+01 0.41723930200E+01 0.39448271139E+01
 0.38680031381E+01 0.39448270735E+01 0.41723929572E+01 0.45365057203E+01 0.51898903145E+01
 0.66740238277E+01 0.95232889489E+01 0.14110269301E+02 0.20590318255E+02 0.28894184157E+02
 0.38734742990E+02 0.49599225378E+02 0.60731799530E+02 0.71147397936E+02 0.79725170762E+02
 0.77372244735E+02 0.80373592453E+02 0.79725170613E+02 0.75521777484E+02 0.68353105935E+02
 0.59147488103E+02 0.48953526028E+02 0.38744473525E+02 0.29301030712E+02 0.21175583543E+02
 0.14700399757E+02 0.99973919738E+01 0.69743730016E+01 0.53267869206E+01 0.45774687436E+01
 0.41876916208E+01 0.39276252552E+01 0.38078764549E+01 0.38324537497E+01 0.40009009520E+01
 0.43061700726E+01 0.47664732640E+01 0.57585251750E+01 0.78263694663E+01 0.11399809125E+02
 0.16715891192E+02 0.23793739977E+02 0.32437505436E+02 0.42236527790E+02 0.52554084246E+02
 0.62530844349E+02 0.71147397882E+02 0.67051627632E+02 0.70692816128E+02 0.71147397714E+02
 0.68353105935E+02 0.62710421413E+02 0.54975596012E+02 0.46076291998E+02 0.36924083668E+02
 0.28284138736E+02 0.20719678084E+02 0.14587297533E+02 0.10044809410E+02 0.70504084127E+01
 0.53624724605E+01 0.45676529586E+01 0.41646785231E+01 0.38856827720E+01 0.37339750403E+01
 0.37136225015E+01 0.38250048248E+01 0.40667167900E+01 0.44276357889E+01 0.50445646548E+01
 0.63990942988E+01 0.89548152208E+01 0.13021838360E+02 0.18709760160E+02 0.25918580100E+02
 0.34341259700E+02 0.43461011069E+02 0.52554084189E+02 0.60731799422E+02 0.55605295693E+02
 0.59493785219E+02 0.60731799242E+02 0.59147488103E+02 0.54975596012E+02 0.48794708072E+02
 0.41382945803E+02 0.33551150419E+02 0.26011356618E+02 0.19307539629E+02 0.13797876318E+02
 0.96578217411E+01 0.68809533772E+01 0.52789651334E+01 0.45018606993E+01 0.41031524245E+01
 0.38189721684E+01 0.36480964473E+01 0.35935542684E+01 0.36551020598E+01 0.38339932187E+01
 0.41282384698E+01 0.45403791329E+01 0.53407618942E+01 0.69891184310E+01 0.98490716717E+01
 0.14115414920E+02 0.19786643559E+02 0.26661508047E+02 0.34341259648E+02 0.42236527682E+02
 0.49599225222E+02 0.44115776819E+02 0.47908552146E+02 0.49599225040E+02 0.48953526028E+02
 0.46076291998E+02 0.41382945803E+02 0.35494194045E+02 0.29096910705E+02 0.22821476715E+02
 0.17166443438E+02 0.12470333573E+02 0.89088286884E+01 0.64958717981E+01 0.50847191985E+01
 0.43832503681E+01 0.40065836237E+01 0.37296169770E+01 0.35523784420E+01 0.34759695434E+01
 0.34985087792E+01 0.36214316565E+01 0.38482213209E+01 0.41758951995E+01 0.46451487327E+01
 0.55921600334E+01 0.74031148220E+01 0.10341472953E+02 0.14500572024E+02 0.19786643520E+02
 0.25918580010E+02 0.32437505292E+02 0.38734742800E+02 0.33447122666E+02 0.36882786709E+02
 0.38734742627E+02 0.38744473525E+02 0.36924083668E+02 0.33551150419E+02 0.29096910705E+02
 0.24116556613E+02 0.19142066097E+02 0.14607839841E+02 0.10816028145E+02 0.79282390038E+01
 0.59658233106E+01 0.48120099826E+01 0.42244288656E+01 0.38816938437E+01 0.36220002300E+01
 0.34496777722E+01 0.33634340582E+01 0.33593087674E+01 0.34373403707E+01 0.36026072560E+01
 0.38603437986E+01 0.42065078556E+01 0.47223269574E+01 0.57364260169E+01 0.75517362474E+01
 0.10341472931E+02 0.14115414859E+02 0.18709760050E+02 0.23793739816E+02 0.28894183955E+02
 0.24209849989E+02 0.27112005348E+02 0.28894183802E+02 0.29301030712E+02 0.28284138736E+02
 0.26011356618E+02 0.22821476715E+02 0.19142066097E+02 0.15400928341E+02 0.11958004001E+02
 0.90683237491E+01 0.68695626821E+01 0.53809003144E+01 0.45058048103E+01 0.40429897026E+01
 0.37375213182E+01 0.35023971227E+01 0.33437091509E+01 0.32578412815E+01 0.32388788814E+01
 0.32848304827E+01 0.33998710523E+01 0.35921678583E+01 0.38675480510E+01 0.42217425237E+01
 0.47509099910E+01 0.57364260091E+01 0.74031147931E+01 0.98490716077E+01 0.13021838251E+02
 0.16715891036E+02 0.20590318062E+02 0.16776943671E+02 0.19046547992E+02 0.20590317942E+02
 0.21175583543E+02 0.20719678084E+02 0.19307539629E+02 0.17166443438E+02 0.14607839841E+02
 0.11958004001E+02 0.94995238283E+01 0.74353449218E+01 0.58738509543E+01 0.48261078330E+01
 0.42086820389E+01 0.38535708369E+01 0.35841955611E+01 0.33782081536E+01 0.32388720376E+01
 0.31608251466E+01 0.31367839182E+01 0.31628623243E+01 0.32411996568E+01 0.33794799223E+01
 0.35872952065E+01 0.38698269181E+01 0.42217425250E+01 0.47223269523E+01 0.55921600105E+01
 0.69891183783E+01 0.89548151297E+01 0.11399808994E+02 0.14110269140E+02 0.11300041874E+02
 0.12911815058E+02 0.14110269060E+02 0.14700399757E+02 0.14587297533E+02 0.13797876318E+02
 0.12470333573E+02 0.10816028145E+02 0.90683237491E+01 0.74353449218E+01 0.60677211282E+01
 0.50428913989E+01 0.43609083648E+01 0.39467550816E+01 0.36635943490E+01 0.34316630748E+01
 0.32569640253E+01 0.31398046446E+01 0.30739862706E+01 0.30517304056E+01 0.30678964256E+01
 0.31224906606E+01 0.32210783901E+01 0.33729730642E+01 0.35872952103E+01 0.38675480567E+01
 0.42065078573E+01 0.46451487215E+01 0.53407618607E+01 0.63990942362E+01 0.78263693737E+01
 0.95232888334E+01 0.77057137423E+01 0.87106924639E+01 0.95232887976E+01 0.99973919738E+01
 0.10044809410E+02 0.96578217411E+01 0.89088286884E+01 0.79282390038E+01 0.68695626821E+01
 0.58738509543E+01 0.50428913989E+01 0.44243023739E+01 0.40064175734E+01 0.37198814539E+01
 0.34819955096E+01 0.32885794596E+01 0.31453282817E+01 0.30507977021E+01 0.29989229193E+01
 0.29823736923E+01 0.29956339313E+01 0.30371080279E+01 0.31098966935E+01 0.32210783925E+01
 0.33794799283E+01 0.35921678670E+01 0.38603438060E+01 0.41758951996E+01 0.45403791193E+01
 0.50445646230E+01 0.57585251243E+01 0.66740237631E+01 0.56919086315E+01 0.62159766619E+01
 0.66740237663E+01 0.69743730016E+01 0.70504084127E+01 0.68809533772E+01 0.64958717981E+01
 0.59658233106E+01 0.53809003144E+01 0.48261078330E+01 0.43609083648E+01 0.40064175734E+01
 0.37401540440E+01 0.35123771252E+01 0.33170274931E+01 0.31615375830E+01 0.30483316041E+01
 0.29752537161E+01 0.29371388092E+01 0.29278898081E+01 0.29424905781E+01 0.29785514232E+01
 0.30371080281E+01 0.31224906626E+01 0.32411996616E+01 0.33998710598E+01 0.36026072646E+01
 0.38482213275E+01 0.41282384712E+01 0.44276357827E+01 0.47664732500E+01 0.51898902954E+01
 0.47625734745E+01 0.49885436641E+01 0.51898903261E+01 0.53267869206E+01 0.53624724605E+01
 0.52789651334E+01 0.50847191985E+01 0.48120099826E+01 0.45058048103E+01 0.42086820389E+01
 0.39467550816E+01 0.37198814539E+01 0.35123771252E+01 0.33284527484E+01 0.31747027847E+01
 0.30547359000E+01 0.29690179644E+01 0.29153712391E+01 0.28899330330E+01 0.28882949399E+01
 0.29066061423E+01 0.29424905771E+01 0.29956339299E+01 0.30678964246E+01 0.31628623248E+01
 0.32848304853E+01 0.34373403756E+01 0.36214316633E+01 0.38339932269E+01 0.40667167991E+01
 0.43061700829E+01 0.45365057328E+01 0.43269754724E+01 0.44517097866E+01 0.45365057751E+01
 0.45774687436E+01 0.45676529586E+01 0.45018606993E+01 0.43832503681E+01 0.42244288656E+01
 0.40429897026E+01 0.38535708369E+01 0.36635943490E+01 0.34819955096E+01 0.33170274931E+01
 0.31747027847E+01 0.30586233482E+01 0.29701010092E+01 0.29085657213E+01 0.28721602336E+01
 0.28583647119E+01 0.28645310723E+01 0.28882949390E+01 0.29278898058E+01 0.29823736887E+01
 0.30517304010E+01 0.31367839134E+01 0.32388788775E+01 0.33593087657E+01 0.34985087810E+01
 0.36551020664E+01 0.38250048372E+01 0.40009009708E+01 0.41723929827E+01 0.40440385033E+01
 0.41224274320E+01 0.41723930200E+01 0.41876916208E+01 0.41646785231E+01 0.41031524245E+01
 0.40065836237E+01 0.38816938437E+01 0.37375213182E+01 0.35841955611E+01 0.34316630748E+01
 0.32885794596E+01 0.31615375830E+01 0.30547359000E+01 0.29701010092E+01 0.29077758546E+01
 0.28668000210E+01 0.28457744826E+01 0.28433369314E+01 0.28583647116E+01 0.28899330317E+01
 0.29371388063E+01 0.29989229145E+01 0.30739862638E+01 0.31608251381E+01 0.32578412724E+01
 0.33634340499E+01 0.34759695377E+01 0.35935542673E+01 0.37136225066E+01 0.38324537623E+01
 0.39448270940E+01 0.39124534280E+01 0.39389359214E+01 0.39448271139E+01 0.39276252552E+01
 0.38856827720E+01 0.38189721684E+01 0.37296169770E+01 0.36220002300E+01 0.35023971227E+01
 0.33782081536E+01 0.32569640253E+01 0.31453282817E+01 0.30483316041E+01 0.29690179644E+01
 0.29085657213E+01 0.28668000210E+01 0.28428955996E+01 0.28360281356E+01 0.28457744827E+01
 0.28721602334E+01 0.29153712381E+01 0.29752537136E+01 0.30507976977E+01 0.31398046376E+01
 0.32388720279E+01 0.33437091389E+01 0.34496777587E+01 0.35523784284E+01 0.36480964352E+01
 0.37339750317E+01 0.38078764512E+01 0.38680031405E+01 0.39389359063E+01 0.39124534191E+01
 0.38680031381E+01 0.38078764549E+01 0.37339750403E+01 0.36480964473E+01 0.35523784420E+01
 0.34496777722E+01 0.33437091509E+01 0.32388720376E+01 0.31398046446E+01 0.30507977021E+01
 0.29752537161E+01 0.29153712391E+01 0.28721602336E+01 0.28457744826E+01 0.28360281356E+01
 0.28428955998E+01 0.28668000214E+01 0.29085657215E+01 0.29690179641E+01 0.30483316027E+01
 0.31453282783E+01 0.32569640191E+01 0.33782081440E+01 0.35023971092E+01 0.36220002125E+01
 0.37296169560E+01 0.38189721450E+01 0.38856827477E+01 0.39276252321E+01 0.39448270940E+01
 0.41224273985E+01 0.40440384756E+01 0.39448270735E+01 0.38324537497E+01 0.37136225015E+01
 0.35935542684E+01 0.34759695434E+01 0.33634340582E+01 0.32578412815E+01 0.31608251466E+01
 0.30739862706E+01 0.29989229193E+01 0.29371388092E+01 0.28899330330E+01 0.28583647119E+01
 0.28433369314E+01 0.28457744827E+01 0.28668000214E+01 0.29077758552E+01 0.29701010098E+01
 0.30547359001E+01 0.31615375817E+01 0.32885794559E+01 0.34316630676E+01 0.35841955493E+01
 0.37375213008E+01 0.38816938204E+01 0.40065835946E+01 0.41031523905E+01 0.41646784857E+01