   1   1   1   0
  0.1097600E+02  0.2424871E-09  0.2424871E-09  0.2424871E-09  0.5000000E-15
  1.000000000000000E-004
  CAR 
 Fe BCC                                  
     48.39785670     -4.50425629  301      6.17504448      1.00000000
     -4.504  0.0000E+00  0.0000E+00  0.0000E+00  0.0000E+00
     -4.328  0.0000E+00  0.0000E+00  0.0000E+00  0.0000E+00
     -4.152  0.0000E+00  0.0000E+00  0.0000E+00  0.0000E+00
     -3.975  0.0000E+00  0.0000E+00  0.0000E+00  0.0000E+00
     -3.799  0.0000E+00  0.0000E+00  0.0000E+00  0.0000E+00
     -3.623  0.0000E+00  0.0000E+00  0.0000E+00  0.0000E+00
     -3.446  0.0000E+00  0.0000E+00  0.0000E+00  0.0000E+00
     -3.270  0.0000E+00  0.0000E+00  0.0000E+00  0.0000E+00
     -3.094  0.0000E+00  0.0000E+00  0.0000E+00  0.0000E+00
     -2.917  0.0000E+00  0.0000E+00  0.0000E+00  0.0000E+00
     -2.741  0.0000E+00  0.0000E+00  0.0000E+00  0.0000E+00
     -2.565  0.0000E+00  0.0000E+00  0.0000E+00  0.0000E+00
     -2.388  0.0000E+00  0.0000E+00  0.0000E+00  0.0000E+00
     -2.212  0.0000E+00  0.0000E+00  0.0000E+00  0.0000E+00
     -2.035  0.1185E-01  0.0000E+00  0.1331E-02  0.0000E+00
     -1.859  0.1804E-01  0.1319E-01  0.3981E-02  0.1865E-02
     -1.683  0.2326E-01  0.1891E-01  0.7638E-02  0.4710E-02
     -1.506  0.2750E-01  0.2363E-01  0.1213E-01  0.8475E-02
     -1.330  0.3453E-01  0.2738E-01  0.1754E-01  0.1299E-01
     -1.154  0.4116E-01  0.3453E-01  0.2424E-01  0.1846E-01
     -0.977  0.4615E-01  0.4019E-01  0.3196E-01  0.2507E-01
     -0.801  0.4758E-01  0.4420E-01  0.4023E-01  0.3253E-01
     -0.625  0.5319E-01  0.4432E-01  0.4911E-01  0.4031E-01
     -0.448  0.5935E-01  0.4851E-01  0.5902E-01  0.4849E-01
     -0.272  0.6605E-01  0.5299E-01  0.7007E-01  0.5743E-01
     -0.096  0.7329E-01  0.5776E-01  0.8235E-01  0.6719E-01
      0.081  0.8108E-01  0.6283E-01  0.9595E-01  0.7782E-01
      0.257  0.9285E-01  0.6818E-01  0.1111E+00  0.8937E-01
      0.433  0.1112E+00  0.7292E-01  0.1290E+00  0.1018E+00
      0.610  0.1309E+00  0.8087E-01  0.1504E+00  0.1154E+00
      0.786  0.1580E+00  0.8868E-01  0.1756E+00  0.1304E+00
      0.962  0.2044E+00  0.9576E-01  0.2073E+00  0.1466E+00
      1.139  0.2654E+00  0.1032E+00  0.2485E+00  0.1642E+00
      1.315  0.5035E+00  0.1134E+00  0.3221E+00  0.1832E+00
      1.491  0.6261E+00  0.1261E+00  0.4219E+00  0.2043E+00
      1.668  0.9689E+00  0.1406E+00  0.5590E+00  0.2278E+00
      1.844  0.1026E+01  0.1570E+00  0.7445E+00  0.2540E+00
      2.020  0.7627E+00  0.1751E+00  0.9025E+00  0.2832E+00
      2.197  0.4952E+00  0.2123E+00  0.1006E+01  0.3163E+00
      2.373  0.3259E+00  0.3539E+00  0.1081E+01  0.3638E+00
      2.549  0.4048E+00  0.3867E+00  0.1145E+01  0.4318E+00
      2.726  0.1601E+01  0.3941E+00  0.1335E+01  0.4998E+00
      2.902  0.1434E+01  0.3983E+00  0.1619E+01  0.5700E+00
      3.078  0.7329E+00  0.4533E+00  0.1807E+01  0.6423E+00
      3.255  0.7387E+00  0.6906E+00  0.1932E+01  0.7447E+00
      3.431  0.1024E+01  0.6294E+00  0.2083E+01  0.8770E+00
      3.607  0.1751E+01  0.4641E+00  0.2316E+01  0.9739E+00
      3.784  0.1172E+01  0.2242E+00  0.2622E+01  0.1041E+01
      3.960  0.4738E+00  0.1489E+00  0.2746E+01  0.1076E+01
      4.136  0.3949E+00  0.4189E+00  0.2822E+01  0.1114E+01
      4.313  0.3804E+00  0.1149E+01  0.2889E+01  0.1267E+01
      4.489  0.4577E+00  0.1374E+01  0.2960E+01  0.1482E+01
      4.665  0.6873E+00  0.9713E+00  0.3068E+01  0.1728E+01
      4.842  0.1241E+01  0.1012E+01  0.3232E+01  0.1899E+01
      5.018  0.2007E+01  0.9911E+00  0.3521E+01  0.2079E+01
      5.194  0.2079E+01  0.1276E+01  0.3893E+01  0.2270E+01
      5.371  0.2334E+01  0.1295E+01  0.4258E+01  0.2504E+01
      5.547  0.1159E+01  0.9771E+00  0.4530E+01  0.2704E+01
      5.723  0.8427E+00  0.3476E+00  0.4707E+01  0.2830E+01
      5.900  0.7700E+00  0.2308E+00  0.4847E+01  0.2878E+01
      6.076  0.8577E+00  0.1711E+00  0.4984E+01  0.2915E+01
      6.253  0.1013E+01  0.1439E+00  0.5154E+01  0.2941E+01
      6.429  0.2096E+00  0.2207E+00  0.5226E+01  0.2971E+01
      6.605  0.1413E+00  0.3104E+00  0.5254E+01  0.3019E+01
      6.782  0.1463E+00  0.4239E+00  0.5279E+01  0.3083E+01
      6.958  0.1718E+00  0.6273E+00  0.5308E+01  0.3174E+01
      7.134  0.1649E+00  0.8713E+00  0.5337E+01  0.3307E+01
      7.311  0.1562E+00  0.1216E+01  0.5365E+01  0.3485E+01
      7.487  0.1472E+00  0.1510E+01  0.5392E+01  0.3728E+01
      7.663  0.1455E+00  0.1311E+01  0.5418E+01  0.3999E+01
      7.840  0.1453E+00  0.1129E+01  0.5444E+01  0.4200E+01
      8.016  0.1452E+00  0.2004E+01  0.5469E+01  0.4425E+01
      8.192  0.1451E+00  0.1374E+01  0.5495E+01  0.4818E+01
      8.369  0.1451E+00  0.1244E+01  0.5520E+01  0.5037E+01
      8.545  0.1451E+00  0.4496E+00  0.5546E+01  0.5205E+01
      8.721  0.1440E+00  0.2708E+00  0.5571E+01  0.5253E+01
      8.898  0.1418E+00  0.2538E+00  0.5597E+01  0.5300E+01
      9.074  0.1391E+00  0.2341E+00  0.5621E+01  0.5343E+01
      9.250  0.1416E+00  0.2085E+00  0.5647E+01  0.5382E+01
      9.427  0.1350E+00  0.1936E+00  0.5671E+01  0.5417E+01
      9.603  0.1305E+00  0.1902E+00  0.5694E+01  0.5451E+01
      9.779  0.1266E+00  0.1879E+00  0.5719E+01  0.5484E+01
      9.956  0.1218E+00  0.1868E+00  0.5741E+01  0.5517E+01
     10.132  0.1171E+00  0.1839E+00  0.5762E+01  0.5550E+01
     10.308  0.1124E+00  0.1786E+00  0.5782E+01  0.5582E+01
     10.485  0.1078E+00  0.1773E+00  0.5802E+01  0.5613E+01
     10.661  0.1032E+00  0.1669E+00  0.5820E+01  0.5643E+01
     10.837  0.9871E-01  0.1546E+00  0.5838E+01  0.5672E+01
     11.014  0.9225E-01  0.1542E+00  0.5855E+01  0.5699E+01
     11.190  0.8606E-01  0.1566E+00  0.5871E+01  0.5727E+01
     11.366  0.7995E-01  0.1376E+00  0.5885E+01  0.5752E+01
     11.543  0.7391E-01  0.1312E+00  0.5899E+01  0.5775E+01
     11.719  0.7732E-01  0.1251E+00  0.5913E+01  0.5798E+01
     11.895  0.6981E-01  0.1191E+00  0.5926E+01  0.5820E+01
     12.072  0.5957E-01  0.1133E+00  0.5937E+01  0.5840E+01
     12.248  0.4390E-01  0.1062E+00  0.5946E+01  0.5860E+01
     12.424  0.4040E-01  0.9802E-01  0.5953E+01  0.5878E+01
     12.601  0.3710E-01  0.9810E-01  0.5960E+01  0.5895E+01
     12.777  0.3065E-01  0.8935E-01  0.5967E+01  0.5911E+01
     12.953  0.2399E-01  0.7827E-01  0.5972E+01  0.5926E+01
     13.130  0.1931E-01  0.5469E-01  0.5976E+01  0.5938E+01
     13.306  0.1659E-01  0.4996E-01  0.5979E+01  0.5948E+01
     13.482  0.1611E-01  0.4552E-01  0.5982E+01  0.5956E+01
     13.659  0.1863E-01  0.4195E-01  0.5985E+01  0.5965E+01
     13.835  0.2420E-01  0.3233E-01  0.5989E+01  0.5972E+01
     14.011  0.4681E-01  0.2497E-01  0.5994E+01  0.5977E+01
     14.188  0.7792E-01  0.1987E-01  0.6005E+01  0.5980E+01
     14.364  0.1157E+00  0.1702E-01  0.6022E+01  0.5984E+01
     14.541  0.1741E+00  0.1655E-01  0.6048E+01  0.5987E+01
     14.717  0.2266E+00  0.1869E-01  0.6086E+01  0.5990E+01
     14.893  0.2448E+00  0.2344E-01  0.6128E+01  0.5993E+01
     15.070  0.2552E+00  0.3332E-01  0.6172E+01  0.5999E+01
     15.246  0.2658E+00  0.4963E-01  0.6218E+01  0.6006E+01
     15.422  0.1851E+00  0.9699E-01  0.6261E+01  0.6019E+01
     15.599  0.1811E+00  0.1766E+00  0.6294E+01  0.6043E+01
     15.775  0.1768E+00  0.2305E+00  0.6325E+01  0.6079E+01
     15.951  0.1719E+00  0.2836E+00  0.6356E+01  0.6125E+01
     16.128  0.1668E+00  0.2990E+00  0.6386E+01  0.6177E+01
     16.304  0.1637E+00  0.3046E+00  0.6415E+01  0.6230E+01
     16.480  0.1663E+00  0.2093E+00  0.6444E+01  0.6274E+01
     16.657  0.1720E+00  0.2030E+00  0.6475E+01  0.6311E+01
     16.833  0.1679E+00  0.1961E+00  0.6505E+01  0.6346E+01
     17.009  0.1728E+00  0.1978E+00  0.6535E+01  0.6381E+01
     17.186  0.1642E+00  0.1988E+00  0.6565E+01  0.6416E+01
     17.362  0.1690E+00  0.1649E+00  0.6594E+01  0.6455E+01
     17.538  0.1756E+00  0.1655E+00  0.6625E+01  0.6484E+01
     17.715  0.1922E+00  0.1745E+00  0.6658E+01  0.6513E+01
     17.891  0.1949E+00  0.1786E+00  0.6692E+01  0.6545E+01
     18.067  0.1970E+00  0.1834E+00  0.6726E+01  0.6576E+01
     18.244  0.1995E+00  0.1888E+00  0.6761E+01  0.6609E+01
     18.420  0.2025E+00  0.1961E+00  0.6797E+01  0.6643E+01
     18.596  0.2045E+00  0.2086E+00  0.6833E+01  0.6681E+01
     18.773  0.2051E+00  0.2110E+00  0.6869E+01  0.6718E+01
     18.949  0.2115E+00  0.2134E+00  0.6907E+01  0.6755E+01
     19.125  0.1991E+00  0.2157E+00  0.6946E+01  0.6793E+01
     19.302  0.1877E+00  0.2173E+00  0.6981E+01  0.6831E+01
     19.478  0.1853E+00  0.2173E+00  0.7014E+01  0.6870E+01
     19.654  0.1830E+00  0.2104E+00  0.7046E+01  0.6912E+01
     19.831  0.1809E+00  0.2086E+00  0.7078E+01  0.6949E+01
     20.007  0.1798E+00  0.1962E+00  0.7110E+01  0.6984E+01
     20.183  0.1784E+00  0.1938E+00  0.7142E+01  0.7019E+01
     20.360  0.1771E+00  0.1914E+00  0.7173E+01  0.7053E+01
     20.536  0.1824E+00  0.1891E+00  0.7204E+01  0.7086E+01
     20.712  0.1761E+00  0.1881E+00  0.7236E+01  0.7119E+01
     20.889  0.1720E+00  0.1869E+00  0.7267E+01  0.7153E+01
     21.065  0.1708E+00  0.1857E+00  0.7297E+01  0.7185E+01
     21.241  0.1692E+00  0.1956E+00  0.7327E+01  0.7218E+01
     21.418  0.1670E+00  0.1855E+00  0.7356E+01  0.7252E+01
     21.594  0.1658E+00  0.1808E+00  0.7386E+01  0.7284E+01
     21.770  0.1646E+00  0.1796E+00  0.7415E+01  0.7316E+01
     21.947  0.1634E+00  0.1774E+00  0.7444E+01  0.7347E+01
     22.123  0.1622E+00  0.1762E+00  0.7473E+01  0.7378E+01
     22.299  0.1609E+00  0.1751E+00  0.7501E+01  0.7409E+01
     22.476  0.1666E+00  0.1741E+00  0.7531E+01  0.7440E+01
     22.652  0.1681E+00  0.1731E+00  0.7560E+01  0.7471E+01
     22.829  0.1712E+00  0.1720E+00  0.7590E+01  0.7501E+01
     23.005  0.1750E+00  0.1709E+00  0.7621E+01  0.7531E+01
     23.181  0.1799E+00  0.1695E+00  0.7652E+01  0.7561E+01
     23.358  0.2006E+00  0.1764E+00  0.7685E+01  0.7592E+01
     23.534  0.1993E+00  0.1800E+00  0.7720E+01  0.7624E+01
     23.710  0.2123E+00  0.1861E+00  0.7757E+01  0.7656E+01
     23.887  0.2284E+00  0.1947E+00  0.7796E+01  0.7690E+01
     24.063  0.2239E+00  0.2171E+00  0.7837E+01  0.7725E+01
     24.239  0.2301E+00  0.2155E+00  0.7877E+01  0.7764E+01
     24.416  0.2353E+00  0.2361E+00  0.7918E+01  0.7804E+01
     24.592  0.2403E+00  0.2471E+00  0.7960E+01  0.7847E+01
     24.768  0.2451E+00  0.2436E+00  0.8003E+01  0.7890E+01
     24.945  0.2393E+00  0.2488E+00  0.8046E+01  0.7933E+01
     25.121  0.2517E+00  0.2425E+00  0.8089E+01  0.7977E+01
     25.297  0.2607E+00  0.2462E+00  0.8135E+01  0.8020E+01
     25.474  0.2751E+00  0.2495E+00  0.8182E+01  0.8063E+01
     25.650  0.2770E+00  0.2587E+00  0.8230E+01  0.8108E+01
     25.826  0.2875E+00  0.3092E+00  0.8280E+01  0.8155E+01
     26.003  0.3090E+00  0.2743E+00  0.8333E+01  0.8203E+01
     26.179  0.2991E+00  0.2837E+00  0.8387E+01  0.8253E+01
     26.355  0.2951E+00  0.2928E+00  0.8439E+01  0.8303E+01
     26.532  0.2851E+00  0.3102E+00  0.8490E+01  0.8356E+01
     26.708  0.2804E+00  0.3125E+00  0.8540E+01  0.8413E+01
     26.884  0.2730E+00  0.3016E+00  0.8589E+01  0.8467E+01
     27.061  0.2645E+00  0.2956E+00  0.8636E+01  0.8520E+01
     27.237  0.2552E+00  0.2852E+00  0.8682E+01  0.8571E+01
     27.413  0.2442E+00  0.2745E+00  0.8726E+01  0.8620E+01
     27.590  0.2311E+00  0.2640E+00  0.8768E+01  0.8668E+01
     27.766  0.2167E+00  0.2523E+00  0.8807E+01  0.8713E+01
     27.942  0.2009E+00  0.2387E+00  0.8844E+01  0.8757E+01
     28.119  0.1778E+00  0.2231E+00  0.8878E+01  0.8798E+01
     28.295  0.1635E+00  0.2089E+00  0.8908E+01  0.8836E+01
     28.471  0.1537E+00  0.1899E+00  0.8936E+01  0.8871E+01
     28.648  0.1473E+00  0.1750E+00  0.8962E+01  0.8903E+01
     28.824  0.1460E+00  0.1633E+00  0.8988E+01  0.8933E+01
     29.000  0.1470E+00  0.1461E+00  0.9014E+01  0.8960E+01
     29.177  0.1524E+00  0.1487E+00  0.9040E+01  0.8986E+01
     29.353  0.1457E+00  0.1508E+00  0.9066E+01  0.9013E+01
     29.529  0.1453E+00  0.1547E+00  0.9092E+01  0.9040E+01
     29.706  0.1446E+00  0.1480E+00  0.9118E+01  0.9067E+01
     29.882  0.1537E+00  0.1436E+00  0.9144E+01  0.9093E+01
     30.058  0.1463E+00  0.1468E+00  0.9171E+01  0.9119E+01
     30.235  0.1374E+00  0.1605E+00  0.9196E+01  0.9147E+01
     30.411  0.1409E+00  0.1412E+00  0.9220E+01  0.9174E+01
     30.587  0.1452E+00  0.1422E+00  0.9246E+01  0.9198E+01
     30.764  0.1511E+00  0.1454E+00  0.9272E+01  0.9224E+01
     30.940  0.1582E+00  0.1487E+00  0.9299E+01  0.9250E+01
     31.116  0.1662E+00  0.1486E+00  0.9327E+01  0.9277E+01
     31.293  0.1728E+00  0.1520E+00  0.9359E+01  0.9304E+01
     31.469  0.2413E+00  0.1576E+00  0.9394E+01  0.9331E+01
     31.646  0.4008E+00  0.1655E+00  0.9451E+01  0.9360E+01
     31.822  0.2662E+00  0.2245E+00  0.9511E+01  0.9393E+01
     31.998  0.2444E+00  0.3092E+00  0.9556E+01  0.9440E+01
     32.175  0.2219E+00  0.3038E+00  0.9597E+01  0.9504E+01
     32.351  0.1945E+00  0.2767E+00  0.9634E+01  0.9556E+01
     32.527  0.1762E+00  0.2387E+00  0.9666E+01  0.9601E+01
     32.704  0.1760E+00  0.2159E+00  0.9697E+01  0.9641E+01
     32.880  0.1766E+00  0.1820E+00  0.9728E+01  0.9675E+01
     33.056  0.1799E+00  0.1798E+00  0.9760E+01  0.9707E+01
     33.233  0.1735E+00  0.1739E+00  0.9791E+01  0.9738E+01
     33.409  0.1671E+00  0.1672E+00  0.9821E+01  0.9769E+01
     33.585  0.1607E+00  0.1602E+00  0.9850E+01  0.9797E+01
     33.762  0.1732E+00  0.1530E+00  0.9880E+01  0.9825E+01
     33.938  0.1575E+00  0.1551E+00  0.9910E+01  0.9853E+01
     34.114  0.1539E+00  0.1783E+00  0.9938E+01  0.9880E+01
     34.291  0.2309E+00  0.1584E+00  0.9967E+01  0.9914E+01
     34.467  0.2209E+00  0.1577E+00  0.1001E+02  0.9942E+01
     34.643  0.2598E+00  0.1490E+00  0.1005E+02  0.9969E+01
     34.820  0.2788E+00  0.2086E+00  0.1010E+02  0.1000E+02
     34.996  0.3092E+00  0.2316E+00  0.1015E+02  0.1004E+02
     35.172  0.3223E+00  0.2806E+00  0.1020E+02  0.1009E+02
     35.349  0.3192E+00  0.3097E+00  0.1026E+02  0.1014E+02
     35.525  0.3221E+00  0.3193E+00  0.1032E+02  0.1019E+02
     35.701  0.3187E+00  0.3285E+00  0.1037E+02  0.1025E+02
     35.878  0.3246E+00  0.3292E+00  0.1043E+02  0.1031E+02
     36.054  0.3139E+00  0.3210E+00  0.1049E+02  0.1037E+02
     36.230  0.2917E+00  0.3061E+00  0.1054E+02  0.1042E+02
     36.407  0.2615E+00  0.3078E+00  0.1059E+02  0.1048E+02
     36.583  0.2482E+00  0.2939E+00  0.1063E+02  0.1053E+02
     36.759  0.2376E+00  0.2740E+00  0.1068E+02  0.1058E+02
     36.936  0.2308E+00  0.2576E+00  0.1072E+02  0.1063E+02
     37.112  0.2255E+00  0.2483E+00  0.1076E+02  0.1067E+02
     37.288  0.2192E+00  0.2377E+00  0.1080E+02  0.1071E+02
     37.465  0.2157E+00  0.2320E+00  0.1084E+02  0.1076E+02
     37.641  0.2035E+00  0.2278E+00  0.1087E+02  0.1080E+02
     37.817  0.2000E+00  0.2510E+00  0.1091E+02  0.1084E+02
     37.994  0.2077E+00  0.2285E+00  0.1095E+02  0.1088E+02
     38.170  0.2225E+00  0.2015E+00  0.1098E+02  0.1092E+02
     38.346  0.2399E+00  0.2046E+00  0.1102E+02  0.1095E+02
     38.523  0.2551E+00  0.2139E+00  0.1107E+02  0.1099E+02
     38.699  0.2687E+00  0.2278E+00  0.1111E+02  0.1103E+02
     38.875  0.2998E+00  0.2452E+00  0.1116E+02  0.1107E+02
     39.052  0.3080E+00  0.2708E+00  0.1122E+02  0.1112E+02
     39.228  0.3405E+00  0.2837E+00  0.1128E+02  0.1117E+02
     39.404  0.3105E+00  0.2959E+00  0.1134E+02  0.1122E+02
     39.581  0.2744E+00  0.3247E+00  0.1139E+02  0.1127E+02
     39.757  0.2282E+00  0.3201E+00  0.1144E+02  0.1133E+02
     39.934  0.2205E+00  0.2917E+00  0.1148E+02  0.1139E+02
     40.110  0.2128E+00  0.2459E+00  0.1151E+02  0.1143E+02
     40.286  0.2051E+00  0.2216E+00  0.1155E+02  0.1147E+02
     40.463  0.1974E+00  0.2137E+00  0.1159E+02  0.1151E+02
     40.639  0.1897E+00  0.1999E+00  0.1162E+02  0.1155E+02
     40.815  0.1762E+00  0.1932E+00  0.1165E+02  0.1159E+02
     40.992  0.1695E+00  0.1866E+00  0.1168E+02  0.1162E+02
     41.168  0.1630E+00  0.1801E+00  0.1171E+02  0.1165E+02
     41.344  0.1672E+00  0.1738E+00  0.1174E+02  0.1168E+02
     41.521  0.1810E+00  0.1676E+00  0.1177E+02  0.1171E+02
     41.697  0.1833E+00  0.1758E+00  0.1180E+02  0.1174E+02
     41.873  0.1945E+00  0.1748E+00  0.1184E+02  0.1177E+02
     42.050  0.1097E+00  0.1678E+00  0.1186E+02  0.1180E+02
     42.226  0.8396E-01  0.1698E+00  0.1188E+02  0.1183E+02
     42.402  0.6761E-01  0.1120E+00  0.1189E+02  0.1186E+02
     42.579  0.6216E-01  0.7879E-01  0.1190E+02  0.1188E+02
     42.755  0.5808E-01  0.6697E-01  0.1191E+02  0.1189E+02
     42.931  0.5416E-01  0.6268E-01  0.1192E+02  0.1190E+02
     43.108  0.5039E-01  0.5854E-01  0.1193E+02  0.1191E+02
     43.284  0.4677E-01  0.5456E-01  0.1194E+02  0.1192E+02
     43.460  0.4331E-01  0.5073E-01  0.1195E+02  0.1193E+02
     43.637  0.4000E-01  0.4706E-01  0.1196E+02  0.1194E+02
     43.813  0.3684E-01  0.4354E-01  0.1196E+02  0.1195E+02
     43.989  0.3383E-01  0.4017E-01  0.1197E+02  0.1196E+02
     44.166  0.3098E-01  0.3696E-01  0.1198E+02  0.1197E+02
     44.342  0.2398E-01  0.2931E-01  0.1198E+02  0.1197E+02
     44.518  0.2196E-01  0.2694E-01  0.1199E+02  0.1198E+02
     44.695  0.2008E-01  0.2470E-01  0.1199E+02  0.1198E+02
     44.871  0.1771E-01  0.2259E-01  0.1200E+02  0.1199E+02
     45.047  0.8477E-02  0.2062E-01  0.1200E+02  0.1199E+02
     45.224  0.3604E-02  0.1626E-01  0.1200E+02  0.1199E+02
     45.400  0.2585E-02  0.1072E-01  0.1200E+02  0.1200E+02
     45.576  0.0000E+00  0.6507E-02  0.1200E+02  0.1200E+02
     45.753  0.0000E+00  0.3617E-02  0.1200E+02  0.1200E+02
     45.929  0.0000E+00  0.8593E-04  0.1200E+02  0.1200E+02
     46.105  0.0000E+00  0.0000E+00  0.1200E+02  0.1200E+02
     46.282  0.0000E+00  0.0000E+00  0.1200E+02  0.1200E+02
     46.458  0.0000E+00  0.0000E+00  0.1200E+02  0.1200E+02
     46.634  0.0000E+00  0.0000E+00  0.1200E+02  0.1200E+02
     46.811  0.0000E+00  0.0000E+00  0.1200E+02  0.1200E+02
     46.987  0.0000E+00  0.0000E+00  0.1200E+02  0.1200E+02
     47.163  0.0000E+00  0.0000E+00  0.1200E+02  0.1200E+02
     47.340  0.0000E+00  0.0000E+00  0.1200E+02  0.1200E+02
     47.516  0.0000E+00  0.0000E+00  0.1200E+02  0.1200E+02
     47.692  0.0000E+00  0.0000E+00  0.1200E+02  0.1200E+02
     47.869  0.0000E+00  0.0000E+00  0.1200E+02  0.1200E+02
     48.045  0.0000E+00  0.0000E+00  0.1200E+02  0.1200E+02
     48.222  0.0000E+00  0.0000E+00  0.1200E+02  0.1200E+02
     48.398  0.0000E+00  0.0000E+00  0.1200E+02  0.1200E+02
     48.39785670     -4.50425629  301      6.17504448      1.00000000
     -4.504  0.0000E+00  0.0000E+00  0.0000E+00  0.0000E+00  0.0000E+00  0.0000E+00  0.0000E+00  0.0000E+00  0.0000E+00  0.0000E+00  0.0000E+00  0.0000E+00  0.0000E+00  0.0000E+00  0.0000E+00  0.0000E+00  0.0000E+00  0.0000E+00
     -4.328  0.0000E+00  0.0000E+00  0.0000E+00  0.0000E+00  0.0000E+00  0.0000E+00  0.0000E+00  0.0000E+00  0.0000E+00  0.0000E+00  0.0000E+00  0.0000E+00  0.0000E+00  0.0000E+00  0.0000E+00  0.0000E+00  0.0000E+00  0.0000E+00
     -4.152  0.0000E+00  0.0000E+00  0.0000E+00  0.0000E+00  0.0000E+00  0.0000E+00  0.0000E+00  0.0000E+00  0.0000E+00  0.0000E+00  0.0000E+00  0.0000E+00  0.0000E+00  0.0000E+00  0.0000E+00  0.0000E+00  0.0000E+00  0.0000E+00
     -3.975  0.0000E+00  0.0000E+00  0.0000E+00  0.0000E+00  0.0000E+00  0.0000E+00  0.0000E+00  0.0000E+00  0.0000E+00  0.0000E+00  0.0000E+00  0.0000E+00  0.0000E+00  0.0000E+00  0.0000E+00  0.0000E+00  0.0000E+00  0.0000E+00
     -3.799  0.0000E+00  0.0000E+00  0.0000E+00  0.0000E+00  0.0000E+00  0.0000E+00  0.0000E+00  0.0000E+00  0.0000E+00  0.0000E+00  0.0000E+00  0.0000E+00  0.0000E+00  0.0000E+00  0.0000E+00  0.0000E+00  0.0000E+00  0.0000E+00
     -3.623  0.0000E+00  0.0000E+00  0.0000E+00  0.0000E+00  0.0000E+00  0.0000E+00  0.0000E+00  0.0000E+00  0.0000E+00  0.0000E+00  0.0000E+00  0.0000E+00  0.0000E+00  0.0000E+00  0.0000E+00  0.0000E+00  0.0000E+00  0.0000E+00
     -3.446  0.0000E+00  0.0000E+00  0.0000E+00  0.0000E+00  0.0000E+00  0.0000E+00  0.0000E+00  0.0000E+00  0.0000E+00  0.0000E+00  0.0000E+00  0.0000E+00  0.0000E+00  0.0000E+00  0.0000E+00  0.0000E+00  0.0000E+00  0.0000E+00
     -3.270  0.0000E+00  0.0000E+00  0.0000E+00  0.0000E+00  0.0000E+00  0.0000E+00  0.0000E+00  0.0000E+00  0.0000E+00  0.0000E+00  0.0000E+00  0.0000E+00  0.0000E+00  0.0000E+00  0.0000E+00  0.0000E+00  0.0000E+00  0.0000E+00
     -3.094  0.0000E+00  0.0000E+00  0.0000E+00  0.0000E+00  0.0000E+00  0.0000E+00  0.0000E+00  0.0000E+00  0.0000E+00  0.0000E+00  0.0000E+00  0.0000E+00  0.0000E+00  0.0000E+00  0.0000E+00  0.0000E+00  0.0000E+00  0.0000E+00
     -2.917  0.0000E+00  0.0000E+00  0.0000E+00  0.0000E+00  0.0000E+00  0.0000E+00  0.0000E+00  0.0000E+00  0.0000E+00  0.0000E+00  0.0000E+00  0.0000E+00  0.0000E+00  0.0000E+00  0.0000E+00  0.0000E+00  0.0000E+00  0.0000E+00
     -2.741  0.0000E+00  0.0000E+00  0.0000E+00  0.0000E+00  0.0000E+00  0.0000E+00  0.0000E+00  0.0000E+00  0.0000E+00  0.0000E+00  0.0000E+00  0.0000E+00  0.0000E+00  0.0000E+00  0.0000E+00  0.0000E+00  0.0000E+00  0.0000E+00
     -2.565  0.0000E+00  0.0000E+00  0.0000E+00  0.0000E+00  0.0000E+00  0.0000E+00  0.0000E+00  0.0000E+00  0.0000E+00  0.0000E+00  0.0000E+00  0.0000E+00  0.0000E+00  0.0000E+00  0.0000E+00  0.0000E+00  0.0000E+00  0.0000E+00
     -2.388  0.0000E+00  0.0000E+00  0.0000E+00  0.0000E+00  0.0000E+00  0.0000E+00  0.0000E+00  0.0000E+00  0.0000E+00  0.0000E+00  0.0000E+00  0.0000E+00  0.0000E+00  0.0000E+00  0.0000E+00  0.0000E+00  0.0000E+00  0.0000E+00
     -2.212  0.0000E+00  0.0000E+00  0.0000E+00  0.0000E+00  0.0000E+00  0.0000E+00  0.0000E+00  0.0000E+00  0.0000E+00  0.0000E+00  0.0000E+00  0.0000E+00  0.0000E+00  0.0000E+00  0.0000E+00  0.0000E+00  0.0000E+00  0.0000E+00
     -2.035  0.8461E-02  0.0000E+00  0.8731E-04  0.0000E+00  0.5923E-04  0.0000E+00  0.3723E-03  0.0000E+00  0.2744E-04  0.0000E+00  0.7186E-05  0.0000E+00  0.1014E-04  0.0000E+00  0.6848E-05  0.0000E+00  0.1151E-04  0.0000E+00
     -1.859  0.1266E-01  0.9397E-02  0.1896E-03  0.1126E-03  0.1189E-03  0.7463E-04  0.6637E-03  0.4368E-03  0.6675E-04  0.2287E-04  0.1963E-04  0.6513E-05  0.2554E-04  0.8038E-05  0.1488E-04  0.6020E-05  0.2899E-04  0.9613E-05
     -1.683  0.1606E-01  0.1326E-01  0.2947E-03  0.2148E-03  0.1679E-03  0.1310E-03  0.9878E-03  0.7288E-03  0.1161E-03  0.4850E-04  0.3740E-04  0.1469E-04  0.4714E-04  0.1780E-04  0.2311E-04  0.1128E-04  0.5607E-04  0.2136E-04
     -1.506  0.1866E-01  0.1632E-01  0.4024E-03  0.3198E-03  0.2063E-03  0.1770E-03  0.1345E-02  0.1051E-02  0.1754E-03  0.7984E-04  0.6047E-04  0.2542E-04  0.7493E-04  0.3097E-04  0.3154E-04  0.1645E-04  0.9274E-04  0.3838E-04
     -1.330  0.2296E-01  0.1861E-01  0.6001E-03  0.4274E-03  0.3072E-03  0.2127E-03  0.1871E-02  0.1404E-02  0.2739E-03  0.1169E-03  0.1258E-03  0.3868E-04  0.1199E-03  0.4756E-04  0.5209E-04  0.2154E-04  0.1513E-03  0.6066E-04
     -1.154  0.2676E-01  0.2304E-01  0.8309E-03  0.6445E-03  0.4499E-03  0.3312E-03  0.2393E-02  0.1939E-02  0.4073E-03  0.1807E-03  0.2453E-03  0.8156E-04  0.1828E-03  0.7421E-04  0.9096E-04  0.3658E-04  0.2321E-03  0.9628E-04
     -0.977  0.2924E-01  0.2629E-01  0.1069E-02  0.8714E-03  0.6161E-03  0.4748E-03  0.2859E-02  0.2424E-02  0.5689E-03  0.2569E-03  0.4124E-03  0.1483E-03  0.2614E-03  0.1065E-03  0.1464E-03  0.6020E-04  0.3325E-03  0.1406E-03
     -0.801  0.2859E-01  0.2827E-01  0.1290E-02  0.1105E-02  0.8276E-03  0.6410E-03  0.3347E-02  0.2852E-02  0.8172E-03  0.3450E-03  0.6655E-03  0.2383E-03  0.4168E-03  0.1444E-03  0.2525E-03  0.9220E-04  0.5653E-03  0.1935E-03
     -0.625  0.3093E-01  0.2710E-01  0.1508E-02  0.1312E-02  0.9988E-03  0.8481E-03  0.3941E-02  0.3274E-02  0.1215E-02  0.4691E-03  0.8629E-03  0.3667E-03  0.6528E-03  0.2145E-03  0.3562E-03  0.1500E-03  0.7772E-03  0.3144E-03
     -0.448  0.3342E-01  0.2895E-01  0.1735E-02  0.1520E-02  0.1178E-02  0.1008E-02  0.4604E-02  0.3801E-02  0.1692E-02  0.6548E-03  0.1095E-02  0.4607E-03  0.9428E-03  0.3081E-03  0.4838E-03  0.2018E-03  0.1025E-02  0.4174E-03
     -0.272  0.3605E-01  0.3089E-01  0.1970E-02  0.1734E-02  0.1364E-02  0.1174E-02  0.5335E-02  0.4382E-02  0.2249E-02  0.8715E-03  0.1361E-02  0.5678E-03  0.1287E-02  0.4193E-03  0.6354E-03  0.2632E-03  0.1310E-02  0.5354E-03
     -0.096  0.3882E-01  0.3290E-01  0.2213E-02  0.1955E-02  0.1558E-02  0.1345E-02  0.6135E-02  0.5017E-02  0.2886E-02  0.1119E-02  0.1662E-02  0.6880E-03  0.1685E-02  0.5480E-03  0.8108E-03  0.3343E-03  0.1631E-02  0.6683E-03
      0.081  0.4174E-01  0.3500E-01  0.2465E-02  0.2183E-02  0.1759E-02  0.1522E-02  0.7003E-02  0.5706E-02  0.3603E-02  0.1398E-02  0.1997E-02  0.8214E-03  0.2137E-02  0.6942E-03  0.1010E-02  0.4150E-03  0.1989E-02  0.8160E-03
      0.257  0.4513E-01  0.3718E-01  0.2874E-02  0.2418E-02  0.2176E-02  0.1705E-02  0.8120E-02  0.6449E-02  0.4885E-02  0.1708E-02  0.3084E-02  0.9680E-03  0.3044E-02  0.8581E-03  0.1562E-02  0.5054E-03  0.2581E-02  0.9787E-03
      0.433  0.4999E-01  0.3858E-01  0.3427E-02  0.2635E-02  0.2764E-02  0.1926E-02  0.9743E-02  0.7207E-02  0.7101E-02  0.2091E-02  0.5002E-02  0.1214E-02  0.4746E-02  0.1079E-02  0.2315E-02  0.6761E-03  0.3711E-02  0.1164E-02
      0.610  0.5399E-01  0.4093E-01  0.3863E-02  0.3032E-02  0.3295E-02  0.2333E-02  0.1161E-01  0.8217E-02  0.9934E-02  0.2774E-02  0.7296E-02  0.1803E-02  0.7105E-02  0.1489E-02  0.3196E-02  0.9206E-03  0.5282E-02  0.1494E-02
      0.786  0.5845E-01  0.4279E-01  0.4175E-02  0.3379E-02  0.3674E-02  0.2730E-02  0.1399E-01  0.9288E-02  0.1517E-01  0.3559E-02  0.1039E-01  0.2486E-02  0.1133E-01  0.2006E-02  0.4179E-02  0.1189E-02  0.7563E-02  0.1938E-02
      0.962  0.6686E-01  0.4385E-01  0.4665E-02  0.3631E-02  0.4120E-02  0.3078E-02  0.1703E-01  0.1037E-01  0.2560E-01  0.4468E-02  0.1558E-01  0.3242E-02  0.1935E-01  0.2645E-02  0.5266E-02  0.1476E-02  0.1066E-01  0.2493E-02
      1.139  0.7689E-01  0.4479E-01  0.5167E-02  0.3821E-02  0.4634E-02  0.3366E-02  0.2050E-01  0.1147E-01  0.4037E-01  0.5669E-02  0.2275E-01  0.4070E-02  0.3087E-01  0.3468E-02  0.6538E-02  0.1775E-02  0.1460E-01  0.3124E-02
      1.315  0.9886E-01  0.4675E-01  0.5867E-02  0.4078E-02  0.6217E-02  0.3673E-02  0.2664E-01  0.1271E-01  0.8829E-01  0.7307E-02  0.5675E-01  0.5044E-02  0.9415E-01  0.4529E-02  0.9142E-02  0.2085E-02  0.4807E-01  0.3824E-02
      1.491  0.9722E-01  0.4939E-01  0.6139E-02  0.4369E-02  0.7162E-02  0.3984E-02  0.3122E-01  0.1411E-01  0.9879E-01  0.9583E-02  0.6925E-01  0.6241E-02  0.1442E+00  0.5963E-02  0.1309E-01  0.2414E-02  0.7713E-01  0.4614E-02
      1.668  0.1107E+00  0.5229E-01  0.7601E-02  0.4665E-02  0.9909E-02  0.4310E-02  0.5247E-01  0.1563E-01  0.1413E+00  0.1236E-01  0.9193E-01  0.7645E-02  0.2771E+00  0.7712E-02  0.2614E-01  0.2777E-02  0.1313E+00  0.5498E-02
      1.844  0.8525E-01  0.5546E-01  0.8241E-02  0.4968E-02  0.8906E-02  0.4650E-02  0.5502E-01  0.1728E-01  0.1298E+00  0.1563E-01  0.9281E-01  0.9256E-02  0.3177E+00  0.9776E-02  0.3745E-01  0.3172E-02  0.1694E+00  0.6474E-02
      2.020  0.5170E-01  0.5889E-01  0.7281E-02  0.5276E-02  0.6680E-02  0.5004E-02  0.3629E-01  0.1905E-01  0.9759E-01  0.1941E-01  0.1050E+00  0.1107E-01  0.1844E+00  0.1216E-01  0.4743E-01  0.3601E-02  0.1432E+00  0.7544E-02
      2.197  0.2631E-01  0.6475E-01  0.5935E-02  0.5875E-02  0.3969E-02  0.5810E-02  0.1927E-01  0.2233E-01  0.5868E-01  0.2623E-01  0.9998E-01  0.1649E-01  0.7479E-01  0.1703E-01  0.4223E-01  0.4483E-02  0.1149E+00  0.1082E-01
      2.373  0.9038E-02  0.8731E-01  0.5517E-02  0.7125E-02  0.2099E-02  0.7870E-02  0.1273E-01  0.2911E-01  0.2142E-01  0.5837E-01  0.6683E-01  0.4221E-01  0.4684E-01  0.3791E-01  0.1994E-01  0.6781E-02  0.1095E+00  0.2003E-01
      2.549  0.3117E-02  0.8429E-01  0.1014E-01  0.6582E-02  0.4422E-02  0.8116E-02  0.1258E-01  0.3227E-01  0.2400E-01  0.6566E-01  0.5910E-01  0.4969E-01  0.8183E-01  0.4687E-01  0.3996E-01  0.8801E-02  0.1316E+00  0.2424E-01
      2.726  0.1843E-02  0.7790E-01  0.3331E-01  0.6089E-02  0.2354E-01  0.7934E-02  0.1751E-01  0.3380E-01  0.3140E+00  0.6715E-01  0.1910E+00  0.5169E-01  0.1564E+00  0.5190E-01  0.5644E+00  0.1103E-01  0.1941E+00  0.2675E-01
      2.902  0.3563E-02  0.7174E-01  0.2488E-01  0.5718E-02  0.1394E-01  0.7671E-02  0.1593E-01  0.3481E-01  0.1707E+00  0.6691E-01  0.2558E+00  0.5342E-01  0.1550E+00  0.5579E-01  0.5004E+00  0.1366E-01  0.2027E+00  0.2942E-01
      3.078  0.5972E-02  0.6461E-01  0.1310E-01  0.5572E-02  0.1157E-01  0.7338E-02  0.5957E-02  0.3868E-01  0.1427E+00  0.6671E-01  0.1045E+00  0.5326E-01  0.9348E-01  0.7323E-01  0.2381E+00  0.1714E-01  0.7181E-01  0.6101E-01
      3.255  0.1006E-01  0.6342E-01  0.2119E-01  0.7089E-02  0.2308E-01  0.8213E-02  0.1267E-01  0.5568E-01  0.1664E+00  0.7335E-01  0.1343E+00  0.6645E-01  0.6361E-01  0.1581E+00  0.1900E+00  0.2554E-01  0.6710E-01  0.1351E+00
      3.431  0.1607E-01  0.4716E-01  0.3265E-01  0.8723E-02  0.3329E-01  0.8772E-02  0.2279E-01  0.4177E-01  0.2273E+00  0.7067E-01  0.2337E+00  0.7080E-01  0.6976E-01  0.1682E+00  0.2079E+00  0.2944E-01  0.1094E+00  0.9940E-01
      3.607  0.2819E-01  0.3073E-01  0.5353E-01  0.8095E-02  0.4116E-01  0.6917E-02  0.4947E-01  0.2676E-01  0.3957E+00  0.5188E-01  0.4109E+00  0.6644E-01  0.9643E-01  0.1162E+00  0.3508E+00  0.2974E-01  0.2074E+00  0.6806E-01
      3.784  0.1994E-01  0.8192E-02  0.3663E-01  0.6189E-02  0.2609E-01  0.2922E-02  0.2899E-01  0.1278E-01  0.2604E+00  0.1012E-01  0.2305E+00  0.5126E-01  0.5541E-01  0.4582E-01  0.2939E+00  0.1040E-01  0.1453E+00  0.4881E-01
      3.960  0.1016E-01  0.6959E-04  0.2009E-01  0.6407E-02  0.1478E-01  0.1056E-02  0.1324E-01  0.4777E-02  0.6510E-01  0.3645E-02  0.1048E+00  0.1175E-02  0.2374E-01  0.4855E-01  0.1007E+00  0.3522E-02  0.8683E-01  0.5927E-01
      4.136  0.6916E-02  0.1736E-03  0.1452E-01  0.2090E-01  0.1019E-01  0.8239E-02  0.9680E-02  0.1143E-01  0.5163E-01  0.6501E-01  0.9535E-01  0.1779E-01  0.2098E-01  0.6268E-01  0.8792E-01  0.9090E-01  0.7219E-01  0.9697E-01
      4.313  0.5039E-02  0.8772E-03  0.1131E-01  0.4914E-01  0.8002E-02  0.1996E-01  0.7151E-02  0.2618E-01  0.5832E-01  0.1992E+00  0.9490E-01  0.1182E+00  0.2499E-01  0.1126E+00  0.8780E-01  0.3773E+00  0.6175E-01  0.1464E+00