    1    1    1    2
  0.1097600E+02  0.2424871E-09  0.2424871E-09  0.2424871E-09  0.5000000E-15
  1.000000000000000E-004
  CAR 
 Fe BCC                                  
      8     26     12
 
  0.6250000E-01  0.6250000E-01  0.6250000E-01  0.1562500E-01
    1       -1.465431     -1.324925   1.000000   1.000000
    2        3.577097      5.442382   1.000000   1.000000
    3        3.577097      5.442382   1.000000   1.000000
    4        4.428191      6.390838   1.000000   0.059982
    5        5.056631      7.697595   1.000000   0.000000
    6        5.056631      7.697595   1.003400   0.000000
    7       27.979713     28.151101   0.000000   0.000000
    8       27.979713     28.151101   0.000000   0.000000
    9       32.298080     32.178418   0.000000   0.000000
   10       32.469898     33.135258   0.000000   0.000000
   11       37.832087     38.107436   0.000000   0.000000
   12       37.832087     38.107436   0.000000   0.000000
 
  0.1875000E+00  0.6250000E-01  0.6250000E-01  0.4687500E-01
    1        0.161101      0.396044   1.000000   1.000000
    2        3.142458      4.920387   1.000000   1.000000
    3        3.365876      5.103541   1.000000   1.000000
    4        4.991710      7.510245   1.000000  -0.004964
    5        5.189432      7.547748   1.001116   0.000000
    6        5.509348      7.866339   0.878241   0.000000
    7       22.546921     23.127281   0.000000   0.000000
    8       25.618676     25.914037   0.000000   0.000000
    9       28.286850     29.010370   0.000000   0.000000
   10       32.886507     32.813574   0.000000   0.000000
   11       37.362980     37.927649   0.000000   0.000000
   12       38.452399     38.685008   0.000000   0.000000
 
  0.3125000E+00  0.6250000E-01  0.6250000E-01  0.4687500E-01
    1        1.273249      2.160325   1.000000   1.000000
    2        2.771280      4.472882   1.000000   1.000000
    3        4.190587      5.292631   1.000000   1.000000
    4        5.144160      7.650222   1.000000   0.000000
    5        5.294896      8.016383   1.034507   0.000000
    6        7.004063      8.891679   0.006734   0.000000
    7       17.024404     17.967257   0.000000   0.000000
    8       23.870285     24.151479   0.000000   0.000000
    9       25.854591     26.484526   0.000000   0.000000
   10       32.430085     32.610730   0.000000   0.000000
   11       36.660357     37.207806   0.000000   0.000000
   12       41.838968     41.979160   0.000000   0.000000
 
  0.4375000E+00  0.6250000E-01  0.6250000E-01  0.2343750E-01
    1        1.307568      2.571691   1.000000   1.000000
    2        2.629013      4.302058   1.000000   1.000000
    3        5.213546      6.138517   1.000000   1.000000
    4        5.230798      7.729484   1.000000   0.000000
    5        5.338326      8.081687   1.080374   0.000000
    6        8.400489      9.805814  -0.004887   0.000000
    7       13.905410     15.225585   0.000000   0.000000
    8       23.224269     23.482547   0.000000   0.000000
    9       24.947096     25.527733   0.000000   0.000000
   10       32.217150     32.475615   0.000000   0.000000
   11       36.570222     37.143009   0.000000   0.000000
   12       41.658247     41.667401   0.000000   0.000000
 
 -0.6250000E-01  0.6250000E-01  0.6250000E-01  0.1171875E-01
    1       -2.099615     -1.967277   1.000000   1.000000
    2        3.793870      5.696478   1.000000   1.000000
    3        3.793871      5.696478   1.000000   1.000000
    4        3.887048      5.811480   1.000000   0.834431
    5        4.975273      7.605609   1.000000   0.000000
    6        5.188979      7.876934   1.000000   0.000000
    7       29.851081     29.741487   0.000000   0.000000
    8       31.240250     31.106602   0.000000   0.000000
    9       31.240252     31.106604   0.000000   0.000000
   10       34.644237     34.994574   0.000000   0.000000
   11       36.998074     37.763110   0.000000   0.000000
   12       36.998075     37.763114   0.000000   0.000000
 
  0.1875000E+00  0.1875000E+00  0.6250000E-01  0.4687500E-01
    1        1.652204      2.201841   1.000000   1.000000
    2        2.843036      4.509119   1.000000   1.000000
    3        3.063367      4.628269   1.000000   1.000000
    4        5.078502      7.628693   1.000000   0.000000
    5        5.330081      8.011890   1.000904   0.000000
    6        7.225129      9.100764  -0.012506   0.000000
    7       19.968139     20.657417   0.000000   0.000000
    8       20.864117     21.485501   0.000000   0.000000
    9       24.894952     25.474040   0.000000   0.000000
   10       34.872998     34.793499   0.000000   0.000000
   11       38.757666     39.047071   0.000000   0.000000
   12       41.239382     41.527229   0.000000   0.000000
 
  0.3125000E+00  0.1875000E+00  0.6250000E-01  0.9375000E-01
    1        1.966416      3.232225   1.000000   1.000000
    2        2.669260      4.263245   1.000000   1.000000
    3        3.736376      4.944443   1.000000   1.000000
    4        5.229261      7.781740   1.000000   0.000000
    5        5.431952      8.089493   1.010193   0.000000
    6        9.754971     11.146270  -0.003411   0.000000
    7       15.300867     16.319264   0.000000   0.000000
    8       19.230362     19.873146   0.000000   0.000000
    9       23.553076     24.086534   0.000000   0.000000
   10       35.288862     35.348695   0.000000   0.000000
   11       39.750466     39.846620   0.000000   0.000000
   12       41.921149     42.326718   0.000000   0.000000
 
 -0.1875000E+00  0.1875000E+00  0.6250000E-01  0.4687500E-01
    1       -0.876306     -0.715561   1.000000   1.000000
    2        3.509727      5.354562   1.000000   1.000000
    3        3.713958      5.565419   1.000000   1.000000
    4        4.539442      6.523887   1.000000   0.000885
    5        4.718791      7.227846   1.000000   0.000000
    6        5.296242      7.993143   1.010618   0.000000
    7       25.442879     25.837879   0.000000   0.000000
    8       28.830877     28.932490   0.000000   0.000000
    9       29.824947     30.143508   0.000000   0.000000
   10       34.025180     34.399653   0.000000   0.000000
   11       34.245517     34.809239   0.000000   0.000000
   12       35.818071     36.232119   0.000000   0.000000
 
  0.3125000E+00  0.3125000E+00  0.6250000E-01  0.1562500E-01
    1        2.295430      3.777807   1.000000   1.000000
    2        3.052761      4.438950   1.000000   1.000000
    3        3.052761      4.438950   1.000000   1.000000
    4        5.376358      7.969525   1.000000   0.000000
    5        5.376358      7.969526   1.000046   0.000000
    6       13.359543     14.387985   0.000000   0.000000
    7       13.359544     14.387985   0.000000   0.000000
    8       16.043460     16.928215   0.000000   0.000000
    9       23.066691     23.619024   0.000000   0.000000
   10       37.783226     37.802094   0.000000   0.000000
   11       37.783226     37.802098   0.000000   0.000000
   12       45.314484     45.993215   0.000000   0.000000
 
 -0.3125000E+00  0.3125000E+00  0.6250000E-01  0.4687500E-01
    1        0.767456      1.249376   1.000000   1.000000
    2        3.088163      4.855010   1.000000   1.000000
    3        3.779316      5.306954   1.000000   1.000000
    4        4.938157      7.305366   1.000000   0.000000
    5        5.492146      7.716443   1.017876   0.000000
    6        5.612512      8.125351   0.702260   0.000000
    7       19.623278     20.407796   0.000000   0.000000
    8       26.359490     26.470388   0.000000   0.000000
    9       27.743025     28.325358   0.000000   0.000000
   10       32.279961     32.732760   0.000000   0.000000
   11       34.272675     34.770685   0.000000   0.000000
   12       37.171747     37.433808   0.000000   0.000000
 
 -0.1875000E+00  0.3125000E+00  0.6250000E-01  0.4687500E-01
    1        0.597175      0.900682   1.000000   1.000000
    2        3.276528      5.120270   1.000000   1.000000
    3        3.498560      5.244124   1.000000   1.001296
    4        4.585972      6.936556   1.000000  -0.002596
    5        5.322994      7.437215   1.002292   0.000000
    6        5.701977      8.248350   0.748345   0.000000
    7       22.602039     23.192874   0.000000   0.000000
    8       23.684604     24.231393   0.000000   0.000000
    9       30.216353     30.424149   0.000000   0.000000
   10       30.619462     31.102085   0.000000   0.000000
   11       34.425319     34.801239   0.000000   0.000000
   12       39.160274     39.485191   0.000000   0.000000
 
 -0.4375000E+00  0.4375000E+00  0.6250000E-01  0.4687500E-01
    1        1.183853      2.367401   1.000000   1.000000
    2        2.802837      4.520484   1.000000   1.000000
    3        4.599664      5.984324   1.000000   1.000000
    4        5.119191      7.537001   1.000000   0.000000
    5        6.477498      8.541259   0.433343   0.000000
    6        6.867568      8.699596   0.002845   0.000000
    7       14.815886     16.014517   0.000000   0.000000
    8       24.940744     25.021671   0.000000   0.000000
    9       26.089863     26.651845   0.000000   0.000000
   10       31.548105     32.033508   0.000000   0.000000
   11       34.584211     35.160244   0.000000   0.000000
   12       38.809598     38.910500   0.000000   0.000000
 
 -0.3125000E+00  0.4375000E+00  0.6250000E-01  0.9375000E-01
    1        1.629088      2.582097   1.000000   1.000000
    2        2.955182      4.661448   1.000000   1.000000
    3        3.568480      5.104532   1.000000   1.002246
    4        4.907217      7.214066   1.000000   0.000000
    5        5.740365      8.136901   1.023492   0.000000
    6        7.512421      9.335834  -0.036412   0.000000
    7       17.401344     18.303046   0.000000   0.000000
    8       21.377509     21.964759   0.000000   0.000000
    9       28.062115     28.392315   0.000000   0.000000
   10       31.313078     31.679453   0.000000   0.000000
   11       35.028361     35.327737   0.000000   0.000000
   12       39.745512     40.164350   0.000000   0.000000
 
 -0.4375000E+00 -0.4375000E+00  0.6250000E-01  0.4687500E-01
    1        1.643415      3.001714   1.000000   1.000000
    2        2.946537      4.647160   1.000000   1.000000
    3        3.748456      5.233209   1.000000   1.001481
    4        5.020704      7.382789   1.000000   0.000000
    5        6.108684      8.385260   0.838973   0.000000
    6        9.548291     10.797383  -0.001784   0.000000
    7       13.997861     15.253969   0.000000   0.000000
    8       20.661244     21.237085   0.000000   0.000000
    9       27.188279     27.486280   0.000000   0.000000
   10       31.692500     32.145453   0.000000   0.000000
   11       35.928763     36.017247   0.000000   0.000000
   12       39.055101     39.565837   0.000000   0.000000
 
 -0.3125000E+00 -0.4375000E+00  0.6250000E-01  0.4687500E-01
    1        2.373189      3.754648   1.000000   1.000000
    2        2.633717      4.256510   1.000000   1.000000
    3        3.208578      4.791995   1.000000   1.004198
    4        5.225916      7.528526   1.000000   0.000000
    5        5.710833      8.048301   1.052123   0.000000
    6       10.856820     12.144909  -0.000546   0.000000
    7       15.374722     16.351800   0.000000   0.000000
    8       16.848344     17.653277   0.000000   0.000000
    9       28.527818     28.988970   0.000000   0.000000
   10       31.645710     31.829217   0.000000   0.000000
   11       33.912578     34.108154   0.000000   0.000000
   12       41.512203     42.350962   0.000000   0.000000
 
  0.1875000E+00  0.1875000E+00  0.1875000E+00  0.1562500E-01
    1        2.653362      3.720411   1.000000   1.000000
    2        2.653362      4.190932   1.000000   1.000000
    3        2.855165      4.190932   1.000000   1.000000
    4        5.312581      8.008896   1.000000   0.000000
    5        5.312581      8.008896   1.000000   0.000000
    6        9.754987     11.241232  -0.004320   0.000000
    7       18.281830     19.004700   0.000000   0.000000
    8       18.281830     19.004700   0.000000   0.000000
    9       19.830450     20.498835   0.000000   0.000000
   10       39.628719     39.348445   0.000000   0.000000
   11       42.503224     42.655144   0.000000   0.000000
   12       42.503224     42.655144   0.000000   0.000000
 
  0.3125000E+00  0.1875000E+00  0.1875000E+00  0.2343750E-01
    1        2.536304      3.891657   1.000000   1.000000
    2        2.614179      4.102677   1.000000   1.000000
    3        3.312535      4.570662   1.000000   1.000000
    4        5.348821      8.044830   1.000000   0.000000
    5        5.365260      8.116915   1.000000   0.000000
    6       12.626440     13.657824   0.000000   0.000000
    7       14.569653     15.586479   0.000000   0.000000
    8       17.701239     18.430257   0.000000   0.000000
    9       18.852305     19.511483   0.000000   0.000000
   10       40.749327     40.633739   0.000000   0.000000
   11       44.260021     44.293188   0.000000   0.000000
   12       44.805752     45.125816   0.000000   0.000000
 
 -0.1875000E+00  0.1875000E+00  0.1875000E+00  0.1171875E-01
    1        0.188036      0.418920   1.000000   1.000000
    2        3.879916      5.802769   1.000000   1.000000
    3        3.953783      5.802769   1.000000   0.997094
    4        3.953784      6.214542   1.000000   0.020701
    5        4.553051      6.549125   1.000000   0.000000
    6        5.686926      8.334987   0.892323   0.000000
    7       25.486767     25.814346   0.000000   0.000000
    8       26.688909     27.244723   0.000000   0.000000
    9       26.688910     27.244726   0.000000   0.000000
   10       28.648277     29.015808   0.000000   0.000000
   11       38.282923     38.567329   0.000000   0.000000
   12       38.282924     38.567332   0.000000   0.000000
 
 -0.3125000E+00  0.3125000E+00  0.1875000E+00  0.4687500E-01
    1        1.493094      2.127680   1.000000   1.000000
    2        3.066821      5.022407   1.000000   1.000000
    3        3.805573      5.623748   1.000000   0.995996
    4        4.508765      6.530297   1.000000   0.000000
    5        5.488238      7.575601   1.037368   0.000000
    6        6.590556      8.806959   0.097445   0.000000
    7       20.491528     21.228066   0.000000   0.000000
    8       24.030724     24.635805   0.000000   0.000000
    9       25.104759     25.512315   0.000000   0.000000
   10       29.233104     29.618728   0.000000   0.000000
   11       37.349598     37.776151   0.000000   0.000000
   12       39.147995     39.525307   0.000000   0.000000
 
 -0.4375000E+00  0.4375000E+00  0.1875000E+00  0.4687500E-01
    1        1.744691      3.124560   1.000000   1.000000
    2        3.000034      4.633750   1.000000   1.000000
    3        3.595114      5.378834   1.000000   1.008465
    4        4.741098      6.891353   1.000000   0.000000
    5        6.390759      8.601023   0.280473   0.000000
    6        9.136986     10.475307  -0.010998   0.000000
    7       15.322779     16.375382   0.000000   0.000000
    8       22.364214     22.921655   0.000000   0.000000
    9       24.242439     24.671975   0.000000   0.000000
   10       31.748120     32.005337   0.000000   0.000000
   11       36.396389     36.843652   0.000000   0.000000
   12       37.161994     37.746702   0.000000   0.000000
 
 -0.3125000E+00  0.4375000E+00  0.1875000E+00  0.4687500E-01
    1        2.089416      3.301541   1.000000   1.000000
    2        2.401053      4.259441   1.000000   1.000000
    3        3.890469      5.703706   1.000000   0.939483
    4        4.929863      6.956004   1.000000   0.000000
    5        5.940341      8.120835   1.055764   0.000000
    6        9.036145     10.510300  -0.014449   0.000000
    7       18.278801     19.110071   0.000000   0.000000
    8       18.962846     19.634138   0.000000   0.000000
    9       26.572161     27.000919   0.000000   0.000000
   10       28.201282     28.592730   0.000000   0.000000
   11       36.063498     36.544798   0.000000   0.000000
   12       39.199624     39.894148   0.000000   0.000000
 
 -0.4375000E+00 -0.4375000E+00  0.1875000E+00  0.4687500E-01
    1        2.019628      3.678437   1.000000   1.000000
    2        2.417295      4.071367   1.000000   1.000000
    3        3.685428      5.426795   1.000000   0.970677
    4        5.260830      7.344745   1.000000   0.000000
    5        6.185114      8.373697   0.576300   0.000000
    6       12.098605     13.117210   0.000000   0.000000
    7       14.439580     15.475951   0.000000   0.000000
    8       17.927840     18.622992   0.000000   0.000000
    9       26.596680     27.013293   0.000000   0.000000
   10       29.794235     30.064660   0.000000   0.000000
   11       33.612331     34.288600   0.000000   0.000000
   12       38.157994     38.819289   0.000000   0.000000
 
 -0.3125000E+00  0.3125000E+00  0.3125000E+00  0.1171875E-01
    1        1.865114      3.030587   1.000000   1.000000
    2        2.349034      4.330093   1.000000   1.000000
    3        4.772792      6.660720   1.000000   0.298485
    4        4.772793      6.660721   1.000000   0.000000
    5        5.525459      7.633880   1.178873   0.000000
    6        8.386247      9.932209  -0.020941   0.000000
    7       20.999767     21.576574   0.000000   0.000000
    8       20.999768     21.576578   0.000000   0.000000
    9       23.189217     23.913816   0.000000   0.000000
   10       25.419967     25.925623   0.000000   0.000000
   11       37.610698     38.334380   0.000000   0.000000
   12       42.316257     42.726425   0.000000   0.000000
 
 -0.4375000E+00  0.4375000E+00  0.3125000E+00  0.4687500E-01
    1        1.734168      3.376026   1.000000   1.000000
    2        1.873157      3.649548   1.000000   1.000000
    3        4.919201      6.849108   1.000000   0.106200
    4        5.220488      7.176075   1.000000   0.000000
    5        6.270791      8.465516   0.182842   0.000000
    6       11.584634     12.545876   0.000000   0.000000
    7       16.493858     17.227989   0.000000   0.000000
    8       19.113151     19.597688   0.000000   0.000000
    9       23.412675     24.133344   0.000000   0.000000
   10       26.377698     26.865526   0.000000   0.000000
   11       32.920702     33.786955   0.000000   0.000000
   12       41.788029     42.166641   0.000000   0.000000
 
 -0.4375000E+00 -0.4375000E+00  0.3125000E+00  0.1562500E-01
    1        1.582906      3.329639   1.000000   1.000000
    2        1.582906      3.329639   1.000000   1.000000
    3        5.032879      6.942174   1.000000   0.034984
    4        6.104059      8.246246   1.000000   0.000000
    5        6.104060      8.246250   0.798708   0.000000
    6       15.058931     15.741313   0.000000   0.000000
    7       15.058932     15.741318   0.000000   0.000000
    8       16.270279     16.846625   0.000000   0.000000
    9       24.895285     25.484221   0.000000   0.000000
   10       24.895285     25.484223   0.000000   0.000000
   11       30.418921     31.408326   0.000000   0.000000
   12       42.359242     42.732528   0.000000   0.000000
 
 -0.4375000E+00  0.4375000E+00  0.4375000E+00  0.1171875E-01
    1        1.302348      3.029455   1.000000   1.000000
    2        1.305717      3.081629   1.000000   1.000000
    3        6.060398      8.185713   1.000000  -0.021206
    4        6.060399      8.185715   1.000000   0.000000
    5        6.233427      8.429540   0.078490   0.000000
    6       14.432231     14.955457   0.000000   0.000000
    7       17.010371     17.334739   0.000000   0.000000
    8       17.010372     17.334744   0.000000   0.000000
    9       22.334688     23.278323   0.000000   0.000000
   10       23.546710     24.308988   0.000000   0.000000
   11       28.875514     29.897022   0.000000   0.000000
   12       45.527161     45.766553   0.000000   0.000000
