<?xml version="1.0" encoding="ISO-8859-1"?>
<modeling>
 <generator>
  <i name="program" type="string">vasp </i>
  <i name="version" type="string">5.4.1  </i>
  <i name="subversion" type="string">24Jun15 (build Jul 19 2016 16:50:41) complex                          parallel </i>
  <i name="platform" type="string">IFC91_ompi </i>
  <i name="date" type="string">2019 10 17 </i>
  <i name="time" type="string">11:46:08 </i>
 </generator>
 <incar>
  <i type="string" name="SYSTEM"> Fe BCC</i>
  <i type="string" name="PREC">accurate</i>
  <i type="int" name="ISPIN">     2</i>
  <i name="EDIFF">      0.00000100</i>
  <i name="ENMAX">    400.00000000</i>
  <v name="MAGMOM">      4.00000000</v>
  <i type="int" name="ISMEAR">    -5</i>
  <i type="logical" name="LORBIT"> F  </i>
  <v type="int" name="KPOINT_BSE">    -1     0     0     0</v>
 </incar>
 <kpoints>
  <generation param="Monkhorst-Pack">
   <v type="int" name="divisions">       8        8        8 </v>
   <v name="usershift">      0.00000000       0.00000000       0.00000000 </v>
   <v name="genvec1">      0.12500000       0.00000000       0.00000000 </v>
   <v name="genvec2">      0.00000000       0.12500000       0.00000000 </v>
   <v name="genvec3">      0.00000000       0.00000000       0.12500000 </v>
   <v name="shift">      0.50000000       0.50000000       0.50000000 </v>
  </generation>
  <varray name="kpointlist" >
   <v>       0.06250000       0.06250000       0.06250000 </v>
   <v>       0.18750000       0.06250000       0.06250000 </v>
   <v>       0.31250000       0.06250000       0.06250000 </v>
   <v>       0.43750000       0.06250000       0.06250000 </v>
   <v>      -0.06250000       0.06250000       0.06250000 </v>
   <v>       0.18750000       0.18750000       0.06250000 </v>
   <v>       0.31250000       0.18750000       0.06250000 </v>
   <v>      -0.18750000       0.18750000       0.06250000 </v>
   <v>       0.31250000       0.31250000       0.06250000 </v>
   <v>      -0.31250000       0.31250000       0.06250000 </v>
   <v>      -0.18750000       0.31250000       0.06250000 </v>
   <v>      -0.43750000       0.43750000       0.06250000 </v>
   <v>      -0.31250000       0.43750000       0.06250000 </v>
   <v>      -0.43750000      -0.43750000       0.06250000 </v>
   <v>      -0.31250000      -0.43750000       0.06250000 </v>
   <v>       0.18750000       0.18750000       0.18750000 </v>
   <v>       0.31250000       0.18750000       0.18750000 </v>
   <v>      -0.18750000       0.18750000       0.18750000 </v>
   <v>      -0.31250000       0.31250000       0.18750000 </v>
   <v>      -0.43750000       0.43750000       0.18750000 </v>
   <v>      -0.31250000       0.43750000       0.18750000 </v>
   <v>      -0.43750000      -0.43750000       0.18750000 </v>
   <v>      -0.31250000       0.31250000       0.31250000 </v>
   <v>      -0.43750000       0.43750000       0.31250000 </v>
   <v>      -0.43750000      -0.43750000       0.31250000 </v>
   <v>      -0.43750000       0.43750000       0.43750000 </v>
  </varray>
  <varray name="weights" >
   <v>       0.01562500 </v>
   <v>       0.04687500 </v>
   <v>       0.04687500 </v>
   <v>       0.02343750 </v>
   <v>       0.01171875 </v>
   <v>       0.04687500 </v>
   <v>       0.09375000 </v>
   <v>       0.04687500 </v>
   <v>       0.01562500 </v>
   <v>       0.04687500 </v>
   <v>       0.04687500 </v>
   <v>       0.04687500 </v>
   <v>       0.09375000 </v>
   <v>       0.04687500 </v>
   <v>       0.04687500 </v>
   <v>       0.01562500 </v>
   <v>       0.02343750 </v>
   <v>       0.01171875 </v>
   <v>       0.04687500 </v>
   <v>       0.04687500 </v>
   <v>       0.04687500 </v>
   <v>       0.04687500 </v>
   <v>       0.01171875 </v>
   <v>       0.04687500 </v>
   <v>       0.01562500 </v>
   <v>       0.01171875 </v>
  </varray>
  <varray name="tetrahedronlist"  type="int" >
   <v type="int" >        4        1        2        2        6 </v>
   <v type="int" >        8        2        2        6        6 </v>
   <v type="int" >        4        2        6        6       16 </v>
   <v type="int" >        4        2        3        6        7 </v>
   <v type="int" >        4        2        6        6        7 </v>
   <v type="int" >       12        6        6        7       16 </v>
   <v type="int" >        8        3        6        7        7 </v>
   <v type="int" >        8        6        7        7       17 </v>
   <v type="int" >        8        6        7       16       17 </v>
   <v type="int" >        4        3        4        7        7 </v>
   <v type="int" >        4        3        7        7        7 </v>
   <v type="int" >       16        7        7        7       17 </v>
   <v type="int" >        8        4        7        7        7 </v>
   <v type="int" >        4        7        7        7       16 </v>
   <v type="int" >       20        7        7       16       17 </v>
   <v type="int" >        4        3        4        6        7 </v>
   <v type="int" >        4        4        6        7        7 </v>
   <v type="int" >       16        6        7        7       16 </v>
   <v type="int" >        8        3        6        6        7 </v>
   <v type="int" >        4        6        6        6        7 </v>
   <v type="int" >        4        2        2        3        6 </v>
   <v type="int" >        8        2        3        6        6 </v>
   <v type="int" >        4        2        6        6        6 </v>
   <v type="int" >        4        2        2        2        6 </v>
   <v type="int" >        8        2        2        6       11 </v>
   <v type="int" >        4        2        6        6       11 </v>
   <v type="int" >       16        1        2        2        8 </v>
   <v type="int" >        4        2        2        2        8 </v>
   <v type="int" >       12        2        2        8       11 </v>
   <v type="int" >       16        1        2        8        8 </v>
   <v type="int" >        4        2        8        8       18 </v>
   <v type="int" >        4        2        8       11       18 </v>
   <v type="int" >       20        1        5        8        8 </v>
   <v type="int" >        4        1        8        8        8 </v>
   <v type="int" >        4        8        8        8       18 </v>
   <v type="int" >        8        5        8        8        8 </v>
   <v type="int" >        4        8        8        8       11 </v>
   <v type="int" >        4        8        8       11       18 </v>
   <v type="int" >        8        1        2        5        8 </v>
   <v type="int" >        8        2        5        8        8 </v>
   <v type="int" >        8        2        8        8       11 </v>
   <v type="int" >        4        2        2        6        8 </v>
   <v type="int" >        4        2        6        8       11 </v>
   <v type="int" >        4        6        7        9       16 </v>
   <v type="int" >       16        7        9       16       17 </v>
   <v type="int" >       12        9       16       17       17 </v>
   <v type="int" >       20        7        7        9       17 </v>
   <v type="int" >       12        7        9       17       17 </v>
   <v type="int" >        8        7        7       17       17 </v>
   <v type="int" >       12        3        6        7       16 </v>
   <v type="int" >        8        3        7        7       16 </v>
   <v type="int" >        8        3        6        6       16 </v>
   <v type="int" >        4        3        6       13       16 </v>
   <v type="int" >        4        3        7       13       16 </v>
   <v type="int" >        4        2        6        6       10 </v>
   <v type="int" >        4        3        6        6       10 </v>
   <v type="int" >        8        3        6       10       13 </v>
   <v type="int" >       12        2        6       10       11 </v>
   <v type="int" >        4        6       10       11       19 </v>
   <v type="int" >        4        6       10       13       19 </v>
   <v type="int" >        4        2        8       11       11 </v>
   <v type="int" >        4        2       10       11       11 </v>
   <v type="int" >        4       10       11       11       19 </v>
   <v type="int" >        8        8       11       11       18 </v>
   <v type="int" >        8       11       11       18       19 </v>
   <v type="int" >        4       11       11       19       19 </v>
   <v type="int" >        4        8        8       10       18 </v>
   <v type="int" >       12        8       10       11       18 </v>
   <v type="int" >       12       10       11       18       19 </v>
   <v type="int" >        4       10       11       13       18 </v>
   <v type="int" >        4       10       13       18       19 </v>
   <v type="int" >        4        2        3        8       11 </v>
   <v type="int" >        4        3        8       10       11 </v>
   <v type="int" >        8        3       10       11       13 </v>
   <v type="int" >       16        2        3        6       11 </v>
   <v type="int" >        4        3        6        7       11 </v>
   <v type="int" >        4        3        7       11       13 </v>
   <v type="int" >        4        4        7        9       17 </v>
   <v type="int" >        8        4        7        7       17 </v>
   <v type="int" >        4        4        7       14       17 </v>
   <v type="int" >        4        3        7        7       12 </v>
   <v type="int" >        8        4        7        7       12 </v>
   <v type="int" >        8        4        7       12       14 </v>
   <v type="int" >        8        3        7       12       13 </v>
   <v type="int" >        4        7       12       13       20 </v>
   <v type="int" >        4        7       12       14       20 </v>
   <v type="int" >        4        3       10       13       13 </v>
   <v type="int" >        4        3       12       13       13 </v>
   <v type="int" >        4       12       13       13       20 </v>
   <v type="int" >        8       10       13       13       19 </v>
   <v type="int" >       12       13       13       19       21 </v>
   <v type="int" >        4       13       13       20       21 </v>
   <v type="int" >        8       10       11       13       19 </v>
   <v type="int" >        8       11       13       19       19 </v>
   <v type="int" >        4       13       19       19       20 </v>
   <v type="int" >        8       13       19       20       21 </v>
   <v type="int" >        4       10       11       12       19 </v>
   <v type="int" >        4       11       12       13       19 </v>
   <v type="int" >        8       12       13       19       20 </v>
   <v type="int" >        8       10       12       13       19 </v>
   <v type="int" >        4       12       13       14       19 </v>
   <v type="int" >        4       12       14       19       20 </v>
   <v type="int" >        4        3        4       10       13 </v>
   <v type="int" >        4        4       10       12       13 </v>
   <v type="int" >       12        4       12       13       14 </v>
   <v type="int" >       12        3        4        7       13 </v>
   <v type="int" >        8        4        7        7       13 </v>
   <v type="int" >       12        4        7       13       14 </v>
   <v type="int" >        4        4       12       14       14 </v>
   <v type="int" >        4       12       14       14       20 </v>
   <v type="int" >        4       14       14       20       22 </v>
   <v type="int" >        4       12       13       15       20 </v>
   <v type="int" >        4       12       14       15       20 </v>
   <v type="int" >        8       14       15       20       22 </v>
   <v type="int" >       12       13       15       20       21 </v>
   <v type="int" >       12       15       20       21       22 </v>
   <v type="int" >        4       15       20       22       22 </v>
   <v type="int" >        4       13       13       14       21 </v>
   <v type="int" >       12       13       14       15       21 </v>
   <v type="int" >       16       14       15       21       22 </v>
   <v type="int" >        8       13       14       20       21 </v>
   <v type="int" >        4       14       20       20       21 </v>
   <v type="int" >       12       14       20       21       22 </v>
   <v type="int" >        4       12       12       13       20 </v>
   <v type="int" >        8       12       13       14       20 </v>
   <v type="int" >        8       12       14       20       20 </v>
   <v type="int" >        8       12       12       14       20 </v>
   <v type="int" >        4       12       13       20       20 </v>
   <v type="int" >       16        3        4       12       14 </v>
   <v type="int" >        8        3       12       12       14 </v>
   <v type="int" >        8        3       12       13       14 </v>
   <v type="int" >       16        3        4        7       14 </v>
   <v type="int" >        4        3        6        7       14 </v>
   <v type="int" >        4        3        6       13       14 </v>
   <v type="int" >        8       14       15       15       22 </v>
   <v type="int" >        8       15       15       22       22 </v>
   <v type="int" >        8       15       21       22       22 </v>
   <v type="int" >       12       13       14       15       22 </v>
   <v type="int" >        4       13       15       15       22 </v>
   <v type="int" >        8       13       15       21       22 </v>
   <v type="int" >       12       13       14       20       22 </v>
   <v type="int" >        4       13       19       20       22 </v>
   <v type="int" >        4       13       19       21       22 </v>
   <v type="int" >        4       10       12       14       20 </v>
   <v type="int" >        4       10       13       14       20 </v>
   <v type="int" >        8       10       13       19       20 </v>
   <v type="int" >        8       10       12       13       20 </v>
   <v type="int" >        4       10       11       13       20 </v>
   <v type="int" >        4       10       11       19       20 </v>
   <v type="int" >        4        2        3       12       13 </v>
   <v type="int" >        4        2       10       12       13 </v>
   <v type="int" >        8        2       10       11       13 </v>
   <v type="int" >       12        2        3        6       13 </v>
   <v type="int" >        4        2        2        6       13 </v>
   <v type="int" >        4        2        2       11       13 </v>
   <v type="int" >        4       11       13       15       21 </v>
   <v type="int" >        8       11       13       19       21 </v>
   <v type="int" >        4       11       18       19       21 </v>
   <v type="int" >        4        8       10       13       19 </v>
   <v type="int" >        4        8       11       13       19 </v>
   <v type="int" >        8        8       11       18       19 </v>
   <v type="int" >        8        8       10       11       19 </v>
   <v type="int" >        4        8        8       11       19 </v>
   <v type="int" >        4        8        8       18       19 </v>
   <v type="int" >        4        1        2       10       11 </v>
   <v type="int" >        4        1        8       10       11 </v>
   <v type="int" >        8        1        8        8       11 </v>
   <v type="int" >        8        1        2        2       11 </v>
   <v type="int" >       12        1        2        8       11 </v>
   <v type="int" >        4        5        8       11       18 </v>
   <v type="int" >        4        5        8        8       18 </v>
   <v type="int" >        4        1        5        8       18 </v>
   <v type="int" >        4        5        5        8        8 </v>
   <v type="int" >       12        1        5        5        8 </v>
   <v type="int" >        6        1        1        5        5 </v>
   <v type="int" >        8        1        1        5        8 </v>
   <v type="int" >        4        1        1        2        8 </v>
   <v type="int" >        4        2        3        6       16 </v>
   <v type="int" >        4        3        7       16       17 </v>
   <v type="int" >       12        7       16       17       17 </v>
   <v type="int" >        8        7       17       17       17 </v>
   <v type="int" >       12        7        7        9       16 </v>
   <v type="int" >        4        6        6        7        7 </v>
   <v type="int" >       16        3        6        7       13 </v>
   <v type="int" >       12        6        7        7       13 </v>
   <v type="int" >        4        3        6        6       11 </v>
   <v type="int" >       12        3        6       11       13 </v>
   <v type="int" >       12        2        3       10       11 </v>
   <v type="int" >        4        3       10       11       19 </v>
   <v type="int" >        4        3       11       13       19 </v>
   <v type="int" >        4        2        8       10       18 </v>
   <v type="int" >        4        2       10       11       18 </v>
   <v type="int" >        4       10       18       19       19 </v>
   <v type="int" >        4        8        8       11       11 </v>
   <v type="int" >        4        8       10       11       11 </v>
   <v type="int" >        4       10       11       11       13 </v>
   <v type="int" >        4       11       11       13       19 </v>
   <v type="int" >        4        2        6        8       10 </v>
   <v type="int" >        4        6        8       10       11 </v>
   <v type="int" >       12        6       10       11       13 </v>
   <v type="int" >        8        2        3        6       10 </v>
   <v type="int" >        4        3        6        7       10 </v>
   <v type="int" >        4        6        7       10       13 </v>
   <v type="int" >        4       16       17       17       17 </v>
   <v type="int" >        4       17       17       17       17 </v>
   <v type="int" >        4        9       17       17       17 </v>
   <v type="int" >        8        7        7       15       17 </v>
   <v type="int" >        8        7        9       15       17 </v>
   <v type="int" >        4        6        7       13       16 </v>
   <v type="int" >        4        7        7       13       16 </v>
   <v type="int" >       12        7        7       13       15 </v>
   <v type="int" >        8        6        7       13       13 </v>
   <v type="int" >        4        7       13       13       21 </v>
   <v type="int" >        4        7       13       15       21 </v>
   <v type="int" >        4        6       11       13       19 </v>
   <v type="int" >        4        6       13       13       19 </v>
   <v type="int" >        4       13       19       19       23 </v>
   <v type="int" >        4       13       19       21       23 </v>
   <v type="int" >        4       11       18       19       19 </v>
   <v type="int" >        4       11       19       19       19 </v>
   <v type="int" >        4       19       19       19       23 </v>
   <v type="int" >        4       18       19       19       19 </v>
   <v type="int" >        4       19       19       19       21 </v>
   <v type="int" >        4       19       19       21       23 </v>
   <v type="int" >        4       11       13       18       19 </v>
   <v type="int" >        4       13       18       19       19 </v>
   <v type="int" >        8       13       19       19       21 </v>
   <v type="int" >       12       11       13       13       19 </v>
   <v type="int" >        4       13       13       15       19 </v>
   <v type="int" >        4       13       15       19       21 </v>
   <v type="int" >        4        6        7       11       13 </v>
   <v type="int" >        4        7       11       13       13 </v>
   <v type="int" >        8        7       13       13       15 </v>
   <v type="int" >        4        7        7        9       13 </v>
   <v type="int" >        4        7        9       13       15 </v>
   <v type="int" >        4        7        9       14       17 </v>
   <v type="int" >       12        7        9       14       15 </v>
   <v type="int" >        4        9       14       15       22 </v>
   <v type="int" >        4        7       13       15       20 </v>
   <v type="int" >        4        7       14       15       20 </v>
   <v type="int" >        4       15       20       21       24 </v>
   <v type="int" >        4       15       20       22       24 </v>
   <v type="int" >        4       13       19       21       21 </v>
   <v type="int" >        4       13       20       21       21 </v>
   <v type="int" >        4       20       21       21       24 </v>
   <v type="int" >        8       19       21       21       23 </v>
   <v type="int" >        8       21       21       23       24 </v>
   <v type="int" >        4       21       21       24       24 </v>
   <v type="int" >        4       19       19       20       23 </v>
   <v type="int" >       12       19       20       21       23 </v>
   <v type="int" >       12       20       21       23       24 </v>
   <v type="int" >        4       20       21       22       23 </v>
   <v type="int" >        4       20       22       23       24 </v>
   <v type="int" >        4       13       14       19       21 </v>
   <v type="int" >        4       14       19       20       21 </v>
   <v type="int" >        4       14       15       15       21 </v>
   <v type="int" >       16        7       13       14       15 </v>
   <v type="int" >        8        7       14       15       15 </v>
   <v type="int" >       16        7        7        9       15 </v>
   <v type="int" >        4        7        7       15       15 </v>
   <v type="int" >        4       14       20       22       22 </v>
   <v type="int" >        8       20       22       22       24 </v>
   <v type="int" >       16       22       22       24       25 </v>
   <v type="int" >       16       20       21       22       24 </v>
   <v type="int" >        8       21       22       24       24 </v>
   <v type="int" >        4       22       24       24       24 </v>
   <v type="int" >       16       22       24       24       25 </v>
   <v type="int" >        4       20       20       21       24 </v>
   <v type="int" >       12       20       22       24       24 </v>
   <v type="int" >        8       20       20       22       24 </v>
   <v type="int" >        4       20       21       24       24 </v>
   <v type="int" >        4       13       20       20       22 </v>
   <v type="int" >        8       13       20       21       22 </v>
   <v type="int" >        4       13       13       15       22 </v>
   <v type="int" >        4       13       13       21       22 </v>
   <v type="int" >        4        6        7       14       15 </v>
   <v type="int" >        4        6       13       14       15 </v>
   <v type="int" >        4        6       13       13       15 </v>
   <v type="int" >        4        6        7        7       15 </v>
   <v type="int" >        4        3        6        7       15 </v>
   <v type="int" >        4        3        6       13       15 </v>
   <v type="int" >        8       21       22       22       25 </v>
   <v type="int" >       12       21       22       24       25 </v>
   <v type="int" >        4       21       23       24       25 </v>
   <v type="int" >        4       19       20       22       24 </v>
   <v type="int" >        4       19       21       22       24 </v>
   <v type="int" >        8       19       21       23       24 </v>
   <v type="int" >        8       19       20       21       24 </v>
   <v type="int" >        4       19       19       21       24 </v>
   <v type="int" >        4       19       19       23       24 </v>
   <v type="int" >        4       11       13       20       21 </v>
   <v type="int" >        4       11       19       20       21 </v>
   <v type="int" >        4       11       19       19       21 </v>
   <v type="int" >        4       11       13       13       21 </v>
   <v type="int" >        4       10       11       13       21 </v>
   <v type="int" >        4       10       11       19       21 </v>
   <v type="int" >        4        2        6       13       13 </v>
   <v type="int" >        4        2       11       13       13 </v>
   <v type="int" >       12        2        3       10       13 </v>
   <v type="int" >        4        2       10       10       13 </v>
   <v type="int" >        4       18       19       21       23 </v>
   <v type="int" >        4       18       19       19       23 </v>
   <v type="int" >        4       11       18       19       23 </v>
   <v type="int" >        4        8       11       19       19 </v>
   <v type="int" >        4        8       18       19       19 </v>
   <v type="int" >        4        2        8       10       19 </v>
   <v type="int" >        4        2        8       11       19 </v>
   <v type="int" >       16        2        8       10       11 </v>
   <v type="int" >        4        8        8       10       11 </v>
   <v type="int" >       12        2        8        8       10 </v>
   <v type="int" >        8        2        8       10       10 </v>
   <v type="int" >        4        8       10       10       11 </v>
   <v type="int" >        4        1        8       11       18 </v>
   <v type="int" >        4        2        8        8        8 </v>
   <v type="int" >        8        2        2        8       10 </v>
   <v type="int" >        4        2        2        3       10 </v>
   <v type="int" >        4        3        4        7       17 </v>
   <v type="int" >        4        4        7       16       17 </v>
   <v type="int" >        4        7        7        7        9 </v>
   <v type="int" >        4        4        7        7       14 </v>
   <v type="int" >        4        7        7        7       14 </v>
   <v type="int" >       12        3        4       12       13 </v>
   <v type="int" >        4        4       12       13       20 </v>
   <v type="int" >        4        4       13       14       20 </v>
   <v type="int" >        4        3       10       12       19 </v>
   <v type="int" >        4        3       12       13       19 </v>
   <v type="int" >        4       12       13       19       21 </v>
   <v type="int" >        4       12       19       20       21 </v>
   <v type="int" >        4       10       13       19       19 </v>
   <v type="int" >        8       13       13       19       20 </v>
   <v type="int" >        4       10       11       13       13 </v>
   <v type="int" >        4       10       12       13       13 </v>
   <v type="int" >        4       12       13       13       14 </v>
   <v type="int" >        4       13       13       14       20 </v>
   <v type="int" >        4        3        7       10       12 </v>
   <v type="int" >        4        7       10       12       13 </v>
   <v type="int" >        8        7       12       13       14 </v>
   <v type="int" >        8        3        4        7       12 </v>
   <v type="int" >        4        7        7       12       14 </v>
   <v type="int" >        4        7        9       15       16 </v>
   <v type="int" >       12        7        9       15       15 </v>
   <v type="int" >        8        7        7       14       15 </v>
   <v type="int" >        4        7       14       15       22 </v>
   <v type="int" >        4        7       15       15       22 </v>
   <v type="int" >        4        7       13       14       21 </v>
   <v type="int" >        4        7       14       15       21 </v>
   <v type="int" >        4       14       20       21       24 </v>
   <v type="int" >        4       14       21       22       24 </v>
   <v type="int" >        4       13       19       20       23 </v>
   <v type="int" >        4       13       20       21       23 </v>
   <v type="int" >        4       20       23       24       24 </v>
   <v type="int" >        4       19       19       21       21 </v>
   <v type="int" >        4       19       20       21       21 </v>
   <v type="int" >        4       20       21       21       22 </v>
   <v type="int" >        4       21       21       22       24 </v>
   <v type="int" >        4       13       15       19       20 </v>
   <v type="int" >        4       15       19       20       21 </v>
   <v type="int" >        8       13       14       15       20 </v>
   <v type="int" >        4       14       15       15       20 </v>
   <v type="int" >        4       15       15       20       22 </v>
   <v type="int" >        4        7        9       13       14 </v>
   <v type="int" >        4        9       13       14       15 </v>
   <v type="int" >        8        9       14       15       15 </v>
   <v type="int" >        8        7        7        9       14 </v>
   <v type="int" >        4        9       15       15       22 </v>
   <v type="int" >        4       15       22       22       25 </v>
   <v type="int" >        4       15       21       22       24 </v>
   <v type="int" >        4       15       22       22       24 </v>
   <v type="int" >        8       22       24       24       26 </v>
   <v type="int" >        8       22       24       25       26 </v>
   <v type="int" >        4       21       23       24       24 </v>
   <v type="int" >        4       21       24       24       24 </v>
   <v type="int" >        8       24       24       24       26 </v>
   <v type="int" >        4       23       24       24       24 </v>
   <v type="int" >        4       24       24       24       25 </v>
   <v type="int" >       20       24       24       25       26 </v>
   <v type="int" >        4       21       22       23       24 </v>
   <v type="int" >        4       22       23       24       24 </v>
   <v type="int" >       12       21       22       22       24 </v>
   <v type="int" >        4       22       22       22       24 </v>
   <v type="int" >        4       15       15       21       22 </v>
   <v type="int" >        4       15       22       22       22 </v>
   <v type="int" >        4       15       15       15       22 </v>
   <v type="int" >        4       14       15       22       22 </v>
   <v type="int" >        4        7       15       15       15 </v>
   <v type="int" >        4        4        7        7       15 </v>
   <v type="int" >        4        4        7       14       15 </v>
   <v type="int" >        4       22       24       25       25 </v>
   <v type="int" >        8       24       25       25       26 </v>
   <v type="int" >        6       25       25       26       26 </v>
   <v type="int" >       12       24       25       26       26 </v>
   <v type="int" >        4       24       24       26       26 </v>
   <v type="int" >        8       21       24       24       25 </v>
   <v type="int" >        4       20       21       22       25 </v>
   <v type="int" >        4       20       21       24       25 </v>
   <v type="int" >        4       13       15       22       22 </v>
   <v type="int" >        4       13       21       22       22 </v>
   <v type="int" >        4       12       13       14       22 </v>
   <v type="int" >        4       12       13       20       22 </v>
   <v type="int" >        4        3        7       14       15 </v>
   <v type="int" >        4        3       13       14       15 </v>
   <v type="int" >        4       23       24       25       26 </v>
   <v type="int" >        4       23       24       24       26 </v>
   <v type="int" >        4       21       23       24       26 </v>
   <v type="int" >        4       19       21       24       24 </v>
   <v type="int" >        4       19       23       24       24 </v>
   <v type="int" >        4       13       19       20       24 </v>
   <v type="int" >        4       13       19       21       24 </v>
   <v type="int" >        4       10       13       20       21 </v>
   <v type="int" >        4       10       19       20       21 </v>
   <v type="int" >        4        3       10       12       20 </v>
   <v type="int" >        4        3       10       13       20 </v>
   <v type="int" >        8        3       10       12       13 </v>
   <v type="int" >        4       10       10       12       13 </v>
   <v type="int" >        8        3       10       10       12 </v>
   <v type="int" >        8        3       10       12       12 </v>
   <v type="int" >        4       10       12       12       13 </v>
   <v type="int" >        4       11       19       21       23 </v>
   <v type="int" >        4        6       11       13       21 </v>
   <v type="int" >        4        2       10       13       19 </v>
   <v type="int" >        4        2       11       13       19 </v>
   <v type="int" >        8        2        6       11       13 </v>
   <v type="int" >        4        2        6        6       13 </v>
   <v type="int" >        4        3       10       10       11 </v>
   <v type="int" >        4        3       11       13       13 </v>
   <v type="int" >        4        2        2        6       10 </v>
   <v type="int" >        4        6       10       12       13 </v>
   <v type="int" >        4        3        6       10       12 </v>
   <v type="int" >        4        2        3        3       10 </v>
   <v type="int" >        4        3        3       10       12 </v>
   <v type="int" >        4        3        3        4       12 </v>
   <v type="int" >        4        3        4        7       16 </v>
   <v type="int" >        4        6        7        7        7 </v>
   <v type="int" >        4        6        6        7       13 </v>
   <v type="int" >        8        3        7        7       14 </v>
   <v type="int" >        8        3        7       13       14 </v>
   <v type="int" >        4        3       12       14       20 </v>
   <v type="int" >        4        3       13       14       20 </v>
   <v type="int" >        4        4       12       12       20 </v>
   <v type="int" >        4        4       12       14       20 </v>
   <v type="int" >        4       12       14       20       22 </v>
   <v type="int" >        4       12       20       20       22 </v>
   <v type="int" >        4       12       13       14       21 </v>
   <v type="int" >        4       12       14       20       21 </v>
   <v type="int" >        4       14       21       22       22 </v>
   <v type="int" >        4       13       13       15       20 </v>
   <v type="int" >        4       14       15       20       20 </v>
   <v type="int" >        4       15       20       20       22 </v>
   <v type="int" >        4       12       13       14       14 </v>
   <v type="int" >        4       13       14       14       20 </v>
   <v type="int" >        2       14       14       20       20 </v>
   <v type="int" >        2       12       12       14       14 </v>
   <v type="int" >        8        4        7       12       12 </v>
   <v type="int" >        4        7       12       12       14 </v>
   <v type="int" >        4        3        6        7       12 </v>
   <v type="int" >        4        6        7       12       13 </v>
   <v type="int" >        4        6        7       15       16 </v>
   <v type="int" >        8        6        7       13       15 </v>
   <v type="int" >        4        6       13       15       21 </v>
   <v type="int" >        4        7       13       14       22 </v>
   <v type="int" >        4        7       13       15       22 </v>
   <v type="int" >        4       13       20       22       24 </v>
   <v type="int" >        4       13       21       22       24 </v>
   <v type="int" >        4       14       20       20       24 </v>
   <v type="int" >        4       14       20       22       24 </v>
   <v type="int" >        4       20       22       24       25 </v>
   <v type="int" >        4       20       24       24       25 </v>
   <v type="int" >        6       22       22       24       24 </v>
   <v type="int" >        4       20       21       22       22 </v>
   <v type="int" >        2       20       20       22       22 </v>
   <v type="int" >        4        7        7       13       14 </v>
   <v type="int" >        4        3        7       13       13 </v>
   <v type="int" >        4       15       21       22       25 </v>
   <v type="int" >        4       21       24       25       26 </v>
   <v type="int" >        4       24       26       26       26 </v>
   <v type="int" >        6       24       24       25       25 </v>
   <v type="int" >        4        4        7       13       15 </v>
   <v type="int" >        4        4       13       14       15 </v>
   <v type="int" >        8        4       12       12       13 </v>
   <v type="int" >        4       25       26       26       26 </v>
   <v type="int" >        2       26       26       26       26 </v>
   <v type="int" >        4        4       12       12       14 </v>
   <v type="int" >        4       12       12       12       14 </v>
   <v type="int" >        8        4       12       12       12 </v>
   <v type="int" >        4        3        4        4       12 </v>
   <v type="int" >        4        4        4       12       12 </v>
   <v type="int" >        4        1        5        8       11 </v>
   <v type="int" >        4        1        2        6       11 </v>
   <v type="int" >        4        2        8       10       13 </v>
   <v type="int" >        4        2        8       11       13 </v>
   <v type="int" >        4        2        3        7       13 </v>
   <v type="int" >        4        2        6        7       13 </v>
   <v type="int" >        4        3       10       12       14 </v>
   <v type="int" >        4        3       10       13       14 </v>
   <v type="int" >        4        3        4        6       13 </v>
   <v type="int" >        4        4        6        7       13 </v>
   <v type="int" >        4        3       10       11       12 </v>
   <v type="int" >        4        3       11       12       13 </v>
   <v type="int" >        4        2        2        3       11 </v>
   <v type="int" >        6        2        2        8        8 </v>
   <v type="int" >        6        1        1        8        8 </v>
   <v type="int" >        4        5        5        5        8 </v>
   <v type="int" >        4        6       11       13       15 </v>
   <v type="int" >        4        6        7        9       15 </v>
   <v type="int" >        4        7       13       15       15 </v>
   <v type="int" >        4        7        7        7       15 </v>
   <v type="int" >        4        7       13       13       14 </v>
   <v type="int" >        4        3        7        7       13 </v>
   <v type="int" >        4        6       10       13       13 </v>
   <v type="int" >        4        2        6       10       10 </v>
   <v type="int" >        4        3        6       10       10 </v>
   <v type="int" >        4        2        2       10       11 </v>
   <v type="int" >        2        2        2       10       10 </v>
   <v type="int" >        4        1        8        8       10 </v>
   <v type="int" >        4        1        2        8       10 </v>
   <v type="int" >        4        2        3        8       10 </v>
   <v type="int" >        4        3        8       10       10 </v>
   <v type="int" >        4        4        7        9       14 </v>
   <v type="int" >        4        7       12       13       15 </v>
   <v type="int" >        4        7       12       14       15 </v>
   <v type="int" >        4        3        7       12       12 </v>
   <v type="int" >        4        3        3       10       13 </v>
   <v type="int" >        4        3        3       12       13 </v>
   <v type="int" >        2        3        3       12       12 </v>
   <v type="int" >        2        3        3       10       10 </v>
   <v type="int" >        4        2       10       10       12 </v>
   <v type="int" >        4        2        3       10       12 </v>
   <v type="int" >        4        3        4       10       12 </v>
   <v type="int" >        4        4       10       12       12 </v>
   <v type="int" >        4        4        4       12       14 </v>
   <v type="int" >        4        3       12       12       12 </v>
   <v type="int" >        4        3        4       12       12 </v>
   <v type="int" >        4        1        5        5        5 </v>
   <v type="int" >        2        5        5        5        5 </v>
  </varray>
  <i name="volumeweight">      0.00032552 </i>
 </kpoints>
 <parameters>
  <separator name="general" >
   <i type="string" name="SYSTEM">Fe BCC</i>
   <i type="logical" name="LCOMPAT"> F  </i>
  </separator>
  <separator name="electronic" >
   <i type="string" name="PREC">accura</i>
   <i name="ENMAX">    400.00000000</i>
   <i name="ENAUG">    511.36800000</i>
   <i name="EDIFF">      0.00000100</i>
   <i type="int" name="IALGO">    38</i>
   <i type="int" name="IWAVPR">    10</i>
   <i type="int" name="NBANDS">    12</i>
   <i name="NELECT">      8.00000000</i>
   <i type="int" name="TURBO">     0</i>
   <i type="int" name="IRESTART">     0</i>
   <i type="int" name="NREBOOT">     0</i>
   <i type="int" name="NMIN">     0</i>
   <i name="EREF">      0.00000000</i>
   <separator name="electronic smearing" >
    <i type="int" name="ISMEAR">    -5</i>
    <i name="SIGMA">      0.20000000</i>
    <i name="KSPACING">      0.50000000</i>
    <i type="logical" name="KGAMMA"> T  </i>
   </separator>
   <separator name="electronic projectors" >
    <i type="logical" name="LREAL"> F  </i>
    <v name="ROPT">      0.00000000</v>
    <i type="int" name="LMAXPAW">  -100</i>
    <i type="int" name="LMAXMIX">     2</i>
    <i type="logical" name="NLSPLINE"> F  </i>
   </separator>
   <separator name="electronic startup" >
    <i type="int" name="ISTART">     0</i>
    <i type="int" name="ICHARG">     2</i>
    <i type="int" name="INIWAV">     1</i>
   </separator>
   <separator name="electronic spin" >
    <i type="int" name="ISPIN">     2</i>
    <i type="logical" name="LNONCOLLINEAR"> F  </i>
    <v name="MAGMOM">      4.00000000</v>
    <i name="NUPDOWN">     -1.00000000</i>
    <i type="logical" name="LSORBIT"> F  </i>
    <v name="SAXIS">      0.00000000      0.00000000      1.00000000</v>
    <i type="logical" name="LSPIRAL"> F  </i>
    <v name="QSPIRAL">      0.00000000      0.00000000      0.00000000</v>
    <i type="logical" name="LZEROZ"> F  </i>
   </separator>
   <separator name="electronic exchange-correlation" >
    <i type="logical" name="LASPH"> F  </i>
    <i type="logical" name="LMETAGGA"> F  </i>
   </separator>
   <separator name="electronic convergence" >
    <i type="int" name="NELM">    60</i>
    <i type="int" name="NELMDL">    -5</i>
    <i type="int" name="NELMIN">     2</i>
    <i name="ENINI">    400.00000000</i>
    <separator name="electronic convergence detail" >
     <i type="logical" name="LDIAG"> T  </i>
     <i type="logical" name="LSUBROT"> F  </i>
     <i name="WEIMIN">      0.00000000</i>
     <i name="EBREAK">      0.00000002</i>
     <i name="DEPER">      0.30000000</i>
     <i type="int" name="NRMM">     4</i>
     <i name="TIME">      0.40000000</i>
    </separator>
   </separator>
   <separator name="electronic mixer" >
    <i name="AMIX">      0.40000000</i>
    <i name="BMIX">      1.00000000</i>
    <i name="AMIN">      0.10000000</i>
    <i name="AMIX_MAG">      1.60000000</i>
    <i name="BMIX_MAG">      1.00000000</i>
    <separator name="electronic mixer details" >
     <i type="int" name="IMIX">     4</i>
     <i type="logical" name="MIXFIRST"> F  </i>
     <i type="int" name="MAXMIX">   -45</i>
     <i name="WC">    100.00000000</i>
     <i type="int" name="INIMIX">     1</i>
     <i type="int" name="MIXPRE">     1</i>
     <i type="int" name="MREMOVE">     5</i>
    </separator>
   </separator>
   <separator name="electronic dipolcorrection" >
    <i type="logical" name="LDIPOL"> F  </i>
    <i type="logical" name="LMONO"> F  </i>
    <i type="int" name="IDIPOL">     0</i>
    <i name="EPSILON">      1.00000000</i>
    <v name="DIPOL">   -100.00000000   -100.00000000   -100.00000000</v>
    <i name="EFIELD">      0.00000000</i>
   </separator>
  </separator>
  <separator name="grids" >
   <i type="int" name="NGX">    16</i>
   <i type="int" name="NGY">    16</i>
   <i type="int" name="NGZ">    16</i>
   <i type="int" name="NGXF">    32</i>
   <i type="int" name="NGYF">    32</i>
   <i type="int" name="NGZF">    32</i>
   <i type="logical" name="ADDGRID"> F  </i>
  </separator>
  <separator name="ionic" >
   <i type="int" name="NSW">     0</i>
   <i type="int" name="IBRION">    -1</i>
   <i type="int" name="ISIF">     2</i>
   <i name="PSTRESS">      0.00000000</i>
   <i name="EDIFFG">      0.00001000</i>
   <i type="int" name="NFREE">     0</i>
   <i name="POTIM">      0.50000000</i>
   <i name="SMASS">     -3.00000000</i>
   <i name="SCALEE">      1.00000000</i>
  </separator>
  <separator name="ionic md" >
   <i name="TEBEG">      0.00010000</i>
   <i name="TEEND">      0.00010000</i>
   <i type="int" name="NBLOCK">     1</i>
   <i type="int" name="KBLOCK">     1</i>
   <i type="int" name="NPACO">   256</i>
   <i name="APACO">     16.00000000</i>
  </separator>
  <separator name="symmetry" >
   <i type="int" name="ISYM">     2</i>
   <i name="SYMPREC">      0.00001000</i>
  </separator>
  <separator name="dos" >
   <i type="logical" name="LORBIT"> F  </i>
   <v name="RWIGS">     -1.00000000</v>
   <i type="int" name="NEDOS">   301</i>
   <i name="EMIN">     10.00000000</i>
   <i name="EMAX">    -10.00000000</i>
   <i name="EFERMI">      0.00000000</i>
  </separator>
  <separator name="writing" >
   <i type="int" name="NWRITE">     2</i>
   <i type="logical" name="LWAVE"> T  </i>
   <i type="logical" name="LCHARG"> T  </i>
   <i type="logical" name="LPARD"> F  </i>
   <i type="logical" name="LVTOT"> F  </i>
   <i type="logical" name="LVHAR"> F  </i>
   <i type="logical" name="LELF"> F  </i>
   <i type="logical" name="LOPTICS"> F  </i>
   <v name="STM">      0.00000000      0.00000000      0.00000000      0.00000000      0.00000000      0.00000000      0.00000000</v>
  </separator>
  <separator name="performance" >
   <i type="int" name="NPAR">     4</i>
   <i type="int" name="NSIM">     4</i>
   <i type="int" name="NBLK">    -1</i>
   <i type="logical" name="LPLANE"> T  </i>
   <i type="logical" name="LSCALAPACK"> F  </i>
   <i type="logical" name="LSCAAWARE"> F  </i>
   <i type="logical" name="LSCALU"> F  </i>
   <i type="logical" name="LASYNC"> F  </i>
   <i type="logical" name="LORBITALREAL"> F  </i>
  </separator>
  <separator name="miscellaneous" >
   <i type="int" name="IDIOT">     3</i>
   <i type="logical" name="LMUSIC"> F  </i>
   <v name="POMASS">     55.84700000</v>
   <v name="DARWINR">      0.00000000</v>
   <v name="DARWINV">      1.00000000</v>
   <i type="logical" name="LCORR"> T  </i>
  </separator>
  <i type="logical" name="GGA_COMPAT"> T  </i>
  <i type="logical" name="LBERRY"> F  </i>
  <i type="int" name="ICORELEVEL">     0</i>
  <i type="logical" name="LDAU"> F  </i>
  <i type="int" name="I_CONSTRAINED_M">     0</i>
  <separator name="electronic exchange-correlation" >
   <i type="string" name="GGA">--</i>
   <i type="int" name="VOSKOWN">     0</i>
   <i type="logical" name="LHFCALC"> F  </i>
   <i type="string" name="PRECFOCK"></i>
   <i type="logical" name="LSYMGRAD"> F  </i>
   <i type="logical" name="LHFONE"> F  </i>
   <i type="logical" name="LRHFCALC"> F  </i>
   <i type="logical" name="LTHOMAS"> F  </i>
   <i type="logical" name="LMODELHF"> F  </i>
   <i name="ENCUT4O">     -1.00000000</i>
   <i type="int" name="EXXOEP">     0</i>
   <i type="int" name="FOURORBIT">     0</i>
   <i name="AEXX">      0.00000000</i>
   <i name="HFALPHA">      0.00000000</i>
   <i name="MCALPHA">      0.00000000</i>
   <i name="ALDAX">      1.00000000</i>
   <i name="AGGAX">      1.00000000</i>
   <i name="ALDAC">      1.00000000</i>
   <i name="AGGAC">      1.00000000</i>
   <i type="int" name="NKREDX">     1</i>
   <i type="int" name="NKREDY">     1</i>
   <i type="int" name="NKREDZ">     1</i>
   <i type="logical" name="SHIFTRED"> F  </i>
   <i type="logical" name="ODDONLY"> F  </i>
   <i type="logical" name="EVENONLY"> F  </i>
   <i type="int" name="LMAXFOCK">     0</i>
   <i type="int" name="NMAXFOCKAE">     0</i>
   <i type="logical" name="LFOCKAEDFT"> F  </i>
   <i name="HFSCREEN">      0.00000000</i>
   <i name="HFSCREENC">      0.00000000</i>
   <i type="int" name="NBANDSGWLOW">     0</i>
  </separator>
  <separator name="vdW DFT" >
   <i type="logical" name="LUSE_VDW"> F  </i>
   <i name="Zab_VDW">     -0.84910000</i>
   <i name="PARAM1">      0.12340000</i>
   <i name="PARAM2">      1.00000000</i>
   <i name="PARAM3">      0.00000000</i>
  </separator>
  <separator name="model GW" >
   <i type="int" name="MODEL_GW">     0</i>
   <i name="MODEL_EPS0">      6.58560000</i>
   <i name="MODEL_ALPHA">      1.00000000</i>
  </separator>
  <separator name="linear response parameters" >
   <i type="logical" name="LEPSILON"> F  </i>
   <i type="logical" name="LRPA"> F  </i>
   <i type="logical" name="LNABLA"> F  </i>
   <i type="logical" name="LVEL"> F  </i>
   <i type="int" name="KINTER">     0</i>
   <i name="CSHIFT">      0.10000000</i>
   <i name="OMEGAMAX">     -1.00000000</i>
   <i name="DEG_THRESHOLD">      0.00200000</i>
  </separator>
  <separator name="orbital magnetization" >
   <i type="logical" name="NUCIND"> F  </i>
   <v name="MAGPOS">      0.00000000      0.00000000      0.00000000</v>
   <i type="logical" name="LNICSALL"> T  </i>
   <i type="logical" name="ORBITALMAG"> F  </i>
   <i type="logical" name="LMAGBLOCH"> F  </i>
   <i type="logical" name="LCHIMAG"> F  </i>
   <i type="logical" name="LGAUGE"> T  </i>
   <i type="int" name="MAGATOM">     0</i>
   <v name="MAGDIPOL">      0.00000000      0.00000000      0.00000000</v>
   <v name="AVECCONST">      0.00000000      0.00000000      0.00000000</v>
  </separator>
  <separator name="response functions" >
   <i type="logical" name="LADDER"> F  </i>
   <i type="logical" name="LFXC"> F  </i>
   <i type="logical" name="LHARTREE"> T  </i>
   <i type="int" name="IBSE">     0</i>
   <v type="int" name="KPOINT">    -1     0     0     0</v>
   <i type="logical" name="LTCTE"> F  </i>
   <i type="logical" name="LTETE"> F  </i>
   <i type="logical" name="LTRIPLET"> F  </i>
   <i type="logical" name="LFXCEPS"> F  </i>
   <i type="logical" name="LFXHEG"> F  </i>
   <i type="int" name="NATURALO">     0</i>
   <i type="logical" name="L2ORDER"> F  </i>
   <i type="logical" name="LUSEW"> F  </i>
   <i name="ENCUTGW">     -2.00000000</i>
   <i name="ENCUTGWSOFT">     -2.00000000</i>
   <i name="ENCUTLF">     -1.00000000</i>
   <i type="int" name="LMAXMP2">    -1</i>
   <i name="SCISSOR">      0.00000000</i>
   <i type="int" name="NOMEGA">     0</i>
   <i type="int" name="NOMEGAR">     0</i>
   <i type="int" name="NBANDSGW">    -1</i>
   <i type="int" name="NBANDSO">    -1</i>
   <i type="int" name="NBANDSV">    -1</i>
   <i type="int" name="NELM">     1</i>
   <i type="int" name="NELMHF">     1</i>
   <i type="int" name="DIM">     3</i>
   <i type="int" name="ANTIRES">     0</i>
   <i name="OMEGAMAX">    -30.00000000</i>
   <i name="OMEGAMIN">    -30.00000000</i>
   <i name="OMEGATL">   -200.00000000</i>
   <i type="int" name="OMEGAGRID">     0</i>
   <i name="CSHIFT">     -0.10000000</i>
   <i type="logical" name="SELFENERGY"> F  </i>
   <i type="logical" name="LSPECTRAL"> F  </i>
   <i type="logical" name="LSPECTRALGW"> F  </i>
   <i type="logical" name="LSINGLES"> F  </i>
   <i type="logical" name="LFERMIGW"> F  </i>
   <i type="logical" name="ODDONLYGW"> F  </i>
   <i type="logical" name="EVENONLYGW"> F  </i>
   <i type="int" name="NKREDLFX">     1</i>
   <i type="int" name="NKREDLFY">     1</i>
   <i type="int" name="NKREDLFZ">     1</i>
   <i type="int" name="MAXMEM">  1800</i>
   <i type="int" name="TELESCOPE">     0</i>
   <i type="int" name="TAUPAR">     1</i>
   <i type="int" name="OMEGAPAR">    -1</i>
   <i name="LAMBDA">      1.00000000</i>
  </separator>
  <separator name="External order field" >
   <i name="OFIELD_KAPPA">      0.00000000</i>
   <v name="OFIELD_K">      0.00000000      0.00000000      0.00000000</v>
   <i name="OFIELD_Q6_NEAR">      0.00000000</i>
   <i name="OFIELD_Q6_FAR">      0.00000000</i>
   <i name="OFIELD_A">      0.00000000</i>
  </separator>
 </parameters>
 <atominfo>
  <atoms>       1 </atoms>
  <types>       1 </types>
  <array name="atoms" >
   <dimension dim="1">ion</dimension>
   <field type="string">element</field>
   <field type="int">atomtype</field>
   <set>
    <rc><c>Fe</c><c>   1</c></rc>
   </set>
  </array>
  <array name="atomtypes" >
   <dimension dim="1">type</dimension>
   <field type="int">atomspertype</field>
   <field type="string">element</field>
   <field>mass</field>
   <field>valence</field>
   <field type="string">pseudopotential</field>
   <set>
    <rc><c>   1</c><c>Fe</c><c>     55.84700000</c><c>      8.00000000</c><c>  PAW_PBE Fe 06Sep2000                  </c></rc>
   </set>
  </array>
 </atominfo>
 <structure name="initialpos" >
  <crystal>
   <varray name="basis" >
    <v>      -1.40000000       1.40000000       1.40000000 </v>
    <v>       1.40000000      -1.40000000       1.40000000 </v>
    <v>       1.40000000       1.40000000      -1.40000000 </v>
   </varray>
   <i name="volume">     10.97600000 </i>
   <varray name="rec_basis" >
    <v>       0.00000000       0.35714286       0.35714286 </v>
    <v>       0.35714286       0.00000000       0.35714286 </v>
    <v>       0.35714286       0.35714286       0.00000000 </v>
   </varray>
  </crystal>
  <varray name="positions" >
   <v>       0.00000000       0.00000000       0.00000000 </v>
  </varray>
 </structure>
 <calculation>
  <scstep>
   <time name="dav">    3.17    2.99</time>
   <time name="total">    3.30    3.13</time>
   <energy>
    <i name="alphaZ">     62.96809038 </i>
    <i name="ewald">   -598.90499562 </i>
    <i name="hartreedc">   -108.91249841 </i>
    <i name="XCdc">      6.11433645 </i>
    <i name="pawpsdc">    552.89180568 </i>
    <i name="pawaedc">   -560.64780826 </i>
    <i name="eentropy">      0.00000000 </i>
    <i name="bandstr">     71.61738105 </i>
    <i name="atom">    594.30652615 </i>
    <i name="e_fr_energy">     19.43283742 </i>
    <i name="e_wo_entrp">     19.43283742 </i>
    <i name="e_0_energy">     19.43283742 </i>
   </energy>
  </scstep>
  <scstep>
   <time name="dav">    2.94    2.89</time>
   <time name="total">    3.03    2.98</time>
   <energy>
    <i name="e_fr_energy">     -8.07079360 </i>
    <i name="e_wo_entrp">     -8.07079360 </i>
    <i name="e_0_energy">     -8.07079360 </i>
   </energy>
  </scstep>
  <scstep>
   <time name="dav">    3.64    3.20</time>
   <time name="total">    3.73    3.28</time>
   <energy>
    <i name="e_fr_energy">     -8.62119393 </i>
    <i name="e_wo_entrp">     -8.62119393 </i>
    <i name="e_0_energy">     -8.62119393 </i>
   </energy>
  </scstep>
  <scstep>
   <time name="dav">    2.66    2.65</time>
   <time name="total">    2.73    2.73</time>
   <energy>
    <i name="e_fr_energy">     -8.62302733 </i>
    <i name="e_wo_entrp">     -8.62302733 </i>
    <i name="e_0_energy">     -8.62302733 </i>
   </energy>
  </scstep>
  <scstep>
   <time name="dav">    2.80    2.71</time>
   <time name="total">    2.94    2.85</time>
   <energy>
    <i name="e_fr_energy">     -8.62303828 </i>
    <i name="e_wo_entrp">     -8.62303828 </i>
    <i name="e_0_energy">     -8.62303828 </i>
   </energy>
  </scstep>
  <scstep>
   <time name="dav">    3.64    3.49</time>
   <time name="total">    3.85    3.70</time>
   <energy>
    <i name="e_fr_energy">     -8.26238153 </i>
    <i name="e_wo_entrp">     -8.26238153 </i>
    <i name="e_0_energy">     -8.26238153 </i>
   </energy>
  </scstep>
  <scstep>
   <time name="dav">    4.36    3.97</time>
   <time name="total">    4.53    4.14</time>
   <energy>
    <i name="e_fr_energy">     -8.24500010 </i>
    <i name="e_wo_entrp">     -8.24500010 </i>
    <i name="e_0_energy">     -8.24500010 </i>
   </energy>
  </scstep>
  <scstep>
   <time name="dav">    2.97    2.79</time>
   <time name="total">    3.14    2.94</time>
   <energy>
    <i name="e_fr_energy">     -8.23563613 </i>
    <i name="e_wo_entrp">     -8.23563613 </i>
    <i name="e_0_energy">     -8.23563613 </i>
   </energy>
  </scstep>
  <scstep>
   <time name="dav">    4.55    4.17</time>
   <time name="total">    4.73    4.35</time>
   <energy>
    <i name="e_fr_energy">     -8.22862506 </i>
    <i name="e_wo_entrp">     -8.22862506 </i>
    <i name="e_0_energy">     -8.22862506 </i>
   </energy>
  </scstep>
  <scstep>
   <time name="dav">    3.90    3.79</time>
   <time name="total">    4.05    3.95</time>
   <energy>
    <i name="e_fr_energy">     -8.22876859 </i>
    <i name="e_wo_entrp">     -8.22876859 </i>
    <i name="e_0_energy">     -8.22876859 </i>
   </energy>
  </scstep>
  <scstep>
   <time name="dav">    3.68    3.58</time>
   <time name="total">    3.83    3.73</time>
   <energy>
    <i name="e_fr_energy">     -8.22874632 </i>
    <i name="e_wo_entrp">     -8.22874632 </i>
    <i name="e_0_energy">     -8.22874632 </i>
   </energy>
  </scstep>
  <scstep>
   <time name="dav">    3.36    3.01</time>
   <time name="total">    3.53    3.16</time>
   <energy>
    <i name="e_fr_energy">     -8.22875458 </i>
    <i name="e_wo_entrp">     -8.22875458 </i>
    <i name="e_0_energy">     -8.22875458 </i>
   </energy>
  </scstep>
  <scstep>
   <time name="dav">    3.97    3.48</time>
   <time name="total">    4.12    3.62</time>
   <energy>
    <i name="e_fr_energy">     -8.22873091 </i>
    <i name="e_wo_entrp">     -8.22873091 </i>
    <i name="e_0_energy">     -8.22873091 </i>
   </energy>
  </scstep>
  <scstep>
   <time name="dav">    1.80    1.73</time>
   <time name="total">    1.98    1.89</time>
   <energy>
    <i name="e_fr_energy">     -8.22873485 </i>
    <i name="e_wo_entrp">     -8.22873485 </i>
    <i name="e_0_energy">     -8.22873485 </i>
   </energy>
  </scstep>
  <scstep>
   <time name="dav">    2.19    1.96</time>
   <time name="total">    2.30    2.06</time>
   <energy>
    <i name="alphaZ">     62.96809038 </i>
    <i name="ewald">   -598.90499562 </i>
    <i name="hartreedc">    -92.43777773 </i>
    <i name="XCdc">      4.37949385 </i>
    <i name="pawpsdc">    737.46560678 </i>
    <i name="pawaedc">   -746.67133417 </i>
    <i name="eentropy">      0.00000000 </i>
    <i name="bandstr">     30.66565506 </i>
    <i name="atom">    594.30652615 </i>
    <i name="e_fr_energy">     -8.22873531 </i>
    <i name="e_wo_entrp">     -8.22873531 </i>
    <i name="e_0_energy">     -8.22873531 </i>
   </energy>
  </scstep>
  <structure>
   <crystal>
    <varray name="basis" >
     <v>      -1.40000000       1.40000000       1.40000000 </v>
     <v>       1.40000000      -1.40000000       1.40000000 </v>
     <v>       1.40000000       1.40000000      -1.40000000 </v>
    </varray>
    <i name="volume">     10.97600000 </i>
    <varray name="rec_basis" >
     <v>       0.00000000       0.35714286       0.35714286 </v>
     <v>       0.35714286       0.00000000       0.35714286 </v>
     <v>       0.35714286       0.35714286       0.00000000 </v>
    </varray>
   </crystal>
   <varray name="positions" >
    <v>       0.00000000       0.00000000       0.00000000 </v>
   </varray>
  </structure>
  <varray name="forces" >
   <v>      -0.00000000       0.00000000      -0.00000000 </v>
  </varray>
  <varray name="stress" >
   <v>      68.23066888      -0.00000000       0.00000000 </v>
   <v>       0.00000000      68.23066888      -0.00000000 </v>
   <v>       0.00000000       0.00000000      68.23066888 </v>
  </varray>
  <energy>
   <i name="e_fr_energy">     -8.22873531 </i>
   <i name="e_wo_entrp">     -8.22873531 </i>
   <i name="e_0_energy">      0.00000000 </i>
  </energy>
  <time name="totalsc">   52.19   49.10</time>
  <eigenvalues>
   <array>
    <dimension dim="1">band</dimension>
    <dimension dim="2">kpoint</dimension>
    <dimension dim="3">spin</dimension>
    <field>eigene</field>
    <field>occ</field>
    <set>
     <set comment="spin 1">
      <set comment="kpoint 1">
       <r>   -1.4654    1.0000 </r>
       <r>    3.5771    1.0000 </r>
       <r>    3.5771    1.0000 </r>
       <r>    4.4282    1.0000 </r>
       <r>    5.0566    1.0000 </r>
       <r>    5.0566    1.0034 </r>
       <r>   27.9797    0.0000 </r>
       <r>   27.9797    0.0000 </r>
       <r>   32.2981    0.0000 </r>
       <r>   32.4699    0.0000 </r>
       <r>   37.8321    0.0000 </r>
       <r>   37.8321    0.0000 </r>
      </set>
      <set comment="kpoint 2">
       <r>    0.1611    1.0000 </r>
       <r>    3.1425    1.0000 </r>
       <r>    3.3659    1.0000 </r>
       <r>    4.9917    1.0000 </r>
       <r>    5.1894    1.0011 </r>
       <r>    5.5093    0.8782 </r>
       <r>   22.5469    0.0000 </r>
       <r>   25.6187    0.0000 </r>
       <r>   28.2869    0.0000 </r>
       <r>   32.8865    0.0000 </r>
       <r>   37.3630    0.0000 </r>
       <r>   38.4524    0.0000 </r>
      </set>
      <set comment="kpoint 3">
       <r>    1.2732    1.0000 </r>
       <r>    2.7713    1.0000 </r>
       <r>    4.1906    1.0000 </r>
       <r>    5.1442    1.0000 </r>
       <r>    5.2949    1.0345 </r>
       <r>    7.0041    0.0067 </r>
       <r>   17.0244    0.0000 </r>
       <r>   23.8703    0.0000 </r>
       <r>   25.8546    0.0000 </r>
       <r>   32.4301    0.0000 </r>
       <r>   36.6604    0.0000 </r>
       <r>   41.8390    0.0000 </r>
      </set>
      <set comment="kpoint 4">
       <r>    1.3076    1.0000 </r>
       <r>    2.6290    1.0000 </r>
       <r>    5.2135    1.0000 </r>
       <r>    5.2308    1.0000 </r>
       <r>    5.3383    1.0804 </r>
       <r>    8.4005   -0.0049 </r>
       <r>   13.9054    0.0000 </r>
       <r>   23.2243    0.0000 </r>
       <r>   24.9471    0.0000 </r>
       <r>   32.2172    0.0000 </r>
       <r>   36.5702    0.0000 </r>
       <r>   41.6582    0.0000 </r>
      </set>
      <set comment="kpoint 5">
       <r>   -2.0996    1.0000 </r>
       <r>    3.7939    1.0000 </r>
       <r>    3.7939    1.0000 </r>
       <r>    3.8870    1.0000 </r>
       <r>    4.9753    1.0000 </r>
       <r>    5.1890    1.0000 </r>
       <r>   29.8511    0.0000 </r>
       <r>   31.2403    0.0000 </r>
       <r>   31.2403    0.0000 </r>
       <r>   34.6442    0.0000 </r>
       <r>   36.9981    0.0000 </r>
       <r>   36.9981    0.0000 </r>
      </set>
      <set comment="kpoint 6">
       <r>    1.6522    1.0000 </r>
       <r>    2.8430    1.0000 </r>
       <r>    3.0634    1.0000 </r>
       <r>    5.0785    1.0000 </r>
       <r>    5.3301    1.0009 </r>
       <r>    7.2251   -0.0125 </r>
       <r>   19.9681    0.0000 </r>
       <r>   20.8641    0.0000 </r>
       <r>   24.8950    0.0000 </r>
       <r>   34.8730    0.0000 </r>
       <r>   38.7577    0.0000 </r>
       <r>   41.2394    0.0000 </r>
      </set>
      <set comment="kpoint 7">
       <r>    1.9664    1.0000 </r>
       <r>    2.6693    1.0000 </r>
       <r>    3.7364    1.0000 </r>
       <r>    5.2293    1.0000 </r>
       <r>    5.4320    1.0102 </r>
       <r>    9.7550   -0.0034 </r>
       <r>   15.3009    0.0000 </r>
       <r>   19.2304    0.0000 </r>
       <r>   23.5531    0.0000 </r>
       <r>   35.2889    0.0000 </r>
       <r>   39.7505    0.0000 </r>
       <r>   41.9211    0.0000 </r>
      </set>
      <set comment="kpoint 8">
       <r>   -0.8763    1.0000 </r>
       <r>    3.5097    1.0000 </r>
       <r>    3.7140    1.0000 </r>
       <r>    4.5394    1.0000 </r>
       <r>    4.7188    1.0000 </r>
       <r>    5.2962    1.0106 </r>
       <r>   25.4429    0.0000 </r>
       <r>   28.8309    0.0000 </r>
       <r>   29.8249    0.0000 </r>
       <r>   34.0252    0.0000 </r>
       <r>   34.2455    0.0000 </r>
       <r>   35.8181    0.0000 </r>
      </set>
      <set comment="kpoint 9">
       <r>    2.2954    1.0000 </r>
       <r>    3.0528    1.0000 </r>
       <r>    3.0528    1.0000 </r>
       <r>    5.3764    1.0000 </r>
       <r>    5.3764    1.0000 </r>
       <r>   13.3595    0.0000 </r>
       <r>   13.3595    0.0000 </r>
       <r>   16.0435    0.0000 </r>
       <r>   23.0667    0.0000 </r>
       <r>   37.7832    0.0000 </r>
       <r>   37.7832    0.0000 </r>
       <r>   45.3145    0.0000 </r>
      </set>
      <set comment="kpoint 10">
       <r>    0.7675    1.0000 </r>
       <r>    3.0882    1.0000 </r>
       <r>    3.7793    1.0000 </r>
       <r>    4.9382    1.0000 </r>
       <r>    5.4921    1.0179 </r>
       <r>    5.6125    0.7023 </r>
       <r>   19.6233    0.0000 </r>
       <r>   26.3595    0.0000 </r>
       <r>   27.7430    0.0000 </r>
       <r>   32.2800    0.0000 </r>
       <r>   34.2727    0.0000 </r>
       <r>   37.1717    0.0000 </r>
      </set>
      <set comment="kpoint 11">
       <r>    0.5972    1.0000 </r>
       <r>    3.2765    1.0000 </r>
       <r>    3.4986    1.0000 </r>
       <r>    4.5860    1.0000 </r>
       <r>    5.3230    1.0023 </r>
       <r>    5.7020    0.7483 </r>
       <r>   22.6020    0.0000 </r>
       <r>   23.6846    0.0000 </r>
       <r>   30.2164    0.0000 </r>
       <r>   30.6195    0.0000 </r>
       <r>   34.4253    0.0000 </r>
       <r>   39.1603    0.0000 </r>
      </set>
      <set comment="kpoint 12">
       <r>    1.1839    1.0000 </r>
       <r>    2.8028    1.0000 </r>
       <r>    4.5997    1.0000 </r>
       <r>    5.1192    1.0000 </r>
       <r>    6.4775    0.4333 </r>
       <r>    6.8676    0.0028 </r>
       <r>   14.8159    0.0000 </r>
       <r>   24.9407    0.0000 </r>
       <r>   26.0899    0.0000 </r>
       <r>   31.5481    0.0000 </r>
       <r>   34.5842    0.0000 </r>
       <r>   38.8096    0.0000 </r>
      </set>
      <set comment="kpoint 13">
       <r>    1.6291    1.0000 </r>
       <r>    2.9552    1.0000 </r>
       <r>    3.5685    1.0000 </r>
       <r>    4.9072    1.0000 </r>
       <r>    5.7404    1.0235 </r>
       <r>    7.5124   -0.0364 </r>
       <r>   17.4013    0.0000 </r>
       <r>   21.3775    0.0000 </r>
       <r>   28.0621    0.0000 </r>
       <r>   31.3131    0.0000 </r>
       <r>   35.0284    0.0000 </r>
       <r>   39.7455    0.0000 </r>
      </set>
      <set comment="kpoint 14">
       <r>    1.6434    1.0000 </r>
       <r>    2.9465    1.0000 </r>
       <r>    3.7485    1.0000 </r>
       <r>    5.0207    1.0000 </r>
       <r>    6.1087    0.8390 </r>
       <r>    9.5483   -0.0018 </r>
       <r>   13.9979    0.0000 </r>
       <r>   20.6612    0.0000 </r>
       <r>   27.1883    0.0000 </r>
       <r>   31.6925    0.0000 </r>
       <r>   35.9288    0.0000 </r>
       <r>   39.0551    0.0000 </r>
      </set>
      <set comment="kpoint 15">
       <r>    2.3732    1.0000 </r>
       <r>    2.6337    1.0000 </r>
       <r>    3.2086    1.0000 </r>
       <r>    5.2259    1.0000 </r>
       <r>    5.7108    1.0521 </r>
       <r>   10.8568   -0.0005 </r>
       <r>   15.3747    0.0000 </r>
       <r>   16.8483    0.0000 </r>
       <r>   28.5278    0.0000 </r>
       <r>   31.6457    0.0000 </r>
       <r>   33.9126    0.0000 </r>
       <r>   41.5122    0.0000 </r>
      </set>
      <set comment="kpoint 16">
       <r>    2.6534    1.0000 </r>
       <r>    2.6534    1.0000 </r>
       <r>    2.8552    1.0000 </r>
       <r>    5.3126    1.0000 </r>
       <r>    5.3126    1.0000 </r>
       <r>    9.7550   -0.0043 </r>
       <r>   18.2818    0.0000 </r>
       <r>   18.2818    0.0000 </r>
       <r>   19.8304    0.0000 </r>
       <r>   39.6287    0.0000 </r>
       <r>   42.5032    0.0000 </r>
       <r>   42.5032    0.0000 </r>
      </set>
      <set comment="kpoint 17">
       <r>    2.5363    1.0000 </r>
       <r>    2.6142    1.0000 </r>
       <r>    3.3125    1.0000 </r>
       <r>    5.3488    1.0000 </r>
       <r>    5.3653    1.0000 </r>
       <r>   12.6264    0.0000 </r>
       <r>   14.5697    0.0000 </r>
       <r>   17.7012    0.0000 </r>
       <r>   18.8523    0.0000 </r>
       <r>   40.7493    0.0000 </r>
       <r>   44.2600    0.0000 </r>
       <r>   44.8058    0.0000 </r>
      </set>
      <set comment="kpoint 18">
       <r>    0.1880    1.0000 </r>
       <r>    3.8799    1.0000 </r>
       <r>    3.9538    1.0000 </r>
       <r>    3.9538    1.0000 </r>
       <r>    4.5531    1.0000 </r>
       <r>    5.6869    0.8923 </r>
       <r>   25.4868    0.0000 </r>
       <r>   26.6889    0.0000 </r>
       <r>   26.6889    0.0000 </r>
       <r>   28.6483    0.0000 </r>
       <r>   38.2829    0.0000 </r>
       <r>   38.2829    0.0000 </r>
      </set>
      <set comment="kpoint 19">
       <r>    1.4931    1.0000 </r>
       <r>    3.0668    1.0000 </r>
       <r>    3.8056    1.0000 </r>
       <r>    4.5088    1.0000 </r>
       <r>    5.4882    1.0374 </r>
       <r>    6.5906    0.0974 </r>
       <r>   20.4915    0.0000 </r>
       <r>   24.0307    0.0000 </r>
       <r>   25.1048    0.0000 </r>
       <r>   29.2331    0.0000 </r>
       <r>   37.3496    0.0000 </r>
       <r>   39.1480    0.0000 </r>
      </set>
      <set comment="kpoint 20">
       <r>    1.7447    1.0000 </r>
       <r>    3.0000    1.0000 </r>
       <r>    3.5951    1.0000 </r>
       <r>    4.7411    1.0000 </r>
       <r>    6.3908    0.2805 </r>
       <r>    9.1370   -0.0110 </r>
       <r>   15.3228    0.0000 </r>
       <r>   22.3642    0.0000 </r>
       <r>   24.2424    0.0000 </r>
       <r>   31.7481    0.0000 </r>
       <r>   36.3964    0.0000 </r>
       <r>   37.1620    0.0000 </r>
      </set>
      <set comment="kpoint 21">
       <r>    2.0894    1.0000 </r>
       <r>    2.4011    1.0000 </r>
       <r>    3.8905    1.0000 </r>
       <r>    4.9299    1.0000 </r>
       <r>    5.9403    1.0558 </r>
       <r>    9.0361   -0.0144 </r>
       <r>   18.2788    0.0000 </r>
       <r>   18.9628    0.0000 </r>
       <r>   26.5722    0.0000 </r>
       <r>   28.2013    0.0000 </r>
       <r>   36.0635    0.0000 </r>
       <r>   39.1996    0.0000 </r>
      </set>
      <set comment="kpoint 22">
       <r>    2.0196    1.0000 </r>
       <r>    2.4173    1.0000 </r>
       <r>    3.6854    1.0000 </r>
       <r>    5.2608    1.0000 </r>
       <r>    6.1851    0.5763 </r>
       <r>   12.0986    0.0000 </r>
       <r>   14.4396    0.0000 </r>
       <r>   17.9278    0.0000 </r>
       <r>   26.5967    0.0000 </r>
       <r>   29.7942    0.0000 </r>
       <r>   33.6123    0.0000 </r>
       <r>   38.1580    0.0000 </r>
      </set>
      <set comment="kpoint 23">
       <r>    1.8651    1.0000 </r>
       <r>    2.3490    1.0000 </r>
       <r>    4.7728    1.0000 </r>
       <r>    4.7728    1.0000 </r>
       <r>    5.5255    1.1789 </r>
       <r>    8.3862   -0.0209 </r>
       <r>   20.9998    0.0000 </r>
       <r>   20.9998    0.0000 </r>
       <r>   23.1892    0.0000 </r>
       <r>   25.4200    0.0000 </r>
       <r>   37.6107    0.0000 </r>
       <r>   42.3163    0.0000 </r>
      </set>
      <set comment="kpoint 24">
       <r>    1.7342    1.0000 </r>
       <r>    1.8732    1.0000 </r>
       <r>    4.9192    1.0000 </r>
       <r>    5.2205    1.0000 </r>
       <r>    6.2708    0.1828 </r>
       <r>   11.5846    0.0000 </r>
       <r>   16.4939    0.0000 </r>
       <r>   19.1132    0.0000 </r>
       <r>   23.4127    0.0000 </r>
       <r>   26.3777    0.0000 </r>
       <r>   32.9207    0.0000 </r>
       <r>   41.7880    0.0000 </r>
      </set>
      <set comment="kpoint 25">
       <r>    1.5829    1.0000 </r>
       <r>    1.5829    1.0000 </r>
       <r>    5.0329    1.0000 </r>
       <r>    6.1041    1.0000 </r>
       <r>    6.1041    0.7987 </r>
       <r>   15.0589    0.0000 </r>
       <r>   15.0589    0.0000 </r>
       <r>   16.2703    0.0000 </r>
       <r>   24.8953    0.0000 </r>
       <r>   24.8953    0.0000 </r>
       <r>   30.4189    0.0000 </r>
       <r>   42.3592    0.0000 </r>
      </set>
      <set comment="kpoint 26">
       <r>    1.3023    1.0000 </r>
       <r>    1.3057    1.0000 </r>
       <r>    6.0604    1.0000 </r>
       <r>    6.0604    1.0000 </r>
       <r>    6.2334    0.0785 </r>
       <r>   14.4322    0.0000 </r>
       <r>   17.0104    0.0000 </r>
       <r>   17.0104    0.0000 </r>
       <r>   22.3347    0.0000 </r>
       <r>   23.5467    0.0000 </r>
       <r>   28.8755    0.0000 </r>
       <r>   45.5272    0.0000 </r>
      </set>
     </set>
     <set comment="spin 2">
      <set comment="kpoint 1">
       <r>   -1.3249    1.0000 </r>
       <r>    5.4424    1.0000 </r>
       <r>    5.4424    1.0000 </r>
       <r>    6.3908    0.0600 </r>
       <r>    7.6976    0.0000 </r>
       <r>    7.6976    0.0000 </r>
       <r>   28.1511    0.0000 </r>
       <r>   28.1511    0.0000 </r>
       <r>   32.1784    0.0000 </r>
       <r>   33.1353    0.0000 </r>
       <r>   38.1074    0.0000 </r>
       <r>   38.1074    0.0000 </r>
      </set>
      <set comment="kpoint 2">
       <r>    0.3960    1.0000 </r>
       <r>    4.9204    1.0000 </r>
       <r>    5.1035    1.0000 </r>
       <r>    7.5102   -0.0050 </r>
       <r>    7.5477    0.0000 </r>
       <r>    7.8663    0.0000 </r>
       <r>   23.1273    0.0000 </r>
       <r>   25.9140    0.0000 </r>
       <r>   29.0104    0.0000 </r>
       <r>   32.8136    0.0000 </r>
       <r>   37.9276    0.0000 </r>
       <r>   38.6850    0.0000 </r>
      </set>
      <set comment="kpoint 3">
       <r>    2.1603    1.0000 </r>
       <r>    4.4729    1.0000 </r>
       <r>    5.2926    1.0000 </r>
       <r>    7.6502    0.0000 </r>
       <r>    8.0164    0.0000 </r>
       <r>    8.8917    0.0000 </r>
       <r>   17.9673    0.0000 </r>
       <r>   24.1515    0.0000 </r>
       <r>   26.4845    0.0000 </r>
       <r>   32.6107    0.0000 </r>
       <r>   37.2078    0.0000 </r>
       <r>   41.9792    0.0000 </r>
      </set>
      <set comment="kpoint 4">
       <r>    2.5717    1.0000 </r>
       <r>    4.3021    1.0000 </r>
       <r>    6.1385    1.0000 </r>
       <r>    7.7295    0.0000 </r>
       <r>    8.0817    0.0000 </r>
       <r>    9.8058    0.0000 </r>
       <r>   15.2256    0.0000 </r>
       <r>   23.4825    0.0000 </r>
       <r>   25.5277    0.0000 </r>
       <r>   32.4756    0.0000 </r>
       <r>   37.1430    0.0000 </r>
       <r>   41.6674    0.0000 </r>
      </set>
      <set comment="kpoint 5">
       <r>   -1.9673    1.0000 </r>
       <r>    5.6965    1.0000 </r>
       <r>    5.6965    1.0000 </r>
       <r>    5.8115    0.8344 </r>
       <r>    7.6056    0.0000 </r>
       <r>    7.8769    0.0000 </r>
       <r>   29.7415    0.0000 </r>
       <r>   31.1066    0.0000 </r>
       <r>   31.1066    0.0000 </r>
       <r>   34.9946    0.0000 </r>
       <r>   37.7631    0.0000 </r>
       <r>   37.7631    0.0000 </r>
      </set>
      <set comment="kpoint 6">
       <r>    2.2018    1.0000 </r>
       <r>    4.5091    1.0000 </r>
       <r>    4.6283    1.0000 </r>
       <r>    7.6287    0.0000 </r>
       <r>    8.0119    0.0000 </r>
       <r>    9.1008    0.0000 </r>
       <r>   20.6574    0.0000 </r>
       <r>   21.4855    0.0000 </r>
       <r>   25.4740    0.0000 </r>
       <r>   34.7935    0.0000 </r>
       <r>   39.0471    0.0000 </r>
       <r>   41.5272    0.0000 </r>
      </set>
      <set comment="kpoint 7">
       <r>    3.2322    1.0000 </r>
       <r>    4.2632    1.0000 </r>
       <r>    4.9444    1.0000 </r>
       <r>    7.7817    0.0000 </r>
       <r>    8.0895    0.0000 </r>
       <r>   11.1463    0.0000 </r>
       <r>   16.3193    0.0000 </r>
       <r>   19.8731    0.0000 </r>
       <r>   24.0865    0.0000 </r>
       <r>   35.3487    0.0000 </r>
       <r>   39.8466    0.0000 </r>
       <r>   42.3267    0.0000 </r>
      </set>
      <set comment="kpoint 8">
       <r>   -0.7156    1.0000 </r>
       <r>    5.3546    1.0000 </r>
       <r>    5.5654    1.0000 </r>
       <r>    6.5239    0.0009 </r>
       <r>    7.2278    0.0000 </r>
       <r>    7.9931    0.0000 </r>
       <r>   25.8379    0.0000 </r>
       <r>   28.9325    0.0000 </r>
       <r>   30.1435    0.0000 </r>
       <r>   34.3997    0.0000 </r>
       <r>   34.8092    0.0000 </r>
       <r>   36.2321    0.0000 </r>
      </set>
      <set comment="kpoint 9">
       <r>    3.7778    1.0000 </r>
       <r>    4.4389    1.0000 </r>
       <r>    4.4390    1.0000 </r>
       <r>    7.9695    0.0000 </r>
       <r>    7.9695    0.0000 </r>
       <r>   14.3880    0.0000 </r>
       <r>   14.3880    0.0000 </r>
       <r>   16.9282    0.0000 </r>
       <r>   23.6190    0.0000 </r>
       <r>   37.8021    0.0000 </r>
       <r>   37.8021    0.0000 </r>
       <r>   45.9932    0.0000 </r>
      </set>
      <set comment="kpoint 10">
       <r>    1.2494    1.0000 </r>
       <r>    4.8550    1.0000 </r>
       <r>    5.3070    1.0000 </r>
       <r>    7.3054    0.0000 </r>
       <r>    7.7164    0.0000 </r>
       <r>    8.1254    0.0000 </r>
       <r>   20.4078    0.0000 </r>
       <r>   26.4704    0.0000 </r>
       <r>   28.3254    0.0000 </r>
       <r>   32.7328    0.0000 </r>
       <r>   34.7707    0.0000 </r>
       <r>   37.4338    0.0000 </r>
      </set>
      <set comment="kpoint 11">
       <r>    0.9007    1.0000 </r>
       <r>    5.1203    1.0000 </r>
       <r>    5.2441    1.0013 </r>
       <r>    6.9366   -0.0026 </r>
       <r>    7.4372    0.0000 </r>
       <r>    8.2483    0.0000 </r>
       <r>   23.1929    0.0000 </r>
       <r>   24.2314    0.0000 </r>
       <r>   30.4241    0.0000 </r>
       <r>   31.1021    0.0000 </r>
       <r>   34.8012    0.0000 </r>
       <r>   39.4852    0.0000 </r>
      </set>
      <set comment="kpoint 12">
       <r>    2.3674    1.0000 </r>
       <r>    4.5205    1.0000 </r>
       <r>    5.9843    1.0000 </r>
       <r>    7.5370    0.0000 </r>
       <r>    8.5413    0.0000 </r>
       <r>    8.6996    0.0000 </r>
       <r>   16.0145    0.0000 </r>
       <r>   25.0217    0.0000 </r>
       <r>   26.6518    0.0000 </r>
       <r>   32.0335    0.0000 </r>
       <r>   35.1602    0.0000 </r>
       <r>   38.9105    0.0000 </r>
      </set>
      <set comment="kpoint 13">
       <r>    2.5821    1.0000 </r>
       <r>    4.6614    1.0000 </r>
       <r>    5.1045    1.0022 </r>
       <r>    7.2141    0.0000 </r>
       <r>    8.1369    0.0000 </r>
       <r>    9.3358    0.0000 </r>
       <r>   18.3030    0.0000 </r>
       <r>   21.9648    0.0000 </r>
       <r>   28.3923    0.0000 </r>
       <r>   31.6795    0.0000 </r>
       <r>   35.3277    0.0000 </r>
       <r>   40.1644    0.0000 </r>
      </set>
      <set comment="kpoint 14">
       <r>    3.0017    1.0000 </r>
       <r>    4.6472    1.0000 </r>
       <r>    5.2332    1.0015 </r>
       <r>    7.3828    0.0000 </r>
       <r>    8.3853    0.0000 </r>
       <r>   10.7974    0.0000 </r>
       <r>   15.2540    0.0000 </r>
       <r>   21.2371    0.0000 </r>
       <r>   27.4863    0.0000 </r>
       <r>   32.1455    0.0000 </r>
       <r>   36.0172    0.0000 </r>
       <r>   39.5658    0.0000 </r>
      </set>
      <set comment="kpoint 15">
       <r>    3.7546    1.0000 </r>
       <r>    4.2565    1.0000 </r>
       <r>    4.7920    1.0042 </r>
       <r>    7.5285    0.0000 </r>
       <r>    8.0483    0.0000 </r>
       <r>   12.1449    0.0000 </r>
       <r>   16.3518    0.0000 </r>
[...]
       </set>
       <set comment="band 5">
        <r>  0.0067  0.0013  0.0013  0.0108  0.0936  0.3268  0.1118  0.0936  0.3353 </r>
       </set>
       <set comment="band 6">
        <r>  0.0582  0.0455  0.0455  0.2220  0.0908  0.1443  0.0521  0.0908  0.1563 </r>
       </set>
       <set comment="band 7">
        <r>  0.0000  0.2036  0.2036  0.0000  0.1389  0.0000  0.1492  0.1389  0.0497 </r>
       </set>
       <set comment="band 8">
        <r>  0.4594  0.0420  0.0420  0.0268  0.0837  0.0918  0.0014  0.0837  0.0043 </r>
       </set>
       <set comment="band 9">
        <r>  0.0281  0.1865  0.1865  0.0871  0.0541  0.0879  0.0006  0.0541  0.0017 </r>
       </set>
       <set comment="band 10">
        <r>  0.0000  0.0445  0.0445  0.0000  0.0562  0.0000  0.3121  0.0562  0.1040 </r>
       </set>
       <set comment="band 11">
        <r>  0.0260  0.0089  0.0089  0.0306  0.0221  0.1510  0.0967  0.0221  0.2902 </r>
       </set>
       <set comment="band 12">
        <r>  0.1095  0.0355  0.0355  0.1730  0.2343  0.2597  0.0200  0.2343  0.0601 </r>
       </set>
      </set>
      <set comment="kpoint 16">
       <set comment="band 1">
        <r>  0.1550  0.0918  0.0918  0.0918  0.1356  0.1356  0.0000  0.1356  0.0000 </r>
       </set>
       <set comment="band 2">
        <r>  0.0000  0.0448  0.0004  0.0368  0.0039  0.3601  0.0003  0.4382  0.0443 </r>
       </set>
       <set comment="band 3">
        <r>  0.0000  0.0099  0.0542  0.0178  0.5309  0.1747  0.0443  0.0966  0.0003 </r>
       </set>
       <set comment="band 4">
        <r>  0.0000  0.0000  0.0000  0.0000  0.0355  0.0168  0.8540  0.0056  0.0727 </r>
       </set>
       <set comment="band 5">
        <r>  0.0000  0.0000  0.0000  0.0000  0.0030  0.0218  0.0727  0.0330  0.8540 </r>
       </set>
       <set comment="band 6">
        <r>  0.0710  0.0621  0.0621  0.0621  0.2213  0.2213  0.0000  0.2213  0.0000 </r>
       </set>
       <set comment="band 7">
        <r>  0.0000  0.0850  0.0353  0.2206  0.0442  0.2763  0.0066  0.1065  0.0358 </r>
       </set>
       <set comment="band 8">
        <r>  0.0000  0.1422  0.1920  0.0067  0.2405  0.0084  0.0358  0.1782  0.0066 </r>
       </set>
       <set comment="band 9">
        <r>  0.5723  0.0792  0.0792  0.0792  0.0015  0.0015  0.0000  0.0015  0.0000 </r>
       </set>
       <set comment="band 10">
        <r>  0.0000  0.0000  0.0000  0.0000  0.0000  0.0000  0.0000  0.0000  0.0000 </r>
       </set>
       <set comment="band 11">
        <r>  0.0000  0.0038  0.0037  0.0006  0.2602  0.0451  0.0482  0.2689  0.0227 </r>
       </set>
       <set comment="band 12">
        <r>  0.0000  0.0016  0.0017  0.0048  0.1226  0.3377  0.0227  0.1139  0.0482 </r>
       </set>
      </set>
      <set comment="kpoint 17">
       <set comment="band 1">
        <r>  0.0341  0.0000  0.0000  0.1348  0.0000  0.6839  0.0123  0.0000  0.0370 </r>
       </set>
       <set comment="band 2">
        <r>  0.0000  0.0462  0.0462  0.0000  0.4184  0.0000  0.0000  0.4184  0.0000 </r>
       </set>
       <set comment="band 3">
        <r>  0.0000  0.1243  0.1243  0.0000  0.3181  0.0000  0.0000  0.3181  0.0000 </r>
       </set>
       <set comment="band 4">
        <r>  0.0004  0.0000  0.0000  0.0003  0.0000  0.0674  0.2296  0.0000  0.6888 </r>
       </set>
       <set comment="band 5">
        <r>  0.0000  0.0000  0.0000  0.0000  0.0000  0.0000  0.7411  0.0000  0.2470 </r>
       </set>
       <set comment="band 6">
        <r>  0.0000  0.1826  0.1826  0.0000  0.2474  0.0000  0.0000  0.2474  0.0000 </r>
       </set>
       <set comment="band 7">
        <r>  0.2261  0.0000  0.0000  0.1942  0.0000  0.4201  0.0074  0.0000  0.0223 </r>
       </set>
       <set comment="band 8">
        <r>  0.0000  0.1744  0.1744  0.0000  0.2288  0.0000  0.0000  0.2288  0.0000 </r>
       </set>
       <set comment="band 9">
        <r>  0.5486  0.0000  0.0000  0.2070  0.0000  0.0460  0.0019  0.0000  0.0058 </r>
       </set>
       <set comment="band 10">
        <r>  0.0000  0.0002  0.0002  0.0000  0.1261  0.0000  0.0000  0.1261  0.0000 </r>
       </set>
       <set comment="band 11">
        <r>  0.0000  0.0261  0.0261  0.0000  0.0652  0.0000  0.0000  0.0652  0.0000 </r>
       </set>
       <set comment="band 12">
        <r>  0.0127  0.0000  0.0000  0.0964  0.0000  0.1376  0.1096  0.0000  0.3284 </r>
       </set>
      </set>
      <set comment="kpoint 18">
       <set comment="band 1">
        <r>  0.5352  0.0000  0.0000  0.1853  0.0000  0.0000  0.0117  0.0000  0.0351 </r>
       </set>
       <set comment="band 2">
        <r>  0.0000  0.0127  0.0127  0.0000  0.4710  0.0000  0.0000  0.4710  0.0000 </r>
       </set>
       <set comment="band 3">
        <r>  0.0000  0.0127  0.0127  0.0000  0.4710  0.0000  0.0000  0.4710  0.0000 </r>
       </set>
       <set comment="band 4">
        <r>  0.0000  0.0000  0.0000  0.0000  0.0000  0.0000  0.6829  0.0000  0.2276 </r>
       </set>
       <set comment="band 5">
        <r>  0.0000  0.0000  0.0000  0.0000  0.0000  0.9789  0.0000  0.0000  0.0000 </r>
       </set>
       <set comment="band 6">
        <r>  0.0291  0.0000  0.0000  0.0080  0.0000  0.0000  0.2365  0.0000  0.7094 </r>
       </set>
       <set comment="band 7">
        <r>  0.0000  0.0000  0.0000  0.0000  0.0000  0.0000  0.4671  0.0000  0.1557 </r>
       </set>
       <set comment="band 8">
        <r>  0.0000  0.1739  0.1739  0.0000  0.2947  0.0000  0.0000  0.2947  0.0000 </r>
       </set>
       <set comment="band 9">
        <r>  0.0000  0.1739  0.1739  0.0000  0.2947  0.0000  0.0000  0.2947  0.0000 </r>
       </set>
       <set comment="band 10">
        <r>  0.1593  0.0000  0.0000  0.2786  0.0000  0.0000  0.0000  0.0000  0.0000 </r>
       </set>
       <set comment="band 11">
        <r>  0.0000  0.1644  0.1644  0.0000  0.0028  0.0000  0.0000  0.0028  0.0000 </r>
       </set>
       <set comment="band 12">
        <r>  0.0000  0.1644  0.1644  0.0000  0.0028  0.0000  0.0000  0.0028  0.0000 </r>
       </set>
      </set>
      <set comment="kpoint 19">
       <set comment="band 1">
        <r>  0.3269  0.0078  0.0000  0.2307  0.0525  0.0000  0.0694  0.0000  0.1022 </r>
       </set>
       <set comment="band 2">
        <r>  0.0020  0.0317  0.0000  0.0129  0.2064  0.0000  0.4113  0.0000  0.2271 </r>
       </set>
       <set comment="band 3">
        <r>  0.0000  0.0000  0.0256  0.0000  0.0000  0.2774  0.0000  0.6594  0.0000 </r>
       </set>
       <set comment="band 4">
        <r>  0.0000  0.0244  0.0000  0.0085  0.6415  0.0000  0.2643  0.0000  0.0133 </r>
       </set>
       <set comment="band 5">
        <r>  0.0000  0.0000  0.0096  0.0000  0.0000  0.7001  0.0000  0.2687  0.0000 </r>
       </set>
       <set comment="band 6">
        <r>  0.0910  0.0082  0.0000  0.0547  0.0086  0.0000  0.1705  0.0000  0.6330 </r>
       </set>
       <set comment="band 7">
        <r>  0.0897  0.2691  0.0000  0.0335  0.2880  0.0000  0.1314  0.0000  0.0554 </r>
       </set>
       <set comment="band 8">
        <r>  0.0000  0.0000  0.4915  0.0000  0.0000  0.0111  0.0000  0.4327  0.0000 </r>
       </set>
       <set comment="band 9">
        <r>  0.0922  0.0018  0.0000  0.0742  0.0323  0.0000  0.3682  0.0000  0.0500 </r>
       </set>
       <set comment="band 10">
        <r>  0.0626  0.2016  0.0000  0.0668  0.1256  0.0000  0.0369  0.0000  0.1303 </r>
       </set>
       <set comment="band 11">
        <r>  0.0000  0.0000  0.1756  0.0000  0.0000  0.6067  0.0000  0.1383  0.0000 </r>
       </set>
       <set comment="band 12">
        <r>  0.0676  0.1777  0.0000  0.0110  0.0919  0.0000  0.1861  0.0000  0.0901 </r>
       </set>
      </set>
      <set comment="kpoint 20">
       <set comment="band 1">
        <r>  0.1194  0.0006  0.0000  0.0883  0.2649  0.0000  0.3525  0.0000  0.0317 </r>
       </set>
       <set comment="band 2">
        <r>  0.0049  0.0991  0.0000  0.0995  0.0270  0.0000  0.0906  0.0000  0.5252 </r>
       </set>
       <set comment="band 3">
        <r>  0.0000  0.0000  0.0251  0.0000  0.0000  0.4169  0.0000  0.5176  0.0000 </r>
       </set>
       <set comment="band 4">
        <r>  0.0205  0.0117  0.0000  0.0007  0.5055  0.0000  0.4100  0.0000  0.0037 </r>
       </set>
       <set comment="band 5">
        <r>  0.0000  0.0000  0.0028  0.0000  0.0000  0.5573  0.0000  0.4295  0.0000 </r>
       </set>
       <set comment="band 6">
        <r>  0.0696  0.1083  0.0000  0.2225  0.0371  0.0000  0.0336  0.0000  0.4355 </r>
       </set>
       <set comment="band 7">
        <r>  0.2682  0.1923  0.0000  0.0019  0.3082  0.0000  0.1070  0.0000  0.0283 </r>
       </set>
       <set comment="band 8">
        <r>  0.0000  0.0000  0.5896  0.0000  0.0000  0.0691  0.0000  0.2237  0.0000 </r>
       </set>
       <set comment="band 9">
        <r>  0.1052  0.0216  0.0000  0.0524  0.0092  0.0000  0.4053  0.0000  0.0056 </r>
       </set>
       <set comment="band 10">
        <r>  0.0107  0.1514  0.0000  0.0003  0.0276  0.0000  0.0315  0.0000  0.3960 </r>
       </set>
       <set comment="band 11">
        <r>  0.0000  0.0000  0.1481  0.0000  0.0000  0.5269  0.0000  0.3409  0.0000 </r>
       </set>
       <set comment="band 12">
        <r>  0.0036  0.1477  0.0000  0.2119  0.0044  0.0000  0.3782  0.0000  0.0986 </r>
       </set>
      </set>
      <set comment="kpoint 21">
       <set comment="band 1">
        <r>  0.1254  0.0052  0.0052  0.1924  0.0473  0.0002  0.1009  0.0473  0.3028 </r>
       </set>
       <set comment="band 2">
        <r>  0.0000  0.0217  0.0217  0.0000  0.0641  0.0000  0.5289  0.0641  0.1763 </r>
       </set>
       <set comment="band 3">
        <r>  0.0066  0.0170  0.0170  0.0098  0.2508  0.3254  0.0174  0.2508  0.0523 </r>
       </set>
       <set comment="band 4">
        <r>  0.0000  0.0169  0.0169  0.0000  0.3825  0.0000  0.1217  0.3825  0.0406 </r>
       </set>
       <set comment="band 5">
        <r>  0.0124  0.0004  0.0004  0.0057  0.1177  0.6091  0.0291  0.1177  0.0874 </r>
       </set>
       <set comment="band 6">
        <r>  0.1322  0.0194  0.0194  0.1994  0.0445  0.0405  0.1051  0.0445  0.3154 </r>
       </set>
       <set comment="band 7">
        <r>  0.0000  0.2137  0.2137  0.0000  0.1151  0.0000  0.1798  0.1151  0.0599 </r>
       </set>
       <set comment="band 8">
        <r>  0.2372  0.1482  0.1482  0.0304  0.1130  0.0289  0.0039  0.1130  0.0117 </r>
       </set>
       <set comment="band 9">
        <r>  0.0000  0.0632  0.0632  0.0000  0.0503  0.0000  0.4117  0.0503  0.1372 </r>
       </set>
       <set comment="band 10">
        <r>  0.0842  0.1177  0.1177  0.0309  0.0115  0.0022  0.0546  0.0115  0.1638 </r>
       </set>
       <set comment="band 11">
        <r>  0.0015  0.0703  0.0703  0.1253  0.0544  0.2455  0.0580  0.0544  0.1741 </r>
       </set>
       <set comment="band 12">
        <r>  0.1638  0.0001  0.0001  0.1813  0.1179  0.2322  0.0403  0.1179  0.1208 </r>
       </set>
      </set>
      <set comment="kpoint 22">
       <set comment="band 1">
        <r>  0.0282  0.0252  0.0226  0.0252  0.1573  0.0000  0.6079  0.0000  0.0000 </r>
       </set>
       <set comment="band 2">
        <r>  0.0000  0.0771  0.0000  0.0771  0.0000  0.0177  0.0000  0.0177  0.6619 </r>
       </set>
       <set comment="band 3">
        <r>  0.0331  0.0010  0.0231  0.0010  0.1562  0.3435  0.0423  0.3435  0.0000 </r>
       </set>
       <set comment="band 4">
        <r>  0.0104  0.0071  0.0130  0.0071  0.5143  0.1093  0.1934  0.1093  0.0000 </r>
       </set>
       <set comment="band 5">
        <r>  0.0000  0.0102  0.0000  0.0102  0.0000  0.4382  0.0000  0.4382  0.0863 </r>
       </set>
       <set comment="band 6">
        <r>  0.0000  0.2463  0.0000  0.2463  0.0000  0.0479  0.0000  0.0479  0.2948 </r>
       </set>
       <set comment="band 7">
        <r>  0.2564  0.0944  0.0448  0.0944  0.2630  0.0002  0.1433  0.0002  0.0000 </r>
       </set>
       <set comment="band 8">
        <r>  0.1725  0.0022  0.3810  0.0022  0.0034  0.0992  0.0833  0.0992  0.0000 </r>
       </set>
       <set comment="band 9">
        <r>  0.0282  0.0018  0.1494  0.0018  0.0171  0.0148  0.4902  0.0148  0.0000 </r>
       </set>
       <set comment="band 10">
        <r>  0.0000  0.0484  0.0000  0.0484  0.0000  0.0060  0.0000  0.0060  0.5730 </r>
       </set>
       <set comment="band 11">
        <r>  0.0351  0.2127  0.0900  0.2127  0.0002  0.0461  0.1039  0.0461  0.0000 </r>
       </set>
       <set comment="band 12">
        <r>  0.2160  0.0249  0.0069  0.0249  0.1972  0.2896  0.0098  0.2896  0.0000 </r>
       </set>
      </set>
      <set comment="kpoint 23">
       <set comment="band 1">
        <r>  0.1340  0.0000  0.0000  0.2201  0.0000  0.0000  0.1151  0.0000  0.3453 </r>
       </set>
       <set comment="band 2">
        <r>  0.0000  0.0000  0.0000  0.0000  0.0000  0.0000  0.6547  0.0000  0.2182 </r>
       </set>
       <set comment="band 3">
        <r>  0.0000  0.0263  0.0263  0.0000  0.4528  0.0000  0.0000  0.4528  0.0000 </r>
       </set>
       <set comment="band 4">
        <r>  0.0000  0.0263  0.0263  0.0000  0.4528  0.0000  0.0000  0.4528  0.0000 </r>
       </set>
       <set comment="band 5">
        <r>  0.0000  0.0000  0.0000  0.0000  0.0000  0.9784  0.0000  0.0000  0.0000 </r>
       </set>
       <set comment="band 6">
        <r>  0.1890  0.0000  0.0000  0.1854  0.0000  0.0000  0.1364  0.0000  0.4092 </r>
       </set>
       <set comment="band 7">
        <r>  0.0000  0.2883  0.2883  0.0000  0.1571  0.0000  0.0000  0.1571  0.0000 </r>
       </set>
       <set comment="band 8">
        <r>  0.0000  0.2883  0.2883  0.0000  0.1571  0.0000  0.0000  0.1571  0.0000 </r>
       </set>
       <set comment="band 9">
        <r>  0.0000  0.0000  0.0000  0.0000  0.0000  0.0000  0.6367  0.0000  0.2122 </r>
       </set>
       <set comment="band 10">
        <r>  0.2804  0.0000  0.0000  0.0708  0.0000  0.0000  0.0584  0.0000  0.1752 </r>
       </set>
       <set comment="band 11">
        <r>  0.1299  0.0000  0.0000  0.3140  0.0000  0.0000  0.1094  0.0000  0.3283 </r>
       </set>
       <set comment="band 12">
        <r>  0.0000  0.0000  0.0000  0.0000  0.0000  1.0480  0.0000  0.0000  0.0000 </r>
       </set>
      </set>
      <set comment="kpoint 24">
       <set comment="band 1">
        <r>  0.0232  0.0010  0.0000  0.0991  0.0211  0.0000  0.3875  0.0000  0.3186 </r>
       </set>
       <set comment="band 2">
        <r>  0.0000  0.0264  0.0000  0.0089  0.0130  0.0000  0.3935  0.0000  0.4211 </r>
       </set>
       <set comment="band 3">
        <r>  0.0000  0.0000  0.0423  0.0000  0.0000  0.3314  0.0000  0.5867  0.0000 </r>
       </set>
       <set comment="band 4">
        <r>  0.0197  0.0359  0.0000  0.0064  0.8340  0.0000  0.0582  0.0000  0.0016 </r>
       </set>
       <set comment="band 5">
        <r>  0.0000  0.0000  0.0027  0.0000  0.0000  0.6420  0.0000  0.3424  0.0000 </r>
       </set>
       <set comment="band 6">
        <r>  0.1293  0.0428  0.0000  0.3821  0.0293  0.0000  0.0486  0.0000  0.2382 </r>
       </set>
       <set comment="band 7">
        <r>  0.1241  0.4457  0.0000  0.0000  0.1804  0.0000  0.0600  0.0000  0.0517 </r>
       </set>
       <set comment="band 8">
        <r>  0.0000  0.0000  0.6499  0.0000  0.0000  0.0311  0.0000  0.1585  0.0000 </r>
       </set>
       <set comment="band 9">
        <r>  0.0765  0.0037  0.0000  0.0038  0.0092  0.0000  0.7219  0.0000  0.0206 </r>
       </set>
       <set comment="band 10">
        <r>  0.0780  0.1027  0.0000  0.0005  0.0085  0.0000  0.0002  0.0000  0.5574 </r>
       </set>
       <set comment="band 11">
        <r>  0.2845  0.0647  0.0000  0.2789  0.0135  0.0000  0.0849  0.0000  0.1019 </r>
       </set>
       <set comment="band 12">
        <r>  0.0000  0.0000  0.0709  0.0000  0.0000  0.5147  0.0000  0.2490  0.0000 </r>
       </set>
      </set>
      <set comment="kpoint 25">
       <set comment="band 1">
        <r>  0.0000  0.0206  0.0000  0.0206  0.0000  0.0040  0.0000  0.0040  0.8112 </r>
       </set>
       <set comment="band 2">
        <r>  0.0000  0.0069  0.0274  0.0069  0.0053  0.0013  0.8112  0.0013  0.0000 </r>
       </set>
       <set comment="band 3">
        <r>  0.0179  0.0140  0.0140  0.0140  0.2983  0.2983  0.0000  0.2983  0.0000 </r>
       </set>
       <set comment="band 4">
        <r>  0.0000  0.0036  0.0142  0.0036  0.6273  0.1568  0.0174  0.1568  0.0000 </r>
       </set>
       <set comment="band 5">
        <r>  0.0000  0.0107  0.0000  0.0107  0.0000  0.4705  0.0000  0.4705  0.0174 </r>
       </set>
       <set comment="band 6">
        <r>  0.0000  0.3032  0.0000  0.3032  0.0000  0.0300  0.0000  0.0300  0.1828 </r>
       </set>
       <set comment="band 7">
        <r>  0.0000  0.1011  0.4042  0.1011  0.0399  0.0100  0.1828  0.0100  0.0000 </r>
       </set>
       <set comment="band 8">
        <r>  0.2551  0.1326  0.1326  0.1326  0.0548  0.0548  0.0000  0.0548  0.0000 </r>
       </set>
       <set comment="band 9">
        <r>  0.0000  0.0428  0.0000  0.0428  0.0000  0.0040  0.0000  0.0040  0.7545 </r>
       </set>
       <set comment="band 10">
        <r>  0.0000  0.0143  0.0571  0.0143  0.0054  0.0013  0.7545  0.0013  0.0000 </r>
       </set>
       <set comment="band 11">
        <r>  0.4751  0.0995  0.0995  0.0995  0.0035  0.0035  0.0000  0.0035  0.0000 </r>
       </set>
       <set comment="band 12">
        <r>  0.0366  0.0178  0.0178  0.0178  0.2179  0.2179  0.0000  0.2179  0.0000 </r>
       </set>
      </set>
      <set comment="kpoint 26">
       <set comment="band 1">
        <r>  0.0014  0.0000  0.0000  0.0279  0.0000  0.0000  0.2076  0.0000  0.6229 </r>
       </set>
       <set comment="band 2">
        <r>  0.0000  0.0000  0.0000  0.0000  0.0000  0.0000  0.6474  0.0000  0.2158 </r>
       </set>
       <set comment="band 3">
        <r>  0.0000  0.0113  0.0113  0.0000  0.4778  0.0000  0.0000  0.4778  0.0000 </r>
       </set>
       <set comment="band 4">
        <r>  0.0000  0.0113  0.0113  0.0000  0.4778  0.0000  0.0000  0.4778  0.0000 </r>
       </set>
       <set comment="band 5">
        <r>  0.0000  0.0000  0.0000  0.0000  0.0000  0.9871  0.0000  0.0000  0.0000 </r>
       </set>
       <set comment="band 6">
        <r>  0.0829  0.0000  0.0000  0.6018  0.0000  0.0000  0.0314  0.0000  0.0943 </r>
       </set>
       <set comment="band 7">
        <r>  0.0000  0.3636  0.3636  0.0000  0.0301  0.0000  0.0000  0.0301  0.0000 </r>
       </set>
       <set comment="band 8">
        <r>  0.0000  0.3636  0.3636  0.0000  0.0301  0.0000  0.0000  0.0301  0.0000 </r>
       </set>
       <set comment="band 9">
        <r>  0.0000  0.0000  0.0000  0.0000  0.0000  0.0000  0.7203  0.0000  0.2401 </r>
       </set>
       <set comment="band 10">
        <r>  0.0582  0.0000  0.0000  0.0220  0.0000  0.0000  0.2023  0.0000  0.6069 </r>
       </set>
       <set comment="band 11">
        <r>  0.6323  0.0000  0.0000  0.1207  0.0000  0.0000  0.0096  0.0000  0.0289 </r>
       </set>
       <set comment="band 12">
        <r>  0.0000  0.0000  0.0000  0.0000  0.0000  0.2760  0.0000  0.0000  0.0000 </r>
       </set>
      </set>
     </set>
    </set>
   </array>
  </projected>
 </calculation>
 <structure name="finalpos" >
  <crystal>
   <varray name="basis" >
    <v>      -1.40000000       1.40000000       1.40000000 </v>
    <v>       1.40000000      -1.40000000       1.40000000 </v>
    <v>       1.40000000       1.40000000      -1.40000000 </v>
   </varray>
   <i name="volume">     10.97600000 </i>
   <varray name="rec_basis" >
    <v>       0.00000000       0.35714286       0.35714286 </v>
    <v>       0.35714286       0.00000000       0.35714286 </v>
    <v>       0.35714286       0.35714286       0.00000000 </v>
   </varray>
  </crystal>
  <varray name="positions" >
   <v>       0.00000000       0.00000000       0.00000000 </v>
  </varray>
 </structure>
</modeling>
