Si beta-tin                             
   2.90000000000000     
     1.004193    0.000000    0.000000
    -0.502097    0.869657    0.000000
     0.000000    0.000000    1.619381
    S
     2
Direct
  0.000000  0.000000  0.000000
  0.333333  0.666667  0.500000
 
   40   40   72
 -5.4893     -4.9762     -3.5017     -1.2499      1.5060      4.4472      7.2583      9.6712      11.497      12.643    
  13.110      12.985      12.412      11.575      10.660      9.7930      9.0262      8.3961      7.9295      7.6434    
  7.5471      7.6434      7.9295      8.3961      9.0262      9.7930      10.660      11.575      12.412      12.985    
  13.110      12.643      11.497      9.6712      7.2583      4.4472      1.5060     -1.2499     -3.5017     -4.9762    
 -4.9762     -4.9762     -3.9821     -2.1195     0.38107      3.2213      6.0823      8.6715      10.761      12.212    
  12.980      13.112      12.727      11.991      11.091      10.193      9.3734      8.6735      8.1247      7.7483    
  7.5573      7.5573      7.7483      8.1247      8.6735      9.3734      10.193      11.091      11.991      12.727    
  13.112      12.980      12.212      10.761      8.6715      6.0823      3.2213     0.38107     -2.1195     -3.9821    
 -3.5017     -3.9831     -3.5017     -2.1195     -.11488E-01  2.5625      5.3002      7.9030      10.118      11.769    
  12.771      13.129      12.928      12.313      11.461      10.549      9.6905      8.9334      8.3127      7.8537    
  7.5725      7.4779      7.5725      7.8537      8.3127      8.9334      9.6905      10.549      11.461      12.313    
  12.928      13.129      12.771      11.769      10.118      7.9030      5.3002      2.5625     -.11486E-01 -2.1195    
 -1.2499     -2.1222     -2.1222     -1.2499     0.38107      2.5625      5.0261      7.4857      9.6808      11.410    
  12.554      13.080      13.038      12.545      11.758      10.852      9.9687      9.1678      8.4872      7.9554    
  7.5916      7.4072      7.4072      7.5916      7.9554      8.4872      9.1678      9.9687      10.852      11.758    
  12.545      13.038      13.080      12.554      11.410      9.6808      7.4857      5.0261      2.5625     0.38107    
  1.5060     0.37603     -.18307E-01 0.37603      1.5060      3.2213      5.3002      7.4857      9.5259      11.210    
  12.394      13.014      13.086      12.696      11.979      11.097      10.202      9.3701      8.6424      8.0494    
  7.6128      7.3461      7.2565      7.3461      7.6128      8.0494      8.6424      9.3701      10.202      11.097    
  11.979      12.696      13.086      13.014      12.394      11.210      9.5259      7.4857      5.3002      3.2213    
  4.4472      3.2139      2.5511      2.5511      3.2139      4.4472      6.0823      7.9030      9.6808      11.210    
  12.335      12.969      13.100      12.784      12.129      11.280      10.385      9.5355      8.7738      8.1321    
  7.6341      7.2951      7.1237      7.1237      7.2951      7.6341      8.1321      8.7738      9.5355      10.385    
  11.280      12.129      12.784      13.100      12.969      12.335      11.210      9.6808      7.9030      6.0823    
  7.2583      6.0729      5.2844      5.0079      5.2844      6.0729      7.2583      8.6715      10.118      11.410    
  12.394      12.969      13.103      12.823      12.215      11.401      10.516      9.6611      8.8781      8.2008    
  7.6538      7.2538      7.0106      6.9291      7.0106      7.2538      7.6538      8.2008      8.8781      9.6611    
  10.516      11.401      12.215      12.823      13.103      12.969      12.394      11.410      10.118      8.6715    
  9.6712      8.6605      7.8835      7.4616      7.4616      7.8835      8.6605      9.6712      10.761      11.769    
  12.554      13.014      13.100      12.823      12.243      11.460      10.595      9.7452      8.9535      8.2535    
  7.6705      7.2219      6.9185      6.7656      6.7656      6.9185      7.2219      7.6705      8.2535      8.9535    
  9.7452      10.595      11.460      12.243      12.823      13.100      13.014      12.554      11.769      10.761    
  11.497      10.749      10.096      9.6520      9.4947      9.6520      10.096      10.749      11.497      12.212    
  12.771      13.080      13.086      12.784      12.215      11.460      10.622      9.7873      8.9989      8.2890    
  7.6830      7.1987      6.8474      6.6349      6.5639      6.6349      6.8474      7.1987      7.6830      8.2890    
  8.9990      9.7873      10.622      11.460      12.215      12.784      13.086      13.080      12.771      12.212    
  12.643      12.199      11.746      11.378      11.173      11.173      11.378      11.746      12.199      12.643    
  12.980      13.129      13.038      12.696      12.129      11.401      10.595      9.7873      9.0141      8.3069    
  7.6907      7.1836      6.7972      6.5376      6.4073      6.4073      6.5376      6.7972      7.1836      7.6907    
  8.3069      9.0141      9.7873      10.595      11.401      12.129      12.696      13.038      13.129      12.980    
  13.110      12.967      12.746      12.520      12.354      12.293      12.354      12.520      12.746      12.967    
  13.110      13.112      12.928      12.545      11.979      11.280      10.516      9.7452      8.9989      8.3069    
  7.6933      7.1762      6.7674      6.4732      6.2962      6.2371      6.2962      6.4732      6.7674      7.1762    
  7.6933      8.3069      8.9990      9.7452      10.516      11.280      11.979      12.545      12.928      13.112    
  12.985      13.099      13.104      13.045      12.971      12.923      12.923      12.971      13.045      13.104    
  13.099      12.985      12.727      12.313      11.758      11.097      10.385      9.6611      8.9535      8.2890    
  7.6907      7.1762      6.7575      6.4412      6.2299      6.1244      6.1244      6.2299      6.4412      6.7575    
  7.1762      7.6907      8.2890      8.9535      9.6611      10.385      11.097      11.758      12.313      12.727    
  12.412      12.714      12.903      13.003      13.042      13.052      13.052      13.052      13.042      13.003    
  12.903      12.714      12.412      11.991      11.461      10.852      10.202      9.5355      8.8781      8.2535    
  7.6830      7.1836      6.7674      6.4412      6.2079      6.0683      6.0218      6.0683      6.2079      6.4412    
  6.7674      7.1836      7.6830      8.2535      8.8781      9.5355      10.202      10.852      11.461      11.991    
  11.575      11.978      12.288      12.509      12.651      12.733      12.769      12.769      12.733      12.651    
  12.509      12.288      11.978      11.575      11.091      10.549      9.9687      9.3701      8.7738      8.2008    
  7.6705      7.1987      6.7972      6.4732      6.2299      6.0683      5.9878      5.9878      6.0683      6.2299    
  6.4732      6.7972      7.1987      7.6705      8.2008      8.7738      9.3701      9.9687      10.549      11.091    
  10.660      11.078      11.435      11.721      11.933      12.076      12.157      12.184      12.157      12.076    
  11.933      11.721      11.435      11.078      10.660      10.193      9.6905      9.1678      8.6424      8.1321    
  7.6538      7.2219      6.8474      6.5376      6.2962      6.1244      6.0218      5.9878      6.0218      6.1244    
  6.2962      6.5376      6.8474      7.2219      7.6538      8.1321      8.6424      9.1678      9.6905      10.193    
  9.7930      10.179      10.522      10.814      11.049      11.224      11.339      11.396      11.396      11.339    
  11.224      11.049      10.814      10.522      10.179      9.7930      9.3734      8.9334      8.4872      8.0494    
  7.6341      7.2538      6.9185      6.6349      6.4073      6.2371      6.1244      6.0683      6.0683      6.1244    
  6.2371      6.4073      6.6349      6.9185      7.2538      7.6341      8.0494      8.4872      8.9334      9.3734    
  9.0262      9.3594      9.6633      9.9293      10.152      10.326      10.451      10.526      10.551      10.526    
  10.451      10.326      10.152      9.9293      9.6633      9.3595      9.0262      8.6735      8.3127      7.9554    
  7.6128      7.2951      7.0106      6.7656      6.5639      6.4073      6.2962      6.2299      6.2079      6.2299    
  6.2962      6.4073      6.5639      6.7656      7.0106      7.2951      7.6128      7.9554      8.3127      8.6735    
  8.3961      8.6592      8.9055      9.1272      9.3183      9.4743      9.5925      9.6716      9.7111      9.7111    
  9.6716      9.5925      9.4743      9.3183      9.1272      8.9055      8.6592      8.3962      8.1247      7.8537    
  7.5916      7.3461      7.1237      6.9291      6.7656      6.6349      6.5376      6.4732      6.4412      6.4412    
  6.4732      6.5376      6.6349      6.7656      6.9291      7.1237      7.3461      7.5916      7.8537      8.1247    
  7.9295      8.1102      8.2842      8.4456      8.5890      8.7103      8.8064      8.8757      8.9174      8.9313    
  8.9174      8.8757      8.8064      8.7103      8.5890      8.4456      8.2842      8.1102      7.9295      7.7483    
  7.5725      7.4072      7.2565      7.1237      7.0106      6.9185      6.8474      6.7972      6.7674      6.7575    
  6.7674      6.7972      6.8474      6.9185      7.0106      7.1237      7.2565      7.4072      7.5725      7.7483    
  7.6434      7.7337      7.8248      7.9130      7.9947      8.0667      8.1263      8.1719      8.2026      8.2180    
  8.2180      8.2026      8.1719      8.1263      8.0667      7.9947      7.9130      7.8248      7.7337      7.6434    
  7.5573      7.4779      7.4072      7.3461      7.2951      7.2538      7.2219      7.1987      7.1836      7.1762    
  7.1762      7.1836      7.1987      7.2219      7.2538      7.2951      7.3461      7.4072      7.4779      7.5573    
  7.5471      7.5425      7.5434      7.5488      7.5573      7.5673      7.5772      7.5859      7.5925      7.5966    
  7.5980      7.5966      7.5925      7.5859      7.5772      7.5673      7.5573      7.5488      7.5434      7.5425    
  7.5471      7.5573      7.5725      7.5916      7.6128      7.6341      7.6538      7.6705      7.6830      7.6907    
  7.6933      7.6907      7.6830      7.6705      7.6538      7.6341      7.6128      7.5916      7.5725      7.5573    
  7.6434      7.5425      7.4487      7.3641      7.2901      7.2273      7.1758      7.1352      7.1052      7.0854    
  7.0756      7.0756      7.0854      7.1052      7.1352      7.1758      7.2273      7.2901      7.3641      7.4487    
  7.5425      7.6434      7.7483      7.8537      7.9554      8.0494      8.1321      8.2008      8.2535      8.2890    
  8.3069      8.3069      8.2890      8.2535      8.2008      8.1321      8.0494      7.9554      7.8537      7.7483    
  7.9295      7.7337      7.5434      7.3641      7.2004      7.0555      6.9317      6.8303      6.7517      6.6959    
  6.6627      6.6516      6.6627      6.6960      6.7517      6.8303      6.9317      7.0555      7.2004      7.3641    
  7.5434      7.7337      7.9295      8.1247      8.3127      8.4872      8.6424      8.7738      8.8781      8.9535    
  8.9989      9.0141      8.9989      8.9535      8.8781      8.7738      8.6424      8.4872      8.3127      8.1247    
  8.3961      8.1102      7.8248      7.5488      7.2901      7.0555      6.8499      6.6768      6.5380      6.4343    
  6.3655      6.3313      6.3313      6.3655      6.4343      6.5380      6.6767      6.8499      7.0555      7.2901    
  7.5488      7.8248      8.1102      8.3962      8.6735      8.9334      9.1678      9.3701      9.5355      9.6611    
  9.7452      9.7873      9.7873      9.7452      9.6611      9.5355      9.3701      9.1678      8.9334      8.6735    
  9.0262      8.6592      8.2842      7.9130      7.5573      7.2273      6.9317      6.6768      6.4665      6.3030    
  6.1868      6.1174      6.0944      6.1174      6.1868      6.3030      6.4665      6.6767      6.9317      7.2273    
  7.5573      7.9130      8.2842      8.6592      9.0262      9.3734      9.6905      9.9687      10.202      10.385    
  10.516      10.595      10.622      10.595      10.516      10.385      10.202      9.9687      9.6905      9.3734    
  9.7930      9.3594      8.9055      8.4456      7.9947      7.5673      7.1758      6.8303      6.5380      6.3030    
  6.1272      6.0106      5.9525      5.9525      6.0106      6.1272      6.3030      6.5380      6.8303      7.1758    
  7.5673      7.9947      8.4456      8.9055      9.3595      9.7930      10.193      10.549      10.852      11.097    
  11.280      11.401      11.460      11.460      11.401      11.280      11.097      10.852      10.549      10.193    
  10.660      10.179      9.6633      9.1272      8.5890      8.0667      7.5772      7.1352      6.7517      6.4343    
  6.1868      6.0106      5.9053      5.8704      5.9053      6.0106      6.1868      6.4343      6.7517      7.1352    
  7.5772      8.0667      8.5890      9.1272      9.6633      10.179      10.660      11.091      11.461      11.758    
  11.979      12.129      12.215      12.243      12.215      12.129      11.979      11.758      11.461      11.091    
  11.575      11.078      10.522      9.9293      9.3183      8.7103      8.1263      7.5859      7.1052      6.6959    
  6.3655      6.1174      5.9525      5.8704      5.8704      5.9525      6.1174      6.3655      6.6960      7.1052    
  7.5859      8.1263      8.7103      9.3183      9.9293      10.522      11.078      11.575      11.991      12.313    
  12.545      12.696      12.784      12.823      12.823      12.784      12.696      12.545      12.313      11.991    
  12.412      11.978      11.435      10.814      10.152      9.4743      8.8064      8.1719      7.5925      7.0854    
  6.6627      6.3313      6.0944      5.9525      5.9053      5.9525      6.0944      6.3313      6.6627      7.0854    
  7.5925      8.1719      8.8064      9.4743      10.152      10.814      11.435      11.978      12.412      12.727    
  12.928      13.038      13.086      13.100      13.103      13.100      13.086      13.038      12.928      12.727    
  12.985      12.714      12.288      11.721      11.049      10.326      9.5925      8.8757      8.2026      7.5966    
  7.0756      6.6516      6.3313      6.1174      6.0106      6.0106      6.1174      6.3313      6.6516      7.0756    
  7.5966      8.2026      8.8757      9.5925      10.326      11.049      11.721      12.288      12.714      12.985    
  13.112      13.129      13.080      13.014      12.969      12.969      13.014      13.080      13.129      13.112    
  13.110      13.099      12.903      12.509      11.933      11.224      10.451      9.6716      8.9174      8.2180    
  7.5980      7.0756      6.6627      6.3655      6.1868      6.1272      6.1868      6.3655      6.6627      7.0756    
  7.5980      8.2180      8.9174      9.6716      10.451      11.224      11.933      12.509      12.903      13.099    
  13.110      12.980      12.771      12.554      12.394      12.335      12.394      12.554      12.771      12.980    
  12.643      12.967      13.104      13.003      12.651      12.076      11.339      10.526      9.7111      8.9313    
  8.2180      7.5966      7.0854      6.6959      6.4343      6.3030      6.3030      6.4343      6.6959      7.0854    
  7.5966      8.2180      8.9313      9.7111      10.526      11.339      12.076      12.651      13.003      13.104    
  12.967      12.643      12.212      11.769      11.410      11.210      11.210      11.410      11.769      12.212    
  11.497      12.199      12.746      13.045      13.042      12.733      12.157      11.396      10.551      9.7111    
  8.9174      8.2026      7.5925      7.1052      6.7517      6.5380      6.4665      6.5380      6.7517      7.1052    
  7.5925      8.2026      8.9174      9.7111      10.551      11.396      12.157      12.733      13.042      13.045    
  12.746      12.199      11.497      10.761      10.118      9.6808      9.5259      9.6808      10.118      10.761    
  9.6712      10.749      11.746      12.520      12.971      13.052      12.769      12.184      11.396      10.526    
  9.6716      8.8757      8.1719      7.5859      7.1352      6.8303      6.6768      6.6768      6.8303      7.1352    
  7.5859      8.1719      8.8757      9.6716      10.526      11.396      12.184      12.769      13.052      12.971    
  12.520      11.746      10.749      9.6712      8.6715      7.9030      7.4857      7.4857      7.9030      8.6715    
  7.2583      8.6605      10.096      11.378      12.354      12.923      13.052      12.769      12.157      11.339    
  10.451      9.5925      8.8064      8.1263      7.5772      7.1758      6.9317      6.8499      6.9317      7.1758    
  7.5772      8.1263      8.8064      9.5925      10.451      11.339      12.157      12.769      13.052      12.923    
  12.354      11.378      10.096      8.6605      7.2583      6.0823      5.3002      5.0261      5.3002      6.0823    
  4.4472      6.0729      7.8835      9.6520      11.173      12.293      12.923      13.052      12.733      12.076    
  11.224      10.326      9.4743      8.7103      8.0667      7.5673      7.2273      7.0555      7.0555      7.2273    
  7.5673      8.0667      8.7103      9.4743      10.326      11.224      12.076      12.733      13.052      12.923    
  12.293      11.173      9.6520      7.8835      6.0729      4.4472      3.2213      2.5625      2.5625      3.2213    
  1.5060      3.2139      5.2844      7.4616      9.4947      11.173      12.354      12.971      13.042      12.651    
  11.933      11.049      10.152      9.3183      8.5890      7.9947      7.5573      7.2901      7.2004      7.2901    
  7.5573      7.9947      8.5890      9.3183      10.152      11.049      11.933      12.651      13.042      12.971    
  12.354      11.173      9.4947      7.4616      5.2844      3.2139      1.5060     0.38107     -.11488E-01 0.38107    
 -1.2499     0.37604      2.5511      5.0079      7.4616      9.6520      11.378      12.520      13.045      13.003    
  12.509      11.721      10.814      9.9293      9.1272      8.4456      7.9130      7.5488      7.3641      7.3641    
  7.5488      7.9130      8.4456      9.1272      9.9293      10.814      11.721      12.509      13.003      13.045    
  12.520      11.378      9.6520      7.4616      5.0079      2.5511     0.37603     -1.2499     -2.1195     -2.1195    
 -3.5017     -2.1222     -.18304E-01  2.5511      5.2844      7.8835      10.096      11.746      12.746      13.104    
  12.903      12.288      11.435      10.522      9.6633      8.9055      8.2842      7.8248      7.5434      7.4487    
  7.5434      7.8248      8.2842      8.9055      9.6633      10.522      11.435      12.288      12.903      13.104    
  12.746      11.746      10.096      7.8835      5.2844      2.5511     -.18307E-01 -2.1222     -3.5017     -3.9821    
 -4.9762     -3.9831     -2.1222     0.37604      3.2139      6.0729      8.6605      10.749      12.199      12.967    
  13.099      12.714      11.978      11.078      10.179      9.3594      8.6592      8.1102      7.7337      7.5425    
  7.5425      7.7337      8.1102      8.6592      9.3594      10.179      11.078      11.978      12.714      13.099    
  12.967      12.199      10.749      8.6605      6.0729      3.2139     0.37603     -2.1222     -3.9831     -4.9762    
 -5.0621     -4.5583     -3.1109     -.90110      1.8019      4.6842      7.4354      9.7918      11.568      12.673    
  13.109      12.963      12.378      11.537      10.622      9.7572      8.9930      8.3655      7.9010      7.6162    
  7.5204      7.6162      7.9010      8.3655      8.9930      9.7572      10.622      11.537      12.378      12.963    
  13.109      12.673      11.568      9.7918      7.4354      4.6842      1.8019     -.90110     -3.1109     -4.5583    
 -4.5583     -4.5583     -3.5825     -1.7546     0.69836      3.4826      6.2843      8.8155      10.852      12.258    
  12.991      13.097      12.696      11.952      11.051      10.155      9.3381      8.6408      8.0943      7.7197    
  7.5296      7.5296      7.7197      8.0943      8.6408      9.3381      10.155      11.051      11.952      12.696    
  13.097      12.991      12.258      10.852      8.8155      6.2843      3.4826     0.69836     -1.7546     -3.5825    
 -3.1109     -3.5833     -3.1109     -1.7546     0.31318      2.8366      5.5182      8.0640      10.226      11.830    
  12.793      13.122      12.902      12.276      11.420      10.509      9.6532      8.8988      8.2806      7.8237    
  7.5439      7.4498      7.5439      7.8237      8.2806      8.8988      9.6532      10.509      11.420      12.276    
  12.902      13.122      12.793      11.830      10.226      8.0640      5.5182      2.8366     0.31318     -1.7546    
 -.90110     -1.7568     -1.7568     -.90110     0.69835      2.8366      5.2495      7.6557      9.7987      11.481    
  12.585      13.080      13.016      12.509      11.717      10.811      9.9298      9.1315      8.4535      7.9241    
  7.5621      7.3786      7.3786      7.5621      7.9241      8.4535      9.1315      9.9298      10.811      11.717    
  12.509      13.016      13.080      12.585      11.481      9.7987      7.6557      5.2495      2.8366     0.69836    
  1.8019     0.69432     0.30771     0.69431      1.8019      3.4826      5.5182      7.6557      9.6475      11.286    
  12.431      13.019      13.068      12.663      11.939      11.055      10.161      9.3324      8.6074      8.0170    
  7.5825      7.3172      7.2280      7.3172      7.5825      8.0170      8.6074      9.3324      10.161      11.055    
  11.939      12.663      13.068      13.019      12.431      11.286      9.6475      7.6557      5.5182      3.4826    
  4.6842      3.4767      2.8274      2.8274      3.4766      4.6842      6.2843      8.0640      9.7987      11.286    
  12.374      12.977      13.085      12.753      12.089      11.237      10.344      9.4967      8.7377      8.0987    
  7.6030      7.2657      7.0952      7.0952      7.2657      7.6030      8.0987      8.7377      9.4967      10.344    
  11.237      12.089      12.753      13.085      12.977      12.374      11.286      9.7987      8.0640      6.2843    
  7.4354      6.2766      5.5053      5.2349      5.5053      6.2766      7.4354      8.8155      10.226      11.481    
  12.431      12.977      13.088      12.793      12.176      11.358      10.474      9.6214      8.8412      8.1666    
  7.6221      7.2241      6.9822      6.9011      6.9822      7.2241      7.6221      8.1666      8.8412      9.6214    
  10.474      11.358      12.176      12.793      13.088      12.977      12.431      11.481      10.226      8.8155    
  9.7918      8.8065      8.0481      7.6361      7.6361      8.0481      8.8065      9.7918      10.852      11.830    
  12.585      13.019      13.085      12.793      12.204      11.417      10.553      9.7049      8.9159      8.2186    
  7.6382      7.1919      6.8900      6.7380      6.7380      6.8900      7.1919      7.6382      8.2186      8.9159    
  9.7049      10.553      11.417      12.204      12.793      13.085      13.019      12.585      11.830      10.852    
  11.568      10.842      10.208      9.7753      9.6221      9.7753      10.208      10.842      11.568      12.258    
  12.793      13.080      13.068      12.753      12.176      11.417      10.579      9.7468      8.9609      8.2537    
  7.6503      7.1684      6.8189      6.6076      6.5369      6.6076      6.8189      7.1684      7.6503      8.2537    
  8.9609      9.7468      10.579      11.417      12.176      12.753      13.068      13.080      12.793      12.258    
  12.673      12.248      11.810      11.455      11.256      11.256      11.455      11.810      12.248      12.673    
  12.991      13.122      13.016      12.663      12.089      11.358      10.553      9.7468      8.9760      8.2713    
  7.6578      7.1531      6.7686      6.5104      6.3808      6.3808      6.5104      6.7686      7.1531      7.6578    
  8.2713      8.9760      9.7468      10.553      11.358      12.089      12.663      13.016      13.122      12.991    
  13.109      12.980      12.773      12.557      12.398      12.340      12.398      12.557      12.773      12.980    
  13.109      13.097      12.902      12.509      11.939      11.237      10.474      9.7049      8.9609      8.2713    
  7.6603      7.1456      6.7388      6.4461      6.2700      6.2113      6.2700      6.4461      6.7388      7.1456    
  7.6603      8.2713      8.9609      9.7049      10.474      11.237      11.939      12.509      12.902      13.097    
  12.963      13.087      13.101      13.051      12.984      12.940      12.940      12.984      13.051      13.101    
  13.087      12.963      12.696      12.276      11.717      11.055      10.344      9.6214      8.9159      8.2537    
  7.6578      7.1456      6.7289      6.4141      6.2040      6.0990      6.0990      6.2040      6.4141      6.7289    
  7.1456      7.6578      8.2537      8.9159      9.6214      10.344      11.055      11.717      12.276      12.696    
  12.378      12.686      12.881      12.987      13.032      13.045      13.046      13.045      13.032      12.987    
  12.881      12.686      12.378      11.952      11.420      10.811      10.161      9.4967      8.8412      8.2186    
  7.6503      7.1531      6.7388      6.4141      6.1821      6.0431      5.9969      6.0431      6.1821      6.4141    
  6.7388      7.1531      7.6503      8.2186      8.8412      9.4967      10.161      10.811      11.420      11.952    
  11.537      11.942      12.255      12.480      12.626      12.710      12.748      12.748      12.710      12.626    
  12.480      12.255      11.942      11.536      11.051      10.509      9.9298      9.3324      8.7377      8.1666    
  7.6382      7.1684      6.7686      6.4461      6.2040      6.0431      5.9630      5.9630      6.0431      6.2040    
  6.4461      6.7686      7.1684      7.6382      8.1666      8.7377      9.3324      9.9298      10.509      11.051    
  10.622      11.040      11.398      11.686      11.900      12.045      12.128      12.154      12.128      12.045    
  11.900      11.686      11.398      11.040      10.622      10.155      9.6532      9.1315      8.6074      8.0987    
  7.6221      7.1919      6.8189      6.5104      6.2700      6.0990      5.9969      5.9630      5.9969      6.0990    
  6.2700      6.5104      6.8189      7.1919      7.6221      8.0987      8.6074      9.1315      9.6532      10.155    
  9.7572      10.144      10.487      10.779      11.014      11.190      11.306      11.364      11.364      11.306    
  11.190      11.014      10.779      10.487      10.144      9.7572      9.3381      8.8988      8.4535      8.0170    
  7.6031      7.2241      6.8900      6.6076      6.3808      6.2113      6.0990      6.0431      6.0431      6.0990    
  6.2113      6.3808      6.6076      6.8900      7.2241      7.6030      8.0170      8.4535      8.8988      9.3381    
  8.9930      9.3261      9.6300      9.8964      10.119      10.294      10.420      10.495      10.520      10.495    
  10.420      10.294      10.119      9.8964      9.6300      9.3261      8.9931      8.6408      8.2806      7.9241    
  7.5825      7.2657      6.9822      6.7380      6.5369      6.3808      6.2700      6.2040      6.1821      6.2040    
  6.2700      6.3808      6.5369      6.7380      6.9822      7.2657      7.5825      7.9241      8.2806      8.6408    
  8.3655      8.6285      8.8748      9.0968      9.2883      9.4447      9.5633      9.6426      9.6823      9.6823    
  9.6426      9.5633      9.4447      9.2883      9.0968      8.8749      8.6285      8.3655      8.0943      7.8237    
  7.5621      7.3172      7.0952      6.9011      6.7380      6.6076      6.5104      6.4461      6.4141      6.4141    
  6.4461      6.5104      6.6076      6.7380      6.9011      7.0952      7.3172      7.5621      7.8237      8.0943    
  7.9010      8.0818      8.2561      8.4178      8.5617      8.6834      8.7799      8.8495      8.8914      8.9054    
  8.8914      8.8495      8.7799      8.6834      8.5617      8.4178      8.2561      8.0818      7.9010      7.7197    
  7.5439      7.3786      7.2280      7.0952      6.9822      6.8900      6.8189      6.7686      6.7388      6.7289    
  6.7388      6.7686      6.8189      6.8900      6.9822      7.0952      7.2280      7.3786      7.5439      7.7197    
  7.6162      7.7070      7.7987      7.8876      7.9699      8.0425      8.1026      8.1487      8.1797      8.1952    
  8.1952      8.1797      8.1487      8.1026      8.0425      7.9700      7.8876      7.7987      7.7070      7.6162    
  7.5296      7.4498      7.3786      7.3172      7.2657      7.2241      7.1919      7.1684      7.1531      7.1456    
  7.1456      7.1531      7.1684      7.1919      7.2241      7.2657      7.3172      7.3786      7.4498      7.5296    
  7.5204      7.5168      7.5187      7.5251      7.5345      7.5454      7.5561      7.5654      7.5725      7.5768    
  7.5783      7.5768      7.5725      7.5654      7.5561      7.5454      7.5345      7.5251      7.5187      7.5168    
  7.5204      7.5296      7.5439      7.5621      7.5825      7.6031      7.6221      7.6382      7.6503      7.6578    
  7.6603      7.6578      7.6503      7.6382      7.6221      7.6030      7.5825      7.5621      7.5439      7.5296    
  7.6162      7.5168      7.4245      7.3413      7.2687      7.2071      7.1566      7.1169      7.0876      7.0683    