Si beta-tin                             
   2.90000000000000     
     1.014425    0.000000    0.000000
    -0.507212    0.878518    0.000000
     0.000000    0.000000    1.586879
    S
     2
Direct
  0.000000  0.000000  0.000000
  0.333333  0.666667  0.500000
 
   40   40   72
 -.54887815162E+01 -.49613102753E+01 -.34480210057E+01 -.11444606108E+01 0.16605580126E+01
 0.46327447279E+01 0.74448619676E+01 0.98234150264E+01 0.11581371366E+02 0.12633320880E+02
 0.12993916681E+02 0.12762993887E+02 0.12101375147E+02 0.11201193321E+02 0.10251636805E+02
 0.93641305586E+01 0.85856492763E+01 0.79508360746E+01 0.74835457925E+01 0.71982877745E+01
 0.71024626832E+01 0.71982877145E+01 0.74835457234E+01 0.79508360732E+01 0.85856494042E+01
 0.93641308252E+01 0.10251637149E+02 0.11201193621E+02 0.12101375260E+02 0.12762993698E+02
 0.12993916151E+02 0.12633320068E+02 0.11581370416E+02 0.98234141277E+01 0.74448612924E+01
 0.46327443775E+01 0.16605579861E+01 -.11444604119E+01 -.34480207379E+01 -.49613100937E+01
 -.49613100937E+01 -.49613082232E+01 -.39418213162E+01 -.20361710788E+01 0.51175961112E+00
 0.33885145392E+01 0.62618658029E+01 0.88309660551E+01 0.10866279353E+02 0.12233381886E+02
 0.12899402115E+02 0.12924418918E+02 0.12441615450E+02 0.11630070136E+02 0.10683986317E+02
 0.97609725415E+01 0.89260440841E+01 0.82188163257E+01 0.76680573121E+01 0.72923930678E+01
 0.71022959133E+01 0.71022962554E+01 0.72923939375E+01 0.76680583033E+01 0.82188169493E+01
 0.89260439667E+01 0.97609715710E+01 0.10683984673E+02 0.11630068188E+02 0.12441613562E+02
 0.12924417243E+02 0.12899400470E+02 0.12233379764E+02 0.10866276097E+02 0.88309611277E+01
 0.62618590606E+01 0.33885064082E+01 0.51175108222E+00 -.20361786496E+01 -.39418265494E+01
 -.34480207379E+01 -.39404392404E+01 -.34480143037E+01 -.20361671857E+01 0.11011579322E+00
 0.27178498461E+01 0.54714441655E+01 0.80624956717E+01 0.10234019975E+02 0.11811507758E+02
 0.12717410369E+02 0.12969717002E+02 0.12667666841E+02 0.11968308784E+02 0.11057624910E+02
 0.10115061740E+02 0.92382209091E+01 0.84712374678E+01 0.78471336030E+01 0.73884382518E+01
 0.71087096473E+01 0.70147891382E+01 0.71087107988E+01 0.73884399819E+01 0.78471350122E+01
 0.84712377179E+01 0.92382195884E+01 0.10115059045E+02 0.11057621559E+02 0.11968305684E+02
 0.12667664644E+02 0.12969715731E+02 0.12717409279E+02 0.11811505528E+02 0.10234015174E+02
 0.80624873530E+01 0.54714323618E+01 0.27178357801E+01 0.11010168914E+00 -.20361786496E+01
 -.11444604119E+01 -.20323625712E+01 -.20323587470E+01 -.11444498659E+01 0.51176585786E+00
 0.27178514904E+01 0.51937383965E+01 0.76435809815E+01 0.98008358606E+01 0.11464138496E+02
 0.12518803463E+02 0.12942740413E+02 0.12798564087E+02 0.12215047828E+02 0.11361412894E+02
 0.10417704354E+02 0.95131569637E+01 0.86999335937E+01 0.80143648545E+01 0.74823799309E+01
 0.71204239038E+01 0.69375321913E+01 0.69375329447E+01 0.71204257748E+01 0.74823819253E+01
 0.80143658187E+01 0.86999327430E+01 0.95131542633E+01 0.10417700579E+02 0.11361409325E+02
 0.12215045688E+02 0.12798563943E+02 0.12942741799E+02 0.12518804894E+02 0.11464137920E+02
 0.98008313992E+01 0.76435717121E+01 0.51937248700E+01 0.27178357801E+01 0.51175108222E+00
 0.16605579861E+01 0.51849920155E+00 0.11928335712E+00 0.51850549992E+00 0.16605688361E+01
 0.33885188819E+01 0.54714432835E+01 0.76435786389E+01 0.96469054625E+01 0.11268853939E+02
 0.12368854953E+02 0.12890846356E+02 0.12861991635E+02 0.12379795745E+02 0.11590624009E+02
 0.10663061103E+02 0.97439674350E+01 0.88980729748E+01 0.81639121947E+01 0.75700998439E+01
 0.71355811882E+01 0.68713563239E+01 0.67827670889E+01 0.68713578236E+01 0.71355834061E+01
 0.75701015735E+01 0.81639123657E+01 0.88980711795E+01 0.97439641870E+01 0.10663057700E+02
 0.11590622032E+02 0.12379796379E+02 0.12861995090E+02 0.12890851618E+02 0.12368860011E+02
 0.11268856435E+02 0.96469035463E+01 0.76435717121E+01 0.54714323618E+01 0.33885064082E+01
 0.46327443775E+01 0.33981412822E+01 0.27328443820E+01 0.27328461692E+01 0.33981459750E+01
 0.46327502053E+01 0.62618637751E+01 0.80624890135E+01 0.98008290407E+01 0.11268850382E+02
 0.12313380968E+02 0.12853655287E+02 0.12886095961E+02 0.12477317774E+02 0.11747590823E+02
 0.10847721626E+02 0.99260691576E+01 0.90605573351E+01 0.82909982093E+01 0.76478673433E+01
 0.71520970941E+01 0.68163379521E+01 0.66471470463E+01 0.66471478574E+01 0.68163399990E+01
 0.71520993913E+01 0.76478687528E+01 0.82909979758E+01 0.90605554833E+01 0.99260665763E+01
 0.10847719786E+02 0.11747591224E+02 0.12477321328E+02 0.12886102554E+02 0.12853663707E+02
 0.12313389246E+02 0.11268856435E+02 0.98008313992E+01 0.80624873530E+01 0.62618590606E+01
 0.74448612924E+01 0.62739309189E+01 0.54917890310E+01 0.52170368572E+01 0.54917885997E+01
 0.62739296064E+01 0.74448584142E+01 0.88309561085E+01 0.10234007881E+02 0.11464128845E+02
 0.12368850224E+02 0.12853654581E+02 0.12891598315E+02 0.12521801548E+02 0.11838094129E+02
 0.10970112086E+02 0.10056949799E+02 0.91841024494E+01 0.83921874633E+01 0.77127031786E+01
 0.71680058878E+01 0.67720457349E+01 0.65323107170E+01 0.64521053172E+01 0.65323121326E+01
 0.67720480062E+01 0.71680081275E+01 0.77127045467E+01 0.83921875370E+01 0.91841014429E+01
 0.10056948543E+02 0.10970111766E+02 0.11838095878E+02 0.12521806042E+02 0.12891605511E+02
 0.12853663707E+02 0.12368860011E+02 0.11464137920E+02 0.10234015174E+02 0.88309611277E+01
 0.98234141277E+01 0.88448155758E+01 0.80871124707E+01 0.76741084326E+01 0.76741063717E+01
 0.80871065658E+01 0.88448066102E+01 0.98234032528E+01 0.10866264632E+02 0.11811494738E+02
 0.12518795789E+02 0.12890844809E+02 0.12886098195E+02 0.12521803856E+02 0.11867543817E+02
 0.11030818818E+02 0.10135602751E+02 0.92669765251E+01 0.84653797466E+01 0.77625486950E+01
 0.71817150514E+01 0.67377931831E+01 0.64389689415E+01 0.62889342250E+01 0.62889347245E+01
 0.64389703128E+01 0.67377950807E+01 0.71817170087E+01 0.77625502596E+01 0.84653806202E+01
 0.92669766706E+01 0.10135602439E+02 0.11030818602E+02 0.11867544426E+02 0.12521806042E+02
 0.12886102554E+02 0.12890851618E+02 0.12518804894E+02 0.11811505528E+02 0.10866276097E+02
 0.11581370416E+02 0.10881222791E+02 0.10261591377E+02 0.98368960244E+01 0.96859624780E+01
 0.98368896892E+01 0.10261580131E+02 0.10881209077E+02 0.11581357018E+02 0.12233369063E+02
 0.12717402684E+02 0.12942739496E+02 0.12861996180E+02 0.12477324255E+02 0.11838098996E+02
 0.11030820675E+02 0.10161819142E+02 0.93084979710E+01 0.85095387646E+01 0.77962102279E+01
 0.71921172196E+01 0.67128505673E+01 0.63671408056E+01 0.61589054752E+01 0.60894172633E+01
 0.61589054795E+01 0.63671410303E+01 0.67128512987E+01 0.71921185965E+01 0.77962120651E+01
 0.85095405223E+01 0.93084989149E+01 0.10161818654E+02 0.11030818602E+02 0.11838095878E+02
 0.12477321328E+02 0.12861995090E+02 0.12942741799E+02 0.12717409279E+02 0.12233379764E+02
 0.12633320068E+02 0.12248792343E+02 0.11840739089E+02 0.11503857475E+02 0.11314245349E+02
 0.11314241934E+02 0.11503848229E+02 0.11840726685E+02 0.12248780271E+02 0.12633311542E+02
 0.12899397465E+02 0.12969718465E+02 0.12798570963E+02 0.12379805178E+02 0.11747599155E+02
 0.10970116910E+02 0.10135604137E+02 0.93084977911E+01 0.85242846373E+01 0.78131338908E+01
 0.71985614697E+01 0.66965916423E+01 0.63164278570E+01 0.60621900189E+01 0.59350430575E+01
 0.59350423284E+01 0.60621882234E+01 0.63164259807E+01 0.66965907776E+01 0.71985622453E+01
 0.78131360749E+01 0.85242871072E+01 0.93084989149E+01 0.10135602439E+02 0.10970111766E+02
 0.11747591224E+02 0.12379796379E+02 0.12798563943E+02 0.12969715731E+02 0.12899400470E+02
 0.12993916151E+02 0.12914756123E+02 0.12747164746E+02 0.12560413903E+02 0.12418293800E+02
 0.12365558216E+02 0.12418289044E+02 0.12560406225E+02 0.12747157162E+02 0.12914751762E+02
 0.12993917155E+02 0.12924424033E+02 0.12667675805E+02 0.12215058499E+02 0.11590633438E+02
 0.10847727438E+02 0.10056951535E+02 0.92669757237E+01 0.85095375592E+01 0.78131333913E+01
 0.72007383148E+01 0.66885745511E+01 0.62862928448E+01 0.59983042484E+01 0.58257194735E+01
 0.57682750228E+01 0.58257168358E+01 0.59983001075E+01 0.62862889747E+01 0.66885725776E+01
 0.72007389611E+01 0.78131360749E+01 0.85095405223E+01 0.92669766706E+01 0.10056948543E+02
 0.10847719786E+02 0.11590622032E+02 0.12215045688E+02 0.12667664644E+02 0.12924417243E+02
 0.12762993698E+02 0.12939302833E+02 0.12999060748E+02 0.12984715531E+02 0.12942221387E+02
 0.12910053357E+02 0.12910052472E+02 0.12942219366E+02 0.12984714017E+02 0.12999061713E+02
 0.12939307742E+02 0.12763002845E+02 0.12441625837E+02 0.11968318869E+02 0.11361420819E+02
 0.10663065400E+02 0.99260695928E+01 0.91841003742E+01 0.84653772898E+01 0.77962088202E+01
 0.71985610829E+01 0.66885744260E+01 0.62763022414E+01 0.59665839010E+01 0.57606670282E+01
 0.56580525064E+01 0.56580508257E+01 0.57606626325E+01 0.59665784715E+01 0.62762978181E+01
 0.66885725776E+01 0.71985622453E+01 0.77962120651E+01 0.84653806202E+01 0.91841014429E+01
 0.99260665763E+01 0.10663057700E+02 0.11361409325E+02 0.11968305684E+02 0.12441613562E+02
 0.12101375260E+02 0.12455720540E+02 0.12695872885E+02 0.12839660051E+02 0.12913491032E+02
 0.12944370992E+02 0.12952226725E+02 0.12944372660E+02 0.12913494609E+02 0.12839665829E+02
 0.12695880911E+02 0.12455730364E+02 0.12101385852E+02 0.11630078094E+02 0.11057629270E+02
 0.10417704992E+02 0.97439649857E+01 0.90605532890E+01 0.83921837537E+01 0.77625466462E+01
 0.71921167049E+01 0.66965914493E+01 0.62862920752E+01 0.59665829594E+01 0.57390901364E+01
 0.56033194794E+01 0.55582229427E+01 0.56033168603E+01 0.57390858239E+01 0.59665784715E+01
 0.62862889747E+01 0.66965907776E+01 0.71921185965E+01 0.77625502596E+01 0.83921875370E+01
 0.90605554833E+01 0.97439641870E+01 0.10417700579E+02 0.11057621559E+02 0.11630068188E+02
 0.11201193621E+02 0.11643186781E+02 0.11994848577E+02 0.12254307576E+02 0.12429950177E+02
 0.12535463297E+02 0.12584179402E+02 0.12584181388E+02 0.12535468897E+02 0.12429958395E+02
 0.12254316987E+02 0.11994857617E+02 0.11643194063E+02 0.11201198191E+02 0.10683986161E+02
 0.10115057687E+02 0.95131507924E+01 0.88980666264E+01 0.82909934256E+01 0.77127009113E+01
 0.71817148594E+01 0.67128507898E+01 0.63164268689E+01 0.59983018543E+01 0.57606645601E+01
 0.56033183242E+01 0.55251049293E+01 0.55251043864E+01 0.56033168603E+01 0.57606626325E+01
 0.59983001075E+01 0.63164259807E+01 0.67128512987E+01 0.71817170087E+01 0.77127045467E+01
 0.82909979758E+01 0.88980711795E+01 0.95131542633E+01 0.10115059045E+02 0.10683984673E+02
 0.10251637149E+02 0.10695999591E+02 0.11082160538E+02 0.11398160310E+02 0.11638316794E+02
 0.11803986706E+02 0.11900101125E+02 0.11931489727E+02 0.11900105500E+02 0.11803994173E+02
 0.11638325184E+02 0.11398167235E+02 0.11082164095E+02 0.10695998885E+02 0.10251632477E+02
 0.97609642170E+01 0.92382113341E+01 0.86999252786E+01 0.81639068020E+01 0.76478653926E+01
 0.71680065432E+01 0.67377944347E+01 0.63671404884E+01 0.60621872936E+01 0.58257155080E+01
 0.56580494807E+01 0.55582220941E+01 0.55251049293E+01 0.55582229427E+01 0.56580508257E+01
 0.58257168358E+01 0.60621882234E+01 0.63671410303E+01 0.67377950807E+01 0.71680081275E+01
 0.76478687528E+01 0.81639123657E+01 0.86999327430E+01 0.92382195884E+01 0.97609715710E+01
 0.93641308252E+01 0.97718579201E+01 0.10137439268E+02 0.10451538340E+02 0.10707529719E+02
 0.10901155528E+02 0.11030047575E+02 0.11094174207E+02 0.11094175949E+02 0.11030052081E+02
 0.10901160894E+02 0.10707533535E+02 0.10451538542E+02 0.10137434860E+02 0.97718493091E+01
 0.93641196624E+01 0.89260325593E+01 0.84712282408E+01 0.80143596138E+01 0.75700987863E+01
 0.71520990587E+01 0.67720485394E+01 0.64389701733E+01 0.61589037808E+01 0.59350391367E+01
 0.57682712542E+01 0.56580494807E+01 0.56033183242E+01 0.56033194794E+01 0.56580525064E+01
 0.57682750228E+01 0.59350423284E+01 0.61589054795E+01 0.64389703128E+01 0.67720480062E+01
 0.71520993913E+01 0.75701015735E+01 0.80143658187E+01 0.84712377179E+01 0.89260439667E+01
 0.85856494042E+01 0.89358608561E+01 0.92584612556E+01 0.95439439061E+01 0.97848025447E+01
 0.99757492687E+01 0.10113569385E+02 0.10196656702E+02 0.10224398701E+02 0.10196658183E+02
 0.10113571292E+02 0.99757499169E+01 0.97848003079E+01 0.95439379006E+01 0.92584517607E+01
 0.89358493047E+01 0.85856379416E+01 0.82188077223E+01 0.78471294514E+01 0.74823802869E+01
 0.71355847391E+01 0.68163425462E+01 0.65323140077E+01 0.62889346086E+01 0.60894148593E+01
 0.59350391367E+01 0.58257155080E+01 0.57606645601E+01 0.57390901364E+01 0.57606670282E+01
 0.58257194735E+01 0.59350430575E+01 0.60894172633E+01 0.62889347245E+01 0.65323121326E+01
 0.68163399990E+01 0.71355834061E+01 0.74823819253E+01 0.78471350122E+01 0.82188169493E+01
 0.79508360732E+01 0.82276966555E+01 0.84895199046E+01 0.87277913226E+01 0.89352092276E+01
 0.91061167133E+01 0.92366429615E+01 0.93245189099E+01 0.93686524702E+01 0.93686524760E+01
 0.93245186247E+01 0.92366416227E+01 0.91061134740E+01 0.89352036086E+01 0.87277835518E+01
 0.84895109943E+01 0.82276881694E+01 0.79508296548E+01 0.76680551353E+01 0.73884403772E+01
 0.71204290568E+01 0.68713625480E+01 0.66471523013E+01 0.64521080597E+01 0.62889346086E+01
 0.61589037808E+01 0.60621872936E+01 0.59983018543E+01 0.59665829594E+01 0.59665839010E+01
 0.59983042484E+01 0.60621900189E+01 0.61589054752E+01 0.62889342250E+01 0.64521053172E+01
 0.66471478574E+01 0.68713578236E+01 0.71204257748E+01 0.73884399819E+01 0.76680583033E+01
 0.74835457234E+01 0.76761908601E+01 0.78637693657E+01 0.80396316899E+01 0.81976007315E+01
 0.83324794511E+01 0.84403721273E+01 0.85187337729E+01 0.85661581903E+01 0.85820211502E+01
 0.85661574879E+01 0.85187322063E+01 0.84403694993E+01 0.83324757230E+01 0.81975961920E+01
 0.80396270109E+01 0.78637654984E+01 0.76761887894E+01 0.74835461601E+01 0.72923970592E+01
 0.71087161422E+01 0.69375395005E+01 0.67827735804E+01 0.66471523013E+01 0.65323140077E+01
 0.64389701733E+01 0.63671404884E+01 0.63164268689E+01 0.62862920752E+01 0.62763022414E+01
 0.62862928448E+01 0.63164278570E+01 0.63671408056E+01 0.64389689415E+01 0.65323107170E+01
 0.66471470463E+01 0.67827670889E+01 0.69375329447E+01 0.71087107988E+01 0.72923939375E+01
 0.71982877145E+01 0.73000094904E+01 0.74038367435E+01 0.75055687486E+01 0.76008575561E+01
 0.76856769218E+01 0.77567120083E+01 0.78115673706E+01 0.78487533417E+01 0.78674972838E+01
 0.78674970394E+01 0.78487526342E+01 0.78115662932E+01 0.77567107572E+01 0.76856758251E+01
 0.76008570643E+01 0.75055693681E+01 0.74038389186E+01 0.73000134646E+01 0.71982934174E+01
 0.71023032625E+01 0.70147967287E+01 0.69375395005E+01 0.68713625480E+01 0.68163425462E+01
 0.67720485394E+01 0.67377944347E+01 0.67128507898E+01 0.66965914493E+01 0.66885744260E+01
 0.66885745511E+01 0.66965916423E+01 0.67128505673E+01 0.67377931831E+01 0.67720457349E+01
 0.68163379521E+01 0.68713563239E+01 0.69375321913E+01 0.70147891382E+01 0.71022962554E+01
 0.71024626832E+01 0.71096485431E+01 0.71233436385E+01 0.71421689748E+01 0.71641228800E+01
 0.71869306696E+01 0.72084055215E+01 0.72267285793E+01 0.72405883275E+01 0.72491743139E+01
 0.72520765921E+01 0.72491742836E+01 0.72405884180E+01 0.72267290633E+01 0.72084067391E+01
 0.71869329542E+01 0.71641264774E+01 0.71421739696E+01 0.71233499044E+01 0.71096557334E+01
 0.71024702682E+01 0.71023032625E+01 0.71087161422E+01 0.71204290568E+01 0.71355847391E+01
 0.71520990587E+01 0.71680065432E+01 0.71817148594E+01 0.71921167049E+01 0.71985610829E+01
 0.72007383148E+01 0.71985614697E+01 0.71921172196E+01 0.71817150514E+01 0.71680058878E+01
 0.71520970941E+01 0.71355811882E+01 0.71204239038E+01 0.71087096473E+01 0.71022959133E+01
 0.71982877745E+01 0.71096489500E+01 0.70291649339E+01 0.69585394870E+01 0.68985241286E+01
 0.68490917710E+01 0.68096906070E+01 0.67795122105E+01 0.67577195504E+01 0.67436044460E+01
 0.67366720262E+01 0.67366719810E+01 0.67436044543E+01 0.67577199958E+01 0.67795135869E+01
 0.68096933480E+01 0.68490960913E+01 0.68985299248E+01 0.69585463274E+01 0.70291721379E+01
 0.71096557334E+01 0.71982934174E+01 0.72923970592E+01 0.73884403772E+01 0.74823802869E+01
 0.75700987863E+01 0.76478653926E+01 0.77127009113E+01 0.77625466462E+01 0.77962088202E+01
 0.78131333913E+01 0.78131338908E+01 0.77962102279E+01 0.77625486950E+01 0.77127031786E+01
 0.76478673433E+01 0.75700998439E+01 0.74823799309E+01 0.73884382518E+01 0.72923930678E+01
 0.74835457925E+01 0.73000105053E+01 0.71233448939E+01 0.69585402791E+01 0.68094701639E+01
 0.66788350328E+01 0.65682393070E+01 0.64783671364E+01 0.64092245351E+01 0.63604150580E+01
 0.63314133829E+01 0.63217987560E+01 0.63314125530E+01 0.63604139214E+01 0.64092239420E+01
 0.64783679413E+01 0.65682420341E+01 0.66788396482E+01 0.68094760338E+01 0.69585463274E+01
 0.71233499044E+01 0.73000134646E+01 0.74835461601E+01 0.76680551353E+01 0.78471294514E+01
 0.80143596138E+01 0.81639068020E+01 0.82909934256E+01 0.83921837537E+01 0.84653772898E+01
 0.85095375592E+01 0.85242846373E+01 0.85095387646E+01 0.84653797466E+01 0.83921874633E+01
 0.82909982093E+01 0.81639121947E+01 0.80143648545E+01 0.78471336030E+01 0.76680573121E+01
 0.79508360746E+01 0.76761919537E+01 0.74038386183E+01 0.71421709512E+01 0.68985256533E+01
 0.66788358179E+01 0.64874521301E+01 0.63271384548E+01 0.61992421429E+01 0.61040203541E+01
 0.60410733211E+01 0.60098036989E+01 0.60098026454E+01 0.60410706006E+01 0.61040171155E+01
 0.61992397968E+01 0.63271381167E+01 0.64874541634E+01 0.66788396482E+01 0.68985299248E+01
 0.71421739696E+01 0.74038389186E+01 0.76761887894E+01 0.79508296548E+01 0.82188077223E+01
 0.84712282408E+01 0.86999252786E+01 0.88980666264E+01 0.90605532890E+01 0.91841003742E+01
 0.92669757237E+01 0.93084977911E+01 0.93084979710E+01 0.92669765251E+01 0.91841024494E+01
 0.90605573351E+01 0.88980729748E+01 0.86999335937E+01 0.84712374678E+01 0.82188163257E+01
 0.85856492763E+01 0.82276972030E+01 0.78637708630E+01 0.75055708855E+01 0.71641251740E+01
 0.68490937769E+01 0.65682406074E+01 0.63271388594E+01 0.61291600107E+01 0.59757572200E+01
 0.58669962903E+01 0.58022258768E+01 0.57807333380E+01 0.58022231021E+01 0.58669917702E+01
 0.59757525996E+01 0.61291568855E+01 0.63271381167E+01 0.65682420341E+01 0.68490960913E+01
 0.71641264774E+01 0.75055693681E+01 0.78637654984E+01 0.82276881694E+01 0.85856379416E+01
 0.89260325593E+01 0.92382113341E+01 0.95131507924E+01 0.97439649857E+01 0.99260695928E+01
 0.10056951535E+02 0.10135604137E+02 0.10161819142E+02 0.10135602751E+02 0.10056949799E+02
 0.99260691576E+01 0.97439674350E+01 0.95131569637E+01 0.92382209091E+01 0.89260440841E+01
 0.93641305586E+01 0.89358604087E+01 0.84895200999E+01 0.80396327932E+01 0.76008594468E+01
 0.71869330011E+01 0.68096927446E+01 0.64783682785E+01 0.61992419415E+01 0.59757563896E+01
 0.58090419351E+01 0.56987414096E+01 0.56439348385E+01 0.56439335204E+01 0.56987379408E+01
 0.58090375655E+01 0.59757525996E+01 0.61992397968E+01 0.64783679413E+01 0.68096933480E+01
 0.71869329542E+01 0.76008570643E+01 0.80396270109E+01 0.84895109943E+01 0.89358493047E+01
 0.93641196624E+01 0.97609642170E+01 0.10115057687E+02 0.10417704992E+02 0.10663065400E+02
 0.10847727438E+02 0.10970116910E+02 0.11030820675E+02 0.11030818818E+02 0.10970112086E+02
 0.10847721626E+02 0.10663061103E+02 0.10417704354E+02 0.10115061740E+02 0.97609725415E+01
 0.10251636805E+02 0.97718564040E+01 0.92584597052E+01 0.87277905665E+01 0.81976011624E+01
 0.76856785342E+01 0.72084077552E+01 0.67795138865E+01 0.64092244384E+01 0.61040182843E+01
 0.58669935106E+01 0.56987397041E+01 0.55984828038E+01 0.55652091432E+01 0.55984816955E+01
 0.56987379408E+01 0.58669917702E+01 0.61040171155E+01 0.64092239420E+01 0.67795135869E+01
 0.72084067391E+01 0.76856758251E+01 0.81975961920E+01 0.87277835518E+01 0.92584517607E+01
 0.97718493091E+01 0.10251632477E+02 0.10683986161E+02 0.11057629270E+02 0.11361420819E+02
 0.11590633438E+02 0.11747599155E+02 0.11838098996E+02 0.11867543817E+02 0.11838094129E+02
 0.11747590823E+02 0.11590624009E+02 0.11361412894E+02 0.11057624910E+02 0.10683986317E+02
 0.11201193321E+02 0.10695997345E+02 0.10137436214E+02 0.95439412236E+01 0.89352077598E+01
 0.83324796261E+01 0.77567136187E+01 0.72267304875E+01 0.67577199902E+01 0.63604128141E+01
 0.60410689081E+01 0.58022213880E+01 0.56439322733E+01 0.55652086895E+01 0.55652091432E+01
 0.56439335204E+01 0.58022231021E+01 0.60410706006E+01 0.63604139214E+01 0.67577199958E+01
 0.72267290633E+01 0.77567107572E+01 0.83324757230E+01 0.89352036086E+01 0.95439379006E+01
 0.10137434860E+02 0.10695998885E+02 0.11201198191E+02 0.11630078094E+02 0.11968318869E+02
 0.12215058499E+02 0.12379805178E+02 0.12477324255E+02 0.12521803856E+02 0.12521801548E+02
 0.12477317774E+02 0.12379795745E+02 0.12215047828E+02 0.11968308784E+02 0.11630070136E+02
 0.12101375147E+02 0.11643184414E+02 0.11082156812E+02 0.10451534489E+02 0.97847996071E+01
 0.91061154147E+01 0.84403727173E+01 0.78115691713E+01 0.72405895871E+01 0.67436032272E+01
 0.63314091385E+01 0.60097980638E+01 0.57807290605E+01 0.56439322733E+01 0.55984828038E+01
 0.56439348385E+01 0.57807333380E+01 0.60098026454E+01 0.63314125530E+01 0.67436044543E+01
 0.72405884180E+01 0.78115662932E+01 0.84403694993E+01 0.91061134740E+01 0.97848003079E+01
 0.10451538542E+02 0.11082164095E+02 0.11643194063E+02 0.12101385852E+02 0.12441625837E+02
 0.12667675805E+02 0.12798570963E+02 0.12861996180E+02 0.12886098195E+02 0.12891598315E+02
 0.12886095961E+02 0.12861991635E+02 0.12798564087E+02 0.12667666841E+02 0.12441615450E+02
 0.12762993887E+02 0.12455718652E+02 0.11994845231E+02 0.11398156570E+02 0.10707526485E+02
 0.99757472242E+01 0.92366426417E+01 0.85187351699E+01 0.78487553238E+01 0.72491748534E+01
 0.67366696258E+01 0.63217939758E+01 0.60097980638E+01 0.58022213880E+01 0.56987397041E+01
 0.56987414096E+01 0.58022258768E+01 0.60098036989E+01 0.63217987560E+01 0.67366719810E+01
 0.72491742836E+01 0.78487526342E+01 0.85187322063E+01 0.92366416227E+01 0.99757499169E+01
 0.10707533535E+02 0.11398167235E+02 0.11994857617E+02 0.12455730364E+02 0.12763002845E+02
 0.12924424033E+02 0.12969718465E+02 0.12942739496E+02 0.12890844809E+02 0.12853654581E+02
 0.12853655287E+02 0.12890846356E+02 0.12942740413E+02 0.12969717002E+02 0.12924418918E+02
 0.12993916681E+02 0.12939301720E+02 0.12695870694E+02 0.12254305182E+02 0.11638314715E+02
 0.10901153988E+02 0.10113568772E+02 0.93245197451E+01 0.85661603536E+01 0.78674994253E+01
 0.72520768315E+01 0.67366696258E+01 0.63314091385E+01 0.60410689081E+01 0.58669935106E+01
 0.58090419351E+01 0.58669962903E+01 0.60410733211E+01 0.63314133829E+01 0.67366720262E+01
 0.72520765921E+01 0.78674970394E+01 0.85661574879E+01 0.93245186247E+01 0.10113571292E+02
 0.10901160894E+02 0.11638325184E+02 0.12254316987E+02 0.12695880911E+02 0.12939307742E+02
 0.12993917155E+02 0.12899397465E+02 0.12717402684E+02 0.12518795789E+02 0.12368850224E+02
 0.12313380968E+02 0.12368854953E+02 0.12518803463E+02 0.12717410369E+02 0.12899402115E+02
 0.12633320880E+02 0.12914755589E+02 0.12999059782E+02 0.12839659587E+02 0.12429950350E+02
 0.11803986965E+02 0.11030047599E+02 0.10196657040E+02 0.93686539913E+01 0.85820238017E+01
 0.78674994253E+01 0.72491748534E+01 0.67436032272E+01 0.63604128141E+01 0.61040182843E+01
 0.59757563896E+01 0.59757572200E+01 0.61040203541E+01 0.63604150580E+01 0.67436044460E+01
 0.72491743139E+01 0.78674972838E+01 0.85820211502E+01 0.93686524760E+01 0.10196658183E+02
 0.11030052081E+02 0.11803994173E+02 0.12429958395E+02 0.12839665829E+02 0.12999061713E+02
 0.12914751762E+02 0.12633311542E+02 0.12233369063E+02 0.11811494738E+02 0.11464128845E+02
 0.11268850382E+02 0.11268853939E+02 0.11464138496E+02 0.11811507758E+02 0.12233381886E+02
 0.11581371366E+02 0.12248791703E+02 0.12747164212E+02 0.12984716548E+02 0.12913493649E+02
 0.12535466150E+02 0.11900102716E+02 0.11094174383E+02 0.10224398822E+02 0.93686539913E+01
 0.85661603536E+01 0.78487553238E+01 0.72405895871E+01 0.67577199902E+01 0.64092244384E+01
 0.61992419415E+01 0.61291600107E+01 0.61992421429E+01 0.64092245351E+01 0.67577195504E+01
 0.72405883275E+01 0.78487533417E+01 0.85661581903E+01 0.93686524702E+01 0.10224398701E+02
 0.11094175949E+02 0.11900105500E+02 0.12535468897E+02 0.12913494609E+02 0.12984714017E+02
 0.12747157162E+02 0.12248780271E+02 0.11581357018E+02 0.10866264632E+02 0.10234007881E+02
 0.98008290407E+01 0.96469054625E+01 0.98008358606E+01 0.10234019975E+02 0.10866279353E+02
 0.98234150264E+01 0.10881221089E+02 0.11840737531E+02 0.12560414930E+02 0.12942225508E+02
 0.12944376356E+02 0.12584183167E+02 0.11931490330E+02 0.11094174383E+02 0.10196657040E+02
 0.93245197451E+01 0.85187351699E+01 0.78115691713E+01 0.72267304875E+01 0.67795138865E+01
 0.64783682785E+01 0.63271388594E+01 0.63271384548E+01 0.64783671364E+01 0.67795122105E+01
 0.72267285793E+01 0.78115673706E+01 0.85187337729E+01 0.93245189099E+01 0.10196656702E+02
 0.11094174207E+02 0.11931489727E+02 0.12584181388E+02 0.12944372660E+02 0.12942219366E+02
 0.12560406225E+02 0.11840726685E+02 0.10881209077E+02 0.98234032528E+01 0.88309561085E+01
 0.80624890135E+01 0.76435786389E+01 0.76435809815E+01 0.80624956717E+01 0.88309660551E+01
 0.74448619676E+01 0.88448119509E+01 0.10261587183E+02 0.11503856470E+02 0.12418297567E+02
 0.12910060202E+02 0.12952232728E+02 0.12584183167E+02 0.11900102716E+02 0.11030047599E+02
 0.10113568772E+02 0.92366426417E+01 0.84403727173E+01 0.77567136187E+01 0.72084077552E+01
 0.68096927446E+01 0.65682406074E+01 0.64874521301E+01 0.65682393070E+01 0.68096906070E+01
 0.72084055215E+01 0.77567120083E+01 0.84403721273E+01 0.92366429615E+01 0.10113569385E+02
 0.11030047575E+02 0.11900101125E+02 0.12584179402E+02 0.12952226725E+02 0.12910052472E+02
 0.12418289044E+02 0.11503848229E+02 0.10261580131E+02 0.88448066102E+01 0.74448584142E+01
 0.62618637751E+01 0.54714432835E+01 0.51937383965E+01 0.54714441655E+01 0.62618658029E+01
 0.46327447279E+01 0.62739249848E+01 0.80871045292E+01 0.98368911198E+01 0.11314246591E+02
 0.12365564856E+02 0.12910060202E+02 0.12944376356E+02 0.12535466150E+02 0.11803986965E+02
 0.10901153988E+02 0.99757472242E+01 0.91061154147E+01 0.83324796261E+01 0.76856785342E+01
 0.71869330011E+01 0.68490937769E+01 0.66788358179E+01 0.66788350328E+01 0.68490917710E+01
 0.71869306696E+01 0.76856769218E+01 0.83324794511E+01 0.91061167133E+01 0.99757492687E+01
 0.10901155528E+02 0.11803986706E+02 0.12535463297E+02 0.12944370992E+02 0.12910053357E+02
 0.12365558216E+02 0.11314241934E+02 0.98368896892E+01 0.80871065658E+01 0.62739296064E+01
 0.46327502053E+01 0.33885188819E+01 0.27178514904E+01 0.27178498461E+01 0.33885145392E+01
 0.16605580126E+01 0.33981333796E+01 0.54917772871E+01 0.76740987173E+01 0.96859595162E+01
 0.11314246591E+02 0.12418297567E+02 0.12942225508E+02 0.12913493649E+02 0.12429950350E+02
 0.11638314715E+02 0.10707526485E+02 0.97847996071E+01 0.89352077598E+01 0.81976011624E+01
 0.76008594468E+01 0.71641251740E+01 0.68985256533E+01 0.68094701639E+01 0.68985241286E+01
 0.71641228800E+01 0.76008575561E+01 0.81976007315E+01 0.89352092276E+01 0.97848025447E+01
 0.10707529719E+02 0.11638316794E+02 0.12429950177E+02 0.12913491032E+02 0.12942221387E+02
 0.12418293800E+02 0.11314245349E+02 0.96859624780E+01 0.76741063717E+01 0.54917885997E+01
 0.33981459750E+01 0.16605688361E+01 0.51176585786E+00 0.11011579322E+00 0.51175961112E+00
 -.11444606108E+01 0.51849041768E+00 0.27328300753E+01 0.52170229022E+01 0.76740987173E+01
 0.98368911198E+01 0.11503856470E+02 0.12560414930E+02 0.12984716548E+02 0.12839659587E+02
 0.12254305182E+02 0.11398156570E+02 0.10451534489E+02 0.95439412236E+01 0.87277905665E+01
 0.80396327932E+01 0.75055708855E+01 0.71421709512E+01 0.69585402791E+01 0.69585394870E+01
 0.71421689748E+01 0.75055687486E+01 0.80396316899E+01 0.87277913226E+01 0.95439439061E+01
 0.10451538340E+02 0.11398160310E+02 0.12254307576E+02 0.12839660051E+02 0.12984715531E+02
 0.12560413903E+02 0.11503857475E+02 0.98368960244E+01 0.76741084326E+01 0.52170368572E+01
 0.27328461692E+01 0.51850549992E+00 -.11444498659E+01 -.20361671857E+01 -.20361710788E+01
 -.34480210057E+01 -.20323706422E+01 0.11926882924E+00 0.27328300753E+01 0.54917772871E+01
 0.80871045292E+01 0.10261587183E+02 0.11840737531E+02 0.12747164212E+02 0.12999059782E+02
 0.12695870694E+02 0.11994845231E+02 0.11082156812E+02 0.10137436214E+02 0.92584597052E+01
 0.84895200999E+01 0.78637708630E+01 0.74038386183E+01 0.71233448939E+01 0.70291649339E+01
 0.71233436385E+01 0.74038367435E+01 0.78637693657E+01 0.84895199046E+01 0.92584612556E+01
 0.10137439268E+02 0.11082160538E+02 0.11994848577E+02 0.12695872885E+02 0.12999060748E+02
 0.12747164746E+02 0.11840739089E+02 0.10261591377E+02 0.80871124707E+01 0.54917890310E+01
 0.27328443820E+01 0.11928335712E+00 -.20323587470E+01 -.34480143037E+01 -.39418213162E+01
 -.49613102753E+01 -.39404449302E+01 -.20323706422E+01 0.51849041768E+00 0.33981333796E+01
 0.62739249848E+01 0.88448119509E+01 0.10881221089E+02 0.12248791703E+02 0.12914755589E+02
 0.12939301720E+02 0.12455718652E+02 0.11643184414E+02 0.10695997345E+02 0.97718564040E+01
 0.89358604087E+01 0.82276972030E+01 0.76761919537E+01 0.73000105053E+01 0.71096489500E+01
 0.71096485431E+01 0.73000094904E+01 0.76761908601E+01 0.82276966555E+01 0.89358608561E+01
 0.97718579201E+01 0.10695999591E+02 0.11643186781E+02 0.12455720540E+02 0.12939302833E+02
 0.12914756123E+02 0.12248792343E+02 0.10881222791E+02 0.88448155758E+01 0.62739309189E+01
 0.33981412822E+01 0.51849920155E+00 -.20323625712E+01 -.39404392404E+01 -.49613082232E+01
 -.50844366579E+01 -.45659271711E+01 -.30785926055E+01 -.81531877406E+00 0.19390912214E+01
 0.48551131643E+01 0.76103346954E+01 0.99355044676E+01 0.11646810606E+02 0.12660862480E+02
 0.12993169918E+02 0.12743423119E+02 0.12071498439E+02 0.11167985866E+02 0.10219691259E+02
 0.93344785658E+01 0.85585606556E+01 0.79261827380E+01 0.74608704081E+01 0.71768938339E+01
 0.70815114860E+01 0.71768937567E+01 0.74608703070E+01 0.79261826936E+01 0.85585607353E+01
 0.93344787859E+01 0.10219691565E+02 0.11167986143E+02 0.12071498548E+02 0.12743422945E+02