   2   2   0   0
  0.1724559E+02  0.2900000E-09  0.2900000E-09  0.4735671E-09  0.5000000E-15
  1.000000000000000E-004
  CAR 
 Si beta-tin                             
     18.10619914     -5.81671401  301      8.05922444      1.00000000
     -5.817  0.0000E+00  0.0000E+00
     -5.737  0.0000E+00  0.0000E+00
     -5.657  0.0000E+00  0.0000E+00
     -5.577  0.0000E+00  0.0000E+00
     -5.498  0.0000E+00  0.0000E+00
     -5.418  0.0000E+00  0.0000E+00
     -5.338  0.0000E+00  0.0000E+00
     -5.259  0.1673E-15  0.1334E-16
     -5.179  0.4797E-12  0.3826E-13
     -5.099  0.3962E-09  0.3163E-10
     -5.019  0.9519E-07  0.7622E-08
     -4.940  0.6750E-05  0.5459E-06
     -4.860  0.1441E-03  0.1203E-04
     -4.780  0.9475E-03  0.8759E-04
     -4.700  0.1963E-02  0.2441E-03
     -4.621  0.1307E-02  0.3483E-03
     -4.541  0.4893E-03  0.3874E-03
     -4.461  0.1400E-02  0.4990E-03
     -4.381  0.3238E-02  0.7572E-03
     -4.302  0.3081E-02  0.1003E-02
     -4.222  0.1209E-02  0.1099E-02
     -4.142  0.5131E-03  0.1140E-02
     -4.062  0.1455E-02  0.1256E-02
     -3.983  0.1975E-02  0.1414E-02
     -3.903  0.1595E-02  0.1541E-02
     -3.823  0.3163E-02  0.1793E-02
     -3.743  0.3820E-02  0.2098E-02
     -3.664  0.2178E-02  0.2271E-02
     -3.584  0.2684E-02  0.2485E-02
     -3.504  0.4584E-02  0.2851E-02
     -3.424  0.5880E-02  0.3320E-02
     -3.345  0.4705E-02  0.3695E-02
     -3.265  0.3039E-02  0.3937E-02
     -3.185  0.2314E-02  0.4122E-02
     -3.105  0.2260E-02  0.4302E-02
     -3.026  0.1736E-02  0.4441E-02
     -2.946  0.2247E-02  0.4620E-02
     -2.866  0.3990E-02  0.4938E-02
     -2.786  0.3115E-02  0.5186E-02
     -2.707  0.3168E-02  0.5439E-02
     -2.627  0.4572E-02  0.5803E-02
     -2.547  0.5077E-02  0.6208E-02
     -2.468  0.6291E-02  0.6710E-02
     -2.388  0.5156E-02  0.7121E-02
     -2.308  0.2798E-02  0.7344E-02
     -2.228  0.1493E-02  0.7463E-02
     -2.149  0.2055E-02  0.7627E-02
     -2.069  0.2686E-02  0.7841E-02
     -1.989  0.3898E-02  0.8152E-02
     -1.909  0.3668E-02  0.8445E-02
     -1.830  0.2957E-02  0.8680E-02
     -1.750  0.5985E-02  0.9158E-02
     -1.670  0.9005E-02  0.9876E-02
     -1.590  0.9687E-02  0.1065E-01
     -1.511  0.7340E-02  0.1123E-01
     -1.431  0.3286E-02  0.1150E-01
     -1.351  0.3313E-02  0.1176E-01
     -1.271  0.5469E-02  0.1220E-01
     -1.192  0.4364E-02  0.1254E-01
     -1.112  0.2911E-02  0.1278E-01
     -1.032  0.2815E-02  0.1300E-01
     -0.952  0.3629E-02  0.1329E-01
     -0.873  0.5633E-02  0.1374E-01
     -0.793  0.6933E-02  0.1429E-01
     -0.713  0.7696E-02  0.1491E-01
     -0.633  0.9467E-02  0.1566E-01
     -0.554  0.8400E-02  0.1633E-01
     -0.474  0.4744E-02  0.1671E-01
     -0.394  0.3042E-02  0.1695E-01
     -0.314  0.3409E-02  0.1722E-01
     -0.235  0.4293E-02  0.1757E-01
     -0.155  0.3410E-02  0.1784E-01
     -0.075  0.4452E-02  0.1819E-01
      0.005  0.6128E-02  0.1868E-01
      0.084  0.6168E-02  0.1917E-01
      0.164  0.6384E-02  0.1968E-01
      0.244  0.7623E-02  0.2029E-01
      0.324  0.6879E-02  0.2084E-01
      0.403  0.3323E-02  0.2110E-01
      0.483  0.3568E-02  0.2139E-01
      0.563  0.7799E-02  0.2201E-01
      0.642  0.8034E-02  0.2265E-01
      0.722  0.5030E-02  0.2305E-01
      0.802  0.7843E-02  0.2368E-01
      0.882  0.1168E-01  0.2461E-01
      0.961  0.9413E-02  0.2536E-01
      1.041  0.6745E-02  0.2590E-01
      1.121  0.5297E-02  0.2632E-01
      1.201  0.3355E-02  0.2659E-01
      1.280  0.1092E-02  0.2667E-01
      1.360  0.1139E-02  0.2676E-01
      1.440  0.2270E-02  0.2695E-01
      1.520  0.2860E-02  0.2717E-01
      1.599  0.5147E-02  0.2758E-01
      1.679  0.1124E-01  0.2848E-01
      1.759  0.1573E-01  0.2974E-01
      1.839  0.1317E-01  0.3079E-01
      1.918  0.1088E-01  0.3165E-01
      1.998  0.9626E-02  0.3242E-01
      2.078  0.7636E-02  0.3303E-01
      2.158  0.5487E-02  0.3347E-01
      2.237  0.2546E-02  0.3367E-01
      2.317  0.1075E-02  0.3376E-01
      2.397  0.3101E-02  0.3400E-01
      2.477  0.6629E-02  0.3453E-01
      2.556  0.9128E-02  0.3526E-01
      2.636  0.9805E-02  0.3604E-01
      2.716  0.8309E-02  0.3670E-01
      2.796  0.7495E-02  0.3730E-01
      2.875  0.7126E-02  0.3787E-01
      2.955  0.5361E-02  0.3830E-01
      3.035  0.6097E-02  0.3878E-01
      3.115  0.5729E-02  0.3924E-01
      3.194  0.4643E-02  0.3961E-01
      3.274  0.3657E-02  0.3990E-01
      3.354  0.2672E-02  0.4012E-01
      3.433  0.7568E-02  0.4072E-01
      3.513  0.1324E-01  0.4177E-01
      3.593  0.8380E-02  0.4244E-01
      3.673  0.2681E-02  0.4266E-01
      3.752  0.4806E-02  0.4304E-01
      3.832  0.8197E-02  0.4369E-01
      3.912  0.6067E-02  0.4418E-01
      3.992  0.5887E-02  0.4465E-01
      4.071  0.1018E-01  0.4546E-01
      4.151  0.1207E-01  0.4642E-01
      4.231  0.9968E-02  0.4722E-01
      4.311  0.8991E-02  0.4793E-01
      4.390  0.8787E-02  0.4863E-01
      4.470  0.5817E-02  0.4910E-01
      4.550  0.3136E-02  0.4935E-01
      4.630  0.4808E-02  0.4973E-01
      4.709  0.7272E-02  0.5031E-01
      4.789  0.7958E-02  0.5095E-01
      4.869  0.1034E-01  0.5177E-01
      4.949  0.1227E-01  0.5275E-01
      5.028  0.8297E-02  0.5341E-01
      5.108  0.7512E-02  0.5401E-01
      5.188  0.1080E-01  0.5487E-01
      5.268  0.1129E-01  0.5577E-01
      5.347  0.8119E-02  0.5642E-01
      5.427  0.6495E-02  0.5694E-01
      5.507  0.7064E-02  0.5750E-01
      5.587  0.6213E-02  0.5799E-01
      5.666  0.5094E-02  0.5840E-01
      5.746  0.6132E-02  0.5889E-01
      5.826  0.7665E-02  0.5950E-01
      5.906  0.9974E-02  0.6030E-01
      5.985  0.1177E-01  0.6124E-01
      6.065  0.1097E-01  0.6211E-01
      6.145  0.1380E-01  0.6321E-01
      6.224  0.1903E-01  0.6473E-01
      6.304  0.1485E-01  0.6591E-01
      6.384  0.6879E-02  0.6646E-01
      6.464  0.6448E-02  0.6698E-01
      6.543  0.8530E-02  0.6766E-01
      6.623  0.8240E-02  0.6831E-01
      6.703  0.6128E-02  0.6880E-01
      6.783  0.6526E-02  0.6932E-01
      6.862  0.8883E-02  0.7003E-01
      6.942  0.9911E-02  0.7082E-01
      7.022  0.8737E-02  0.7152E-01
      7.102  0.5257E-02  0.7194E-01
      7.181  0.6619E-02  0.7246E-01
      7.261  0.1233E-01  0.7345E-01
      7.341  0.1459E-01  0.7461E-01
      7.421  0.1139E-01  0.7552E-01
      7.500  0.1082E-01  0.7638E-01
      7.580  0.1135E-01  0.7729E-01
      7.660  0.8562E-02  0.7797E-01
      7.740  0.6662E-02  0.7850E-01
      7.819  0.7352E-02  0.7909E-01
      7.899  0.5316E-02  0.7951E-01
      7.979  0.2264E-02  0.7969E-01
      8.059  0.3812E-02  0.8000E-01
      8.138  0.9597E-02  0.8076E-01
      8.218  0.1446E-01  0.8191E-01
      8.298  0.1442E-01  0.8306E-01
      8.378  0.1152E-01  0.8398E-01
      8.457  0.6739E-02  0.8452E-01
      8.537  0.6981E-02  0.8508E-01
      8.617  0.1035E-01  0.8590E-01
      8.697  0.1014E-01  0.8671E-01
      8.776  0.8269E-02  0.8737E-01
      8.856  0.1103E-01  0.8825E-01
      8.936  0.1318E-01  0.8930E-01
      9.015  0.1121E-01  0.9020E-01
      9.095  0.1163E-01  0.9112E-01
      9.175  0.1222E-01  0.9210E-01
      9.255  0.1141E-01  0.9301E-01
      9.334  0.9869E-02  0.9379E-01
      9.414  0.7752E-02  0.9441E-01
      9.494  0.9466E-02  0.9517E-01
      9.574  0.1720E-01  0.9654E-01
      9.653  0.1772E-01  0.9795E-01
      9.733  0.1150E-01  0.9887E-01
      9.813  0.1227E-01  0.9985E-01
      9.893  0.1239E-01  0.1008E+00
      9.972  0.1020E-01  0.1016E+00
     10.052  0.1002E-01  0.1024E+00
     10.132  0.1155E-01  0.1034E+00
     10.212  0.7381E-02  0.1040E+00
     10.291  0.3303E-02  0.1042E+00
     10.371  0.5865E-02  0.1047E+00
     10.451  0.1305E-01  0.1057E+00
     10.531  0.1458E-01  0.1069E+00
     10.610  0.9678E-02  0.1077E+00
     10.690  0.1314E-01  0.1087E+00
     10.770  0.2303E-01  0.1105E+00
     10.850  0.2453E-01  0.1125E+00
     10.929  0.1262E-01  0.1135E+00
     11.009  0.3795E-02  0.1138E+00
     11.089  0.2242E-02  0.1140E+00
     11.169  0.2061E-02  0.1142E+00
     11.248  0.5264E-02  0.1146E+00
     11.328  0.1173E-01  0.1155E+00
     11.408  0.1577E-01  0.1168E+00
     11.488  0.1532E-01  0.1180E+00
     11.567  0.1490E-01  0.1192E+00
     11.647  0.1323E-01  0.1202E+00
     11.727  0.9970E-02  0.1210E+00
     11.806  0.9640E-02  0.1218E+00
     11.886  0.1017E-01  0.1226E+00
     11.966  0.8048E-02  0.1233E+00
     12.046  0.1113E-01  0.1241E+00
     12.125  0.1197E-01  0.1251E+00
     12.205  0.8491E-02  0.1258E+00
     12.285  0.7392E-02  0.1264E+00
     12.365  0.8769E-02  0.1271E+00
     12.444  0.1187E-01  0.1280E+00
     12.524  0.1839E-01  0.1295E+00
     12.604  0.1868E-01  0.1310E+00
     12.684  0.1116E-01  0.1319E+00
     12.763  0.8987E-02  0.1326E+00
     12.843  0.1011E-01  0.1334E+00
     12.923  0.8292E-02  0.1340E+00
     13.003  0.7620E-02  0.1346E+00
     13.082  0.6203E-02  0.1351E+00
     13.162  0.5654E-02  0.1356E+00
     13.242  0.1042E-01  0.1364E+00
     13.322  0.1413E-01  0.1375E+00
     13.401  0.1115E-01  0.1384E+00
     13.481  0.9433E-02  0.1392E+00
     13.561  0.1211E-01  0.1402E+00
     13.641  0.1226E-01  0.1411E+00
     13.720  0.1104E-01  0.1420E+00
     13.800  0.1390E-01  0.1431E+00
     13.880  0.2027E-01  0.1447E+00
     13.960  0.2028E-01  0.1464E+00
     14.039  0.1363E-01  0.1474E+00
     14.119  0.8478E-02  0.1481E+00
     14.199  0.4032E-02  0.1484E+00
     14.279  0.1216E-02  0.1485E+00
     14.358  0.2256E-02  0.1487E+00
     14.438  0.7215E-02  0.1493E+00
     14.518  0.1428E-01  0.1504E+00
     14.598  0.1552E-01  0.1517E+00
     14.677  0.9902E-02  0.1525E+00
     14.757  0.7012E-02  0.1530E+00
     14.837  0.5492E-02  0.1535E+00
     14.916  0.5239E-02  0.1539E+00
     14.996  0.8236E-02  0.1545E+00
     15.076  0.9178E-02  0.1553E+00
     15.156  0.6993E-02  0.1558E+00
     15.235  0.5644E-02  0.1563E+00
     15.315  0.5357E-02  0.1567E+00
     15.395  0.6685E-02  0.1572E+00
     15.475  0.7248E-02  0.1578E+00
     15.554  0.3542E-02  0.1581E+00
     15.634  0.6856E-03  0.1581E+00
     15.714  0.5221E-04  0.1581E+00
     15.794  0.8166E-04  0.1582E+00
     15.873  0.6976E-03  0.1582E+00
     15.953  0.2043E-02  0.1584E+00
     16.033  0.2697E-02  0.1586E+00
     16.113  0.2410E-02  0.1588E+00
     16.192  0.1186E-02  0.1589E+00
     16.272  0.6329E-03  0.1589E+00
     16.352  0.1705E-02  0.1591E+00
     16.432  0.2685E-02  0.1593E+00
     16.511  0.2611E-02  0.1595E+00
     16.591  0.1479E-02  0.1596E+00
     16.671  0.3244E-03  0.1596E+00
     16.751  0.2333E-04  0.1596E+00
     16.830  0.1800E-04  0.1596E+00
     16.910  0.2703E-03  0.1597E+00
     16.990  0.1295E-02  0.1598E+00
     17.070  0.1963E-02  0.1599E+00
     17.149  0.9475E-03  0.1600E+00
     17.229  0.1441E-03  0.1600E+00
     17.309  0.6750E-05  0.1600E+00
     17.389  0.9519E-07  0.1600E+00
     17.468  0.3962E-09  0.1600E+00
     17.548  0.4797E-12  0.1600E+00
     17.628  0.1671E-15  0.1600E+00
     17.707  0.0000E+00  0.1600E+00
     17.787  0.0000E+00  0.1600E+00
     17.867  0.0000E+00  0.1600E+00
     17.947  0.0000E+00  0.1600E+00
     18.026  0.0000E+00  0.1600E+00
     18.106  0.0000E+00  0.1600E+00
