    2    2  100    1
  0.1724559E+02  0.2900000E-09  0.2900000E-09  0.4735671E-09  0.5000000E-15
  1.000000000000000E-004
  CAR 
 Si beta-tin                             
      8     36      8
 
  0.8333333E-01  0.8333333E-01  0.8333333E-01  0.1851852E-01
    1       -4.421861   1.000000
    2        1.125991   1.000000
    3        3.503684   1.000000
    4       11.039179   0.000000
    5       11.846854   0.000000
    6       15.382557   0.000000
    7       15.942073   0.000000
    8       16.362490   0.000000
 
  0.2500000E+00  0.8333333E-01  0.8333333E-01  0.3703704E-01
    1       -2.895841   1.000000
    2        2.600876   1.000000
    3        4.916133   1.000000
    4        6.192947   1.000000
    5        9.620292   0.000000
    6       11.332625   0.000000
    7       13.317118   0.000000
    8       14.540198   0.000000
 
  0.4166667E+00  0.8333333E-01  0.8333333E-01  0.3703704E-01
    1       -0.272534   1.000000
    2        1.794615   1.000000
    3        5.232650   1.000000
    4        6.984939   1.000000
    5        7.561407   1.000000
    6        8.852660   0.000000
    7        9.596970   0.000000
    8       13.737268   0.000000
 
 -0.4166667E+00  0.8333333E-01  0.8333333E-01  0.3703704E-01
    1       -1.694599   1.000000
    2        3.479914   1.000000
    3        4.122587   1.000000
    4        6.093982   1.000000
    5        8.873853   0.000000
    6        9.349786   0.000000
    7       11.351811   0.000000
    8       14.003903   0.000000
 
 -0.2500000E+00  0.8333333E-01  0.8333333E-01  0.3703704E-01
    1       -3.809034   1.000000
    2        1.721867   1.000000
    3        4.081331   1.000000
    4        8.654497   0.000000
    5       10.507726   0.000000
    6       13.568708   0.000000
    7       14.977561   0.000000
    8       15.410749   0.000000
 
 -0.8333333E-01  0.8333333E-01  0.8333333E-01  0.1851852E-01
    1       -4.729309   1.000000
    2        0.826198   1.000000
    3        3.212578   1.000000
    4       12.582709   0.000000
    5       13.495172   0.000000
    6       15.467228   0.000000
    7       16.488936   0.000000
    8       17.018794   0.000000
 
  0.2500000E+00  0.2500000E+00  0.8333333E-01  0.1851852E-01
    1       -0.800944   1.000000
    2        3.937712   1.000000
    3        4.905855   1.000000
    4        5.348803   1.000000
    5        6.943123   1.000000
    6        9.535613   0.000000
    7       10.419240   0.000000
    8       11.560872   0.000000
 
  0.4166667E+00  0.2500000E+00  0.8333333E-01  0.3703704E-01
    1        0.611934   1.000000
    2        2.515201   1.000000
    3        4.664908   1.000000
    4        6.147034   1.000000
    5        7.817595   0.999684
    6        8.358815   0.000011
    7        9.575878   0.000000
    8       10.456213   0.000000
 
 -0.4166667E+00  0.2500000E+00  0.8333333E-01  0.3703704E-01
    1       -1.990493   1.000000
    2        3.443225   1.000000
    3        5.163456   1.000000
    4        5.888087   1.000000
    5        7.247359   1.000000
    6       10.457641   0.000000
    7       12.041906   0.000000
    8       12.780040   0.000000
 
 -0.2500000E+00  0.2500000E+00  0.8333333E-01  0.1851852E-01
    1       -3.503867   1.000000
    2        2.017009   1.000000
    3        4.365570   1.000000
    4        7.321633   1.000000
    5       11.514024   0.000000
    6       12.244017   0.000000
    7       13.912520   0.000000
    8       14.844813   0.000000
 
  0.4166667E+00  0.4166667E+00  0.8333333E-01  0.1851852E-01
    1        0.548966   1.000000
    2        1.548537   1.000000
    3        5.952359   1.000000
    4        6.685095   1.000000
    5        6.846513   1.000000
    6        8.257983   0.002470
    7        9.309958   0.000000
    8       11.839732   0.000000
 
 -0.4166667E+00  0.4166667E+00  0.8333333E-01  0.1851852E-01
    1       -1.110720   1.000000
    2        2.600001   1.000000
    3        4.436052   1.000000
    4        6.595273   1.000000
    5        8.047759   0.564402
    6       10.321892   0.000000
    7       10.443619   0.000000
    8       12.999467   0.000000
 
  0.8333333E-01  0.8333333E-01  0.2500000E+00  0.1851852E-01
    1       -4.042912   1.000000
    2       -0.673723   1.000000
    3        5.972276   1.000000
    4       11.375797   0.000000
    5       12.151198   0.000000
    6       14.119416   0.000000
    7       14.986211   0.000000
    8       15.021651   0.000000
 
  0.2500000E+00  0.8333333E-01  0.2500000E+00  0.3703704E-01
    1       -2.519773   1.000000
    2        0.820871   1.000000
    3        6.429969   1.000000
    4        7.438469   1.000000
    5        9.576188   0.000000
    6       10.114698   0.000000
    7       12.995639   0.000000
    8       14.743607   0.000000
 
  0.4166667E+00  0.8333333E-01  0.2500000E+00  0.3703704E-01
    1        0.096582   1.000000
    2        2.120967   1.000000
    3        3.495540   1.000000
    4        5.447046   1.000000
    5        9.062410   0.000000
    6        9.939071   0.000000
    7       11.527601   0.000000
    8       12.617543   0.000000
 
 -0.4166667E+00  0.8333333E-01  0.2500000E+00  0.3703704E-01
    1       -1.321194   1.000000
    2        1.977929   1.000000
    3        4.209500   1.000000
    4        7.316350   1.000000
    5        8.581263   0.000000
    6        9.493092   0.000000
    7       12.359085   0.000000
    8       13.625782   0.000000
 
 -0.2500000E+00  0.8333333E-01  0.2500000E+00  0.3703704E-01
    1       -3.431202   1.000000
    2       -0.072424   1.000000
    3        6.525190   1.000000
    4        9.010593   0.000000
    5       10.820739   0.000000
    6       12.069066   0.000000
    7       13.838079   0.000000
    8       15.105973   0.000000
 
 -0.8333333E-01  0.8333333E-01  0.2500000E+00  0.1851852E-01
    1       -4.349805   1.000000
    2       -0.975708   1.000000
    3        5.688822   1.000000
    4       12.897403   0.000000
    5       13.804991   0.000000
    6       14.614352   0.000000
    7       15.242094   0.000000
    8       16.072367   0.000000
 
  0.2500000E+00  0.2500000E+00  0.2500000E+00  0.1851852E-01
    1       -0.429825   1.000000
    2        2.821979   1.000000
    3        4.610683   1.000000
    4        5.697904   1.000000
    5        7.801200   0.999868
    6        8.555447   0.000000
    7        9.784480   0.000000
    8       13.710833   0.000000
 
  0.4166667E+00  0.2500000E+00  0.2500000E+00  0.3703704E-01
    1        0.977528   1.000000
    2        2.835094   1.000000
    3        4.345742   1.000000
    4        5.087209   1.000000
    5        6.214484   1.000000
    6        8.162578   0.071921
    7       10.782990   0.000000
    8       12.526782   0.000000
 
 -0.4166667E+00  0.2500000E+00  0.2500000E+00  0.3703704E-01
    1       -1.616352   1.000000
    2        1.700880   1.000000
    3        5.538676   1.000000
    4        7.544348   1.000000
    5        8.141974   0.120949
    6        8.901506   0.000000
    7       10.818944   0.000000
    8       14.516029   0.000000
 
 -0.2500000E+00  0.2500000E+00  0.2500000E+00  0.1851852E-01
    1       -3.126614   1.000000
    2        0.226488   1.000000
    3        6.763052   1.000000
    4        7.717786   0.999999
    5       10.762178   0.000000
    6       11.843761   0.000000
    7       14.027937   0.000000
    8       14.661527   0.000000
 
  0.4166667E+00  0.4166667E+00  0.2500000E+00  0.1851852E-01
    1        0.914806   1.000000
    2        1.897803   1.000000
    3        4.272680   1.000000
    4        5.202873   1.000000
    5        6.959174   1.000000
    6        9.895818   0.000000
    7       10.634167   0.000000
    8       11.997639   0.000000
 
 -0.4166667E+00  0.4166667E+00  0.2500000E+00  0.1851852E-01
    1       -0.738927   1.000000
    2        2.440572   1.000000
    3        3.180302   1.000000
    4        6.249514   1.000000
    5        9.111980   0.000000
    6       10.777518   0.000000
    7       12.327110   0.000000
    8       13.499222   0.000000
 
  0.8333333E-01  0.8333333E-01  0.4166667E+00  0.1851852E-01
    1       -3.287428   1.000000
    2       -2.160735   1.000000
    3        8.767246   0.000000
    4       11.688470   0.000000
    5       12.035245   0.000000
    6       12.725046   0.000000
    7       13.356942   0.000000
    8       13.906034   0.000000
 
  0.2500000E+00  0.8333333E-01  0.4166667E+00  0.3703704E-01
    1       -1.770185   1.000000
    2       -0.652706   1.000000
    3        7.173293   1.000000
    4        8.199568   0.023586
    5       10.117300   0.000000
    6       10.717431   0.000000
    7       11.804557   0.000000
    8       13.237290   0.000000
 
  0.4166667E+00  0.8333333E-01  0.4166667E+00  0.3703704E-01
    1        0.828047   1.000000
    2        1.875736   1.000000
    3        3.011972   1.000000
    4        4.038614   1.000000
    5        9.791425   0.000000
    6       10.762100   0.000000
    7       12.523920   0.000000
    8       13.882173   0.000000
 
 -0.4166667E+00  0.8333333E-01  0.4166667E+00  0.3703704E-01
    1       -0.577404   1.000000
    2        0.529409   1.000000
    3        4.913080   1.000000
    4        5.975273   1.000000
    5       10.051399   0.000000
    6       10.848816   0.000000
    7       11.634931   0.000000
    8       13.860948   0.000000
 
 -0.2500000E+00  0.8333333E-01  0.4166667E+00  0.3703704E-01
    1       -2.677959   1.000000
    2       -1.554709   1.000000
    3        9.159061   0.000000
    4        9.781891   0.000000
    5       10.678396   0.000000
    6       11.423148   0.000000
    7       12.506959   0.000000
    8       12.819143   0.000000
 
 -0.8333333E-01  0.8333333E-01  0.4166667E+00  0.1851852E-01
    1       -3.593223   1.000000
    2       -2.464894   1.000000
    3        8.505537   0.000000
    4       11.545168   0.000000
    5       13.550645   0.000000
    6       14.406392   0.000000
    7       14.413236   0.000000
    8       15.235545   0.000000
 
  0.2500000E+00  0.2500000E+00  0.4166667E+00  0.1851852E-01
    1        0.308867   1.000000
    2        1.405349   1.000000
    3        5.285839   1.000000
    4        6.211574   1.000000
    5        6.576451   1.000000
    6        7.464709   1.000000
    7       12.201477   0.000000
    8       14.539638   0.000000
 
  0.4166667E+00  0.2500000E+00  0.4166667E+00  0.3703704E-01
    1        1.699547   1.000000
    2        2.706713   1.000000
    3        3.783699   1.000000
    4        4.766527   1.000000
    5        5.803536   1.000000
    6        6.836730   1.000000
    7       13.293597   0.000000
    8       14.514899   0.000000
 
 -0.4166667E+00  0.2500000E+00  0.4166667E+00  0.3703704E-01
    1       -0.870823   1.000000
    2        0.239759   1.000000
    3        6.250617   1.000000
    4        7.286192   1.000000
    5        8.308912   0.000207
    6        9.247354   0.000000
    7       11.254746   0.000000
    8       13.918590   0.000000
 
 -0.2500000E+00  0.2500000E+00  0.4166667E+00  0.1851852E-01
    1       -2.374554   1.000000
    2       -1.253137   1.000000
    3        8.290203   0.000544
    4        9.183080   0.000000
    5        9.880458   0.000000
    6       12.497264   0.000000
    7       12.531337   0.000000
    8       13.456241   0.000000
 
  0.4166667E+00  0.4166667E+00  0.4166667E+00  0.1851852E-01
    1        1.632541   1.000000
    2        2.407447   1.000000
    3        3.044831   1.000000
    4        3.803811   1.000000
    5        7.653662   1.000000
    6        8.678613   0.000000
    7       13.151081   0.000000
    8       14.095291   0.000000
 
 -0.4166667E+00  0.4166667E+00  0.4166667E+00  0.1851852E-01
    1        0.000875   1.000000
    2        1.096549   1.000000
    3        3.787233   1.000000
    4        4.852211   1.000000
    5       11.440913   0.000000
    6       11.648092   0.000000
    7       12.420137   0.000000
    8       13.228232   0.000000
