 vasp.5.4.1 24Jun15 (build Jul 19 2016 16:50:41) complex                        
  
 executed on           IFC91_ompi date 2019.10.10  11:16:31
 running on    4 total cores
 distrk:  each k-point on    4 cores,    1 groups
 distr:  one band on NCORES_PER_BAND=   1 cores,    4 groups


--------------------------------------------------------------------------------------------------------


 INCAR:
 POTCAR:    PAW_PBE Si 05Jan2001                  
 POTCAR:    PAW_PBE Si 05Jan2001                  
   VRHFIN = Si: s2p2                                                            
   LEXCH  = PE                                                                  
   EATOM  =   103.0669 eV,    7.5752 Ry                                         
                                                                                
   TITEL  = PAW_PBE Si 05Jan2001                                                
   LULTRA =        F    use ultrasoft PP ?                                      
   IUNSCR =        1    unscreen: 0-lin 1-nonlin 2-no                           
   RPACOR =    1.500    partial core radius                                     
   POMASS =   28.085; ZVAL   =    4.000    mass and valenz                      
   RCORE  =    1.900    outmost cutoff radius                                   
   RWIGS  =    2.480; RWIGS  =    1.312    wigner-seitz radius (au A)           
   ENMAX  =  245.345; ENMIN  =  184.009 eV                                      
   ICORE  =        2    local potential                                         
   LCOR   =        T    correct aug charges                                     
   LPAW   =        T    paw PP                                                  
   EAUG   =  322.069                                                            
   DEXC   =    0.000                                                            
   RMAX   =    1.950    core radius for proj-oper                               
   RAUG   =    1.300    factor for augmentation sphere                          
   RDEP   =    1.993    radius for radial grids                                 
   RDEPT  =    1.837    core radius for aug-charge                              
                                                                                
   Atomic configuration                                                         
    6 entries                                                                   
     n  l   j            E        occ.                                          
     1  0  0.50     -1785.8828   2.0000                                         
     2  0  0.50      -139.4969   2.0000                                         
     2  1  1.50       -95.5546   6.0000                                         
     3  0  0.50       -10.8127   2.0000                                         
     3  1  0.50        -4.0811   2.0000                                         
     3  2  1.50        -4.0817   0.0000                                         
   Description                                                                  
     l       E           TYP  RCUT    TYP  RCUT                                 
     0    -10.8127223     23  1.900                                             
     0     -7.6451159     23  1.900                                             
     1     -4.0811372     23  1.900                                             
     1      2.4879257     23  1.900                                             
     2     -4.0817478      7  1.900                                             
  local pseudopotential read in
  partial core-charges read in
  partial kinetic energy density read in
  atomic valenz-charges read in
  non local Contribution for L=           0  read in
    real space projection operators read in
  non local Contribution for L=           0  read in
    real space projection operators read in
  non local Contribution for L=           1  read in
    real space projection operators read in
  non local Contribution for L=           1  read in
    real space projection operators read in
    PAW grid and wavefunctions read in
 
   number of l-projection  operators is LMAX  =           4
   number of lm-projection operators is LMMAX =           8
 
  PAW_PBE Si 05Jan2001                  :
 energy of atom  1       EATOM= -103.0669
 kinetic energy error for atom=    0.0009 (will be added to EATOM!!)
 
 
 POSCAR: Si HCP                                  
  positions in direct lattice
  No initial velocities read in
 exchange correlation table for  LEXCH =        8
   RHO(1)=    0.500       N(1)  =     2000
   RHO(2)=  100.500       N(2)  =     4000
 


--------------------------------------------------------------------------------------------------------


 ion  position               nearest neighbor table
   1  0.000  0.000  0.000-   2 2.90   2 2.90   2 2.90   2 2.90   2 2.90   2 2.90
   2  0.333  0.667  0.500-   1 2.90   1 2.90   1 2.90   1 2.90   1 2.90   1 2.90
 
  LATTYP: Found a hexagonal cell.
 ALAT       =     2.9000000000
 C/A-ratio  =     1.6329900000
  
  Lattice vectors:
  
 A1 = (   2.9000000000,   0.0000000000,   0.0000000000)
 A2 = (  -1.4500000000,   2.5114736710,   0.0000000000)
 A3 = (   0.0000000000,   0.0000000000,   4.7356710000)


Analysis of symmetry for initial positions (statically):
=====================================================================
 Subroutine PRICEL returns:
 Original cell was already a primitive cell.
 

 Routine SETGRP: Setting up the symmetry group for a 
 hexagonal supercell.


 Subroutine GETGRP returns: Found 24 space group operations
 (whereof 12 operations were pure point group operations)
 out of a pool of 24 trial point group operations.


The static configuration has the point symmetry D_3h.
 The point group associated with its full space group is D_6h.


Analysis of symmetry for dynamics (positions and initial velocities):
=====================================================================
 Subroutine PRICEL returns:
 Original cell was already a primitive cell.
 

 Routine SETGRP: Setting up the symmetry group for a 
 hexagonal supercell.


 Subroutine GETGRP returns: Found 24 space group operations
 (whereof 12 operations were pure point group operations)
 out of a pool of 24 trial point group operations.


The dynamic configuration has the point symmetry D_3h.
 The point group associated with its full space group is D_6h.


 Subroutine INISYM returns: Found 24 space group operations
 (whereof 12 operations are pure point group operations),
 and found     1 'primitive' translations

 
 
 KPOINTS: K-Points                                

Automatic generation of k-mesh.
Space group operators:
 irot       det(A)        alpha          n_x          n_y          n_z        tau_x        tau_y        tau_z
    1     1.000000     0.000000     1.000000     0.000000     0.000000     0.000000     0.000000     0.000000
    2    -1.000000    60.000000     0.000000     0.000000    -1.000000     0.000000     0.000000     0.000000
    3     1.000000   120.000000     0.000000     0.000000    -1.000000     0.000000     0.000000     0.000000
    4    -1.000000   180.000000     0.000000     0.000000     1.000000     0.000000     0.000000     0.000000
    5     1.000000   120.000000     0.000000     0.000000     1.000000     0.000000     0.000000     0.000000
    6    -1.000000    60.000000     0.000000     0.000000     1.000000     0.000000     0.000000     0.000000
    7    -1.000000   180.000000     1.000000     0.000000     0.000000     0.000000     0.000000     0.000000
    8     1.000000   180.000000     0.866025    -0.500000     0.000000     0.000000     0.000000     0.000000
    9    -1.000000   180.000000     0.500000    -0.866025     0.000000     0.000000     0.000000     0.000000
   10     1.000000   180.000000     0.000000     1.000000     0.000000     0.000000     0.000000     0.000000
   11    -1.000000   180.000000    -0.500000    -0.866025     0.000000     0.000000     0.000000     0.000000
   12     1.000000   180.000000     0.866025     0.500000     0.000000     0.000000     0.000000     0.000000
   13    -1.000000     0.000000     1.000000     0.000000     0.000000     0.333333     0.666667     0.500000
   14     1.000000    60.000000     0.000000     0.000000    -1.000000     0.333333     0.666667     0.500000
   15    -1.000000   120.000000     0.000000     0.000000    -1.000000     0.333333     0.666667     0.500000
   16     1.000000   180.000000     0.000000     0.000000     1.000000     0.333333     0.666667     0.500000
   17    -1.000000   120.000000     0.000000     0.000000     1.000000     0.333333     0.666667     0.500000
   18     1.000000    60.000000     0.000000     0.000000     1.000000     0.333333     0.666667     0.500000
   19     1.000000   180.000000     1.000000     0.000000     0.000000     0.333333     0.666667     0.500000
   20    -1.000000   180.000000     0.866025    -0.500000     0.000000     0.333333     0.666667     0.500000
   21     1.000000   180.000000     0.500000    -0.866025     0.000000     0.333333     0.666667     0.500000
   22    -1.000000   180.000000     0.000000     1.000000     0.000000     0.333333     0.666667     0.500000
   23     1.000000   180.000000    -0.500000    -0.866025     0.000000     0.333333     0.666667     0.500000
   24    -1.000000   180.000000     0.866025     0.500000     0.000000     0.333333     0.666667     0.500000
 
 Subroutine IBZKPT returns following result:
 ===========================================
 
 Found     36 irreducible k-points:
 
 Following reciprocal coordinates:
            Coordinates               Weight
  0.083333  0.083333  0.083333     96.000000
  0.250000  0.083333  0.083333    192.000000
  0.416667  0.083333  0.083333    192.000000
 -0.416667  0.083333  0.083333    192.000000
 -0.250000  0.083333  0.083333    192.000000
 -0.083333  0.083333  0.083333     96.000000
  0.250000  0.250000  0.083333     96.000000
  0.416667  0.250000  0.083333    192.000000
 -0.416667  0.250000  0.083333    192.000000
 -0.250000  0.250000  0.083333     96.000000
  0.416667  0.416667  0.083333     96.000000
 -0.416667  0.416667  0.083333     96.000000
  0.083333  0.083333  0.250000     96.000000
  0.250000  0.083333  0.250000    192.000000
  0.416667  0.083333  0.250000    192.000000
 -0.416667  0.083333  0.250000    192.000000
 -0.250000  0.083333  0.250000    192.000000
 -0.083333  0.083333  0.250000     96.000000
  0.250000  0.250000  0.250000     96.000000
  0.416667  0.250000  0.250000    192.000000
 -0.416667  0.250000  0.250000    192.000000
 -0.250000  0.250000  0.250000     96.000000
  0.416667  0.416667  0.250000     96.000000
 -0.416667  0.416667  0.250000     96.000000
  0.083333  0.083333  0.416667     96.000000
  0.250000  0.083333  0.416667    192.000000
  0.416667  0.083333  0.416667    192.000000
 -0.416667  0.083333  0.416667    192.000000
 -0.250000  0.083333  0.416667    192.000000
 -0.083333  0.083333  0.416667     96.000000
  0.250000  0.250000  0.416667     96.000000
  0.416667  0.250000  0.416667    192.000000
 -0.416667  0.250000  0.416667    192.000000
 -0.250000  0.250000  0.416667     96.000000
  0.416667  0.416667  0.416667     96.000000
 -0.416667  0.416667  0.416667     96.000000
 
 Following cartesian coordinates:
            Coordinates               Weight
  0.083333  0.144338  0.051031     96.000000
  0.250000  0.240563  0.051031    192.000000
  0.416667  0.336788  0.051031    192.000000
 -0.416667 -0.144338  0.051031    192.000000
 -0.250000 -0.048113  0.051031    192.000000
 -0.083333  0.048113  0.051031     96.000000
  0.250000  0.433013  0.051031     96.000000
  0.416667  0.529238  0.051031    192.000000
 -0.416667  0.048113  0.051031    192.000000
 -0.250000  0.144338  0.051031     96.000000
  0.416667  0.721688  0.051031     96.000000
 -0.416667  0.240563  0.051031     96.000000
  0.083333  0.144338  0.153093     96.000000
  0.250000  0.240563  0.153093    192.000000
  0.416667  0.336788  0.153093    192.000000
 -0.416667 -0.144338  0.153093    192.000000
 -0.250000 -0.048113  0.153093    192.000000
 -0.083333  0.048113  0.153093     96.000000
  0.250000  0.433013  0.153093     96.000000
  0.416667  0.529238  0.153093    192.000000
 -0.416667  0.048113  0.153093    192.000000
 -0.250000  0.144338  0.153093     96.000000
  0.416667  0.721688  0.153093     96.000000
 -0.416667  0.240563  0.153093     96.000000
  0.083333  0.144338  0.255156     96.000000
  0.250000  0.240563  0.255156    192.000000
  0.416667  0.336788  0.255156    192.000000
 -0.416667 -0.144338  0.255156    192.000000
 -0.250000 -0.048113  0.255156    192.000000
 -0.083333  0.048113  0.255156     96.000000
  0.250000  0.433013  0.255156     96.000000
  0.416667  0.529238  0.255156    192.000000
 -0.416667  0.048113  0.255156    192.000000
 -0.250000  0.144338  0.255156     96.000000
  0.416667  0.721688  0.255156     96.000000
 -0.416667  0.240563  0.255156     96.000000
 


--------------------------------------------------------------------------------------------------------




 Dimension of arrays:
   k-points           NKPTS =     36   k-points in BZ     NKDIM =     36   number of bands    NBANDS=      8
   number of dos      NEDOS =    301   number of ions     NIONS =      2
   non local maximal  LDIM  =      4   non local SUM 2l+1 LMDIM =      8
   total plane-waves  NPLWV =  14400
   max r-space proj   IRMAX =      1   max aug-charges    IRDMAX=  14157
   dimension x,y,z NGX =    20 NGY =   20 NGZ =   36
   dimension x,y,z NGXF=    40 NGYF=   40 NGZF=   72
   support grid    NGXF=    40 NGYF=   40 NGZF=   72
   ions per type =               2
 NGX,Y,Z   is equivalent  to a cutoff of  11.47, 11.47, 12.64 a.u.
 NGXF,Y,Z  is equivalent  to a cutoff of  22.93, 22.93, 25.28 a.u.


 I would recommend the setting:
   dimension x,y,z NGX =    20 NGY =   20 NGZ =   33
 SYSTEM =  Si beta-tin                             
 POSCAR =  Si HCP                                  

 Startparameter for this run:
   NWRITE =      2    write-flag & timer
   PREC   = accura    normal or accurate (medium, high low for compatibility)
   ISTART =      0    job   : 0-new  1-cont  2-samecut
   ICHARG =      2    charge: 1-file 2-atom 10-const
   ISPIN  =      1    spin polarized calculation?
   LNONCOLLINEAR =      F non collinear calculations
   LSORBIT =      F    spin-orbit coupling
   INIWAV =      1    electr: 0-lowe 1-rand  2-diag
   LASPH  =      F    aspherical Exc in radial PAW
   METAGGA=      F    non-selfconsistent MetaGGA calc.

 Electronic Relaxation 1
   ENCUT  =  450.0 eV  33.07 Ry    5.75 a.u.   5.02  5.02  8.19*2*pi/ulx,y,z
   ENINI  =  450.0     initial cutoff
   ENAUG  =  322.1 eV  augmentation charge cutoff
   NELM   =     60;   NELMIN=  2; NELMDL= -5     # of ELM steps 
   EDIFF  = 0.1E-04   stopping-criterion for ELM
   LREAL  =      F    real-space projection
   NLSPLINE    = F    spline interpolate recip. space projectors
   LCOMPAT=      F    compatible to vasp.4.4
   GGA_COMPAT  = T    GGA compatible to vasp.4.4-vasp.4.6
   LMAXPAW     = -100 max onsite density
   LMAXMIX     =    2 max onsite mixed and CHGCAR
   VOSKOWN=      0    Vosko Wilk Nusair interpolation
   ROPT   =    0.00000
 Ionic relaxation
   EDIFFG = -.1E-01   stopping-criterion for IOM
   NSW    =    100    number of steps for IOM
   NBLOCK =      1;   KBLOCK =    100    inner block; outer block 
   IBRION =      2    ionic relax: 0-MD 1-quasi-New 2-CG
   NFREE  =      1    steps in history (QN), initial steepest desc. (CG)
   ISIF   =      4    stress and relaxation
   IWAVPR =     11    prediction:  0-non 1-charg 2-wave 3-comb
   ISYM   =      2    0-nonsym 1-usesym 2-fastsym
   LCORR  =      T    Harris-Foulkes like correction to forces

   POTIM  = 0.5000    time-step for ionic-motion
   TEIN   =    0.0    initial temperature
   TEBEG  =    0.0;   TEEND  =   0.0 temperature during run
   SMASS  =  -3.00    Nose mass-parameter (am)
   estimated Nose-frequenzy (Omega)   =  0.10E-29 period in steps =****** mass=  -0.192E-27a.u.
   SCALEE = 1.0000    scale energy and forces
   NPACO  =    256;   APACO  = 16.0  distance and # of slots for P.C.
   PSTRESS=    0.0 pullay stress

  Mass of Ions in am
   POMASS =  28.09
  Ionic Valenz
   ZVAL   =   4.00
  Atomic Wigner-Seitz radii
   RWIGS  =  -1.00
  virtual crystal weights 
   VCA    =   1.00
   NELECT =       8.0000    total number of electrons
   NUPDOWN=      -1.0000    fix difference up-down

 DOS related values:
   EMIN   =  10.00;   EMAX   =-10.00  energy-range for DOS
   EFERMI =   0.00
   ISMEAR =     0;   SIGMA  =   0.10  broadening in eV -4-tet -1-fermi 0-gaus

 Electronic relaxation 2 (details)
   IALGO  =     38    algorithm
   LDIAG  =      T    sub-space diagonalisation (order eigenvalues)
   LSUBROT=      F    optimize rotation matrix (better conditioning)
   TURBO    =      0    0=normal 1=particle mesh
   IRESTART =      0    0=no restart 2=restart with 2 vectors
   NREBOOT  =      0    no. of reboots
   NMIN     =      0    reboot dimension
   EREF     =   0.00    reference energy to select bands
   IMIX   =      4    mixing-type and parameters
     AMIX     =   0.40;   BMIX     =  1.00
     AMIX_MAG =   1.60;   BMIX_MAG =  1.00
     AMIN     =   0.10
     WC   =   100.;   INIMIX=   1;  MIXPRE=   1;  MAXMIX= -45

 Intra band minimization:
   WEIMIN = 0.0010     energy-eigenvalue tresh-hold
   EBREAK =  0.31E-06  absolut break condition
   DEPER  =   0.30     relativ break condition  

   TIME   =   0.40     timestep for ELM

  volume/ion in A,a.u.               =      17.25       116.38
  Fermi-wavevector in a.u.,A,eV,Ry     =   1.005855  1.900791 13.765621  1.011745
  Thomas-Fermi vector in A             =   2.138561
 
 Write flags
   LWAVE  =      T    write WAVECAR
   LCHARG =      T    write CHGCAR
   LVTOT  =      F    write LOCPOT, total local potential
   LVHAR  =      F    write LOCPOT, Hartree potential only
   LELF   =      F    write electronic localiz. function (ELF)
   LORBIT =      0    0 simple, 1 ext, 2 COOP (PROOUT)


 Dipole corrections
   LMONO  =      F    monopole corrections only (constant potential shift)
   LDIPOL =      F    correct potential (dipole corrections)
   IDIPOL =      0    1-x, 2-y, 3-z, 4-all directions 
   EPSILON=  1.0000000 bulk dielectric constant

 Exchange correlation treatment:
   GGA     =    --    GGA type
   LEXCH   =     8    internal setting for exchange type
   VOSKOWN=      0    Vosko Wilk Nusair interpolation
   LHFCALC =     F    Hartree Fock is set to
   LHFONE  =     F    Hartree Fock one center treatment
   AEXX    =    0.0000 exact exchange contribution

 Linear response parameters
   LEPSILON=     F    determine dielectric tensor
   LRPA    =     F    only Hartree local field effects (RPA)
   LNABLA  =     F    use nabla operator in PAW spheres
   LVEL    =     F    velocity operator in full k-point grid
   LINTERFAST=   F  fast interpolation
   KINTER  =     0    interpolate to denser k-point grid
   CSHIFT  =0.1000    complex shift for real part using Kramers Kronig
   OMEGAMAX=  -1.0    maximum frequency
   DEG_THRESHOLD= 0.2000000E-02 threshold for treating states as degnerate
   RTIME   =    0.100 relaxation time in fs

 Orbital magnetization related:
   ORBITALMAG=     F  switch on orbital magnetization
   LCHIMAG   =     F  perturbation theory with respect to B field
   DQ        =  0.001000  dq finite difference perturbation B field



--------------------------------------------------------------------------------------------------------


 conjugate gradient relaxation of ions
 charge density and potential will be updated during run
 non-spin polarized calculation
 Variant of blocked Davidson
 Davidson routine will perform the subspace rotation
 perform sub-space diagonalisation
    after iterative eigenvector-optimisation
 modified Broyden-mixing scheme, WC =      100.0
 initial mixing is a Kerker type mixing with AMIX =  0.4000 and BMIX =      1.0000
 Hartree-type preconditioning will be used
 using additional bands            4
 reciprocal scheme for non local part
 use partial core corrections
 calculate Harris-corrections to forces 
   (improved forces if not selfconsistent)
 use gradient corrections 
 use of overlap-Matrix (Vanderbilt PP)
 Gauss-broadening in eV      SIGMA  =   0.10


--------------------------------------------------------------------------------------------------------


  energy-cutoff  :      450.00
  volume of cell :       34.49
      direct lattice vectors                 reciprocal lattice vectors
     2.900000000  0.000000000  0.000000000     0.344827586  0.199086300  0.000000000
    -1.450000000  2.511473671  0.000000000     0.000000000  0.398172599  0.000000000
     0.000000000  0.000000000  4.735671000     0.000000000  0.000000000  0.211163318

  length of vectors
     2.900000000  2.900000000  4.735671000     0.398172599  0.398172599  0.211163318


 
 k-points in units of 2pi/SCALE and weight: K-Points                                
   0.08333333  0.14433757  0.05103114       0.019
   0.25000000  0.24056261  0.05103114       0.037
   0.41666667  0.33678766  0.05103114       0.037
  -0.41666667 -0.14433757  0.05103114       0.037
  -0.25000000 -0.04811252  0.05103114       0.037
  -0.08333333  0.04811252  0.05103114       0.019
   0.25000000  0.43301270  0.05103114       0.019
   0.41666667  0.52923775  0.05103114       0.037
  -0.41666667  0.04811252  0.05103114       0.037
  -0.25000000  0.14433757  0.05103114       0.019
   0.41666667  0.72168784  0.05103114       0.019
  -0.41666667  0.24056261  0.05103114       0.019
   0.08333333  0.14433757  0.15309341       0.019
   0.25000000  0.24056261  0.15309341       0.037
   0.41666667  0.33678766  0.15309341       0.037
  -0.41666667 -0.14433757  0.15309341       0.037
  -0.25000000 -0.04811252  0.15309341       0.037
  -0.08333333  0.04811252  0.15309341       0.019
   0.25000000  0.43301270  0.15309341       0.019
   0.41666667  0.52923775  0.15309341       0.037
  -0.41666667  0.04811252  0.15309341       0.037
  -0.25000000  0.14433757  0.15309341       0.019
   0.41666667  0.72168784  0.15309341       0.019
  -0.41666667  0.24056261  0.15309341       0.019
   0.08333333  0.14433757  0.25515568       0.019
   0.25000000  0.24056261  0.25515568       0.037
   0.41666667  0.33678766  0.25515568       0.037
  -0.41666667 -0.14433757  0.25515568       0.037
  -0.25000000 -0.04811252  0.25515568       0.037
  -0.08333333  0.04811252  0.25515568       0.019
   0.25000000  0.43301270  0.25515568       0.019
   0.41666667  0.52923775  0.25515568       0.037
  -0.41666667  0.04811252  0.25515568       0.037
  -0.25000000  0.14433757  0.25515568       0.019
   0.41666667  0.72168784  0.25515568       0.019
  -0.41666667  0.24056261  0.25515568       0.019
 
 k-points in reciprocal lattice and weights: K-Points                                
   0.08333333  0.08333333  0.08333333       0.019
   0.25000000  0.08333333  0.08333333       0.037
   0.41666667  0.08333333  0.08333333       0.037
  -0.41666667  0.08333333  0.08333333       0.037
  -0.25000000  0.08333333  0.08333333       0.037
  -0.08333333  0.08333333  0.08333333       0.019
   0.25000000  0.25000000  0.08333333       0.019
   0.41666667  0.25000000  0.08333333       0.037
  -0.41666667  0.25000000  0.08333333       0.037
  -0.25000000  0.25000000  0.08333333       0.019
   0.41666667  0.41666667  0.08333333       0.019
  -0.41666667  0.41666667  0.08333333       0.019
   0.08333333  0.08333333  0.25000000       0.019
   0.25000000  0.08333333  0.25000000       0.037
   0.41666667  0.08333333  0.25000000       0.037
  -0.41666667  0.08333333  0.25000000       0.037
  -0.25000000  0.08333333  0.25000000       0.037
  -0.08333333  0.08333333  0.25000000       0.019
   0.25000000  0.25000000  0.25000000       0.019
   0.41666667  0.25000000  0.25000000       0.037
  -0.41666667  0.25000000  0.25000000       0.037
  -0.25000000  0.25000000  0.25000000       0.019
   0.41666667  0.41666667  0.25000000       0.019
  -0.41666667  0.41666667  0.25000000       0.019
   0.08333333  0.08333333  0.41666667       0.019
   0.25000000  0.08333333  0.41666667       0.037
   0.41666667  0.08333333  0.41666667       0.037
  -0.41666667  0.08333333  0.41666667       0.037
  -0.25000000  0.08333333  0.41666667       0.037
  -0.08333333  0.08333333  0.41666667       0.019
   0.25000000  0.25000000  0.41666667       0.019
   0.41666667  0.25000000  0.41666667       0.037
  -0.41666667  0.25000000  0.41666667       0.037
  -0.25000000  0.25000000  0.41666667       0.019
   0.41666667  0.41666667  0.41666667       0.019
  -0.41666667  0.41666667  0.41666667       0.019
 
 position of ions in fractional coordinates (direct lattice) 
   0.00000000  0.00000000  0.00000000
   0.33333333  0.66666667  0.50000000
 
 position of ions in cartesian coordinates  (Angst):
   0.00000000  0.00000000  0.00000000
  -0.00000000  1.67431578  2.36783550
 


--------------------------------------------------------------------------------------------------------


 k-point  1 :   0.0833 0.0833 0.0833  plane waves:     747
 k-point  2 :   0.2500 0.0833 0.0833  plane waves:     749
 k-point  3 :   0.4167 0.0833 0.0833  plane waves:     744
 k-point  4 :  -0.4167 0.0833 0.0833  plane waves:     751
 k-point  5 :  -0.2500 0.0833 0.0833  plane waves:     745
 k-point  6 :  -0.0833 0.0833 0.0833  plane waves:     736
 k-point  7 :   0.2500 0.2500 0.0833  plane waves:     757
 k-point  8 :   0.4167 0.2500 0.0833  plane waves:     752
 k-point  9 :  -0.4167 0.2500 0.0833  plane waves:     756
 k-point 10 :  -0.2500 0.2500 0.0833  plane waves:     745
 k-point 11 :   0.4167 0.4167 0.0833  plane waves:     747
 k-point 12 :  -0.4167 0.4167 0.0833  plane waves:     743
 k-point 13 :   0.0833 0.0833 0.2500  plane waves:     740
 k-point 14 :   0.2500 0.0833 0.2500  plane waves:     746
 k-point 15 :   0.4167 0.0833 0.2500  plane waves:     749
 k-point 16 :  -0.4167 0.0833 0.2500  plane waves:     748
 k-point 17 :  -0.2500 0.0833 0.2500  plane waves:     744
 k-point 18 :  -0.0833 0.0833 0.2500  plane waves:     738
 k-point 19 :   0.2500 0.2500 0.2500  plane waves:     755
 k-point 20 :   0.4167 0.2500 0.2500  plane waves:     750
 k-point 21 :  -0.4167 0.2500 0.2500  plane waves:     752
 k-point 22 :  -0.2500 0.2500 0.2500  plane waves:     740
 k-point 23 :   0.4167 0.4167 0.2500  plane waves:     751
 k-point 24 :  -0.4167 0.4167 0.2500  plane waves:     752
 k-point 25 :   0.0833 0.0833 0.4167  plane waves:     739
 k-point 26 :   0.2500 0.0833 0.4167  plane waves:     745
 k-point 27 :   0.4167 0.0833 0.4167  plane waves:     754
 k-point 28 :  -0.4167 0.0833 0.4167  plane waves:     749
 k-point 29 :  -0.2500 0.0833 0.4167  plane waves:     740
 k-point 30 :  -0.0833 0.0833 0.4167  plane waves:     729
 k-point 31 :   0.2500 0.2500 0.4167  plane waves:     754
 k-point 32 :   0.4167 0.2500 0.4167  plane waves:     765
 k-point 33 :  -0.4167 0.2500 0.4167  plane waves:     745
 k-point 34 :  -0.2500 0.2500 0.4167  plane waves:     738
 k-point 35 :   0.4167 0.4167 0.4167  plane waves:     758
 k-point 36 :  -0.4167 0.4167 0.4167  plane waves:     754

 maximum and minimum number of plane-waves per node :       765      729

 maximum number of plane-waves:       765
 maximum index in each direction: 
   IXMAX=    5   IYMAX=    4   IZMAX=    8
   IXMIN=   -5   IYMIN=   -5   IZMIN=   -8

 WARNING: aliasing errors must be expected set NGX to  22 to avoid them
 NGY is ok and might be reduce to  20
 NGZ is ok and might be reduce to  34
 aliasing errors are usually negligible using standard VASP settings
 and one can safely disregard these warnings

 serial   3D FFT for wavefunctions
 parallel 3D FFT for charge:
    minimum data exchange during FFTs selected (reduces bandwidth)


 total amount of memory used by VASP on root node    35742. kBytes
========================================================================

   base      :      30000. kBytes
   nonl-proj :       1794. kBytes
   fftplans  :       1049. kBytes
   grid      :       1990. kBytes
   one-center:          6. kBytes
   wavefun   :        903. kBytes
 
     INWAV:  cpu time    0.0000: real time    0.0000
 Broyden mixing: mesh for mixing (old mesh)
   NGX =  9   NGY =  9   NGZ = 17
  (NGX  = 40   NGY  = 40   NGZ  = 72)
  gives a total of   1377 points

 initial charge density was supplied:
 charge density of overlapping atoms calculated
 number of electron       8.0000000 magnetization 
 keeping initial charge density in first step


--------------------------------------------------------------------------------------------------------


 Maximum index for augmentation-charges         3404 (set IRDMAX)


--------------------------------------------------------------------------------------------------------


 First call to EWALD:  gamma=   0.545
 Maximum number of real-space cells 3x 3x 2
 Maximum number of reciprocal cells 3x 3x 4

 FEWALD executed in parallel
    FEWALD:  cpu time    0.0010: real time    0.0011


----------------------------------------- Iteration    1(   1)  ---------------------------------------


    POTLOK:  cpu time    0.0640: real time    0.0398
    SETDIJ:  cpu time    0.0110: real time    0.0061
     EDDAV:  cpu time    1.2108: real time    0.8331
       DOS:  cpu time    0.0070: real time    0.0046
    --------------------------------------------
      LOOP:  cpu time    1.2968: real time    0.8858

 eigenvalue-minimisations  :   576
 total energy-change (2. order) : 0.3030160E+01  (-0.3060134E+03)
 number of electron       8.0000000 magnetization 
 augmentation part        8.0000000 magnetization 

 Free energy of the ion-electron system (eV)
  ---------------------------------------------------
  alpha Z        PSCENC =         3.90396886
  Ewald energy   TEWEN  =      -257.55644282
  -Hartree energ DENC   =        -2.16568247
  -exchange      EXHF   =         0.00000000
  -V(xc)+E(xc)   XCENC  =       -18.49162126
  PAW double counting   =       176.24759923     -141.06103558
  entropy T*S    EENTRO =        -0.00225889
  eigenvalues    EBANDS =        36.02370567
  atomic energy  EATOM  =       206.13192747
  Solvation  Ediel_sol  =         0.00000000
  ---------------------------------------------------
  free energy    TOTEN  =         3.03016021 eV

  energy without entropy =        3.03241910  energy(sigma->0) =        3.03128966


--------------------------------------------------------------------------------------------------------




----------------------------------------- Iteration    1(   2)  ---------------------------------------


     EDDAV:  cpu time    2.3656: real time    1.5100
       DOS:  cpu time    0.0010: real time    0.0008
    --------------------------------------------
      LOOP:  cpu time    2.3696: real time    1.5132

 eigenvalue-minimisations  :   880
 total energy-change (2. order) :-0.1253981E+02  (-0.1220357E+02)
 number of electron       8.0000000 magnetization 
 augmentation part        8.0000000 magnetization 

 Free energy of the ion-electron system (eV)
  ---------------------------------------------------
  alpha Z        PSCENC =         3.90396886
  Ewald energy   TEWEN  =      -257.55644282
  -Hartree energ DENC   =        -2.16568247
  -exchange      EXHF   =         0.00000000
  -V(xc)+E(xc)   XCENC  =       -18.49162126
  PAW double counting   =       176.24759923     -141.06103558
  entropy T*S    EENTRO =        -0.00655395
  eigenvalues    EBANDS =        23.48818929
  atomic energy  EATOM  =       206.13192747
  Solvation  Ediel_sol  =         0.00000000
  ---------------------------------------------------
  free energy    TOTEN  =        -9.50965123 eV

  energy without entropy =       -9.50309728  energy(sigma->0) =       -9.50637425


--------------------------------------------------------------------------------------------------------




----------------------------------------- Iteration    1(   3)  ---------------------------------------


     EDDAV:  cpu time    2.3256: real time    1.4846
       DOS:  cpu time    0.0030: real time    0.0013
    --------------------------------------------
      LOOP:  cpu time    2.3296: real time    1.4882

 eigenvalue-minimisations  :   752
 total energy-change (2. order) :-0.1369545E+00  (-0.1361623E+00)
 number of electron       8.0000000 magnetization 
 augmentation part        8.0000000 magnetization 

 Free energy of the ion-electron system (eV)
  ---------------------------------------------------
  alpha Z        PSCENC =         3.90396886
  Ewald energy   TEWEN  =      -257.55644282
  -Hartree energ DENC   =        -2.16568247
  -exchange      EXHF   =         0.00000000
  -V(xc)+E(xc)   XCENC  =       -18.49162126
  PAW double counting   =       176.24759923     -141.06103558
  entropy T*S    EENTRO =        -0.00613039
  eigenvalues    EBANDS =        23.35081122
  atomic energy  EATOM  =       206.13192747
  Solvation  Ediel_sol  =         0.00000000
  ---------------------------------------------------
  free energy    TOTEN  =        -9.64660573 eV

  energy without entropy =       -9.64047534  energy(sigma->0) =       -9.64354054


--------------------------------------------------------------------------------------------------------




----------------------------------------- Iteration    1(   4)  ---------------------------------------


     EDDAV:  cpu time    2.7556: real time    1.6976
       DOS:  cpu time    0.0020: real time    0.0012
    --------------------------------------------
      LOOP:  cpu time    2.7616: real time    1.7017

 eigenvalue-minimisations  :   856
 total energy-change (2. order) :-0.4216489E-03  (-0.4216127E-03)
 number of electron       8.0000000 magnetization 
 augmentation part        8.0000000 magnetization 

 Free energy of the ion-electron system (eV)
  ---------------------------------------------------
  alpha Z        PSCENC =         3.90396886
  Ewald energy   TEWEN  =      -257.55644282
  -Hartree energ DENC   =        -2.16568247
  -exchange      EXHF   =         0.00000000
  -V(xc)+E(xc)   XCENC  =       -18.49162126
  PAW double counting   =       176.24759923     -141.06103558
  entropy T*S    EENTRO =        -0.00612828
  eigenvalues    EBANDS =        23.35038747
  atomic energy  EATOM  =       206.13192747
  Solvation  Ediel_sol  =         0.00000000
  ---------------------------------------------------
  free energy    TOTEN  =        -9.64702738 eV

  energy without entropy =       -9.64089910  energy(sigma->0) =       -9.64396324


--------------------------------------------------------------------------------------------------------




----------------------------------------- Iteration    1(   5)  ---------------------------------------


     EDDAV:  cpu time    2.7176: real time    1.6056
       DOS:  cpu time    0.0090: real time    0.0054
    CHARGE:  cpu time    0.0390: real time    0.0198
    MIXING:  cpu time    0.0070: real time    0.0040
    --------------------------------------------
      LOOP:  cpu time    2.7766: real time    1.6373

 eigenvalue-minimisations  :   752
 total energy-change (2. order) :-0.3568892E-06  (-0.3565880E-06)
 number of electron       8.0000000 magnetization 
 augmentation part       -0.4942753 magnetization 

 Broyden mixing:
  rms(total) = 0.26634E+00    rms(broyden)= 0.26634E+00
  rms(prec ) = 0.32555E+00
  weight for this iteration     100.00

 Free energy of the ion-electron system (eV)
  ---------------------------------------------------
  alpha Z        PSCENC =         3.90396886
  Ewald energy   TEWEN  =      -257.55644282
  -Hartree energ DENC   =        -2.16568247
  -exchange      EXHF   =         0.00000000
  -V(xc)+E(xc)   XCENC  =       -18.49162126
  PAW double counting   =       176.24759923     -141.06103558
  entropy T*S    EENTRO =        -0.00612829
  eigenvalues    EBANDS =        23.35038711
  atomic energy  EATOM  =       206.13192747
  Solvation  Ediel_sol  =         0.00000000
  ---------------------------------------------------
  free energy    TOTEN  =        -9.64702774 eV

  energy without entropy =       -9.64089945  energy(sigma->0) =       -9.64396360


--------------------------------------------------------------------------------------------------------




----------------------------------------- Iteration    1(   6)  ---------------------------------------


    POTLOK:  cpu time    0.0610: real time    0.0408
    SETDIJ:  cpu time    0.0080: real time    0.0056
     EDDAV:  cpu time    1.6867: real time    0.9811
       DOS:  cpu time    0.0070: real time    0.0052
    CHARGE:  cpu time    0.0390: real time    0.0192
    MIXING:  cpu time    0.0020: real time    0.0018
    --------------------------------------------
      LOOP:  cpu time    1.8087: real time    1.0563

 eigenvalue-minimisations  :   632
 total energy-change (2. order) : 0.2117886E-01  (-0.9206661E-03)
 number of electron       8.0000000 magnetization 
 augmentation part       -0.4988974 magnetization 

 Broyden mixing:
  rms(total) = 0.14512E+00    rms(broyden)= 0.14512E+00
  rms(prec ) = 0.18247E+00
  weight for this iteration     100.00

 eigenvalues of (default mixing * dielectric matrix)
  average eigenvalue GAMMA=   2.1795
  2.1795

 Free energy of the ion-electron system (eV)
  ---------------------------------------------------
  alpha Z        PSCENC =         3.90396886
  Ewald energy   TEWEN  =      -257.55644282
  -Hartree energ DENC   =        -1.91828197
  -exchange      EXHF   =         0.00000000
  -V(xc)+E(xc)   XCENC  =       -18.48818407
  PAW double counting   =       275.56886449     -240.35935521
  entropy T*S    EENTRO =        -0.00613484
  eigenvalues    EBANDS =        23.09778920
  atomic energy  EATOM  =       206.13192747
  Solvation  Ediel_sol  =         0.00000000
  ---------------------------------------------------
  free energy    TOTEN  =        -9.62584888 eV

  energy without entropy =       -9.61971405  energy(sigma->0) =       -9.62278147


--------------------------------------------------------------------------------------------------------




----------------------------------------- Iteration    1(   7)  ---------------------------------------


    POTLOK:  cpu time    0.0680: real time    0.0387
    SETDIJ:  cpu time    0.0030: real time    0.0018
     EDDAV:  cpu time    2.2517: real time    1.3676
       DOS:  cpu time    0.0030: real time    0.0012
    CHARGE:  cpu time    0.0440: real time    0.0291
    MIXING:  cpu time    0.0050: real time    0.0019
    --------------------------------------------
      LOOP:  cpu time    2.3976: real time    1.4550

 eigenvalue-minimisations  :   720
 total energy-change (2. order) : 0.1126205E-01  (-0.1655851E-02)
 number of electron       8.0000000 magnetization 
 augmentation part       -0.5052521 magnetization 

 Broyden mixing:
  rms(total) = 0.13429E-01    rms(broyden)= 0.13428E-01
  rms(prec ) = 0.16276E-01
  weight for this iteration     100.00

 eigenvalues of (default mixing * dielectric matrix)
  average eigenvalue GAMMA=   2.4311
  2.4311  2.4311

 Free energy of the ion-electron system (eV)
  ---------------------------------------------------
  alpha Z        PSCENC =         3.90396886
  Ewald energy   TEWEN  =      -257.55644282
  -Hartree energ DENC   =        -1.63100633
  -exchange      EXHF   =         0.00000000
  -V(xc)+E(xc)   XCENC  =       -18.47677840
  PAW double counting   =       434.36518304     -399.13347403
  entropy T*S    EENTRO =        -0.00611888
  eigenvalues    EBANDS =        22.78815425
  atomic energy  EATOM  =       206.13192747
  Solvation  Ediel_sol  =         0.00000000
  ---------------------------------------------------
  free energy    TOTEN  =        -9.61458683 eV

  energy without entropy =       -9.60846795  energy(sigma->0) =       -9.61152739


--------------------------------------------------------------------------------------------------------




----------------------------------------- Iteration    1(   8)  ---------------------------------------


    POTLOK:  cpu time    0.0930: real time    0.0568
    SETDIJ:  cpu time    0.0110: real time    0.0063
     EDDAV:  cpu time    2.6576: real time    1.5971
       DOS:  cpu time    0.0040: real time    0.0051
    CHARGE:  cpu time    0.0230: real time    0.0131
    MIXING:  cpu time    0.0020: real time    0.0018
    --------------------------------------------
      LOOP:  cpu time    2.7946: real time    1.6827

 eigenvalue-minimisations  :   808
 total energy-change (2. order) : 0.5194534E-04  (-0.1301438E-04)
 number of electron       8.0000000 magnetization 
 augmentation part       -0.5056523 magnetization 

 Broyden mixing:
  rms(total) = 0.15974E-02    rms(broyden)= 0.15973E-02
  rms(prec ) = 0.19801E-02
  weight for this iteration     100.00

 eigenvalues of (default mixing * dielectric matrix)
  average eigenvalue GAMMA=   2.0147
  0.9342  2.7497  2.3601

 Free energy of the ion-electron system (eV)
  ---------------------------------------------------
  alpha Z        PSCENC =         3.90396886
  Ewald energy   TEWEN  =      -257.55644282
  -Hartree energ DENC   =        -1.61829902
  -exchange      EXHF   =         0.00000000
  -V(xc)+E(xc)   XCENC  =       -18.47304660
  PAW double counting   =       417.59568188     -382.37563094
  entropy T*S    EENTRO =        -0.00611538
  eigenvalues    EBANDS =        22.78342165
  atomic energy  EATOM  =       206.13192747
  Solvation  Ediel_sol  =         0.00000000
  ---------------------------------------------------
  free energy    TOTEN  =        -9.61453489 eV

  energy without entropy =       -9.60841951  energy(sigma->0) =       -9.61147720


--------------------------------------------------------------------------------------------------------




----------------------------------------- Iteration    1(   9)  ---------------------------------------


    POTLOK:  cpu time    0.0450: real time    0.0305
    SETDIJ:  cpu time    0.0020: real time    0.0027
     EDDAV:  cpu time    1.7817: real time    1.1155
       DOS:  cpu time    0.0030: real time    0.0012
    --------------------------------------------
      LOOP:  cpu time    1.8447: real time    1.1577

 eigenvalue-minimisations  :   504
 total energy-change (2. order) :-0.1046849E-05  (-0.1701500E-06)
 number of electron       8.0000000 magnetization 
 augmentation part       -0.5056523 magnetization 

 Free energy of the ion-electron system (eV)
  ---------------------------------------------------
  alpha Z        PSCENC =         3.90396886
  Ewald energy   TEWEN  =      -257.55644282
  -Hartree energ DENC   =        -1.61636988
  -exchange      EXHF   =         0.00000000
  -V(xc)+E(xc)   XCENC  =       -18.47268476
  PAW double counting   =       415.50611187     -380.28701216
  entropy T*S    EENTRO =        -0.00611503
  eigenvalues    EBANDS =        22.78208049
  atomic energy  EATOM  =       206.13192747
  Solvation  Ediel_sol  =         0.00000000
  ---------------------------------------------------
  free energy    TOTEN  =        -9.61453594 eV

  energy without entropy =       -9.60842091  energy(sigma->0) =       -9.61147842


--------------------------------------------------------------------------------------------------------




 average (electrostatic) potential at core
  the test charge radii are     0.9892
  (the norm of the test charge is              1.0000)
       1 -82.1561       2 -82.1561
 
 
 
 E-fermi :   7.9061     XC(G=0): -10.4981     alpha+bet :-13.9076


 k-point     1 :       0.0833    0.0833    0.0833
  band No.  band energies     occupation 
      1      -4.4054      2.00000
      2       0.7530      2.00000
      3       3.1979      2.00000
      4      11.5387      0.00000
      5      12.2827      0.00000
      6      15.5986      0.00000
      7      16.1297      0.00000
      8      16.1742      0.00000

 k-point     2 :       0.2500    0.0833    0.0833
  band No.  band energies     occupation 
      1      -2.8307      2.00000
      2       2.2867      2.00000
      3       4.6779      2.00000
      4       6.4851      2.00000
      5       9.9993      0.00000
      6      11.2871      0.00000
      7      13.3335      0.00000
      8      14.5230      0.00000

 k-point     3 :       0.4167    0.0833    0.0833
  band No.  band energies     occupation 
      1      -0.1059      2.00000
      2       1.9675      2.00000
      3       5.0296      2.00000
      4       6.7791      2.00000
      5       7.3760      2.00000
      6       9.1827      0.00000
      7       9.4962      0.00000
      8      13.6940      0.00000

 k-point     4 :      -0.4167    0.0833    0.0833
  band No.  band energies     occupation 
      1      -1.5889      2.00000
      2       3.3902      2.00000
      3       4.1880      2.00000
      4       5.8671      2.00000
      5       8.9012      0.00000
      6       9.5549      0.00000
      7      11.3015      0.00000
      8      13.9686      0.00000

 k-point     5 :      -0.2500    0.0833    0.0833
  band No.  band energies     occupation 
      1      -3.7732      2.00000
      2       1.3711      2.00000
      3       3.7965      2.00000
      4       9.0550      0.00000
      5      10.9142      0.00000
      6      13.6193      0.00000
      7      15.0196      0.00000
      8      15.4229      0.00000

 k-point     6 :      -0.0833    0.0833    0.0833
  band No.  band energies     occupation 
      1      -4.7225      2.00000
      2       0.4423      2.00000
      3       2.8968      2.00000
      4      13.1116      0.00000
      5      14.0523      0.00000
      6      15.8293      0.00000
      7      16.5037      0.00000
      8      16.8945      0.00000

 k-point     7 :       0.2500    0.2500    0.0833
  band No.  band energies     occupation 
      1      -0.6647      2.00000
      2       4.0804      2.00000
      3       4.8438      2.00000
      4       5.5477      2.00000
      5       6.7366      2.00000
      6       9.5191      0.00000
      7      10.1900      0.00000
      8      11.4742      0.00000

 k-point     8 :       0.4167    0.2500    0.0833
  band No.  band energies     occupation 
      1       0.8081      2.00000
      2       2.7500      2.00000
      3       4.8610      2.00000
      4       5.9799      2.00000
      5       7.6590      1.99952
      6       8.2024      0.00003
      7       9.4355      0.00000
      8      10.2815      0.00000

 k-point     9 :      -0.4167    0.2500    0.0833
  band No.  band energies     occupation 
      1      -1.8955      2.00000
      2       3.1794      2.00000
      3       5.3712      2.00000
      4       5.7359      2.00000
      5       7.5369      2.00000
      6      10.3938      0.00000
      7      11.9822      0.00000
      8      12.6893      0.00000

 k-point    10 :      -0.2500    0.2500    0.0833
  band No.  band energies     occupation 
      1      -3.4583      2.00000
      2       1.6779      2.00000
      3       4.0929      2.00000
      4       7.6642      1.99937
      5      11.9948      0.00000
      6      12.2519      0.00000
      7      14.1380      0.00000
      8      14.9709      0.00000

 k-point    11 :       0.4167    0.4167    0.0833
  band No.  band energies     occupation 
      1       0.7707      2.00000
      2       1.6928      2.00000
      3       5.8867      2.00000
      4       6.5626      2.00000
      5       6.9291      2.00000
      6       8.0734      0.01796
      7       9.2071      0.00000
      8      11.7055      0.00000

 k-point    12 :      -0.4167    0.4167    0.0833
  band No.  band energies     occupation 
      1      -0.9826      2.00000
      2       2.7990      2.00000
      3       4.1950      2.00000
      4       6.3900      2.00000
      5       7.8594      1.49108
      6      10.2413      0.00000
      7      10.8917      0.00000
      8      13.3734      0.00000

 k-point    13 :       0.0833    0.0833    0.2500
  band No.  band energies     occupation 
      1      -4.0487      2.00000
      2      -0.8877      2.00000
      3       5.4771      2.00000
      4      11.8519      0.00000
      5      12.5297      0.00000
      6      13.9628      0.00000
      7      14.6999      0.00000
      8      15.2535      0.00000

 k-point    14 :       0.2500    0.0833    0.2500
  band No.  band energies     occupation 
      1      -2.4766      2.00000
      2       0.6594      2.00000
      3       6.6427      2.00000
      4       7.0835      2.00000
      5       9.7158      0.00000
      6      10.4292      0.00000
      7      13.1278      0.00000
      8      14.4955      0.00000

 k-point    15 :       0.4167    0.0833    0.2500
  band No.  band energies     occupation 
      1       0.2419      2.00000
      2       2.2702      2.00000
      3       3.4374      2.00000
      4       5.3817      2.00000
      5       9.2711      0.00000
      6       9.7245      0.00000
      7      11.3396      0.00000
      8      12.6205      0.00000

 k-point    16 :      -0.4167    0.0833    0.2500
  band No.  band energies     occupation 
      1      -1.2372      2.00000
      2       1.8663      2.00000
      3       4.4257      2.00000
      4       7.2938      2.00000
      5       8.2502      0.00000
      6       9.8102      0.00000
      7      12.4338      0.00000
      8      13.4507      0.00000

 k-point    17 :      -0.2500    0.0833    0.2500
  band No.  band energies     occupation 
      1      -3.4175      2.00000
      2      -0.2658      2.00000
      3       6.0596      2.00000
      4       9.3814      0.00000
      5      11.1951      0.00000
      6      12.2535      0.00000
      7      13.9695      0.00000
      8      14.5579      0.00000

 k-point    18 :      -0.0833    0.0833    0.2500
  band No.  band energies     occupation 
      1      -4.3653      2.00000
      2      -1.1999      2.00000
      3       5.1817      2.00000
      4      13.3576      0.00000
      5      13.8347      0.00000
      6      14.3401      0.00000
      7      15.6068      0.00000
      8      16.4563      0.00000

 k-point    19 :       0.2500    0.2500    0.2500
  band No.  band energies     occupation 
      1      -0.3151      2.00000
      2       2.7547      2.00000
      3       4.8856      2.00000
      4       5.8741      2.00000
      5       7.9037      1.02707
      6       8.3990      0.00000
      7       9.4963      0.00000
      8      13.4408      0.00000

 k-point    20 :       0.4167    0.2500    0.2500
  band No.  band energies     occupation 
      1       1.1529      2.00000
      2       3.0469      2.00000
      3       4.3259      2.00000
      4       5.2537      2.00000
      5       6.2152      2.00000
      6       8.1226      0.00220
      7      10.4442      0.00000
      8      12.2312      0.00000

 k-point    21 :      -0.4167    0.2500    0.2500
  band No.  band energies     occupation 
      1      -1.5432      2.00000
      2       1.5733      2.00000
      3       5.8219      2.00000
      4       7.7038      1.99576
      5       7.8896      1.18368
      6       8.9482      0.00000
      7      10.8514      0.00000
      8      14.2176      0.00000

 k-point    22 :      -0.2500    0.2500    0.2500
  band No.  band energies     occupation 
      1      -3.1031      2.00000
      2       0.0436      2.00000
      3       6.3380      2.00000
      4       8.0054      0.16000
      5      10.8940      0.00000
      6      12.3020      0.00000
      7      13.9931      0.00000
      8      14.8959      0.00000

 k-point    23 :       0.4167    0.4167    0.2500
  band No.  band energies     occupation 
      1       1.1159      2.00000
      2       2.0220      2.00000
      3       4.2769      2.00000
      4       5.0988      2.00000
      5       7.2253      2.00000
      6       9.9133      0.00000
      7      10.3001      0.00000
      8      11.6981      0.00000

 k-point    24 :      -0.4167    0.4167    0.2500
  band No.  band energies     occupation 
      1      -0.6324      2.00000
      2       2.4019      2.00000
      3       3.3047      2.00000
      4       6.2190      2.00000
      5       8.7376      0.00000
      6      11.2030      0.00000
      7      12.1334      0.00000
      8      13.7623      0.00000

 k-point    25 :       0.0833    0.0833    0.4167
  band No.  band energies     occupation 
      1      -3.3379      2.00000
      2      -2.2792      2.00000
      3       8.1248      0.00198
      4      10.9773      0.00000
      5      12.4625      0.00000
      6      13.1002      0.00000
      7      13.6552      0.00000
      8      14.2183      0.00000

 k-point    26 :       0.2500    0.0833    0.4167
  band No.  band energies     occupation 
      1      -1.7712      2.00000
      2      -0.7207      2.00000
      3       7.4255      2.00000
      4       8.3582      0.00000
      5       9.6371      0.00000
      6      10.9518      0.00000
      7      11.9814      0.00000
      8      12.6216      0.00000

 k-point    27 :       0.4167    0.0833    0.4167
  band No.  band energies     occupation 
      1       0.9317      2.00000
      2       1.9275      2.00000
      3       3.0973      2.00000
      4       4.0693      2.00000
      5      10.0828      0.00000
      6      10.9523      0.00000
      7      12.0795      0.00000
      8      13.4886      0.00000

 k-point    28 :      -0.4167    0.0833    0.4167
  band No.  band energies     occupation 
      1      -0.5370      2.00000
      2       0.5045      2.00000
      3       5.0912      2.00000
      4       6.0859      2.00000
      5      10.2781      0.00000
      6      10.6913      0.00000
      7      11.5449      0.00000
      8      13.3294      0.00000

 k-point    29 :      -0.2500    0.0833    0.4167
  band No.  band energies     occupation 
      1      -2.7088      2.00000
      2      -1.6532      2.00000
      3       8.6466      0.00000
      4      10.0120      0.00000
      5      10.9292      0.00000
      6      11.3756      0.00000
      7      12.3096      0.00000
      8      12.9385      0.00000

 k-point    30 :      -0.0833    0.0833    0.4167
  band No.  band energies     occupation 
      1      -3.6535      2.00000
      2      -2.5933      2.00000
      3       7.8446      1.61545
      4      10.7533      0.00000
      5      14.0124      0.00000
      6      14.8148      0.00000
      7      14.8979      0.00000
      8      15.6661      0.00000

 k-point    31 :       0.2500    0.2500    0.4167
  band No.  band energies     occupation 
      1       0.3807      2.00000
      2       1.4138      2.00000
      3       5.5351      2.00000
      4       6.3806      2.00000
      5       6.7230      2.00000
      6       7.5135      2.00000
      7      11.6663      0.00000
      8      13.9444      0.00000

 k-point    32 :       0.4167    0.2500    0.4167
  band No.  band energies     occupation 
      1       1.8349      2.00000
      2       2.8020      2.00000
      3       3.9155      2.00000
      4       4.8576      2.00000
      5       5.9367      2.00000
      6       6.9005      2.00000
      7      12.8023      0.00000
      8      14.0234      0.00000

 k-point    33 :      -0.4167    0.2500    0.4167
  band No.  band energies     occupation 
      1      -0.8414      2.00000
      2       0.2031      2.00000
      3       6.4938      2.00000
      4       7.4638      2.00000
      5       8.5234      0.00000
      6       9.3433      0.00000
      7      10.7451      0.00000
      8      13.2469      0.00000

 k-point    34 :      -0.2500    0.2500    0.4167
  band No.  band energies     occupation 
      1      -2.3955      2.00000
      2      -1.3415      2.00000
      3       8.5112      0.00000
      4       8.9668      0.00000
      5       9.7638      0.00000
      6      11.8574      0.00000
      7      12.9094      0.00000
      8      13.7962      0.00000

 k-point    35 :       0.4167    0.4167    0.4167
  band No.  band energies     occupation 
      1       1.7937      2.00000
      2       2.5173      2.00000
      3       3.1002      2.00000
      4       3.8002      2.00000
      5       7.8764      1.32468
      6       8.8287      0.00000
      7      12.6749      0.00000
      8      13.6060      0.00000

 k-point    36 :      -0.4167    0.4167    0.4167
  band No.  band energies     occupation 
      1       0.0645      2.00000
      2       1.0972      2.00000
      3       3.9204      2.00000
      4       4.9207      2.00000
      5      11.1761      0.00000
      6      11.8201      0.00000
      7      12.7261      0.00000
      8      13.0209      0.00000


--------------------------------------------------------------------------------------------------------


 soft charge-density along one line, spin component           1
         0         1         2         3         4         5         6         7         8         9
 total charge-density along one line
 
 pseudopotential strength for first ion, spin component:           1
 18.221  25.421   0.000   0.000  -0.000   0.000   0.000  -0.000
 25.421  35.471   0.000   0.000  -0.000   0.000   0.000  -0.000
  0.000   0.000   4.131  -0.000   0.000   7.697  -0.000   0.000
  0.000   0.000  -0.000   4.131   0.000  -0.000   7.697   0.000
 -0.000  -0.000   0.000   0.000   4.131   0.000   0.000   7.697
  0.000   0.000   7.697  -0.000   0.000  14.353  -0.000   0.000
  0.000   0.000  -0.000   7.697   0.000  -0.000  14.353   0.000
 -0.000  -0.000   0.000   0.000   7.697   0.000   0.000  14.353
 total augmentation occupancy for first ion, spin component:           1
  3.712  -1.343   0.000   0.000   0.000   0.000   0.000   0.000
 -1.343   0.954   0.000   0.000   0.000   0.000   0.000   0.000
  0.000   0.000   1.801   0.000   0.000  -0.378   0.000   0.000
  0.000   0.000   0.000   1.785   0.000   0.000  -0.378   0.000
  0.000   0.000   0.000   0.000   1.801   0.000   0.000  -0.378
 -0.000  -0.000  -0.378  -0.000   0.000   0.090   0.000   0.000
  0.000   0.000   0.000  -0.378  -0.000   0.000   0.090   0.000
  0.000   0.000   0.000  -0.000  -0.378   0.000   0.000   0.090


------------------------ aborting loop because EDIFF is reached ----------------------------------------


    CHARGE:  cpu time    0.0400: real time    0.0228
    FORLOC:  cpu time    0.0020: real time    0.0008
    FORNL :  cpu time    0.0590: real time    0.0375
    STRESS:  cpu time    0.3849: real time    0.2282
    FORCOR:  cpu time    0.0310: real time    0.0230
    FORHAR:  cpu time    0.0050: real time    0.0052
    MIXING:  cpu time    0.0010: real time    0.0008
    OFIELD:  cpu time    0.0000: real time    0.0000

  FORCE on cell =-STRESS in cart. coord.  units (eV):
  Direction    XX          YY          ZZ          XY          YZ          ZX
  --------------------------------------------------------------------------------------
  Alpha Z     3.90397     3.90397     3.90397
  Ewald     -85.91096   -85.91096   -85.73470    -0.00000    -0.00000    -0.00000
  Hartree     0.53093     0.53093     0.55430    -0.00000    -0.00000    -0.00000
  E(xc)     -24.36182   -24.36182   -24.37326     0.00000     0.00000     0.00000
  Local     -13.11397   -13.11398   -13.18461    -0.00001    -0.00000     0.00000
  n-local    76.27558    77.14962    76.92496    -0.31089    -0.04625    -0.14235
  augment   -12.92894   -12.92893   -12.88792     0.00001    -0.00000     0.00000
  Kinetic    65.99070    40.03155    52.12089     8.42336    -0.12955    -0.39437
  Fock        0.00000     0.00000     0.00000     0.00000     0.00000     0.00000
  -------------------------------------------------------------------------------------
  Total      -2.15707    -2.15707    -2.67638     0.00000     0.00000     0.00000
  in kB    -100.19974  -100.19974  -124.32280     0.00000     0.00000     0.00000
  external pressure =     -108.24 kB  Pullay stress =        0.00 kB


 VOLUME and BASIS-vectors are now :
 -----------------------------------------------------------------------------
  energy-cutoff  :      450.00
  volume of cell :       34.49
      direct lattice vectors                 reciprocal lattice vectors
     2.900000000  0.000000000  0.000000000     0.344827586  0.199086300  0.000000000
    -1.450000000  2.511473671  0.000000000     0.000000000  0.398172599  0.000000000
     0.000000000  0.000000000  4.735671000     0.000000000  0.000000000  0.211163318

  length of vectors
     2.900000000  2.900000000  4.735671000     0.398172599  0.398172599  0.211163318


 FORCES acting on ions
    electron-ion (+dipol)            ewald-force                    non-local-force                 convergence-correction
 -----------------------------------------------------------------------------------------------
   0.188E-08 -.109E-08 0.471E-14   -.810E-13 0.620E-13 -.333E-14   0.208E-16 0.347E-17 0.000E+00   -.236E-08 0.136E-08 0.835E-15
   0.356E-07 -.205E-07 -.737E-14   0.816E-13 -.621E-13 0.333E-14   -.572E-16 -.173E-17 0.000E+00   0.236E-08 -.136E-08 -.900E-15
 -----------------------------------------------------------------------------------------------
   0.374E-07 -.216E-07 -.266E-14   0.542E-15 -.924E-16 0.000E+00   -.364E-16 0.173E-17 0.000E+00   -.176E-11 0.101E-11 -.650E-16
 
 
 POSITION                                       TOTAL-FORCE (eV/Angst)
 -----------------------------------------------------------------------------------
      0.00000      0.00000      0.00000         0.000000      0.000000      0.000000
     -0.00000      1.67432      2.36784        -0.000000      0.000000      0.000000
 -----------------------------------------------------------------------------------
    total drift:                                0.000000     -0.000000     -0.000000


--------------------------------------------------------------------------------------------------------



  FREE ENERGIE OF THE ION-ELECTRON SYSTEM (eV)
  ---------------------------------------------------
  free  energy   TOTEN  =        -9.61453594 eV

  energy  without entropy=       -9.60842091  energy(sigma->0) =       -9.61147842
 


--------------------------------------------------------------------------------------------------------


    POTLOK:  cpu time    0.0220: real time    0.0219


--------------------------------------------------------------------------------------------------------




--------------------------------------------------------------------------------------------------------


    WAVPRE:  cpu time    0.0020: real time    0.0033
 FEWALD executed in parallel
    FEWALD:  cpu time    0.0010: real time    0.0002
    GENKIN:  cpu time    0.0110: real time    0.0119
    ORTHCH:  cpu time    0.1750: real time    0.1151
     LOOP+:  cpu time   21.2688: real time   13.2106


----------------------------------------- Iteration    2(   1)  ---------------------------------------


    POTLOK:  cpu time    0.0550: real time    0.0313
    SETDIJ:  cpu time    0.0020: real time    0.0025
     EDDAV:  cpu time    1.8967: real time    1.1704
       DOS:  cpu time    0.0020: real time    0.0011
    CHARGE:  cpu time    0.0550: real time    0.0320
    MIXING:  cpu time    0.0040: real time    0.0024
    --------------------------------------------
      LOOP:  cpu time    2.0167: real time    1.2411

 eigenvalue-minimisations  :   736
 total energy-change (2. order) :-0.7756427E-02  (-0.9400386E-02)
 number of electron       8.0000000 magnetization 
 augmentation part       -0.5055430 magnetization 

 Broyden mixing:
  rms(total) = 0.15890E-01    rms(broyden)= 0.15890E-01
  rms(prec ) = 0.37619E-01
  weight for this iteration     100.00

 Free energy of the ion-electron system (eV)
  ---------------------------------------------------
  alpha Z        PSCENC =         3.90396886
  Ewald energy   TEWEN  =      -257.54935958
  -Hartree energ DENC   =        -1.61634191
  -exchange      EXHF   =         0.00000000
  -V(xc)+E(xc)   XCENC  =       -18.47299782
  PAW double counting   =       415.98356202     -380.76361204
  entropy T*S    EENTRO =        -0.00563874
  eigenvalues    EBANDS =        22.76620041
  atomic energy  EATOM  =       206.13192747
  Solvation  Ediel_sol  =         0.00000000
  ---------------------------------------------------
  free energy    TOTEN  =        -9.62229132 eV

  energy without entropy =       -9.61665258  energy(sigma->0) =       -9.61947195


--------------------------------------------------------------------------------------------------------




----------------------------------------- Iteration    2(   2)  ---------------------------------------


    POTLOK:  cpu time    0.0480: real time    0.0310
    SETDIJ:  cpu time    0.0050: real time    0.0018
     EDDAV:  cpu time    2.2457: real time    1.3709
       DOS:  cpu time    0.0080: real time    0.0051
    CHARGE:  cpu time    0.0300: real time    0.0179
    MIXING:  cpu time    0.0050: real time    0.0037
    --------------------------------------------
      LOOP:  cpu time    2.3446: real time    1.4333

 eigenvalue-minimisations  :   648
 total energy-change (2. order) : 0.5699764E-03  (-0.1629610E-03)
 number of electron       8.0000000 magnetization 
 augmentation part       -0.5057190 magnetization 

 Broyden mixing:
  rms(total) = 0.91630E-02    rms(broyden)= 0.91630E-02
  rms(prec ) = 0.21883E-01
  weight for this iteration     100.00

 eigenvalues of (default mixing * dielectric matrix)
  average eigenvalue GAMMA=   2.1806
  2.1806

 Free energy of the ion-electron system (eV)
  ---------------------------------------------------
  alpha Z        PSCENC =         3.90396886
  Ewald energy   TEWEN  =      -257.54935958
  -Hartree energ DENC   =        -1.61660915
  -exchange      EXHF   =         0.00000000
  -V(xc)+E(xc)   XCENC  =       -18.47299540
  PAW double counting   =       415.88054892     -380.66042029
  entropy T*S    EENTRO =        -0.00563215
  eigenvalues    EBANDS =        22.76684998
  atomic energy  EATOM  =       206.13192747
  Solvation  Ediel_sol  =         0.00000000
  ---------------------------------------------------
  free energy    TOTEN  =        -9.62172134 eV

  energy without entropy =       -9.61608919  energy(sigma->0) =       -9.61890526


--------------------------------------------------------------------------------------------------------




----------------------------------------- Iteration    2(   3)  ---------------------------------------


    POTLOK:  cpu time    0.0690: real time    0.0388
    SETDIJ:  cpu time    0.0110: real time    0.0052
     EDDAV:  cpu time    1.8497: real time    1.1736
       DOS:  cpu time    0.0030: real time    0.0010
    CHARGE:  cpu time    0.0410: real time    0.0249
    MIXING:  cpu time    0.0040: real time    0.0027
    --------------------------------------------
      LOOP:  cpu time    1.9827: real time    1.2484

 eigenvalue-minimisations  :   720
 total energy-change (2. order) : 0.3347219E-03  (-0.8749244E-04)
 number of electron       8.0000000 magnetization 
 augmentation part       -0.5057531 magnetization 

 Broyden mixing:
  rms(total) = 0.98965E-03    rms(broyden)= 0.98962E-03
  rms(prec ) = 0.16993E-02
  weight for this iteration     100.00

 eigenvalues of (default mixing * dielectric matrix)
  average eigenvalue GAMMA=   1.6208
  0.9911  2.2505

 Free energy of the ion-electron system (eV)
  ---------------------------------------------------
  alpha Z        PSCENC =         3.90396886
  Ewald energy   TEWEN  =      -257.54935958
  -Hartree energ DENC   =        -1.61862681
  -exchange      EXHF   =         0.00000000
  -V(xc)+E(xc)   XCENC  =       -18.47293333
  PAW double counting   =       415.60079574     -380.38076594
  entropy T*S    EENTRO =        -0.00562090
  eigenvalues    EBANDS =        22.76922785
  atomic energy  EATOM  =       206.13192747
  Solvation  Ediel_sol  =         0.00000000
  ---------------------------------------------------
  free energy    TOTEN  =        -9.62138662 eV

  energy without entropy =       -9.61576572  energy(sigma->0) =       -9.61857617


--------------------------------------------------------------------------------------------------------




----------------------------------------- Iteration    2(   4)  ---------------------------------------


    POTLOK:  cpu time    0.0640: real time    0.0403
    SETDIJ:  cpu time    0.0040: real time    0.0018
     EDDAV:  cpu time    2.3186: real time    1.4349
       DOS:  cpu time    0.0010: real time    0.0010
    --------------------------------------------
      LOOP:  cpu time    2.3916: real time    1.4808

 eigenvalue-minimisations  :   624
 total energy-change (2. order) :-0.2678839E-05  (-0.3534231E-05)
 number of electron       8.0000000 magnetization 
 augmentation part       -0.5057531 magnetization 

 Free energy of the ion-electron system (eV)
  ---------------------------------------------------
  alpha Z        PSCENC =         3.90396886
  Ewald energy   TEWEN  =      -257.54935958
  -Hartree energ DENC   =        -1.61842573
  -exchange      EXHF   =         0.00000000
  -V(xc)+E(xc)   XCENC  =       -18.47296708
  PAW double counting   =       415.59850233     -380.37847804
  entropy T*S    EENTRO =        -0.00562128
  eigenvalues    EBANDS =        22.76906375
  atomic energy  EATOM  =       206.13192747
  Solvation  Ediel_sol  =         0.00000000
  ---------------------------------------------------
  free energy    TOTEN  =        -9.62138930 eV

  energy without entropy =       -9.61576802  energy(sigma->0) =       -9.61857866


--------------------------------------------------------------------------------------------------------




 average (electrostatic) potential at core
  the test charge radii are     0.9892
  (the norm of the test charge is              1.0000)
       1 -82.1577       2 -82.1577
 
 
 
 E-fermi :   7.9260     XC(G=0): -10.4982     alpha+bet :-13.9076


 k-point     1 :       0.0833    0.0833    0.0833
  band No.  band energies     occupation 
      1      -4.4097      2.00000
      2       0.8638      2.00000
      3       3.2811      2.00000
      4      11.3917      0.00000
      5      12.1555      0.00000
      6      15.5403      0.00000
      7      16.0785      0.00000
      8      16.2621      0.00000

 k-point     2 :       0.2500    0.0833    0.0833
  band No.  band energies     occupation 
      1      -2.8493      2.00000
      2       2.3805      2.00000
      3       4.7431      2.00000
      4       6.3974      2.00000
      5       9.8885      0.00000
      6      11.3013      0.00000
      7      13.3252      0.00000
      8      14.5276      0.00000

 k-point     3 :       0.4167    0.0833    0.0833
  band No.  band energies     occupation 
      1      -0.1544      2.00000
      2       1.9169      2.00000
      3       5.0916      2.00000
      4       6.8370      2.00000
      5       7.4278      2.00000
      6       9.0862      0.00000
      7       9.5173      0.00000
      8      13.7057      0.00000

 k-point     4 :      -0.4167    0.0833    0.0833
  band No.  band energies     occupation 
      1      -1.6195      2.00000
      2       3.4350      2.00000
      3       4.1522      2.00000
      4       5.9268      2.00000
      5       8.9144      0.00000
      6       9.4744      0.00000
      7      11.3102      0.00000
      8      13.9780      0.00000

 k-point     5 :      -0.2500    0.0833    0.0833
  band No.  band energies     occupation 
      1      -3.7832      2.00000
      2       1.4755      2.00000
      3       3.8737      2.00000
      4       8.9374      0.00000
      5      10.7949      0.00000
      6      13.6061      0.00000
      7      15.0108      0.00000
      8      15.4281      0.00000

 k-point     6 :      -0.0833    0.0833    0.0833
  band No.  band energies     occupation 
      1      -4.7240      2.00000
      2       0.5563      2.00000
      3       2.9830      2.00000
      4      12.9565      0.00000
      5      13.8886      0.00000
      6      15.7338      0.00000
      7      16.6756      0.00000
      8      16.7769      0.00000

 k-point     7 :       0.2500    0.2500    0.0833
  band No.  band energies     occupation 
      1      -0.7043      2.00000
      2       4.0561      2.00000
      3       4.8461      2.00000
      4       5.4895      2.00000
      5       6.7899      2.00000
      6       9.5254      0.00000
      7      10.2564      0.00000
      8      11.4926      0.00000

 k-point     8 :       0.4167    0.2500    0.0833
  band No.  band energies     occupation 
      1       0.7509      2.00000
      2       2.6814      2.00000
      3       4.8034      2.00000
      4       6.0312      2.00000
      5       7.7043      1.99828
      6       8.2443      0.00001
      7       9.4725      0.00000
      8      10.3275      0.00000

 k-point     9 :      -0.4167    0.2500    0.0833
  band No.  band energies     occupation 
      1      -1.9229      2.00000
      2       3.2594      2.00000
      3       5.3248      2.00000
      4       5.7586      2.00000
      5       7.4513      2.00000
      6      10.4147      0.00000
      7      11.9964      0.00000
      8      12.7116      0.00000

 k-point    10 :      -0.2500    0.2500    0.0833
  band No.  band energies     occupation 
      1      -3.4711      2.00000
      2       1.7789      2.00000
      3       4.1667      2.00000
      4       7.5634      2.00000
      5      11.8536      0.00000
      6      12.2518      0.00000
      7      14.0813      0.00000
      8      14.9219      0.00000

 k-point    11 :       0.4167    0.4167    0.0833
  band No.  band energies     occupation 
      1       0.7055      2.00000
      2       1.6512      2.00000
      3       5.9105      2.00000
      4       6.6471      2.00000
      5       6.8540      2.00000
      6       8.1204      0.00595
      7       9.2313      0.00000
      8      11.7439      0.00000

 k-point    12 :      -0.4167    0.4167    0.0833
  band No.  band energies     occupation 
      1      -1.0197      2.00000
      2       2.7411      2.00000
      3       4.2673      2.00000
      4       6.4431      2.00000
      5       7.9154      1.11824
      6      10.2591      0.00000
      7      10.7601      0.00000
      8      13.2630      0.00000

 k-point    13 :       0.0833    0.0833    0.2500
  band No.  band energies     occupation 
      1      -4.0466      2.00000
      2      -0.8248      2.00000
      3       5.6171      2.00000
      4      11.7116      0.00000
      5      12.4245      0.00000
      6      14.0848      0.00000
      7      14.7104      0.00000
      8      15.1859      0.00000

 k-point    14 :       0.2500    0.0833    0.2500
  band No.  band energies     occupation 
      1      -2.4889      2.00000
      2       0.7069      2.00000
      3       6.5992      2.00000
      4       7.1639      2.00000
      5       9.6778      0.00000
      6      10.3335      0.00000
      7      13.0893      0.00000
      8      14.5890      0.00000

 k-point    15 :       0.4167    0.0833    0.2500
  band No.  band energies     occupation 
      1       0.1996      2.00000
      2       2.2264      2.00000
      3       3.4547      2.00000
      4       5.4006      2.00000
      5       9.2370      0.00000
      6       9.7554      0.00000
      7      11.3969      0.00000
      8      12.6120      0.00000

 k-point    16 :      -0.4167    0.0833    0.2500
  band No.  band energies     occupation 
      1      -1.2615      2.00000
      2       1.8994      2.00000
      3       4.3621      2.00000
      4       7.3028      2.00000
      5       8.3432      0.00000
      6       9.7135      0.00000
      7      12.4139      0.00000
      8      13.4991      0.00000

 k-point    17 :      -0.2500    0.0833    0.2500
  band No.  band energies     occupation 
      1      -3.4211      2.00000
      2      -0.2089      2.00000
      3       6.1916      2.00000
      4       9.2720      0.00000
      5      11.0856      0.00000
      6      12.1998      0.00000
      7      13.9388      0.00000
      8      14.7292      0.00000

 k-point    18 :      -0.0833    0.0833    0.2500
  band No.  band energies     occupation 
      1      -4.3603      2.00000
      2      -1.1340      2.00000
      3       5.3252      2.00000
      4      13.2384      0.00000
      5      14.0515      0.00000
      6      14.1828      0.00000
      7      15.4998      0.00000
      8      16.3434      0.00000

 k-point    19 :       0.2500    0.2500    0.2500
  band No.  band energies     occupation 
      1      -0.3485      2.00000
      2       2.7753      2.00000
      3       4.8038      2.00000
      4       5.8225      2.00000
      5       7.8731      1.54568
      6       8.4467      0.00000
      7       9.5733      0.00000
      8      13.5162      0.00000

 k-point    20 :       0.4167    0.2500    0.2500
  band No.  band energies     occupation 
      1       1.1017      2.00000
      2       2.9849      2.00000
      3       4.3324      2.00000
      4       5.2040      2.00000
      5       6.2153      2.00000
      6       8.1329      0.00343
      7      10.5382      0.00000
      8      12.3128      0.00000

 k-point    21 :      -0.4167    0.2500    0.2500
  band No.  band energies     occupation 
      1      -1.5643      2.00000
      2       1.6109      2.00000
      3       5.7389      2.00000
      4       7.7025      1.99843
      5       7.9173      1.09787
      6       8.9305      0.00000
      7      10.8403      0.00000
      8      14.3059      0.00000

 k-point    22 :      -0.2500    0.2500    0.2500
  band No.  band energies     occupation 
      1      -3.1096      2.00000
      2       0.0974      2.00000
      3       6.4621      2.00000
      4       7.9164      1.10765
      5      10.8552      0.00000
      6      12.1673      0.00000
      7      14.0402      0.00000
      8      14.8266      0.00000

 k-point    23 :       0.4167    0.4167    0.2500
  band No.  band energies     occupation 
      1       1.0567      2.00000
      2       1.9861      2.00000
      3       4.2752      2.00000
      4       5.1300      2.00000
      5       7.1469      2.00000
      6       9.9078      0.00000
      7      10.3928      0.00000
      8      11.7803      0.00000

 k-point    24 :      -0.4167    0.4167    0.2500
  band No.  band energies     occupation 
      1      -0.6633      2.00000
      2       2.4165      2.00000
      3       3.2652      2.00000
      4       6.2277      2.00000
      5       8.8425      0.00000
      6      11.0779      0.00000
      7      12.1926      0.00000
      8      13.6782      0.00000

 k-point    25 :       0.0833    0.0833    0.4167
  band No.  band energies     occupation 
      1      -3.3228      2.00000
      2      -2.2443      2.00000
      3       8.3085      0.00000
      4      11.1893      0.00000
      5      12.3360      0.00000
      6      12.9893      0.00000
      7      13.5603      0.00000
      8      14.1266      0.00000

 k-point    26 :       0.2500    0.0833    0.4167
  band No.  band energies     occupation 
      1      -1.7707      2.00000
      2      -0.7007      2.00000
      3       7.3516      2.00000
      4       8.3147      0.00000
      5       9.7794      0.00000
      6      10.8806      0.00000
      7      11.9320      0.00000
      8      12.7897      0.00000

 k-point    27 :       0.4167    0.0833    0.4167
  band No.  band energies     occupation 
      1       0.9014      2.00000
      2       1.9124      2.00000
      3       3.0722      2.00000
      4       4.0601      2.00000
      5       9.9975      0.00000
      6      10.8991      0.00000
      7      12.2039      0.00000
      8      13.6060      0.00000

 k-point    28 :      -0.4167    0.0833    0.4167
[...]

 k-point     2 :       0.2500    0.0833    0.0833
  band No.  band energies     occupation 
      1      -2.8958      2.00000
      2       2.6009      2.00000
      3       4.9161      2.00000
      4       6.1929      2.00000
      5       9.6203      0.00000
      6      11.3326      0.00000
      7      13.3171      0.00000
      8      14.5402      0.00000

 k-point     3 :       0.4167    0.0833    0.0833
  band No.  band energies     occupation 
      1      -0.2725      2.00000
      2       1.7946      2.00000
      3       5.2327      2.00000
      4       6.9849      2.00000
      5       7.5614      2.00000
      6       8.8527      0.00000
      7       9.5970      0.00000
      8      13.7373      0.00000

 k-point     4 :      -0.4167    0.0833    0.0833
  band No.  band energies     occupation 
      1      -1.6946      2.00000
      2       3.4799      2.00000
      3       4.1226      2.00000
      4       6.0940      2.00000
      5       8.8739      0.00000
      6       9.3498      0.00000
      7      11.3518      0.00000
      8      14.0039      0.00000

 k-point     5 :      -0.2500    0.0833    0.0833
  band No.  band energies     occupation 
      1      -3.8090      2.00000
      2       1.7219      2.00000
      3       4.0813      2.00000
      4       8.6545      0.00000
      5      10.5077      0.00000
      6      13.5687      0.00000
      7      14.9776      0.00000
      8      15.4107      0.00000

 k-point     6 :      -0.0833    0.0833    0.0833
  band No.  band energies     occupation 
      1      -4.7293      2.00000
      2       0.8262      2.00000
      3       3.2126      2.00000
      4      12.5827      0.00000
      5      13.4952      0.00000
      6      15.4672      0.00000
      7      16.4889      0.00000
      8      17.0188      0.00000

 k-point     7 :       0.2500    0.2500    0.0833
  band No.  band energies     occupation 
      1      -0.8009      2.00000
      2       3.9377      2.00000
      3       4.9059      2.00000
      4       5.3488      2.00000
      5       6.9431      2.00000
      6       9.5356      0.00000
      7      10.4192      0.00000
      8      11.5609      0.00000

 k-point     8 :       0.4167    0.2500    0.0833
  band No.  band energies     occupation 
      1       0.6119      2.00000
      2       2.5152      2.00000
      3       4.6649      2.00000
      4       6.1470      2.00000
      5       7.8176      1.99937
      6       8.3588      0.00002
      7       9.5759      0.00000
      8      10.4562      0.00000

 k-point     9 :      -0.4167    0.2500    0.0833
  band No.  band energies     occupation 
      1      -1.9905      2.00000
      2       3.4432      2.00000
      3       5.1635      2.00000
      4       5.8881      2.00000
      5       7.2474      2.00000
      6      10.4576      0.00000
      7      12.0419      0.00000
      8      12.7800      0.00000

 k-point    10 :      -0.2500    0.2500    0.0833
  band No.  band energies     occupation 
      1      -3.5039      2.00000
      2       2.0170      2.00000
      3       4.3656      2.00000
      4       7.3216      2.00000
      5      11.5140      0.00000
      6      12.2440      0.00000
      7      13.9125      0.00000
      8      14.8448      0.00000

 k-point    11 :       0.4167    0.4167    0.0833
  band No.  band energies     occupation 
      1       0.5490      2.00000
      2       1.5485      2.00000
      3       5.9524      2.00000
      4       6.6851      2.00000
      5       6.8465      2.00000
      6       8.2580      0.00494
      7       9.3100      0.00000
      8      11.8397      0.00000

 k-point    12 :      -0.4167    0.4167    0.0833
  band No.  band energies     occupation 
      1      -1.1107      2.00000
      2       2.6000      2.00000
      3       4.4361      2.00000
      4       6.5953      2.00000
      5       8.0478      1.12880
      6      10.3219      0.00000
      7      10.4436      0.00000
      8      12.9995      0.00000

 k-point    13 :       0.0833    0.0833    0.2500
  band No.  band energies     occupation 
      1      -4.0429      2.00000
      2      -0.6737      2.00000
      3       5.9723      2.00000
      4      11.3758      0.00000
      5      12.1512      0.00000
      6      14.1194      0.00000
      7      14.9862      0.00000
      8      15.0217      0.00000

 k-point    14 :       0.2500    0.0833    0.2500
  band No.  band energies     occupation 
      1      -2.5198      2.00000
      2       0.8209      2.00000
      3       6.4300      2.00000
      4       7.4385      2.00000
      5       9.5762      0.00000
      6      10.1147      0.00000
      7      12.9956      0.00000
      8      14.7436      0.00000

 k-point    15 :       0.4167    0.0833    0.2500
  band No.  band energies     occupation 
      1       0.0966      2.00000
      2       2.1210      2.00000
      3       3.4955      2.00000
      4       5.4470      2.00000
      5       9.0624      0.00000
      6       9.9391      0.00000
      7      11.5276      0.00000
      8      12.6175      0.00000

 k-point    16 :      -0.4167    0.0833    0.2500
  band No.  band energies     occupation 
      1      -1.3212      2.00000
      2       1.9779      2.00000
      3       4.2095      2.00000
      4       7.3164      2.00000
      5       8.5813      0.00000
      6       9.4931      0.00000
      7      12.3591      0.00000
      8      13.6258      0.00000

 k-point    17 :      -0.2500    0.0833    0.2500
  band No.  band energies     occupation 
      1      -3.4312      2.00000
      2      -0.0724      2.00000
      3       6.5252      2.00000
      4       9.0106      0.00000
      5      10.8207      0.00000
      6      12.0691      0.00000
      7      13.8381      0.00000
      8      15.1060      0.00000

 k-point    18 :      -0.0833    0.0833    0.2500
  band No.  band energies     occupation 
      1      -4.3498      2.00000
      2      -0.9757      2.00000
      3       5.6888      2.00000
      4      12.8974      0.00000
      5      13.8050      0.00000
      6      14.6144      0.00000
      7      15.2421      0.00000
      8      16.0724      0.00000

 k-point    19 :       0.2500    0.2500    0.2500
  band No.  band energies     occupation 
      1      -0.4298      2.00000
      2       2.8220      2.00000
      3       4.6107      2.00000
      4       5.6979      2.00000
      5       7.8012      1.99974
      6       8.5554      0.00000
      7       9.7845      0.00000
      8      13.7108      0.00000

 k-point    20 :       0.4167    0.2500    0.2500
  band No.  band energies     occupation 
      1       0.9775      2.00000
      2       2.8351      2.00000
      3       4.3457      2.00000
      4       5.0872      2.00000
      5       6.2145      2.00000
      6       8.1626      0.14384
      7      10.7830      0.00000
      8      12.5268      0.00000

 k-point    21 :      -0.4167    0.2500    0.2500
  band No.  band energies     occupation 
      1      -1.6164      2.00000
      2       1.7009      2.00000
      3       5.5387      2.00000
      4       7.5443      2.00000
      5       8.1420      0.24190
      6       8.9015      0.00000
      7      10.8189      0.00000
      8      14.5160      0.00000

 k-point    22 :      -0.2500    0.2500    0.2500
  band No.  band energies     occupation 
      1      -3.1266      2.00000
      2       0.2265      2.00000
      3       6.7631      2.00000
      4       7.7178      2.00000
      5      10.7622      0.00000
      6      11.8438      0.00000
      7      14.0279      0.00000
      8      14.6615      0.00000

 k-point    23 :       0.4167    0.4167    0.2500
  band No.  band energies     occupation 
      1       0.9148      2.00000
      2       1.8978      2.00000
      3       4.2727      2.00000
      4       5.2029      2.00000
      5       6.9592      2.00000
      6       9.8958      0.00000
      7      10.6342      0.00000
      8      11.9976      0.00000

 k-point    24 :      -0.4167    0.4167    0.2500
  band No.  band energies     occupation 
      1      -0.7389      2.00000
      2       2.4406      2.00000
      3       3.1803      2.00000
      4       6.2495      2.00000
      5       9.1120      0.00000
      6      10.7775      0.00000
      7      12.3271      0.00000
      8      13.4992      0.00000

 k-point    25 :       0.0833    0.0833    0.4167
  band No.  band energies     occupation 
      1      -3.2874      2.00000
      2      -2.1607      2.00000
      3       8.7672      0.00000
      4      11.6885      0.00000
      5      12.0352      0.00000
      6      12.7250      0.00000
      7      13.3569      0.00000
      8      13.9060      0.00000

 k-point    26 :       0.2500    0.0833    0.4167
  band No.  band energies     occupation 
      1      -1.7702      2.00000
      2      -0.6527      2.00000
      3       7.1733      2.00000
      4       8.1996      0.04717
      5      10.1173      0.00000
      6      10.7174      0.00000
      7      11.8046      0.00000
      8      13.2373      0.00000

 k-point    27 :       0.4167    0.0833    0.4167
  band No.  band energies     occupation 
      1       0.8280      2.00000
      2       1.8757      2.00000
      3       3.0120      2.00000
      4       4.0386      2.00000
      5       9.7914      0.00000
      6      10.7621      0.00000
      7      12.5239      0.00000
      8      13.8822      0.00000

 k-point    28 :      -0.4167    0.0833    0.4167
  band No.  band energies     occupation 
      1      -0.5774      2.00000
      2       0.5294      2.00000
      3       4.9131      2.00000
      4       5.9753      2.00000
      5      10.0514      0.00000
      6      10.8488      0.00000
      7      11.6349      0.00000
      8      13.8609      0.00000

 k-point    29 :      -0.2500    0.0833    0.4167
  band No.  band energies     occupation 
      1      -2.6780      2.00000
      2      -1.5547      2.00000
      3       9.1591      0.00000
      4       9.7819      0.00000
      5      10.6784      0.00000
      6      11.4231      0.00000
      7      12.5070      0.00000
      8      12.8191      0.00000

 k-point    30 :      -0.0833    0.0833    0.4167
  band No.  band energies     occupation 
      1      -3.5932      2.00000
      2      -2.4649      2.00000
      3       8.5055      0.00000
      4      11.5452      0.00000
      5      13.5506      0.00000
      6      14.4064      0.00000
      7      14.4132      0.00000
      8      15.2355      0.00000

 k-point    31 :       0.2500    0.2500    0.4167
  band No.  band energies     occupation 
      1       0.3089      2.00000
      2       1.4053      2.00000
      3       5.2858      2.00000
      4       6.2116      2.00000
      5       6.5765      2.00000
      6       7.4647      2.00000
      7      12.2015      0.00000
      8      14.5396      0.00000

 k-point    32 :       0.4167    0.2500    0.4167
  band No.  band energies     occupation 
      1       1.6995      2.00000
      2       2.7067      2.00000
      3       3.7837      2.00000
      4       4.7665      2.00000
      5       5.8035      2.00000
      6       6.8367      2.00000
      7      13.2936      0.00000
      8      14.5149      0.00000

 k-point    33 :      -0.4167    0.2500    0.4167
  band No.  band energies     occupation 
      1      -0.8708      2.00000
      2       0.2398      2.00000
      3       6.2506      2.00000
      4       7.2862      2.00000
      5       8.3089      0.00041
      6       9.2474      0.00000
      7      11.2547      0.00000
      8      13.9186      0.00000

 k-point    34 :      -0.2500    0.2500    0.4167
  band No.  band energies     occupation 
      1      -2.3746      2.00000
      2      -1.2531      2.00000
      3       8.2902      0.00109
      4       9.1831      0.00000
      5       9.8805      0.00000
      6      12.4973      0.00000
      7      12.5313      0.00000
      8      13.4562      0.00000

 k-point    35 :       0.4167    0.4167    0.4167
  band No.  band energies     occupation 
      1       1.6325      2.00000
      2       2.4074      2.00000
      3       3.0448      2.00000
      4       3.8038      2.00000
      5       7.6537      2.00000
      6       8.6786      0.00000
      7      13.1511      0.00000
      8      14.0953      0.00000

 k-point    36 :      -0.4167    0.4167    0.4167
  band No.  band energies     occupation 
      1       0.0009      2.00000
      2       1.0965      2.00000
      3       3.7872      2.00000
      4       4.8522      2.00000
      5      11.4409      0.00000
      6      11.6481      0.00000
      7      12.4201      0.00000
      8      13.2282      0.00000


--------------------------------------------------------------------------------------------------------


 soft charge-density along one line, spin component           1
         0         1         2         3         4         5         6         7         8         9
 total charge-density along one line
 
 pseudopotential strength for first ion, spin component:           1
 18.221  25.421   0.000   0.000  -0.000   0.000   0.000  -0.000
 25.421  35.471   0.000   0.000  -0.000   0.000   0.000  -0.000
  0.000   0.000   4.131  -0.000   0.000   7.697  -0.000   0.000
  0.000   0.000  -0.000   4.131   0.000  -0.000   7.697   0.000
 -0.000  -0.000   0.000   0.000   4.131   0.000   0.000   7.697
  0.000   0.000   7.697  -0.000   0.000  14.353  -0.000   0.000
  0.000   0.000  -0.000   7.697   0.000  -0.000  14.353   0.000
 -0.000  -0.000   0.000   0.000   7.697   0.000   0.000  14.353
 total augmentation occupancy for first ion, spin component:           1
  3.717  -1.346   0.000   0.000  -0.000  -0.000   0.000   0.000
 -1.346   0.958  -0.000   0.000   0.000   0.000   0.000  -0.000
 -0.000   0.000   1.764   0.000   0.000  -0.368   0.000   0.000
  0.000   0.000   0.000   1.866  -0.000  -0.000  -0.400   0.000
  0.000   0.000   0.000   0.000   1.764  -0.000   0.000  -0.368
  0.000   0.000  -0.368   0.000   0.000   0.088   0.000   0.000
  0.000   0.000   0.000  -0.400  -0.000   0.000   0.096  -0.000
  0.000  -0.000  -0.000   0.000  -0.368  -0.000   0.000   0.088


------------------------ aborting loop because EDIFF is reached ----------------------------------------


    CHARGE:  cpu time    0.0350: real time    0.0170
    FORLOC:  cpu time    0.0010: real time    0.0008
    FORNL :  cpu time    0.0700: real time    0.0367
    STRESS:  cpu time    0.2980: real time    0.2050
    FORCOR:  cpu time    0.0300: real time    0.0312
    FORHAR:  cpu time    0.0100: real time    0.0093
    MIXING:  cpu time    0.0010: real time    0.0007
    OFIELD:  cpu time    0.0000: real time    0.0000

  FORCE on cell =-STRESS in cart. coord.  units (eV):
  Direction    XX          YY          ZZ          XY          YZ          ZX
  --------------------------------------------------------------------------------------
  Alpha Z     3.90397     3.90397     3.90397
  Ewald     -87.32296   -87.32296   -82.84235    -0.00000     0.00000    -0.00000
  Hartree     0.40473     0.40473     0.84258    -0.00000    -0.00000    -0.00000
  E(xc)     -24.36218   -24.36218   -24.38782     0.00000     0.00000    -0.00000
  Local     -11.54315   -11.54316   -16.47060    -0.00001    -0.00000     0.00000
  n-local    76.26235    76.91200    77.32183    -0.19121    -0.07501    -0.08634
  augment   -12.91250   -12.91250   -12.95182     0.00001    -0.00000     0.00000
  Kinetic    65.33200    40.52148    52.27533     8.20151    -0.02883     0.76689
  Fock        0.00000     0.00000     0.00000     0.00000     0.00000     0.00000
  -------------------------------------------------------------------------------------
  Total      -2.31817    -2.31817    -2.30888     0.00000     0.00000     0.00000
  in kB    -107.68335  -107.68335  -107.25180     0.00000     0.00000     0.00000
  external pressure =     -107.54 kB  Pullay stress =        0.00 kB


 VOLUME and BASIS-vectors are now :
 -----------------------------------------------------------------------------
  energy-cutoff  :      450.00
  volume of cell :       34.49
      direct lattice vectors                 reciprocal lattice vectors
     2.941832147  0.000000000  0.000000000     0.339924221  0.196255340 -0.000000000
    -1.470916074  2.547701373  0.000000000     0.000000000  0.392510681 -0.000000000
     0.000000000  0.000000000  4.601948350     0.000000000  0.000000000  0.217299266

  length of vectors
     2.941832147  2.941832147  4.601948350     0.392510681  0.392510681  0.217299266


 FORCES acting on ions
    electron-ion (+dipol)            ewald-force                    non-local-force                 convergence-correction
 -----------------------------------------------------------------------------------------------
   0.258E-08 -.149E-08 0.388E-14   -.970E-13 0.710E-13 -.340E-14   0.173E-17 -.693E-17 0.000E+00   -.969E-09 0.560E-09 -.492E-15
   -.660E-07 0.381E-07 -.165E-13   0.980E-13 -.700E-13 0.340E-14   0.156E-16 0.693E-17 0.000E+00   0.969E-09 -.560E-09 0.420E-15
 -----------------------------------------------------------------------------------------------
   -.634E-07 0.366E-07 -.126E-13   0.107E-14 0.977E-15 0.000E+00   0.173E-16 0.561E-27 0.000E+00   0.306E-12 -.176E-12 -.716E-16
 
 
 POSITION                                       TOTAL-FORCE (eV/Angst)
 -----------------------------------------------------------------------------------
      0.00000      0.00000      0.00000         0.000000     -0.000000      0.000000
     -0.00000      1.69847      2.30097        -0.000000      0.000000      0.000000
 -----------------------------------------------------------------------------------
    total drift:                               -0.000000      0.000000     -0.000000


--------------------------------------------------------------------------------------------------------



  FREE ENERGIE OF THE ION-ELECTRON SYSTEM (eV)
  ---------------------------------------------------
  free  energy   TOTEN  =        -9.63547447 eV

  energy  without entropy=       -9.63234321  energy(sigma->0) =       -9.63390884
 
 d Force = 0.0000000E+00[ 0.000E+00, 0.000E+00]  d Energy = 0.6005347E-04-0.601E-04
 d Force = 0.0000000E+00[ 0.000E+00, 0.000E+00]  d Ewald  =-0.6030953E-02 0.603E-02


--------------------------------------------------------------------------------------------------------


    POTLOK:  cpu time    0.0320: real time    0.0318


--------------------------------------------------------------------------------------------------------




--------------------------------------------------------------------------------------------------------


  
 reached required accuracy - stopping structural energy minimisation
 writing wavefunctions
     LOOP+:  cpu time    6.9409: real time    4.7255
    4ORBIT:  cpu time    0.0000: real time    0.0000

 total amount of memory used by VASP on root node    35742. kBytes
========================================================================

   base      :      30000. kBytes
   nonl-proj :       1794. kBytes
   fftplans  :       1049. kBytes
   grid      :       1990. kBytes
   one-center:          6. kBytes
   wavefun   :        903. kBytes
 
  
  
 General timing and accounting informations for this job:
 ========================================================
  
                  Total CPU time used (sec):       59.436
                            User time (sec):       55.132
                          System time (sec):        4.304
                         Elapsed time (sec):       38.972
  
                   Maximum memory used (kb):       37416.
                   Average memory used (kb):           0.
  
                          Minor page faults:        55141
                          Major page faults:            7
                 Voluntary context switches:          883
