 running on    4 total cores
 distrk:  each k-point on    4 cores,    1 groups
 distr:  one band on    1 cores,    4 groups
 using from now: INCAR     
 vasp.5.4.1 24Jun15 (build Jul 19 2016 16:50:41) complex                        
  
 POSCAR found :  1 types and       2 ions
 LDA part: xc-table for Pade appr. of Perdew
 POSCAR, INCAR and KPOINTS ok, starting setup
 WARNING: small aliasing (wrap around) errors must be expected
 FFT: planning ...
 WAVECAR not read
 entering main loop
       N       E                     dE             d eps       ncg     rms          rms(c)
DAV:   1     0.303016020831E+01    0.30302E+01   -0.30601E+03   576   0.695E+02
DAV:   2    -0.950965122615E+01   -0.12540E+02   -0.12204E+02   880   0.694E+01
DAV:   3    -0.964660573387E+01   -0.13695E+00   -0.13616E+00   752   0.885E+00
DAV:   4    -0.964702738280E+01   -0.42165E-03   -0.42161E-03   856   0.527E-01
DAV:   5    -0.964702773969E+01   -0.35689E-06   -0.35659E-06   752   0.115E-02    0.266E+00
DAV:   6    -0.962584888289E+01    0.21179E-01   -0.92067E-03   632   0.584E-01    0.145E+00
DAV:   7    -0.961458683419E+01    0.11262E-01   -0.16559E-02   720   0.770E-01    0.134E-01
DAV:   8    -0.961453488886E+01    0.51945E-04   -0.13014E-04   808   0.997E-02    0.160E-02
DAV:   9    -0.961453593571E+01   -0.10468E-05   -0.17015E-06   504   0.104E-02
   1 F= -.96145359E+01 E0= -.96114784E+01  d E =-.961454E+01
 curvature:   0.00 expect dE= 0.000E+00 dE for cont linesearch  0.000E+00
 trial: gam= 0.00000 g(F)=  0.371E-49 g(S)=  0.434E-02 ort = 0.000E+00 (trialstep = 0.100E+01)
 search vector abs. value=  0.434E-02
 bond charge predicted
       N       E                     dE             d eps       ncg     rms          rms(c)
DAV:   1    -0.962229131582E+01   -0.77564E-02   -0.94004E-02   736   0.168E+00    0.159E-01
DAV:   2    -0.962172133937E+01    0.56998E-03   -0.16296E-03   648   0.321E-01    0.916E-02
DAV:   3    -0.962138661748E+01    0.33472E-03   -0.87492E-04   720   0.155E-01    0.990E-03
DAV:   4    -0.962138929631E+01   -0.26788E-05   -0.35342E-05   624   0.454E-02
   2 F= -.96213893E+01 E0= -.96185787E+01  d E =-.685336E-02
 ZBRENT: can't locate minimum, use default step
 trial-energy change:   -0.006853  1 .order   -0.006601   -0.004337   -0.008865
 step:   4.0000(harm=  4.0000)  dis= 0.00000  next Energy=    -9.649283 (dE=-0.347E-01)
 bond charge predicted
       N       E                     dE             d eps       ncg     rms          rms(c)
DAV:   1    -0.964258027106E+01   -0.21194E-01   -0.73304E-01   784   0.497E+00    0.487E-01
DAV:   2    -0.963751839706E+01    0.50619E-02   -0.13394E-02   640   0.925E-01    0.282E-01
DAV:   3    -0.963453024056E+01    0.29882E-02   -0.74971E-03   792   0.459E-01    0.279E-02
DAV:   4    -0.963455074861E+01   -0.20508E-04   -0.28088E-04   608   0.130E-01    0.209E-02
DAV:   5    -0.963455558743E+01   -0.48388E-05   -0.23886E-06   536   0.157E-02
   3 F= -.96345556E+01 E0= -.96328081E+01  d E =-.200197E-01
 curvature:  -2.59 expect dE=-0.536E-02 dE for cont linesearch -0.536E-02
 ZBRENT: interpolating
 opt :   3.2427  next Energy=    -9.635689 (dE=-0.212E-01)
 bond charge predicted
       N       E                     dE             d eps       ncg     rms          rms(c)
DAV:   1    -0.963595097689E+01   -0.14002E-02   -0.43941E-02   824   0.123E+00    0.125E-01
DAV:   2    -0.963560898955E+01    0.34199E-03   -0.83748E-04   616   0.229E-01    0.718E-02
DAV:   3    -0.963541290914E+01    0.19608E-03   -0.49338E-04   776   0.118E-01    0.704E-03
DAV:   4    -0.963541441989E+01   -0.15108E-05   -0.18585E-05   544   0.334E-02
   4 F= -.96354144E+01 E0= -.96338881E+01  d E =-.208785E-01
 curvature:  -0.55 expect dE=-0.844E-04 dE for cont linesearch -0.844E-04
 ZBRENT: interpolating
 opt :   3.4050  next Energy=    -9.635481 (dE=-0.209E-01)
 bond charge predicted
       N       E                     dE             d eps       ncg     rms          rms(c)
DAV:   1    -0.963550057222E+01   -0.87663E-04   -0.20454E-03   808   0.264E-01    0.272E-02
DAV:   2    -0.963548396709E+01    0.16605E-04   -0.39785E-05   616   0.499E-02    0.156E-02
DAV:   3    -0.963547447336E+01    0.94937E-05   -0.22701E-05   424   0.257E-02
   5 F= -.96354745E+01 E0= -.96339088E+01  d E =-.209385E-01
 curvature:  -0.43 expect dE=-0.598E-06 dE for cont linesearch -0.598E-06
 trial: gam= 0.00000 g(F)=  0.963E-48 g(S)=  0.139E-05 ort =-0.776E-04 (trialstep = 0.148E+01)
 search vector abs. value=  0.139E-05
 reached required accuracy - stopping structural energy minimisation
 writing wavefunctions
