<?xml version="1.0" encoding="ISO-8859-1"?>
<modeling>
 <generator>
  <i name="program" type="string">vasp </i>
  <i name="version" type="string">5.4.1  </i>
  <i name="subversion" type="string">24Jun15 (build Jul 19 2016 16:50:41) complex                          parallel </i>
  <i name="platform" type="string">IFC91_ompi </i>
  <i name="date" type="string">2019 10 10 </i>
  <i name="time" type="string">11:16:31 </i>
 </generator>
 <incar>
  <i type="string" name="SYSTEM"> Si beta-tin</i>
  <i type="string" name="PREC">accurate</i>
  <i type="int" name="IBRION">     2</i>
  <i name="EDIFF">      0.00001000</i>
  <i name="EDIFFG">     -0.01000000</i>
  <i type="int" name="NSW">   100</i>
  <i type="int" name="ISIF">     4</i>
  <i name="ENMAX">    450.00000000</i>
  <i type="int" name="ISMEAR">     0</i>
  <i name="SIGMA">      0.10000000</i>
  <v type="int" name="KPOINT_BSE">    -1     0     0     0</v>
 </incar>
 <kpoints>
  <generation param="Monkhorst-Pack">
   <v type="int" name="divisions">       6        6        6 </v>
   <v name="usershift">      0.00000000       0.00000000       0.00000000 </v>
   <v name="genvec1">      0.16666667       0.00000000       0.00000000 </v>
   <v name="genvec2">      0.00000000       0.16666667       0.00000000 </v>
   <v name="genvec3">      0.00000000       0.00000000       0.16666667 </v>
   <v name="shift">      0.50000000       0.50000000       0.50000000 </v>
  </generation>
  <varray name="kpointlist" >
   <v>       0.08333333       0.08333333       0.08333333 </v>
   <v>       0.25000000       0.08333333       0.08333333 </v>
   <v>       0.41666667       0.08333333       0.08333333 </v>
   <v>      -0.41666667       0.08333333       0.08333333 </v>
   <v>      -0.25000000       0.08333333       0.08333333 </v>
   <v>      -0.08333333       0.08333333       0.08333333 </v>
   <v>       0.25000000       0.25000000       0.08333333 </v>
   <v>       0.41666667       0.25000000       0.08333333 </v>
   <v>      -0.41666667       0.25000000       0.08333333 </v>
   <v>      -0.25000000       0.25000000       0.08333333 </v>
   <v>       0.41666667       0.41666667       0.08333333 </v>
   <v>      -0.41666667       0.41666667       0.08333333 </v>
   <v>       0.08333333       0.08333333       0.25000000 </v>
   <v>       0.25000000       0.08333333       0.25000000 </v>
   <v>       0.41666667       0.08333333       0.25000000 </v>
   <v>      -0.41666667       0.08333333       0.25000000 </v>
   <v>      -0.25000000       0.08333333       0.25000000 </v>
   <v>      -0.08333333       0.08333333       0.25000000 </v>
   <v>       0.25000000       0.25000000       0.25000000 </v>
   <v>       0.41666667       0.25000000       0.25000000 </v>
   <v>      -0.41666667       0.25000000       0.25000000 </v>
   <v>      -0.25000000       0.25000000       0.25000000 </v>
   <v>       0.41666667       0.41666667       0.25000000 </v>
   <v>      -0.41666667       0.41666667       0.25000000 </v>
   <v>       0.08333333       0.08333333       0.41666667 </v>
   <v>       0.25000000       0.08333333       0.41666667 </v>
   <v>       0.41666667       0.08333333       0.41666667 </v>
   <v>      -0.41666667       0.08333333       0.41666667 </v>
   <v>      -0.25000000       0.08333333       0.41666667 </v>
   <v>      -0.08333333       0.08333333       0.41666667 </v>
   <v>       0.25000000       0.25000000       0.41666667 </v>
   <v>       0.41666667       0.25000000       0.41666667 </v>
   <v>      -0.41666667       0.25000000       0.41666667 </v>
   <v>      -0.25000000       0.25000000       0.41666667 </v>
   <v>       0.41666667       0.41666667       0.41666667 </v>
   <v>      -0.41666667       0.41666667       0.41666667 </v>
  </varray>
  <varray name="weights" >
   <v>       0.01851852 </v>
   <v>       0.03703704 </v>
   <v>       0.03703704 </v>
   <v>       0.03703704 </v>
   <v>       0.03703704 </v>
   <v>       0.01851852 </v>
   <v>       0.01851852 </v>
   <v>       0.03703704 </v>
   <v>       0.03703704 </v>
   <v>       0.01851852 </v>
   <v>       0.01851852 </v>
   <v>       0.01851852 </v>
   <v>       0.01851852 </v>
   <v>       0.03703704 </v>
   <v>       0.03703704 </v>
   <v>       0.03703704 </v>
   <v>       0.03703704 </v>
   <v>       0.01851852 </v>
   <v>       0.01851852 </v>
   <v>       0.03703704 </v>
   <v>       0.03703704 </v>
   <v>       0.01851852 </v>
   <v>       0.01851852 </v>
   <v>       0.01851852 </v>
   <v>       0.01851852 </v>
   <v>       0.03703704 </v>
   <v>       0.03703704 </v>
   <v>       0.03703704 </v>
   <v>       0.03703704 </v>
   <v>       0.01851852 </v>
   <v>       0.01851852 </v>
   <v>       0.03703704 </v>
   <v>       0.03703704 </v>
   <v>       0.01851852 </v>
   <v>       0.01851852 </v>
   <v>       0.01851852 </v>
  </varray>
 </kpoints>
 <parameters>
  <separator name="general" >
   <i type="string" name="SYSTEM">Si beta-tin</i>
   <i type="logical" name="LCOMPAT"> F  </i>
  </separator>
  <separator name="electronic" >
   <i type="string" name="PREC">accura</i>
   <i name="ENMAX">    450.00000000</i>
   <i name="ENAUG">    322.06900000</i>
   <i name="EDIFF">      0.00001000</i>
   <i type="int" name="IALGO">    38</i>
   <i type="int" name="IWAVPR">    11</i>
   <i type="int" name="NBANDS">     8</i>
   <i name="NELECT">      8.00000000</i>
   <i type="int" name="TURBO">     0</i>
   <i type="int" name="IRESTART">     0</i>
   <i type="int" name="NREBOOT">     0</i>
   <i type="int" name="NMIN">     0</i>
   <i name="EREF">      0.00000000</i>
   <separator name="electronic smearing" >
    <i type="int" name="ISMEAR">     0</i>
    <i name="SIGMA">      0.10000000</i>
    <i name="KSPACING">      0.50000000</i>
    <i type="logical" name="KGAMMA"> T  </i>
   </separator>
   <separator name="electronic projectors" >
    <i type="logical" name="LREAL"> F  </i>
    <v name="ROPT">      0.00000000</v>
    <i type="int" name="LMAXPAW">  -100</i>
    <i type="int" name="LMAXMIX">     2</i>
    <i type="logical" name="NLSPLINE"> F  </i>
   </separator>
   <separator name="electronic startup" >
    <i type="int" name="ISTART">     0</i>
    <i type="int" name="ICHARG">     2</i>
    <i type="int" name="INIWAV">     1</i>
   </separator>
   <separator name="electronic spin" >
    <i type="int" name="ISPIN">     1</i>
    <i type="logical" name="LNONCOLLINEAR"> F  </i>
    <v name="MAGMOM">      1.00000000      1.00000000</v>
    <i name="NUPDOWN">     -1.00000000</i>
    <i type="logical" name="LSORBIT"> F  </i>
    <v name="SAXIS">      0.00000000      0.00000000      1.00000000</v>
    <i type="logical" name="LSPIRAL"> F  </i>
    <v name="QSPIRAL">      0.00000000      0.00000000      0.00000000</v>
    <i type="logical" name="LZEROZ"> F  </i>
   </separator>
   <separator name="electronic exchange-correlation" >
    <i type="logical" name="LASPH"> F  </i>
    <i type="logical" name="LMETAGGA"> F  </i>
   </separator>
   <separator name="electronic convergence" >
    <i type="int" name="NELM">    60</i>
    <i type="int" name="NELMDL">    -5</i>
    <i type="int" name="NELMIN">     2</i>
    <i name="ENINI">    450.00000000</i>
    <separator name="electronic convergence detail" >
     <i type="logical" name="LDIAG"> T  </i>
     <i type="logical" name="LSUBROT"> F  </i>
     <i name="WEIMIN">      0.00100000</i>
     <i name="EBREAK">      0.00000031</i>
     <i name="DEPER">      0.30000000</i>
     <i type="int" name="NRMM">     4</i>
     <i name="TIME">      0.40000000</i>
    </separator>
   </separator>
   <separator name="electronic mixer" >
    <i name="AMIX">      0.40000000</i>
    <i name="BMIX">      1.00000000</i>
    <i name="AMIN">      0.10000000</i>
    <i name="AMIX_MAG">      1.60000000</i>
    <i name="BMIX_MAG">      1.00000000</i>
    <separator name="electronic mixer details" >
     <i type="int" name="IMIX">     4</i>
     <i type="logical" name="MIXFIRST"> F  </i>
     <i type="int" name="MAXMIX">   -45</i>
     <i name="WC">    100.00000000</i>
     <i type="int" name="INIMIX">     1</i>
     <i type="int" name="MIXPRE">     1</i>
     <i type="int" name="MREMOVE">     5</i>
    </separator>
   </separator>
   <separator name="electronic dipolcorrection" >
    <i type="logical" name="LDIPOL"> F  </i>
    <i type="logical" name="LMONO"> F  </i>
    <i type="int" name="IDIPOL">     0</i>
    <i name="EPSILON">      1.00000000</i>
    <v name="DIPOL">   -100.00000000   -100.00000000   -100.00000000</v>
    <i name="EFIELD">      0.00000000</i>
   </separator>
  </separator>
  <separator name="grids" >
   <i type="int" name="NGX">    20</i>
   <i type="int" name="NGY">    20</i>
   <i type="int" name="NGZ">    36</i>
   <i type="int" name="NGXF">    40</i>
   <i type="int" name="NGYF">    40</i>
   <i type="int" name="NGZF">    72</i>
   <i type="logical" name="ADDGRID"> F  </i>
  </separator>
  <separator name="ionic" >
   <i type="int" name="NSW">   100</i>
   <i type="int" name="IBRION">     2</i>
   <i type="int" name="ISIF">     4</i>
   <i name="PSTRESS">      0.00000000</i>
   <i name="EDIFFG">     -0.01000000</i>
   <i type="int" name="NFREE">     1</i>
   <i name="POTIM">      0.50000000</i>
   <i name="SMASS">     -3.00000000</i>
   <i name="SCALEE">      1.00000000</i>
  </separator>
  <separator name="ionic md" >
   <i name="TEBEG">      0.00010000</i>
   <i name="TEEND">      0.00010000</i>
   <i type="int" name="NBLOCK">     1</i>
   <i type="int" name="KBLOCK">   100</i>
   <i type="int" name="NPACO">   256</i>
   <i name="APACO">     16.00000000</i>
  </separator>
  <separator name="symmetry" >
   <i type="int" name="ISYM">     2</i>
   <i name="SYMPREC">      0.00001000</i>
  </separator>
  <separator name="dos" >
   <i type="logical" name="LORBIT"> F  </i>
   <v name="RWIGS">     -1.00000000</v>
   <i type="int" name="NEDOS">   301</i>
   <i name="EMIN">     10.00000000</i>
   <i name="EMAX">    -10.00000000</i>
   <i name="EFERMI">      0.00000000</i>
  </separator>
  <separator name="writing" >
   <i type="int" name="NWRITE">     2</i>
   <i type="logical" name="LWAVE"> T  </i>
   <i type="logical" name="LCHARG"> T  </i>
   <i type="logical" name="LPARD"> F  </i>
   <i type="logical" name="LVTOT"> F  </i>
   <i type="logical" name="LVHAR"> F  </i>
   <i type="logical" name="LELF"> F  </i>
   <i type="logical" name="LOPTICS"> F  </i>
   <v name="STM">      0.00000000      0.00000000      0.00000000      0.00000000      0.00000000      0.00000000      0.00000000</v>
  </separator>
  <separator name="performance" >
   <i type="int" name="NPAR">     4</i>
   <i type="int" name="NSIM">     4</i>
   <i type="int" name="NBLK">    -1</i>
   <i type="logical" name="LPLANE"> T  </i>
   <i type="logical" name="LSCALAPACK"> F  </i>
   <i type="logical" name="LSCAAWARE"> F  </i>
   <i type="logical" name="LSCALU"> F  </i>
   <i type="logical" name="LASYNC"> F  </i>
   <i type="logical" name="LORBITALREAL"> F  </i>
  </separator>
  <separator name="miscellaneous" >
   <i type="int" name="IDIOT">     3</i>
   <i type="logical" name="LMUSIC"> F  </i>
   <v name="POMASS">     28.08500000</v>
   <v name="DARWINR">      0.00000000</v>
   <v name="DARWINV">      1.00000000</v>
   <i type="logical" name="LCORR"> T  </i>
  </separator>
  <i type="logical" name="GGA_COMPAT"> T  </i>
  <i type="logical" name="LBERRY"> F  </i>
  <i type="int" name="ICORELEVEL">     0</i>
  <i type="logical" name="LDAU"> F  </i>
  <i type="int" name="I_CONSTRAINED_M">     0</i>
  <separator name="electronic exchange-correlation" >
   <i type="string" name="GGA">--</i>
   <i type="int" name="VOSKOWN">     0</i>
   <i type="logical" name="LHFCALC"> F  </i>
   <i type="string" name="PRECFOCK"></i>
   <i type="logical" name="LSYMGRAD"> F  </i>
   <i type="logical" name="LHFONE"> F  </i>
   <i type="logical" name="LRHFCALC"> F  </i>
   <i type="logical" name="LTHOMAS"> F  </i>
   <i type="logical" name="LMODELHF"> F  </i>
   <i name="ENCUT4O">     -1.00000000</i>
   <i type="int" name="EXXOEP">     0</i>
   <i type="int" name="FOURORBIT">     0</i>
   <i name="AEXX">      0.00000000</i>
   <i name="HFALPHA">      0.00000000</i>
   <i name="MCALPHA">      0.00000000</i>
   <i name="ALDAX">      1.00000000</i>
   <i name="AGGAX">      1.00000000</i>
   <i name="ALDAC">      1.00000000</i>
   <i name="AGGAC">      1.00000000</i>
   <i type="int" name="NKREDX">     1</i>
   <i type="int" name="NKREDY">     1</i>
   <i type="int" name="NKREDZ">     1</i>
   <i type="logical" name="SHIFTRED"> F  </i>
   <i type="logical" name="ODDONLY"> F  </i>
   <i type="logical" name="EVENONLY"> F  </i>
   <i type="int" name="LMAXFOCK">     0</i>
   <i type="int" name="NMAXFOCKAE">     0</i>
   <i type="logical" name="LFOCKAEDFT"> F  </i>
   <i name="HFSCREEN">      0.00000000</i>
   <i name="HFSCREENC">      0.00000000</i>
   <i type="int" name="NBANDSGWLOW">     0</i>
  </separator>
  <separator name="vdW DFT" >
   <i type="logical" name="LUSE_VDW"> F  </i>
   <i name="Zab_VDW">     -0.84910000</i>
   <i name="PARAM1">      0.12340000</i>
   <i name="PARAM2">      1.00000000</i>
   <i name="PARAM3">      0.00000000</i>
  </separator>
  <separator name="model GW" >
   <i type="int" name="MODEL_GW">     0</i>
   <i name="MODEL_EPS0">     10.34735634</i>
   <i name="MODEL_ALPHA">      1.00000000</i>
  </separator>
  <separator name="linear response parameters" >
   <i type="logical" name="LEPSILON"> F  </i>
   <i type="logical" name="LRPA"> F  </i>
   <i type="logical" name="LNABLA"> F  </i>
   <i type="logical" name="LVEL"> F  </i>
   <i type="int" name="KINTER">     0</i>
   <i name="CSHIFT">      0.10000000</i>
   <i name="OMEGAMAX">     -1.00000000</i>
   <i name="DEG_THRESHOLD">      0.00200000</i>
  </separator>
  <separator name="orbital magnetization" >
   <i type="logical" name="NUCIND"> F  </i>
   <v name="MAGPOS">      0.00000000      0.00000000      0.00000000</v>
   <i type="logical" name="LNICSALL"> T  </i>
   <i type="logical" name="ORBITALMAG"> F  </i>
   <i type="logical" name="LMAGBLOCH"> F  </i>
   <i type="logical" name="LCHIMAG"> F  </i>
   <i type="logical" name="LGAUGE"> T  </i>
   <i type="int" name="MAGATOM">     0</i>
   <v name="MAGDIPOL">      0.00000000      0.00000000      0.00000000</v>
   <v name="AVECCONST">      0.00000000      0.00000000      0.00000000</v>
  </separator>
  <separator name="response functions" >
   <i type="logical" name="LADDER"> F  </i>
   <i type="logical" name="LFXC"> F  </i>
   <i type="logical" name="LHARTREE"> T  </i>
   <i type="int" name="IBSE">     0</i>
   <v type="int" name="KPOINT">    -1     0     0     0</v>
   <i type="logical" name="LTCTE"> F  </i>
   <i type="logical" name="LTETE"> F  </i>
   <i type="logical" name="LTRIPLET"> F  </i>
   <i type="logical" name="LFXCEPS"> F  </i>
   <i type="logical" name="LFXHEG"> F  </i>
   <i type="int" name="NATURALO">     0</i>
   <i type="logical" name="L2ORDER"> F  </i>
   <i type="logical" name="LUSEW"> F  </i>
   <i name="ENCUTGW">     -2.00000000</i>
   <i name="ENCUTGWSOFT">     -2.00000000</i>
   <i name="ENCUTLF">     -1.00000000</i>
   <i type="int" name="LMAXMP2">    -1</i>
   <i name="SCISSOR">      0.00000000</i>
   <i type="int" name="NOMEGA">     0</i>
   <i type="int" name="NOMEGAR">     0</i>
   <i type="int" name="NBANDSGW">    -1</i>
   <i type="int" name="NBANDSO">    -1</i>
   <i type="int" name="NBANDSV">    -1</i>
   <i type="int" name="NELM">     1</i>
   <i type="int" name="NELMHF">     1</i>
   <i type="int" name="DIM">     3</i>
   <i type="int" name="ANTIRES">     0</i>
   <i name="OMEGAMAX">    -30.00000000</i>
   <i name="OMEGAMIN">    -30.00000000</i>
   <i name="OMEGATL">   -200.00000000</i>
   <i type="int" name="OMEGAGRID">     0</i>
   <i name="CSHIFT">     -0.10000000</i>
   <i type="logical" name="SELFENERGY"> F  </i>
   <i type="logical" name="LSPECTRAL"> F  </i>
   <i type="logical" name="LSPECTRALGW"> F  </i>
   <i type="logical" name="LSINGLES"> F  </i>
   <i type="logical" name="LFERMIGW"> F  </i>
   <i type="logical" name="ODDONLYGW"> F  </i>
   <i type="logical" name="EVENONLYGW"> F  </i>
   <i type="int" name="NKREDLFX">     1</i>
   <i type="int" name="NKREDLFY">     1</i>
   <i type="int" name="NKREDLFZ">     1</i>
   <i type="int" name="MAXMEM">  1800</i>
   <i type="int" name="TELESCOPE">     0</i>
   <i type="int" name="TAUPAR">     1</i>
   <i type="int" name="OMEGAPAR">    -1</i>
   <i name="LAMBDA">      1.00000000</i>
  </separator>
  <separator name="External order field" >
   <i name="OFIELD_KAPPA">      0.00000000</i>
   <v name="OFIELD_K">      0.00000000      0.00000000      0.00000000</v>
   <i name="OFIELD_Q6_NEAR">      0.00000000</i>
   <i name="OFIELD_Q6_FAR">      0.00000000</i>
   <i name="OFIELD_A">      0.00000000</i>
  </separator>
 </parameters>
 <atominfo>
  <atoms>       2 </atoms>
  <types>       1 </types>
  <array name="atoms" >
   <dimension dim="1">ion</dimension>
   <field type="string">element</field>
   <field type="int">atomtype</field>
   <set>
    <rc><c> S</c><c>   1</c></rc>
    <rc><c> S</c><c>   1</c></rc>
   </set>
  </array>
  <array name="atomtypes" >
   <dimension dim="1">type</dimension>
   <field type="int">atomspertype</field>
   <field type="string">element</field>
   <field>mass</field>
   <field>valence</field>
   <field type="string">pseudopotential</field>
   <set>
    <rc><c>   2</c><c> S</c><c>     28.08500000</c><c>      4.00000000</c><c>  PAW_PBE Si 05Jan2001                  </c></rc>
   </set>
  </array>
 </atominfo>
 <structure name="initialpos" >
  <crystal>
   <varray name="basis" >
    <v>       2.90000000       0.00000000       0.00000000 </v>
    <v>      -1.45000000       2.51147367       0.00000000 </v>
    <v>       0.00000000       0.00000000       4.73567100 </v>
   </varray>
   <i name="volume">     34.49118779 </i>
   <varray name="rec_basis" >
    <v>       0.34482759       0.19908630       0.00000000 </v>
    <v>       0.00000000       0.39817260       0.00000000 </v>
    <v>       0.00000000       0.00000000       0.21116332 </v>
   </varray>
  </crystal>
  <varray name="positions" >
   <v>       0.00000000       0.00000000       0.00000000 </v>
   <v>       0.33333333       0.66666667       0.50000000 </v>
  </varray>
 </structure>
 <calculation>
  <scstep>
   <time name="dav">    1.21    0.83</time>
   <time name="total">    1.30    0.89</time>
   <energy>
    <i name="alphaZ">      3.90396886 </i>
    <i name="ewald">   -257.55644282 </i>
    <i name="hartreedc">     -2.16568247 </i>
    <i name="XCdc">    -18.49162126 </i>
    <i name="pawpsdc">    176.24759923 </i>
    <i name="pawaedc">   -141.06103558 </i>
    <i name="eentropy">     -0.00225889 </i>
    <i name="bandstr">     36.02370567 </i>
    <i name="atom">    206.13192747 </i>
    <i name="e_fr_energy">      3.03016021 </i>
    <i name="e_wo_entrp">      3.03241910 </i>
    <i name="e_0_energy">      3.03128966 </i>
   </energy>
  </scstep>
  <scstep>
   <time name="dav">    2.37    1.51</time>
   <time name="total">    2.37    1.51</time>
   <energy>
    <i name="e_fr_energy">     -9.50965123 </i>
    <i name="e_wo_entrp">     -9.50309728 </i>
    <i name="e_0_energy">     -9.50637425 </i>
   </energy>
  </scstep>
  <scstep>
   <time name="dav">    2.33    1.48</time>
   <time name="total">    2.33    1.49</time>
   <energy>
    <i name="e_fr_energy">     -9.64660573 </i>
    <i name="e_wo_entrp">     -9.64047534 </i>
    <i name="e_0_energy">     -9.64354054 </i>
   </energy>
  </scstep>
  <scstep>
   <time name="dav">    2.76    1.70</time>
   <time name="total">    2.76    1.70</time>
   <energy>
    <i name="e_fr_energy">     -9.64702738 </i>
    <i name="e_wo_entrp">     -9.64089910 </i>
    <i name="e_0_energy">     -9.64396324 </i>
   </energy>
  </scstep>
  <scstep>
   <time name="dav">    2.72    1.61</time>
   <time name="total">    2.78    1.64</time>
   <energy>
    <i name="e_fr_energy">     -9.64702774 </i>
    <i name="e_wo_entrp">     -9.64089945 </i>
    <i name="e_0_energy">     -9.64396360 </i>
   </energy>
  </scstep>
  <scstep>
   <time name="dav">    1.69    0.98</time>
   <time name="total">    1.81    1.06</time>
   <energy>
    <i name="e_fr_energy">     -9.62584888 </i>
    <i name="e_wo_entrp">     -9.61971405 </i>
    <i name="e_0_energy">     -9.62278147 </i>
   </energy>
  </scstep>
  <scstep>
   <time name="dav">    2.25    1.37</time>
   <time name="total">    2.40    1.45</time>
   <energy>
    <i name="e_fr_energy">     -9.61458683 </i>
    <i name="e_wo_entrp">     -9.60846795 </i>
    <i name="e_0_energy">     -9.61152739 </i>
   </energy>
  </scstep>
  <scstep>
   <time name="dav">    2.66    1.60</time>
   <time name="total">    2.79    1.68</time>
   <energy>
    <i name="e_fr_energy">     -9.61453489 </i>
    <i name="e_wo_entrp">     -9.60841951 </i>
    <i name="e_0_energy">     -9.61147720 </i>
   </energy>
  </scstep>
  <scstep>
   <time name="dav">    1.78    1.12</time>
   <time name="total">    1.84    1.16</time>
   <energy>
    <i name="alphaZ">      3.90396886 </i>
    <i name="ewald">   -257.55644282 </i>
    <i name="hartreedc">     -1.61636988 </i>
    <i name="XCdc">    -18.47268476 </i>
    <i name="pawpsdc">    415.50611187 </i>
    <i name="pawaedc">   -380.28701216 </i>
    <i name="eentropy">     -0.00611503 </i>
    <i name="bandstr">     22.78208049 </i>
    <i name="atom">    206.13192747 </i>
    <i name="e_fr_energy">     -9.61453594 </i>
    <i name="e_wo_entrp">     -9.60842091 </i>
    <i name="e_0_energy">     -9.61147842 </i>
   </energy>
  </scstep>
  <structure>
   <crystal>
    <varray name="basis" >
     <v>       2.90000000       0.00000000       0.00000000 </v>
     <v>      -1.45000000       2.51147367       0.00000000 </v>
     <v>       0.00000000       0.00000000       4.73567100 </v>
    </varray>
    <i name="volume">     34.49118779 </i>
    <varray name="rec_basis" >
     <v>       0.34482759       0.19908630       0.00000000 </v>
     <v>       0.00000000       0.39817260       0.00000000 </v>
     <v>       0.00000000       0.00000000       0.21116332 </v>
    </varray>
   </crystal>
   <varray name="positions" >
    <v>       0.00000000       0.00000000       0.00000000 </v>
    <v>       0.33333333       0.66666667       0.50000000 </v>
   </varray>
  </structure>
  <varray name="forces" >
   <v>       0.00000000       0.00000000       0.00000000 </v>
   <v>      -0.00000000       0.00000000       0.00000000 </v>
  </varray>
  <varray name="stress" >
   <v>    -100.19973503       0.00000000       0.00000000 </v>
   <v>       0.00000000    -100.19973503       0.00000000 </v>
   <v>       0.00000000       0.00000000    -124.32279552 </v>
  </varray>
  <energy>
   <i name="e_fr_energy">     -9.61453594 </i>
   <i name="e_wo_entrp">     -9.61147842 </i>
   <i name="e_0_energy">     -0.00611503 </i>
  </energy>
  <time name="totalsc">   21.27   13.21</time>
 </calculation>
 <calculation>
  <scstep>
   <time name="dav">    1.90    1.17</time>
   <time name="total">    2.02    1.24</time>
   <energy>
    <i name="alphaZ">      3.90396886 </i>
    <i name="ewald">   -257.54935958 </i>
    <i name="hartreedc">     -1.61634191 </i>
    <i name="XCdc">    -18.47299782 </i>
    <i name="pawpsdc">    415.98356202 </i>
    <i name="pawaedc">   -380.76361204 </i>
    <i name="eentropy">     -0.00563874 </i>
    <i name="bandstr">     22.76620041 </i>
    <i name="atom">    206.13192747 </i>
    <i name="e_fr_energy">     -9.62229132 </i>
    <i name="e_wo_entrp">     -9.61665258 </i>
    <i name="e_0_energy">     -9.61947195 </i>
   </energy>
  </scstep>
  <scstep>
   <time name="dav">    2.25    1.37</time>
   <time name="total">    2.34    1.43</time>
   <energy>
    <i name="e_fr_energy">     -9.62172134 </i>
    <i name="e_wo_entrp">     -9.61608919 </i>
    <i name="e_0_energy">     -9.61890526 </i>
   </energy>
  </scstep>
  <scstep>
   <time name="dav">    1.85    1.17</time>
   <time name="total">    1.98    1.25</time>
   <energy>
    <i name="e_fr_energy">     -9.62138662 </i>
    <i name="e_wo_entrp">     -9.61576572 </i>
    <i name="e_0_energy">     -9.61857617 </i>
   </energy>
  </scstep>
  <scstep>
   <time name="dav">    2.32    1.43</time>
   <time name="total">    2.39    1.48</time>
   <energy>
    <i name="alphaZ">      3.90396886 </i>
    <i name="ewald">   -257.54935958 </i>
    <i name="hartreedc">     -1.61842573 </i>
    <i name="XCdc">    -18.47296708 </i>
    <i name="pawpsdc">    415.59850233 </i>
    <i name="pawaedc">   -380.37847804 </i>
    <i name="eentropy">     -0.00562128 </i>
    <i name="bandstr">     22.76906375 </i>
    <i name="atom">    206.13192747 </i>
    <i name="e_fr_energy">     -9.62138930 </i>
    <i name="e_wo_entrp">     -9.61576802 </i>
    <i name="e_0_energy">     -9.61857866 </i>
   </energy>
  </scstep>
  <structure>
   <crystal>
    <varray name="basis" >
     <v>       2.91215991       0.00000000       0.00000000 </v>
     <v>      -1.45607995       2.52200446       0.00000000 </v>
     <v>       0.00000000       0.00000000       4.69620539 </v>
    </varray>
    <i name="volume">     34.49118779 </i>
    <varray name="rec_basis" >
     <v>       0.34338774       0.19825500      -0.00000000 </v>
     <v>       0.00000000       0.39651000      -0.00000000 </v>
     <v>       0.00000000       0.00000000       0.21293788 </v>
    </varray>
   </crystal>
   <varray name="positions" >
    <v>       0.00000000       0.00000000       0.00000000 </v>
    <v>       0.33333333       0.66666667       0.50000000 </v>
   </varray>
  </structure>
  <varray name="forces" >
   <v>       0.00000000      -0.00000000       0.00000000 </v>
   <v>      -0.00000000       0.00000000       0.00000000 </v>
  </varray>
  <varray name="stress" >
   <v>     -92.08192948       0.00000000      -0.00000000 </v>
   <v>       0.00000000     -92.08192948      -0.00000000 </v>
   <v>      -0.00000000       0.00000000    -141.39330857 </v>
  </varray>
  <energy>
   <i name="e_fr_energy">     -9.62138930 </i>
   <i name="e_wo_entrp">     -9.61857866 </i>
   <i name="e_0_energy">     -0.00562128 </i>
  </energy>
  <time name="totalsc">    9.53    5.90</time>
 </calculation>
 <calculation>
  <scstep>
   <time name="dav">    2.61    1.60</time>
   <time name="total">    2.71    1.66</time>
   <energy>
    <i name="alphaZ">      3.90396886 </i>
    <i name="ewald">   -257.46371189 </i>
    <i name="hartreedc">     -1.62243779 </i>
    <i name="XCdc">    -18.47377490 </i>
    <i name="pawpsdc">    415.60630694 </i>
    <i name="pawaedc">   -380.38627749 </i>
    <i name="eentropy">     -0.00363353 </i>
    <i name="bandstr">     22.66505206 </i>
    <i name="atom">    206.13192747 </i>
    <i name="e_fr_energy">     -9.64258027 </i>
    <i name="e_wo_entrp">     -9.63894674 </i>
    <i name="e_0_energy">     -9.64076351 </i>
   </energy>
  </scstep>
  <scstep>
   <time name="dav">    2.09    1.26</time>
   <time name="total">    2.20    1.32</time>
   <energy>
    <i name="e_fr_energy">     -9.63751840 </i>
    <i name="e_wo_entrp">     -9.63393702 </i>
    <i name="e_0_energy">     -9.63572771 </i>
   </energy>
  </scstep>
  <scstep>
   <time name="dav">    2.10    1.37</time>
   <time name="total">    2.19    1.43</time>
   <energy>
    <i name="e_fr_energy">     -9.63453024 </i>
    <i name="e_wo_entrp">     -9.63103858 </i>
    <i name="e_0_energy">     -9.63278441 </i>
   </energy>
  </scstep>
  <scstep>
   <time name="dav">    1.99    1.26</time>
   <time name="total">    2.09    1.33</time>
   <energy>
    <i name="e_fr_energy">     -9.63455075 </i>
    <i name="e_wo_entrp">     -9.63105551 </i>
    <i name="e_0_energy">     -9.63280313 </i>
   </energy>
  </scstep>
  <scstep>
   <time name="dav">    1.64    1.04</time>
   <time name="total">    1.71    1.09</time>
   <energy>
    <i name="alphaZ">      3.90396886 </i>
    <i name="ewald">   -257.46371189 </i>
    <i name="hartreedc">     -1.66686976 </i>
    <i name="XCdc">    -18.46875064 </i>
    <i name="pawpsdc">    417.39978699 </i>
    <i name="pawaedc">   -382.18087748 </i>
    <i name="eentropy">     -0.00349490 </i>
    <i name="bandstr">     22.71346575 </i>
    <i name="atom">    206.13192747 </i>
    <i name="e_fr_energy">     -9.63455559 </i>
    <i name="e_wo_entrp">     -9.63106069 </i>
    <i name="e_0_energy">     -9.63280814 </i>
   </energy>
  </scstep>
  <structure>
   <crystal>
    <varray name="basis" >
     <v>       2.94926808       0.00000000       0.00000000 </v>
     <v>      -1.47463404       2.55414108       0.00000000 </v>
     <v>       0.00000000       0.00000000       4.57877200 </v>
    </varray>
    <i name="volume">     34.49118779 </i>
    <varray name="rec_basis" >
     <v>       0.33906718       0.19576053      -0.00000000 </v>
     <v>       0.00000000       0.39152105      -0.00000000 </v>
     <v>       0.00000000       0.00000000       0.21839917 </v>
    </varray>
   </crystal>
   <varray name="positions" >
    <v>       0.00000000       0.00000000       0.00000000 </v>
    <v>       0.33333333       0.66666667       0.50000000 </v>
   </varray>
  </structure>
  <varray name="forces" >
   <v>       0.00000000      -0.00000000       0.00000000 </v>
   <v>      -0.00000000       0.00000000       0.00000000 </v>
  </varray>
  <varray name="stress" >
   <v>    -112.51342177       0.00000000       0.00000000 </v>
   <v>       0.00000000    -112.51342177       0.00000000 </v>
   <v>      -0.00000000       0.00000000     -95.86281231 </v>
  </varray>
  <energy>
   <i name="e_fr_energy">     -9.63455559 </i>
   <i name="e_wo_entrp">     -9.63280814 </i>
   <i name="e_0_energy">     -0.00349490 </i>
  </energy>
  <time name="totalsc">   11.73    7.40</time>
 </calculation>
 <calculation>
  <scstep>
   <time name="dav">    2.48    1.52</time>
   <time name="total">    2.58    1.58</time>
   <energy>
    <i name="alphaZ">      3.90396886 </i>
    <i name="ewald">   -257.49410814 </i>
    <i name="hartreedc">     -1.66294898 </i>
    <i name="XCdc">    -18.46896133 </i>
    <i name="pawpsdc">    417.52466211 </i>
    <i name="pawaedc">   -382.30564496 </i>
    <i name="eentropy">     -0.00301722 </i>
    <i name="bandstr">     22.73817121 </i>
    <i name="atom">    206.13192747 </i>
    <i name="e_fr_energy">     -9.63595098 </i>
    <i name="e_wo_entrp">     -9.63293375 </i>
    <i name="e_0_energy">     -9.63444236 </i>
   </energy>
  </scstep>
  <scstep>
   <time name="dav">    1.84    1.21</time>
   <time name="total">    1.96    1.29</time>
   <energy>
    <i name="e_fr_energy">     -9.63560899 </i>
    <i name="e_wo_entrp">     -9.63257624 </i>
    <i name="e_0_energy">     -9.63409261 </i>
   </energy>
  </scstep>
  <scstep>
   <time name="dav">    2.26    1.57</time>
   <time name="total">    2.37    1.64</time>
   <energy>
    <i name="e_fr_energy">     -9.63541291 </i>
    <i name="e_wo_entrp">     -9.63235956 </i>
    <i name="e_0_energy">     -9.63388623 </i>
   </energy>
  </scstep>
  <scstep>
   <time name="dav">    1.55    1.00</time>
   <time name="total">    1.61    1.05</time>
   <energy>
    <i name="alphaZ">      3.90396886 </i>
    <i name="ewald">   -257.49410814 </i>
    <i name="hartreedc">     -1.64845951 </i>
    <i name="XCdc">    -18.47056603 </i>
    <i name="pawpsdc">    416.83253486 </i>
    <i name="pawaedc">   -381.61306243 </i>
    <i name="eentropy">     -0.00305265 </i>
    <i name="bandstr">     22.72540314 </i>
    <i name="atom">    206.13192747 </i>
    <i name="e_fr_energy">     -9.63541442 </i>
    <i name="e_wo_entrp">     -9.63236177 </i>
    <i name="e_0_energy">     -9.63388809 </i>
   </energy>
  </scstep>
  <structure>
   <crystal>
    <varray name="basis" >
     <v>       2.93980997       0.00000000       0.00000000 </v>
     <v>      -1.46990498       2.54595011       0.00000000 </v>
     <v>       0.00000000       0.00000000       4.60828153 </v>
    </varray>
    <i name="volume">     34.49118779 </i>
    <varray name="rec_basis" >
     <v>       0.34015804       0.19639034      -0.00000000 </v>
     <v>       0.00000000       0.39278067      -0.00000000 </v>
     <v>       0.00000000       0.00000000       0.21700063 </v>
    </varray>
   </crystal>
   <varray name="positions" >
    <v>       0.00000000       0.00000000       0.00000000 </v>
    <v>       0.33333333       0.66666667       0.50000000 </v>
   </varray>
  </structure>
  <varray name="forces" >
   <v>       0.00000000      -0.00000000       0.00000000 </v>
   <v>      -0.00000000       0.00000000       0.00000000 </v>
  </varray>
  <varray name="stress" >
   <v>    -106.14740794       0.00000000       0.00000000 </v>
   <v>       0.00000000    -106.14740794       0.00000000 </v>
   <v>      -0.00000000       0.00000000    -110.69049631 </v>
  </varray>
  <energy>
   <i name="e_fr_energy">     -9.63541442 </i>
   <i name="e_wo_entrp">     -9.63388809 </i>
   <i name="e_0_energy">     -0.00305265 </i>
  </energy>
  <time name="totalsc">    9.12    6.03</time>
 </calculation>
 <calculation>
  <scstep>
   <time name="dav">    2.61    1.82</time>
   <time name="total">    2.71    1.89</time>
   <energy>
    <i name="alphaZ">      3.90396886 </i>
    <i name="ewald">   -257.48807719 </i>
    <i name="hartreedc">     -1.64914653 </i>
    <i name="XCdc">    -18.47054366 </i>
    <i name="pawpsdc">    416.71872643 </i>
    <i name="pawaedc">   -381.49930804 </i>
    <i name="eentropy">     -0.00314016 </i>
    <i name="bandstr">     22.72009224 </i>
    <i name="atom">    206.13192747 </i>
    <i name="e_fr_energy">     -9.63550057 </i>
    <i name="e_wo_entrp">     -9.63236041 </i>
    <i name="e_0_energy">     -9.63393049 </i>
   </energy>
  </scstep>
  <scstep>
   <time name="dav">    2.14    1.45</time>
   <time name="total">    2.25    1.53</time>
   <energy>
    <i name="e_fr_energy">     -9.63548397 </i>
    <i name="e_wo_entrp">     -9.63234751 </i>
    <i name="e_0_energy">     -9.63391574 </i>
   </energy>
  </scstep>
  <scstep>
   <time name="dav">    1.39    0.86</time>
   <time name="total">    1.48    0.92</time>
   <energy>
    <i name="alphaZ">      3.90396886 </i>
    <i name="ewald">   -257.48807719 </i>
    <i name="hartreedc">     -1.65221846 </i>
    <i name="XCdc">    -18.47020000 </i>
    <i name="pawpsdc">    416.82585007 </i>
    <i name="pawaedc">   -381.60654437 </i>
    <i name="eentropy">     -0.00313127 </i>
    <i name="bandstr">     22.72295039 </i>
    <i name="atom">    206.13192747 </i>
    <i name="e_fr_energy">     -9.63547447 </i>
    <i name="e_wo_entrp">     -9.63234321 </i>
    <i name="e_0_energy">     -9.63390884 </i>
   </energy>
  </scstep>
  <structure>
   <crystal>
    <varray name="basis" >
     <v>       2.94183215       0.00000000       0.00000000 </v>
     <v>      -1.47091607       2.54770137       0.00000000 </v>
     <v>       0.00000000       0.00000000       4.60194835 </v>
    </varray>
    <i name="volume">     34.49118779 </i>
    <varray name="rec_basis" >
     <v>       0.33992422       0.19625534      -0.00000000 </v>
     <v>       0.00000000       0.39251068      -0.00000000 </v>
     <v>       0.00000000       0.00000000       0.21729927 </v>
    </varray>
   </crystal>
   <varray name="positions" >
    <v>       0.00000000       0.00000000       0.00000000 </v>
    <v>       0.33333333       0.66666667       0.50000000 </v>
   </varray>
  </structure>
  <varray name="forces" >
   <v>       0.00000000      -0.00000000       0.00000000 </v>
   <v>      -0.00000000       0.00000000       0.00000000 </v>
  </varray>
  <varray name="stress" >
   <v>    -107.68334911      -0.00000000       0.00000000 </v>
   <v>       0.00000000    -107.68334911       0.00000000 </v>
   <v>      -0.00000000       0.00000000    -107.25179719 </v>
  </varray>
  <energy>
   <i name="e_fr_energy">     -9.63547447 </i>
   <i name="e_wo_entrp">     -9.63390884 </i>
   <i name="e_0_energy">     -0.00313127 </i>
  </energy>
  <time name="totalsc">    6.94    4.73</time>
  <eigenvalues>
   <array>
    <dimension dim="1">band</dimension>
    <dimension dim="2">kpoint</dimension>
    <dimension dim="3">spin</dimension>
    <field>eigene</field>
    <field>occ</field>
    <set>
     <set comment="spin 1">
      <set comment="kpoint 1">
       <r>   -4.4219    1.0000 </r>
       <r>    1.1260    1.0000 </r>
       <r>    3.5037    1.0000 </r>
       <r>   11.0392    0.0000 </r>
       <r>   11.8469    0.0000 </r>
       <r>   15.3826    0.0000 </r>
       <r>   15.9421    0.0000 </r>
       <r>   16.3625    0.0000 </r>
      </set>
      <set comment="kpoint 2">
       <r>   -2.8958    1.0000 </r>
       <r>    2.6009    1.0000 </r>
       <r>    4.9161    1.0000 </r>
       <r>    6.1929    1.0000 </r>
       <r>    9.6203    0.0000 </r>
       <r>   11.3326    0.0000 </r>
       <r>   13.3171    0.0000 </r>
       <r>   14.5402    0.0000 </r>
      </set>
      <set comment="kpoint 3">
       <r>   -0.2725    1.0000 </r>
       <r>    1.7946    1.0000 </r>
       <r>    5.2327    1.0000 </r>
       <r>    6.9849    1.0000 </r>
       <r>    7.5614    1.0000 </r>
       <r>    8.8527    0.0000 </r>
       <r>    9.5970    0.0000 </r>
       <r>   13.7373    0.0000 </r>
      </set>
      <set comment="kpoint 4">
       <r>   -1.6946    1.0000 </r>
       <r>    3.4799    1.0000 </r>
       <r>    4.1226    1.0000 </r>
       <r>    6.0940    1.0000 </r>
       <r>    8.8739    0.0000 </r>
       <r>    9.3498    0.0000 </r>
       <r>   11.3518    0.0000 </r>
       <r>   14.0039    0.0000 </r>
      </set>
      <set comment="kpoint 5">
       <r>   -3.8090    1.0000 </r>
       <r>    1.7219    1.0000 </r>
       <r>    4.0813    1.0000 </r>
       <r>    8.6545    0.0000 </r>
       <r>   10.5077    0.0000 </r>
       <r>   13.5687    0.0000 </r>
       <r>   14.9776    0.0000 </r>
       <r>   15.4107    0.0000 </r>
      </set>
      <set comment="kpoint 6">
       <r>   -4.7293    1.0000 </r>
       <r>    0.8262    1.0000 </r>
       <r>    3.2126    1.0000 </r>
       <r>   12.5827    0.0000 </r>
       <r>   13.4952    0.0000 </r>
       <r>   15.4672    0.0000 </r>
       <r>   16.4889    0.0000 </r>
       <r>   17.0188    0.0000 </r>
      </set>
      <set comment="kpoint 7">
       <r>   -0.8009    1.0000 </r>
       <r>    3.9377    1.0000 </r>
       <r>    4.9059    1.0000 </r>
       <r>    5.3488    1.0000 </r>
       <r>    6.9431    1.0000 </r>
       <r>    9.5356    0.0000 </r>
       <r>   10.4192    0.0000 </r>
       <r>   11.5609    0.0000 </r>
      </set>
      <set comment="kpoint 8">
       <r>    0.6119    1.0000 </r>
       <r>    2.5152    1.0000 </r>
       <r>    4.6649    1.0000 </r>
       <r>    6.1470    1.0000 </r>
       <r>    7.8176    0.9997 </r>
       <r>    8.3588    0.0000 </r>
       <r>    9.5759    0.0000 </r>
       <r>   10.4562    0.0000 </r>
      </set>
      <set comment="kpoint 9">
       <r>   -1.9905    1.0000 </r>
       <r>    3.4432    1.0000 </r>
       <r>    5.1635    1.0000 </r>
       <r>    5.8881    1.0000 </r>
       <r>    7.2474    1.0000 </r>
       <r>   10.4576    0.0000 </r>
       <r>   12.0419    0.0000 </r>
       <r>   12.7800    0.0000 </r>
      </set>
      <set comment="kpoint 10">
       <r>   -3.5039    1.0000 </r>
       <r>    2.0170    1.0000 </r>
       <r>    4.3656    1.0000 </r>
       <r>    7.3216    1.0000 </r>
       <r>   11.5140    0.0000 </r>
       <r>   12.2440    0.0000 </r>
       <r>   13.9125    0.0000 </r>
       <r>   14.8448    0.0000 </r>
      </set>
      <set comment="kpoint 11">
       <r>    0.5490    1.0000 </r>
       <r>    1.5485    1.0000 </r>
       <r>    5.9524    1.0000 </r>
       <r>    6.6851    1.0000 </r>
       <r>    6.8465    1.0000 </r>
       <r>    8.2580    0.0025 </r>
       <r>    9.3100    0.0000 </r>
       <r>   11.8397    0.0000 </r>
      </set>
      <set comment="kpoint 12">
       <r>   -1.1107    1.0000 </r>
       <r>    2.6000    1.0000 </r>
       <r>    4.4361    1.0000 </r>
       <r>    6.5953    1.0000 </r>
       <r>    8.0478    0.5644 </r>
       <r>   10.3219    0.0000 </r>
       <r>   10.4436    0.0000 </r>
       <r>   12.9995    0.0000 </r>
      </set>
      <set comment="kpoint 13">
       <r>   -4.0429    1.0000 </r>
       <r>   -0.6737    1.0000 </r>
       <r>    5.9723    1.0000 </r>
       <r>   11.3758    0.0000 </r>
       <r>   12.1512    0.0000 </r>
       <r>   14.1194    0.0000 </r>
       <r>   14.9862    0.0000 </r>
       <r>   15.0217    0.0000 </r>
      </set>
      <set comment="kpoint 14">
       <r>   -2.5198    1.0000 </r>
       <r>    0.8209    1.0000 </r>
       <r>    6.4300    1.0000 </r>
       <r>    7.4385    1.0000 </r>
       <r>    9.5762    0.0000 </r>
       <r>   10.1147    0.0000 </r>
       <r>   12.9956    0.0000 </r>
       <r>   14.7436    0.0000 </r>
      </set>
      <set comment="kpoint 15">
       <r>    0.0966    1.0000 </r>
       <r>    2.1210    1.0000 </r>
       <r>    3.4955    1.0000 </r>
       <r>    5.4470    1.0000 </r>
       <r>    9.0624    0.0000 </r>
       <r>    9.9391    0.0000 </r>
       <r>   11.5276    0.0000 </r>
       <r>   12.6175    0.0000 </r>
      </set>
      <set comment="kpoint 16">
       <r>   -1.3212    1.0000 </r>
       <r>    1.9779    1.0000 </r>
       <r>    4.2095    1.0000 </r>
       <r>    7.3164    1.0000 </r>
       <r>    8.5813    0.0000 </r>
       <r>    9.4931    0.0000 </r>
       <r>   12.3591    0.0000 </r>
       <r>   13.6258    0.0000 </r>
      </set>
      <set comment="kpoint 17">
       <r>   -3.4312    1.0000 </r>
       <r>   -0.0724    1.0000 </r>
       <r>    6.5252    1.0000 </r>
       <r>    9.0106    0.0000 </r>
       <r>   10.8207    0.0000 </r>
       <r>   12.0691    0.0000 </r>
       <r>   13.8381    0.0000 </r>
       <r>   15.1060    0.0000 </r>
      </set>
      <set comment="kpoint 18">
       <r>   -4.3498    1.0000 </r>
       <r>   -0.9757    1.0000 </r>
       <r>    5.6888    1.0000 </r>
       <r>   12.8974    0.0000 </r>
       <r>   13.8050    0.0000 </r>
       <r>   14.6144    0.0000 </r>
       <r>   15.2421    0.0000 </r>
       <r>   16.0724    0.0000 </r>
      </set>
      <set comment="kpoint 19">
       <r>   -0.4298    1.0000 </r>
       <r>    2.8220    1.0000 </r>
       <r>    4.6107    1.0000 </r>
       <r>    5.6979    1.0000 </r>
       <r>    7.8012    0.9999 </r>
       <r>    8.5554    0.0000 </r>
       <r>    9.7845    0.0000 </r>
       <r>   13.7108    0.0000 </r>
      </set>
      <set comment="kpoint 20">
       <r>    0.9775    1.0000 </r>
       <r>    2.8351    1.0000 </r>
       <r>    4.3457    1.0000 </r>
       <r>    5.0872    1.0000 </r>
       <r>    6.2145    1.0000 </r>
       <r>    8.1626    0.0719 </r>
       <r>   10.7830    0.0000 </r>
       <r>   12.5268    0.0000 </r>
      </set>
      <set comment="kpoint 21">
       <r>   -1.6164    1.0000 </r>
       <r>    1.7009    1.0000 </r>
       <r>    5.5387    1.0000 </r>
       <r>    7.5443    1.0000 </r>
       <r>    8.1420    0.1209 </r>
       <r>    8.9015    0.0000 </r>
       <r>   10.8189    0.0000 </r>
       <r>   14.5160    0.0000 </r>
      </set>
      <set comment="kpoint 22">
       <r>   -3.1266    1.0000 </r>
       <r>    0.2265    1.0000 </r>
       <r>    6.7631    1.0000 </r>
       <r>    7.7178    1.0000 </r>
       <r>   10.7622    0.0000 </r>
       <r>   11.8438    0.0000 </r>
       <r>   14.0279    0.0000 </r>
       <r>   14.6615    0.0000 </r>
      </set>
      <set comment="kpoint 23">
       <r>    0.9148    1.0000 </r>
       <r>    1.8978    1.0000 </r>
       <r>    4.2727    1.0000 </r>
       <r>    5.2029    1.0000 </r>
       <r>    6.9592    1.0000 </r>
       <r>    9.8958    0.0000 </r>
       <r>   10.6342    0.0000 </r>
       <r>   11.9976    0.0000 </r>
      </set>
      <set comment="kpoint 24">
       <r>   -0.7389    1.0000 </r>
       <r>    2.4406    1.0000 </r>
       <r>    3.1803    1.0000 </r>
       <r>    6.2495    1.0000 </r>
       <r>    9.1120    0.0000 </r>
       <r>   10.7775    0.0000 </r>
       <r>   12.3271    0.0000 </r>
       <r>   13.4992    0.0000 </r>
      </set>
      <set comment="kpoint 25">
       <r>   -3.2874    1.0000 </r>
       <r>   -2.1607    1.0000 </r>
       <r>    8.7672    0.0000 </r>
       <r>   11.6885    0.0000 </r>
       <r>   12.0352    0.0000 </r>
       <r>   12.7250    0.0000 </r>
       <r>   13.3569    0.0000 </r>
       <r>   13.9060    0.0000 </r>
      </set>
      <set comment="kpoint 26">
       <r>   -1.7702    1.0000 </r>
       <r>   -0.6527    1.0000 </r>
       <r>    7.1733    1.0000 </r>
       <r>    8.1996    0.0236 </r>
       <r>   10.1173    0.0000 </r>
       <r>   10.7174    0.0000 </r>
       <r>   11.8046    0.0000 </r>
       <r>   13.2373    0.0000 </r>
      </set>
      <set comment="kpoint 27">
       <r>    0.8280    1.0000 </r>
       <r>    1.8757    1.0000 </r>
       <r>    3.0120    1.0000 </r>
       <r>    4.0386    1.0000 </r>
       <r>    9.7914    0.0000 </r>
       <r>   10.7621    0.0000 </r>
       <r>   12.5239    0.0000 </r>
       <r>   13.8822    0.0000 </r>
      </set>
      <set comment="kpoint 28">
       <r>   -0.5774    1.0000 </r>
       <r>    0.5294    1.0000 </r>
       <r>    4.9131    1.0000 </r>
       <r>    5.9753    1.0000 </r>
       <r>   10.0514    0.0000 </r>
       <r>   10.8488    0.0000 </r>
       <r>   11.6349    0.0000 </r>
       <r>   13.8609    0.0000 </r>
      </set>
      <set comment="kpoint 29">
       <r>   -2.6780    1.0000 </r>
       <r>   -1.5547    1.0000 </r>
       <r>    9.1591    0.0000 </r>
       <r>    9.7819    0.0000 </r>
       <r>   10.6784    0.0000 </r>
       <r>   11.4231    0.0000 </r>
       <r>   12.5070    0.0000 </r>
       <r>   12.8191    0.0000 </r>
      </set>
      <set comment="kpoint 30">
       <r>   -3.5932    1.0000 </r>
       <r>   -2.4649    1.0000 </r>
       <r>    8.5055    0.0000 </r>
       <r>   11.5452    0.0000 </r>
       <r>   13.5506    0.0000 </r>
       <r>   14.4064    0.0000 </r>
       <r>   14.4132    0.0000 </r>
       <r>   15.2355    0.0000 </r>
      </set>
      <set comment="kpoint 31">
       <r>    0.3089    1.0000 </r>
       <r>    1.4053    1.0000 </r>
       <r>    5.2858    1.0000 </r>
       <r>    6.2116    1.0000 </r>
       <r>    6.5765    1.0000 </r>
       <r>    7.4647    1.0000 </r>
       <r>   12.2015    0.0000 </r>
       <r>   14.5396    0.0000 </r>
      </set>
      <set comment="kpoint 32">
       <r>    1.6995    1.0000 </r>
       <r>    2.7067    1.0000 </r>
       <r>    3.7837    1.0000 </r>
       <r>    4.7665    1.0000 </r>
       <r>    5.8035    1.0000 </r>
       <r>    6.8367    1.0000 </r>
       <r>   13.2936    0.0000 </r>
       <r>   14.5149    0.0000 </r>
      </set>
      <set comment="kpoint 33">
       <r>   -0.8708    1.0000 </r>
       <r>    0.2398    1.0000 </r>
       <r>    6.2506    1.0000 </r>
       <r>    7.2862    1.0000 </r>
       <r>    8.3089    0.0002 </r>
       <r>    9.2474    0.0000 </r>
       <r>   11.2547    0.0000 </r>
       <r>   13.9186    0.0000 </r>
      </set>
      <set comment="kpoint 34">
       <r>   -2.3746    1.0000 </r>
       <r>   -1.2531    1.0000 </r>
       <r>    8.2902    0.0005 </r>
       <r>    9.1831    0.0000 </r>
       <r>    9.8805    0.0000 </r>
       <r>   12.4973    0.0000 </r>
       <r>   12.5313    0.0000 </r>
       <r>   13.4562    0.0000 </r>
      </set>
      <set comment="kpoint 35">
       <r>    1.6325    1.0000 </r>
       <r>    2.4074    1.0000 </r>
       <r>    3.0448    1.0000 </r>
       <r>    3.8038    1.0000 </r>
       <r>    7.6537    1.0000 </r>
       <r>    8.6786    0.0000 </r>
       <r>   13.1511    0.0000 </r>
       <r>   14.0953    0.0000 </r>
      </set>
      <set comment="kpoint 36">
       <r>    0.0009    1.0000 </r>
       <r>    1.0965    1.0000 </r>
       <r>    3.7872    1.0000 </r>
       <r>    4.8522    1.0000 </r>
       <r>   11.4409    0.0000 </r>
       <r>   11.6481    0.0000 </r>
       <r>   12.4201    0.0000 </r>
       <r>   13.2282    0.0000 </r>
      </set>
     </set>
    </set>
   </array>
  </eigenvalues>
  <separator name="orbital magnetization" >
   <v name="MAGDIPOLOUT">      0.00000000      0.00000000      0.00000000</v>
  </separator>
  <dos>
   <i name="efermi">      8.05922444 </i>
   <total>
    <array>
     <dimension dim="1">gridpoints</dimension>
     <dimension dim="2">spin</dimension>
     <field>energy</field>
     <field>total</field>
     <field>integrated</field>
     <set>
      <set comment="spin 1">
       <r>    -5.8167     0.0000     0.0000 </r>
       <r>    -5.7370     0.0000     0.0000 </r>
       <r>    -5.6572     0.0000     0.0000 </r>
       <r>    -5.5775     0.0000     0.0000 </r>
       <r>    -5.4977     0.0000     0.0000 </r>
       <r>    -5.4180     0.0000     0.0000 </r>
       <r>    -5.3383     0.0000     0.0000 </r>
       <r>    -5.2585     0.0000     0.0000 </r>
       <r>    -5.1788     0.0000     0.0000 </r>
       <r>    -5.0990     0.0000     0.0000 </r>
       <r>    -5.0193     0.0000     0.0000 </r>
       <r>    -4.9395     0.0007     0.0001 </r>
       <r>    -4.8598     0.0144     0.0012 </r>
       <r>    -4.7801     0.0947     0.0088 </r>
       <r>    -4.7003     0.1963     0.0244 </r>
       <r>    -4.6206     0.1307     0.0348 </r>
       <r>    -4.5408     0.0489     0.0387 </r>
       <r>    -4.4611     0.1400     0.0499 </r>
       <r>    -4.3813     0.3238     0.0757 </r>
       <r>    -4.3016     0.3081     0.1003 </r>
       <r>    -4.2219     0.1209     0.1099 </r>
       <r>    -4.1421     0.0513     0.1140 </r>
       <r>    -4.0624     0.1455     0.1256 </r>
       <r>    -3.9826     0.1975     0.1414 </r>
       <r>    -3.9029     0.1595     0.1541 </r>
       <r>    -3.8231     0.3163     0.1793 </r>
       <r>    -3.7434     0.3820     0.2098 </r>
       <r>    -3.6637     0.2178     0.2271 </r>
       <r>    -3.5839     0.2684     0.2485 </r>
       <r>    -3.5042     0.4584     0.2851 </r>
       <r>    -3.4244     0.5880     0.3320 </r>
       <r>    -3.3447     0.4705     0.3695 </r>
       <r>    -3.2649     0.3039     0.3937 </r>
       <r>    -3.1852     0.2314     0.4122 </r>
       <r>    -3.1055     0.2260     0.4302 </r>
       <r>    -3.0257     0.1736     0.4441 </r>
       <r>    -2.9460     0.2247     0.4620 </r>
       <r>    -2.8662     0.3990     0.4938 </r>
       <r>    -2.7865     0.3115     0.5186 </r>
       <r>    -2.7067     0.3168     0.5439 </r>
       <r>    -2.6270     0.4572     0.5803 </r>
       <r>    -2.5472     0.5077     0.6208 </r>
       <r>    -2.4675     0.6291     0.6710 </r>
       <r>    -2.3878     0.5156     0.7121 </r>
       <r>    -2.3080     0.2798     0.7344 </r>
       <r>    -2.2283     0.1493     0.7463 </r>
       <r>    -2.1485     0.2055     0.7627 </r>
       <r>    -2.0688     0.2686     0.7841 </r>
       <r>    -1.9890     0.3898     0.8152 </r>
       <r>    -1.9093     0.3668     0.8445 </r>
       <r>    -1.8296     0.2957     0.8680 </r>
       <r>    -1.7498     0.5985     0.9158 </r>
       <r>    -1.6701     0.9005     0.9876 </r>
       <r>    -1.5903     0.9687     1.0648 </r>
       <r>    -1.5106     0.7340     1.1234 </r>
       <r>    -1.4308     0.3286     1.1496 </r>
       <r>    -1.3511     0.3313     1.1760 </r>
       <r>    -1.2714     0.5469     1.2196 </r>
       <r>    -1.1916     0.4364     1.2544 </r>
       <r>    -1.1119     0.2911     1.2776 </r>
       <r>    -1.0321     0.2815     1.3001 </r>
       <r>    -0.9524     0.3629     1.3290 </r>
       <r>    -0.8726     0.5633     1.3739 </r>
       <r>    -0.7929     0.6933     1.4292 </r>
       <r>    -0.7132     0.7696     1.4906 </r>
       <r>    -0.6334     0.9467     1.5661 </r>
       <r>    -0.5537     0.8400     1.6330 </r>
       <r>    -0.4739     0.4744     1.6709 </r>
       <r>    -0.3942     0.3042     1.6951 </r>
       <r>    -0.3144     0.3409     1.7223 </r>
       <r>    -0.2347     0.4293     1.7565 </r>
       <r>    -0.1550     0.3410     1.7837 </r>
       <r>    -0.0752     0.4452     1.8192 </r>
       <r>     0.0045     0.6128     1.8681 </r>
       <r>     0.0843     0.6168     1.9173 </r>
       <r>     0.1640     0.6384     1.9682 </r>
       <r>     0.2438     0.7623     2.0290 </r>
       <r>     0.3235     0.6879     2.0838 </r>
       <r>     0.4032     0.3323     2.1103 </r>
       <r>     0.4830     0.3568     2.1388 </r>
       <r>     0.5627     0.7799     2.2010 </r>
       <r>     0.6425     0.8034     2.2651 </r>
       <r>     0.7222     0.5030     2.3052 </r>
       <r>     0.8020     0.7843     2.3677 </r>
       <r>     0.8817     1.1680     2.4608 </r>
       <r>     0.9614     0.9413     2.5359 </r>
       <r>     1.0412     0.6745     2.5897 </r>
       <r>     1.1209     0.5297     2.6319 </r>
       <r>     1.2007     0.3355     2.6587 </r>
       <r>     1.2804     0.1092     2.6674 </r>
       <r>     1.3602     0.1139     2.6765 </r>
       <r>     1.4399     0.2270     2.6946 </r>
       <r>     1.5196     0.2860     2.7174 </r>
       <r>     1.5994     0.5147     2.7584 </r>
       <r>     1.6791     1.1243     2.8481 </r>
       <r>     1.7589     1.5733     2.9735 </r>
       <r>     1.8386     1.3167     3.0785 </r>
       <r>     1.9184     1.0880     3.1653 </r>
       <r>     1.9981     0.9626     3.2421 </r>
       <r>     2.0778     0.7636     3.3030 </r>
       <r>     2.1576     0.5487     3.3467 </r>
       <r>     2.2373     0.2546     3.3670 </r>
       <r>     2.3171     0.1075     3.3756 </r>
       <r>     2.3968     0.3101     3.4003 </r>
       <r>     2.4766     0.6629     3.4532 </r>
       <r>     2.5563     0.9128     3.5260 </r>
       <r>     2.6360     0.9805     3.6041 </r>
       <r>     2.7158     0.8309     3.6704 </r>
       <r>     2.7955     0.7495     3.7302 </r>
       <r>     2.8753     0.7126     3.7870 </r>
       <r>     2.9550     0.5361     3.8297 </r>
       <r>     3.0348     0.6097     3.8784 </r>
       <r>     3.1145     0.5729     3.9241 </r>
       <r>     3.1942     0.4643     3.9611 </r>
       <r>     3.2740     0.3657     3.9902 </r>
       <r>     3.3537     0.2672     4.0116 </r>
       <r>     3.4335     0.7568     4.0719 </r>
       <r>     3.5132     1.3238     4.1775 </r>
       <r>     3.5930     0.8380     4.2443 </r>
       <r>     3.6727     0.2681     4.2657 </r>
       <r>     3.7525     0.4806     4.3040 </r>
       <r>     3.8322     0.8197     4.3694 </r>
       <r>     3.9119     0.6067     4.4177 </r>
       <r>     3.9917     0.5887     4.4647 </r>
       <r>     4.0714     1.0185     4.5459 </r>
       <r>     4.1512     1.2068     4.6421 </r>
       <r>     4.2309     0.9968     4.7216 </r>
       <r>     4.3107     0.8991     4.7933 </r>
       <r>     4.3904     0.8787     4.8634 </r>
       <r>     4.4701     0.5817     4.9098 </r>
       <r>     4.5499     0.3136     4.9348 </r>
       <r>     4.6296     0.4808     4.9731 </r>
       <r>     4.7094     0.7272     5.0311 </r>
       <r>     4.7891     0.7958     5.0946 </r>
       <r>     4.8689     1.0337     5.1770 </r>
       <r>     4.9486     1.2274     5.2749 </r>
       <r>     5.0283     0.8297     5.3410 </r>
       <r>     5.1081     0.7512     5.4009 </r>
       <r>     5.1878     1.0801     5.4871 </r>
       <r>     5.2676     1.1288     5.5771 </r>
       <r>     5.3473     0.8119     5.6418 </r>
       <r>     5.4271     0.6495     5.6936 </r>
       <r>     5.5068     0.7064     5.7500 </r>
       <r>     5.5865     0.6213     5.7995 </r>
       <r>     5.6663     0.5094     5.8401 </r>
       <r>     5.7460     0.6132     5.8890 </r>
       <r>     5.8258     0.7665     5.9501 </r>
       <r>     5.9055     0.9974     6.0297 </r>
       <r>     5.9853     1.1774     6.1236 </r>
       <r>     6.0650     1.0967     6.2110 </r>
       <r>     6.1447     1.3802     6.3211 </r>
       <r>     6.2245     1.9035     6.4729 </r>
       <r>     6.3042     1.4852     6.5913 </r>
       <r>     6.3840     0.6879     6.6462 </r>
       <r>     6.4637     0.6448     6.6976 </r>
       <r>     6.5435     0.8530     6.7656 </r>
       <r>     6.6232     0.8240     6.8313 </r>
       <r>     6.7029     0.6128     6.8802 </r>
       <r>     6.7827     0.6526     6.9322 </r>
       <r>     6.8624     0.8883     7.0031 </r>
       <r>     6.9422     0.9911     7.0821 </r>
       <r>     7.0219     0.8737     7.1518 </r>
       <r>     7.1017     0.5257     7.1937 </r>
       <r>     7.1814     0.6619     7.2465 </r>
       <r>     7.2611     1.2330     7.3448 </r>
       <r>     7.3409     1.4585     7.4611 </r>
       <r>     7.4206     1.1390     7.5519 </r>
       <r>     7.5004     1.0825     7.6382 </r>
       <r>     7.5801     1.1348     7.7287 </r>
       <r>     7.6599     0.8562     7.7970 </r>
       <r>     7.7396     0.6662     7.8501 </r>
       <r>     7.8193     0.7352     7.9088 </r>
       <r>     7.8991     0.5316     7.9511 </r>
       <r>     7.9788     0.2264     7.9692 </r>
       <r>     8.0586     0.3812     7.9996 </r>
       <r>     8.1383     0.9597     8.0761 </r>
       <r>     8.2181     1.4462     8.1915 </r>
       <r>     8.2978     1.4416     8.3064 </r>
       <r>     8.3775     1.1520     8.3983 </r>
       <r>     8.4573     0.6739     8.4520 </r>
       <r>     8.5370     0.6981     8.5077 </r>
       <r>     8.6168     1.0350     8.5902 </r>
       <r>     8.6965     1.0143     8.6711 </r>
       <r>     8.7763     0.8269     8.7370 </r>
       <r>     8.8560     1.1033     8.8250 </r>
       <r>     8.9357     1.3178     8.9301 </r>
       <r>     9.0155     1.1213     9.0195 </r>
       <r>     9.0952     1.1629     9.1123 </r>
       <r>     9.1750     1.2220     9.2097 </r>
       <r>     9.2547     1.1414     9.3007 </r>
       <r>     9.3345     0.9869     9.3794 </r>
       <r>     9.4142     0.7752     9.4412 </r>
       <r>     9.4940     0.9466     9.5167 </r>
       <r>     9.5737     1.7200     9.6539 </r>
       <r>     9.6534     1.7724     9.7952 </r>
       <r>     9.7332     1.1504     9.8870 </r>
       <r>     9.8129     1.2270     9.9848 </r>
       <r>     9.8927     1.2393    10.0836 </r>
       <r>     9.9724     1.0199    10.1650 </r>
       <r>    10.0522     1.0017    10.2448 </r>
       <r>    10.1319     1.1550    10.3369 </r>
       <r>    10.2116     0.7381    10.3958 </r>
       <r>    10.2914     0.3303    10.4221 </r>
       <r>    10.3711     0.5865    10.4689 </r>
       <r>    10.4509     1.3051    10.5730 </r>
       <r>    10.5306     1.4578    10.6892 </r>
       <r>    10.6104     0.9678    10.7664 </r>
       <r>    10.6901     1.3137    10.8712 </r>
       <r>    10.7698     2.3032    11.0548 </r>
       <r>    10.8496     2.4527    11.2504 </r>
       <r>    10.9293     1.2616    11.3510 </r>
       <r>    11.0091     0.3795    11.3813 </r>
       <r>    11.0888     0.2242    11.3992 </r>
       <r>    11.1686     0.2061    11.4156 </r>
       <r>    11.2483     0.5264    11.4576 </r>
       <r>    11.3280     1.1726    11.5511 </r>
       <r>    11.4078     1.5771    11.6768 </r>
       <r>    11.4875     1.5324    11.7990 </r>
       <r>    11.5673     1.4901    11.9179 </r>
       <r>    11.6470     1.3232    12.0234 </r>
       <r>    11.7268     0.9970    12.1029 </r>
       <r>    11.8065     0.9640    12.1798 </r>
       <r>    11.8862     1.0170    12.2609 </r>
       <r>    11.9660     0.8048    12.3250 </r>
       <r>    12.0457     1.1130    12.4138 </r>
       <r>    12.1255     1.1974    12.5093 </r>
       <r>    12.2052     0.8491    12.5770 </r>
       <r>    12.2850     0.7392    12.6359 </r>
       <r>    12.3647     0.8769    12.7059 </r>
       <r>    12.4444     1.1874    12.8005 </r>
       <r>    12.5242     1.8392    12.9472 </r>
       <r>    12.6039     1.8682    13.0962 </r>
       <r>    12.6837     1.1159    13.1852 </r>
       <r>    12.7634     0.8987    13.2568 </r>
       <r>    12.8432     1.0107    13.3374 </r>
       <r>    12.9229     0.8292    13.4036 </r>
       <r>    13.0026     0.7620    13.4643 </r>
       <r>    13.0824     0.6203    13.5138 </r>
       <r>    13.1621     0.5654    13.5589 </r>
       <r>    13.2419     1.0418    13.6420 </r>
       <r>    13.3216     1.4133    13.7547 </r>
       <r>    13.4014     1.1155    13.8436 </r>
       <r>    13.4811     0.9433    13.9188 </r>
       <r>    13.5608     1.2114    14.0154 </r>
       <r>    13.6406     1.2264    14.1132 </r>
       <r>    13.7203     1.1039    14.2013 </r>
       <r>    13.8001     1.3898    14.3121 </r>
       <r>    13.8798     2.0271    14.4737 </r>
       <r>    13.9596     2.0283    14.6355 </r>
       <r>    14.0393     1.3633    14.7442 </r>
       <r>    14.1190     0.8478    14.8118 </r>
       <r>    14.1988     0.4032    14.8439 </r>
       <r>    14.2785     0.1216    14.8536 </r>
       <r>    14.3583     0.2256    14.8716 </r>
       <r>    14.4380     0.7215    14.9292 </r>
       <r>    14.5178     1.4282    15.0431 </r>
       <r>    14.5975     1.5517    15.1668 </r>
       <r>    14.6772     0.9902    15.2457 </r>
       <r>    14.7570     0.7012    15.3017 </r>
       <r>    14.8367     0.5492    15.3455 </r>
       <r>    14.9165     0.5239    15.3872 </r>
       <r>    14.9962     0.8236    15.4529 </r>
       <r>    15.0760     0.9178    15.5261 </r>
       <r>    15.1557     0.6993    15.5819 </r>
       <r>    15.2354     0.5644    15.6269 </r>
       <r>    15.3152     0.5357    15.6696 </r>
       <r>    15.3949     0.6685    15.7229 </r>
       <r>    15.4747     0.7248    15.7807 </r>
       <r>    15.5544     0.3542    15.8089 </r>
       <r>    15.6342     0.0686    15.8144 </r>
       <r>    15.7139     0.0052    15.8148 </r>
       <r>    15.7937     0.0082    15.8155 </r>
       <r>    15.8734     0.0698    15.8210 </r>
       <r>    15.9531     0.2043    15.8373 </r>
       <r>    16.0329     0.2697    15.8588 </r>
       <r>    16.1126     0.2410    15.8781 </r>
       <r>    16.1924     0.1186    15.8875 </r>
       <r>    16.2721     0.0633    15.8926 </r>
       <r>    16.3519     0.1705    15.9062 </r>
       <r>    16.4316     0.2685    15.9276 </r>
       <r>    16.5113     0.2611    15.9484 </r>
       <r>    16.5911     0.1479    15.9602 </r>
       <r>    16.6708     0.0324    15.9628 </r>
       <r>    16.7506     0.0023    15.9630 </r>
       <r>    16.8303     0.0018    15.9631 </r>
       <r>    16.9101     0.0270    15.9653 </r>
       <r>    16.9898     0.1295    15.9756 </r>
       <r>    17.0695     0.1963    15.9912 </r>
       <r>    17.1493     0.0947    15.9988 </r>
       <r>    17.2290     0.0144    15.9999 </r>
       <r>    17.3088     0.0007    16.0000 </r>
       <r>    17.3885     0.0000    16.0000 </r>
       <r>    17.4683     0.0000    16.0000 </r>
       <r>    17.5480     0.0000    16.0000 </r>
       <r>    17.6277     0.0000    16.0000 </r>
       <r>    17.7075     0.0000    16.0000 </r>
       <r>    17.7872     0.0000    16.0000 </r>
       <r>    17.8670     0.0000    16.0000 </r>
       <r>    17.9467     0.0000    16.0000 </r>
       <r>    18.0265     0.0000    16.0000 </r>
       <r>    18.1062     0.0000    16.0000 </r>
      </set>
     </set>
    </array>
   </total>
  </dos>
 </calculation>
 <structure name="finalpos" >
  <crystal>
   <varray name="basis" >
    <v>       2.94183215       0.00000000       0.00000000 </v>
    <v>      -1.47091607       2.54770137       0.00000000 </v>
    <v>       0.00000000       0.00000000       4.60194835 </v>
   </varray>
   <i name="volume">     34.49118779 </i>
   <varray name="rec_basis" >
    <v>       0.33992422       0.19625534      -0.00000000 </v>
    <v>       0.00000000       0.39251068      -0.00000000 </v>
    <v>       0.00000000       0.00000000       0.21729927 </v>
   </varray>
  </crystal>
  <varray name="positions" >
   <v>       0.00000000       0.00000000       0.00000000 </v>
   <v>       0.33333333       0.66666667       0.50000000 </v>
  </varray>
 </structure>
</modeling>
