Si diamante                             
   5.50000000000000     
     0.000000    0.500000    0.500000
     0.500000    0.000000    0.500000
     0.500000    0.500000    0.000000
   Si
     2
Direct
  0.000000  0.000000  0.000000
  0.250000  0.250000  0.250000
 
   56   56   56
 -.76610473490E+01 -.70464953287E+01 -.52757749377E+01 -.25554110910E+01 0.80864729202E+00
 0.44596489641E+01 0.80427145411E+01 0.11251041854E+02 0.13858036712E+02 0.15732510426E+02
 0.16838559251E+02 0.17224215738E+02 0.17003119578E+02 0.16332318581E+02 0.15388259445E+02
 0.14335643795E+02 0.13259945230E+02 0.12206337303E+02 0.11211518395E+02 0.10301801082E+02
 0.94926780184E+01 0.87901568782E+01 0.81933774590E+01 0.76977411310E+01 0.72977612362E+01
 0.69890326213E+01 0.67690506182E+01 0.66369970577E+01 0.65929350833E+01 0.66369968177E+01
 0.67690500169E+01 0.69890315040E+01 0.72977595438E+01 0.76977389997E+01 0.81933752303E+01
 0.87901550024E+01 0.94926768862E+01 0.10301800860E+02 0.11211518945E+02 0.12206338232E+02
 0.13259946063E+02 0.14335644199E+02 0.15388259411E+02 0.16332318471E+02 0.17003120007E+02
 0.17224217326E+02 0.16838562343E+02 0.15732514893E+02 0.13858041933E+02 0.11251046889E+02
 0.80427184477E+01 0.44596511300E+01 0.80864765269E+00 -.25554120381E+01 -.52757763353E+01
 -.70464963007E+01 -.70464953287E+01 -.57980383524E+01 -.34527248897E+01 -.28696791421E+00
 0.33451517346E+01 0.70683597870E+01 0.10539616247E+02 0.13488483859E+02 0.15739454109E+02
 0.17216700083E+02 0.17935386254E+02 0.17984607933E+02 0.17505956877E+02 0.16670148173E+02
 0.15652918163E+02 0.14581425656E+02 0.13509285587E+02 0.12476877769E+02 0.11515500517E+02
 0.10646042524E+02 0.98793601237E+01 0.92182100723E+01 0.86601418027E+01 0.82005504235E+01
 0.78351391322E+01 0.75612947802E+01 0.73782706734E+01 0.72864795375E+01 0.72864793292E+01
 0.73782700709E+01 0.75612938498E+01 0.78351379811E+01 0.82005491852E+01 0.86601406089E+01
 0.92182090147E+01 0.98793592221E+01 0.10646041720E+02 0.11515499708E+02 0.12476876883E+02
 0.13509284669E+02 0.14581424933E+02 0.15652918043E+02 0.16670149155E+02 0.17505959390E+02
 0.17984612135E+02 0.17935391881E+02 0.17216706407E+02 0.15739460048E+02 0.13488488234E+02
 0.10539618115E+02 0.70683587479E+01 0.33451481085E+01 -.28697311886E+00 -.34527302202E+01
 -.57980423070E+01 -.70464967852E+01 -.52757749377E+01 -.34527248897E+01 -.66565865374E+00
 0.27566536622E+01 0.64377950008E+01 0.10012206883E+02 0.13173465556E+02 0.15704729859E+02
 0.17489886356E+02 0.18508815508E+02 0.18822294426E+02 0.18551492154E+02 0.17855240995E+02
 0.16906825894E+02 0.15861336019E+02 0.14792989737E+02 0.13744137447E+02 0.12749553910E+02
 0.11834606702E+02 0.11014769494E+02 0.10296737343E+02 0.96808242055E+01 0.91639564381E+01
 0.87424543719E+01 0.84139216725E+01 0.81778976334E+01 0.80353731393E+01 0.79876700192E+01
 0.80353728789E+01 0.81778972728E+01 0.84139214543E+01 0.87424544971E+01 0.91639569487E+01
 0.96808249250E+01 0.10296737908E+02 0.11014769476E+02 0.11834605783E+02 0.12749552050E+02
 0.13744134983E+02 0.14792987355E+02 0.15861334613E+02 0.16906826314E+02 0.17855243775E+02
 0.18551497291E+02 0.18822301285E+02 0.18508822903E+02 0.17489892785E+02 0.15704733859E+02
 0.13173466074E+02 0.10012203572E+02 0.64377883555E+01 0.27566449554E+01 -.66566763377E+00
 -.34527322357E+01 -.52757790608E+01 -.59100834412E+01 -.25554110910E+01 -.28696791421E+00
 0.27566536622E+01 0.62197917410E+01 0.97322968144E+01 0.12963916227E+02 0.15662908705E+02
 0.17674820337E+02 0.18943266266E+02 0.19497982439E+02 0.19435810238E+02 0.18898726292E+02
 0.18051193835E+02 0.17056179105E+02 0.16015326757E+02 0.14973635401E+02 0.13967796732E+02
 0.13026401042E+02 0.12168839388E+02 0.11405631507E+02 0.10740176811E+02 0.10171454084E+02
 0.96969119231E+01 0.93147614949E+01 0.90251106403E+01 0.88298026168E+01 0.87313008004E+01
 0.87313008222E+01 0.88298028104E+01 0.90251113166E+01 0.93147629602E+01 0.96969142639E+01
 0.10171457025E+02 0.10740179723E+02 0.11405633581E+02 0.12168839921E+02 0.13026399730E+02
 0.13967793860E+02 0.14973631835E+02 0.16015323735E+02 0.17056177876E+02 0.18051195258E+02
 0.18898730525E+02 0.19435816623E+02 0.19497989618E+02 0.18943272508E+02 0.17674823964E+02
 0.15662908518E+02 0.12963911813E+02 0.97322886541E+01 0.62197811224E+01 0.27566424118E+01
 -.28697780034E+00 -.25554178384E+01 -.37673873752E+01 -.37673849822E+01 0.80864729202E+00
 0.33451517346E+01 0.64377950008E+01 0.97322968144E+01 0.12890657372E+02 0.15636577936E+02
 0.17782262946E+02 0.19236093733E+02 0.19995314523E+02 0.20129523261E+02 0.19759889577E+02
 0.19037164194E+02 0.18119997553E+02 0.17131016994E+02 0.16121592756E+02 0.15128974162E+02
 0.14183614020E+02 0.13307788655E+02 0.12515310092E+02 0.11812612217E+02 0.11201000526E+02
 0.10679451914E+02 0.10247160531E+02 0.99051088121E+01 0.96562891329E+01 0.95047039661E+01
 0.94537362839E+01 0.95047042847E+01 0.96562900946E+01 0.99051108737E+01 0.10247163985E+02
 0.10679456625E+02 0.11201005832E+02 0.11812617059E+02 0.12515313338E+02 0.13307789508E+02
 0.14183612351E+02 0.15128970625E+02 0.16121588637E+02 0.17131013822E+02 0.18119996604E+02
 0.19037166063E+02 0.19759893951E+02 0.20129528980E+02 0.19995319894E+02 0.19236097002E+02
 0.17782262770E+02 0.15636573730E+02 0.12890649437E+02 0.97322862456E+01 0.64377834296E+01
 0.33451409865E+01 0.80863905169E+00 -.85831011753E+00 -.14396621578E+01 -.85830565737E+00
 0.44596489641E+01 0.70683597870E+01 0.10012206883E+02 0.12963916227E+02 0.15636577936E+02
 0.17817569296E+02 0.19383773473E+02 0.20300284185E+02 0.20607720271E+02 0.20403457893E+02
 0.19820628315E+02 0.19007089363E+02 0.18094167741E+02 0.17142517624E+02 0.16188917932E+02
 0.15264423962E+02 0.14393013340E+02 0.13590932727E+02 0.12867222007E+02 0.12225462536E+02
 0.11666339972E+02 0.11190290181E+02 0.10799423674E+02 0.10498148649E+02 0.10292381257E+02
 0.10187773542E+02 0.10187773624E+02 0.10292381745E+02 0.10498150143E+02 0.10799426800E+02
 0.11190295207E+02 0.11666346540E+02 0.12225469644E+02 0.12867228265E+02 0.13590936799E+02
 0.14393014420E+02 0.15264422082E+02 0.16188913988E+02 0.17142513100E+02 0.18094164222E+02
 0.19007088009E+02 0.19820629483E+02 0.20403461027E+02 0.20607724088E+02 0.20300287089E+02
 0.19383774037E+02 0.17817566664E+02 0.15636572030E+02 0.12963907730E+02 0.10012197032E+02
 0.70683500740E+01 0.44596408353E+01 0.25043356044E+01 0.14562035854E+01 0.14562054626E+01
 0.25043409807E+01 0.80427145411E+01 0.10539616247E+02 0.13173465556E+02 0.15662908705E+02
 0.17782262946E+02 0.19383773473E+02 0.20403120051E+02 0.20851830935E+02 0.20801631492E+02
 0.20365078106E+02 0.19675356902E+02 0.18861493489E+02 0.17992212058E+02 0.17103343796E+02
 0.16225503275E+02 0.15383202049E+02 0.14594077957E+02 0.13869034992E+02 0.13213537432E+02
 0.12629866437E+02 0.12119744402E+02 0.11686517816E+02 0.11336168929E+02 0.11076810266E+02
 0.10916880541E+02 0.10862775446E+02 0.10916880312E+02 0.11076810399E+02 0.11336170330E+02
 0.11686521272E+02 0.12119750157E+02 0.12629873970E+02 0.13213545516E+02 0.13869042042E+02
 0.14594082532E+02 0.15383203323E+02 0.16225501310E+02 0.17103339515E+02 0.17992206932E+02
 0.18861489051E+02 0.19675354267E+02 0.20365077644E+02 0.20801632774E+02 0.20851832929E+02
 0.20403121492E+02 0.19383773268E+02 0.17782260490E+02 0.15662904016E+02 0.13173459229E+02
 0.10539609266E+02 0.80427080328E+01 0.59810421296E+01 0.46204319865E+01 0.41449482675E+01
 0.46204346902E+01 0.59810471248E+01 0.11251041854E+02 0.13488483859E+02 0.15704729859E+02
 0.17674820337E+02 0.19236093733E+02 0.20300284185E+02 0.20851830935E+02 0.20936435288E+02
 0.20644213157E+02 0.20090830581E+02 0.19395964791E+02 0.18631179118E+02 0.17831078798E+02
 0.17025025009E+02 0.16237026393E+02 0.15485027596E+02 0.14780855017E+02 0.14131169771E+02
 0.13539424156E+02 0.13008394099E+02 0.12542539366E+02 0.12149377310E+02 0.11839319185E+02
 0.11623950278E+02 0.11513334995E+02 0.11513334515E+02 0.11623949191E+02 0.11839318405E+02
 0.12149377958E+02 0.12542542309E+02 0.13008399577E+02 0.13539431606E+02 0.14131177936E+02
 0.14780862291E+02 0.15485032495E+02 0.16237027992E+02 0.17025023203E+02 0.17831074310E+02
 0.18631173258E+02 0.19395959054E+02 0.20090826220E+02 0.20644210860E+02 0.20936435048E+02
 0.20851832136E+02 0.20300285848E+02 0.19236094846E+02 0.17674820156E+02 0.15704728104E+02
 0.13488480762E+02 0.11251038063E+02 0.92521358896E+01 0.77460671981E+01 0.69363828747E+01
 0.69363838099E+01 0.77460697801E+01 0.92521395030E+01 0.13858036712E+02 0.15739454109E+02
 0.17489886356E+02 0.18943266266E+02 0.19995314523E+02 0.20607720271E+02 0.20801631492E+02
 0.20644213157E+02 0.20231808473E+02 0.19670404659E+02 0.19028070579E+02 0.18337416023E+02
 0.17625906810E+02 0.16916188291E+02 0.16225503275E+02 0.15565591563E+02 0.14943433553E+02
 0.14362964411E+02 0.13827495228E+02 0.13342197449E+02 0.12915814210E+02 0.12560887747E+02
 0.12292245494E+02 0.12124119162E+02 0.12066820425E+02 0.12124117696E+02 0.12292243192E+02
 0.12560885676E+02 0.12915813541E+02 0.13342199086E+02 0.13827499494E+02 0.14362970901E+02
 0.14943441186E+02 0.15565598838E+02 0.16225508658E+02 0.16916190625E+02 0.17625905633E+02
 0.18337411701E+02 0.19028064210E+02 0.19670397774E+02 0.20231802620E+02 0.20644209489E+02
 0.20801630481E+02 0.20607721627E+02 0.19995317343E+02 0.18943269357E+02 0.17489888625E+02
 0.15739454899E+02 0.13858035975E+02 0.12056107306E+02 0.10558490339E+02 0.95662542762E+01
 0.92188682907E+01 0.95662554901E+01 0.10558492245E+02 0.12056109053E+02 0.15732510426E+02
 0.17216700083E+02 0.18508815508E+02 0.19497982439E+02 0.20129523261E+02 0.20403457893E+02
 0.20365078106E+02 0.20090830581E+02 0.19670404659E+02 0.19162693127E+02 0.18597198568E+02
 0.17998943499E+02 0.17388521178E+02 0.16781613042E+02 0.16188917932E+02 0.15616795279E+02
 0.15068812413E+02 0.14548068889E+02 0.14059778290E+02 0.13613300890E+02 0.13222808735E+02
 0.12906105367E+02 0.12681732768E+02 0.12565141082E+02 0.12565140086E+02 0.12681730041E+02
 0.12906101646E+02 0.13222805086E+02 0.13613298482E+02 0.14059778119E+02 0.14548071494E+02
 0.15068817678E+02 0.15616802372E+02 0.16188925445E+02 0.16781619311E+02 0.17388524723E+02
 0.17998943447E+02 0.18597194936E+02 0.19162686846E+02 0.19670397330E+02 0.20090824008E+02
 0.20365073773E+02 0.20403456537E+02 0.20129524699E+02 0.19497985702E+02 0.18508819227E+02
 0.17216702984E+02 0.15732511762E+02 0.14214198971E+02 0.12846283470E+02 0.11810279265E+02
 0.11251743535E+02 0.11251744065E+02 0.11810280542E+02 0.12846284697E+02 0.14214199224E+02
 0.16838559251E+02 0.17935386254E+02 0.18822294426E+02 0.19435810238E+02 0.19759889577E+02
 0.19820628315E+02 0.19675356902E+02 0.19395964791E+02 0.19028070579E+02 0.18597198568E+02
 0.18125435387E+02 0.17630784368E+02 0.17126690894E+02 0.16622006175E+02 0.16121592756E+02
 0.15627767986E+02 0.15142555496E+02 0.14670349940E+02 0.14220256902E+02 0.13807235800E+02
 0.13451121779E+02 0.13173845632E+02 0.12996847391E+02 0.12935913830E+02 0.12996845059E+02
 0.13173841379E+02 0.13451116401E+02 0.13807230400E+02 0.14220252731E+02 0.14670348146E+02
 0.15142556821E+02 0.15627772503E+02 0.16121599744E+02 0.16622014213E+02 0.17126698182E+02
 0.17630789212E+02 0.18125436685E+02 0.18597196147E+02 0.19028065250E+02 0.19395958084E+02
 0.19675350579E+02 0.19820623806E+02 0.19759887567E+02 0.19435810519E+02 0.18822296073E+02
 0.17935388056E+02 0.16838560197E+02 0.15639850074E+02 0.14479441390E+02 0.13508481847E+02
 0.12862634364E+02 0.12636108480E+02 0.12862635490E+02 0.13508483536E+02 0.14479442780E+02
 0.15639850419E+02 0.17224215738E+02 0.17984607933E+02 0.18551492154E+02 0.18898726292E+02
 0.19037164194E+02 0.19007089363E+02 0.18861493489E+02 0.18631179118E+02 0.18337416023E+02
 0.17998943499E+02 0.17630784368E+02 0.17243674549E+02 0.16844019033E+02 0.16434475144E+02
 0.16015326757E+02 0.15586676754E+02 0.15151175558E+02 0.14716642493E+02 0.14297314074E+02
 0.13912298243E+02 0.13587055230E+02 0.13349682443E+02 0.13224123548E+02 0.13224122110E+02
 0.13349678342E+02 0.13587049099E+02 0.13912291092E+02 0.14297307183E+02 0.14716637223E+02
 0.15151173077E+02 0.15586677747E+02 0.16015331197E+02 0.16434482228E+02 0.16844027323E+02
 0.17243682315E+02 0.17630790033E+02 0.17998946053E+02 0.18337415273E+02 0.18631175669E+02
 0.18861488493E+02 0.19007084102E+02 0.19037159656E+02 0.18898722904E+02 0.18551489746E+02
 0.17984605933E+02 0.17224213518E+02 0.16335033846E+02 0.15414343425E+02 0.14578189209E+02
 0.13941738965E+02 0.13597673087E+02 0.13597673949E+02 0.13941741302E+02 0.14578192381E+02
 0.15414346681E+02 0.16335036639E+02 0.17003119578E+02 0.17505956877E+02 0.17855240995E+02
 0.18051193835E+02 0.18119997553E+02 0.18094167741E+02 0.17992212058E+02 0.17831078798E+02
 0.17625906810E+02 0.17388521178E+02 0.17126690894E+02 0.16844019033E+02 0.16540486488E+02
 0.16213762940E+02 0.15861336019E+02 0.15483269192E+02 0.15085035811E+02 0.14677513069E+02
 0.14277910838E+02 0.13914160540E+02 0.13620140120E+02 0.13428155646E+02 0.13361358717E+02
 0.13428152232E+02 0.13620133853E+02 0.13914152459E+02 0.14277902298E+02 0.14677505519E+02
 0.15085030538E+02 0.15483267077E+02 0.15861337361E+02 0.16213767398E+02 0.16540493156E+02
 0.16844026650E+02 0.17126698130E+02 0.17388526923E+02 0.17625910377E+02 0.17831080002E+02
 0.17992211143E+02 0.18094165195E+02 0.18119993890E+02 0.18051189423E+02 0.17855235992E+02
 0.17505951285E+02 0.17003113393E+02 0.16377061290E+02 0.15687430345E+02 0.15015429738E+02
 0.14450462335E+02 0.14073536592E+02 0.13941143021E+02 0.14073539113E+02 0.14450466964E+02
 0.15015435774E+02 0.15687437007E+02 0.16377067918E+02 0.16332318581E+02 0.16670148173E+02
 0.16906825894E+02 0.17056179105E+02 0.17131016994E+02 0.17142517624E+02 0.17103343796E+02
 0.17025025009E+02 0.16916188291E+02 0.16781613042E+02 0.16622006175E+02 0.16434475144E+02
 0.16213762940E+02 0.15954295151E+02 0.15652918163E+02 0.15311744805E+02 0.14936636248E+02
 0.14541499035E+02 0.14154431313E+02 0.13813206319E+02 0.13557546410E+02 0.13420394499E+02
 0.13420392486E+02 0.13557540738E+02 0.13813198011E+02 0.14154421825E+02 0.14541489947E+02
 0.14936628954E+02 0.15311740260E+02 0.15652916750E+02 0.15954296692E+02 0.16213766823E+02
 0.16434480518E+02 0.16622012160E+02 0.16781618892E+02 0.16916193474E+02 0.17025029198E+02
 0.17103346799E+02 0.17142519289E+02 0.17131017142E+02 0.17056177513E+02 0.16906822353E+02
 0.16670142591E+02 0.16332311098E+02 0.15899222852E+02 0.15400481052E+02 0.14886346645E+02
 0.14419687047E+02 0.14064292517E+02 0.13872055892E+02 0.13872057667E+02 0.14064297585E+02
 0.14419694688E+02 0.14886355824E+02 0.15400490627E+02 0.15899231776E+02 0.15388259445E+02
 0.15652918163E+02 0.15861336019E+02 0.16015326757E+02 0.16121592756E+02 0.16188917932E+02
 0.16225503275E+02 0.16237026393E+02 0.16225503275E+02 0.16188917932E+02 0.16121592756E+02
 0.16015326757E+02 0.15861336019E+02 0.15652918163E+02 0.15388259445E+02 0.15067814265E+02
 0.14700221208E+02 0.14310976213E+02 0.13938999965E+02 0.13629296386E+02 0.13423649524E+02
 0.13351555221E+02 0.13423645400E+02 0.13629288885E+02 0.13938990403E+02 0.14310966184E+02
 0.14700212231E+02 0.15067807489E+02 0.15388255458E+02 0.15652916972E+02 0.15861337162E+02
 0.16015329523E+02 0.16121596423E+02 0.16188921955E+02 0.16225507363E+02 0.16237030476E+02
 0.16225507363E+02 0.16188921955E+02 0.16121596423E+02 0.16015329523E+02 0.15861337162E+02
 0.15652916972E+02 0.15388255458E+02 0.15067807489E+02 0.14700212231E+02 0.14310966184E+02
 0.13938990403E+02 0.13629288885E+02 0.13423645400E+02 0.13351555221E+02 0.13423649524E+02
 0.13629296386E+02 0.13938999965E+02 0.14310976213E+02 0.14700221208E+02 0.15067814265E+02
 0.14335643795E+02 0.14581425656E+02 0.14792989737E+02 0.14973635401E+02 0.15128974162E+02
 0.15264423962E+02 0.15383202049E+02 0.15485027596E+02 0.15565591563E+02 0.15616795279E+02
 0.15627767986E+02 0.15586676754E+02 0.15483269192E+02 0.15311744805E+02 0.15067814265E+02
 0.14753180042E+02 0.14387891134E+02 0.14008731947E+02 0.13662851650E+02 0.13398566060E+02
 0.13255344510E+02 0.13255342557E+02 0.13398560493E+02 0.13662843299E+02 0.14008722036E+02
 0.14387881066E+02 0.14753171141E+02 0.15067807536E+02 0.15311740748E+02 0.15483267751E+02
 0.15586677395E+02 0.15627769910E+02 0.15616797696E+02 0.15565593947E+02 0.15485029829E+02
 0.15383204395E+02 0.15264426881E+02 0.15128978016E+02 0.14973640178E+02 0.14792994896E+02
 0.14581430185E+02 0.14335646475E+02 0.14057227550E+02 0.13754597993E+02 0.13441780805E+02
 0.13138907646E+02 0.12873668304E+02 0.12675670346E+02 0.12569650867E+02 0.12569652906E+02
 0.12675675937E+02 0.12873676025E+02 0.13138915599E+02 0.13441787160E+02 0.13754601480E+02
 0.14057227742E+02 0.13259945230E+02 0.13509285587E+02 0.13744137447E+02 0.13967796732E+02
 0.14183614020E+02 0.14393013340E+02 0.14594077957E+02 0.14780855017E+02 0.14943433553E+02
 0.15068812413E+02 0.15142555496E+02 0.15151175558E+02 0.15085035811E+02 0.14936636248E+02
 0.14700221208E+02 0.14387891134E+02 0.14030922486E+02 0.13674860470E+02 0.13371112944E+02
 0.13166733262E+02 0.13094662943E+02 0.13166730147E+02 0.13371106947E+02 0.13674852109E+02
 0.14030912618E+02 0.14387880919E+02 0.14700211953E+02 0.14936629132E+02 0.15085031563E+02
 0.15151174237E+02 0.15142556461E+02 0.15068814541E+02 0.14943435649E+02 0.14780856266E+02
 0.14594078240E+02 0.14393013280E+02 0.14183614715E+02 0.13967799264E+02 0.13744142364E+02
 0.13509292567E+02 0.13259953083E+02 0.12995121820E+02 0.12718117014E+02 0.12437831353E+02
 0.12168734999E+02 0.11929407275E+02 0.11739549816E+02 0.11616977728E+02 0.11574556701E+02
 0.11616980419E+02 0.11739554093E+02 0.11929411339E+02 0.12168737022E+02 0.12437830145E+02
 0.12718112436E+02 0.12995114797E+02 0.12206337303E+02 0.12476877769E+02 0.12749553910E+02
 0.13026401042E+02 0.13307788655E+02 0.13590932727E+02 0.13869034992E+02 0.14131169771E+02
 0.14362964411E+02 0.14548068889E+02 0.14670349940E+02 0.14716642493E+02 0.14677513069E+02
 0.14541499035E+02 0.14310976213E+02 0.14008731947E+02 0.13674860470E+02 0.13359740847E+02
 0.13114380816E+02 0.12980139714E+02 0.12980138635E+02 0.13114377485E+02 0.13359735098E+02
 0.13674852352E+02 0.14008722012E+02 0.14310965622E+02 0.14541489376E+02 0.14677505913E+02
 0.14716638858E+02 0.14670349878E+02 0.14548071416E+02 0.14362967832E+02 0.14131172303E+02
 0.13869035457E+02 0.13590931028E+02 0.13307785836E+02 0.13026398889E+02 0.12749554246E+02
 0.12476881718E+02 0.12206344818E+02 0.11936122969E+02 0.11666526697E+02 0.11401496380E+02
 0.11149252547E+02 0.10921825143E+02 0.10733466707E+02 0.10598266759E+02 0.10527524711E+02
 0.10527525080E+02 0.10598267389E+02 0.10733466394E+02 0.10921822536E+02 0.11149246835E+02
 0.11401487767E+02 0.11666516475E+02 0.11936113117E+02 0.11211518395E+02 0.11515500517E+02
 0.11834606702E+02 0.12168839388E+02 0.12515310092E+02 0.12867222007E+02 0.13213537432E+02
 0.13539424156E+02 0.13827495228E+02 0.14059778290E+02 0.14220256902E+02 0.14297314074E+02
 0.14277910838E+02 0.14154431313E+02 0.13938999965E+02 0.13662851650E+02 0.13371112944E+02
 0.13114380816E+02 0.12938739337E+02 0.12876348587E+02 0.12938738078E+02 0.13114377809E+02
 0.13371107557E+02 0.13662843627E+02 0.13938989846E+02 0.14154420533E+02 0.14277901393E+02
 0.14297307867E+02 0.14220255027E+02 0.14059780556E+02 0.13827500141E+02 0.13539429418E+02
 0.13213540761E+02 0.12867221985E+02 0.12515306697E+02 0.12168834005E+02 0.11834601607E+02
 0.11515498039E+02 0.11211520086E+02 0.10921287925E+02 0.10643769254E+02 0.10379844501E+02
 0.10133333641E+02 0.99111969098E+01 0.97228139332E+01 0.95784882560E+01 0.94875378431E+01
 0.94564466229E+01 0.94875363203E+01 0.95784847788E+01 0.97228079690E+01 0.99111883172E+01
 0.10133323064E+02 0.10379833441E+02 0.10643759724E+02 0.10921281798E+02 0.10301801082E+02
 0.10646042524E+02 0.11014769494E+02 0.11405631507E+02 0.11812612217E+02 0.12225462536E+02
 0.12629866437E+02 0.13008394099E+02 0.13342197449E+02 0.13613300890E+02 0.13807235800E+02
 0.13912298243E+02 0.13914160540E+02 0.13813206319E+02 0.13629296386E+02 0.13398566060E+02
 0.13166733262E+02 0.12980139714E+02 0.12876348587E+02 0.12876348403E+02 0.12980138775E+02
 0.13166730637E+02 0.13398560827E+02 0.13629288275E+02 0.13813196115E+02 0.13914150047E+02
 0.13912289768E+02 0.13807231354E+02 0.13613301410E+02 0.13342202368E+02 0.13008401459E+02
 0.12629873518E+02 0.12225466781E+02 0.11812612103E+02 0.11405627048E+02 0.11014762194E+02
 0.10646034821E+02 0.10301795507E+02 0.99818761818E+01 0.96850776796E+01 0.94106853486E+01
 0.91596794217E+01 0.89353592267E+01 0.87432331834E+01 0.85902115707E+01 0.84833203704E+01
 0.84282743305E+01 0.84282729322E+01 0.84833162004E+01 0.85902047977E+01 0.87432243356E+01
 0.89353493751E+01 0.91596701628E+01 0.94106785018E+01 0.96850747562E+01 0.99818778137E+01
 0.94926780184E+01 0.98793601237E+01 0.10296737343E+02 0.10740176811E+02 0.11201000526E+02
 0.11666339972E+02 0.12119744402E+02 0.12542539366E+02 0.12915814210E+02 0.13222808735E+02
 0.13451121779E+02 0.13587055230E+02 0.13620140120E+02 0.13557546410E+02 0.13423649524E+02
 0.13255344510E+02 0.13094662943E+02 0.12980138635E+02 0.12938738078E+02 0.12980138775E+02
 0.13094662380E+02 0.13255341994E+02 0.13423644086E+02 0.13557537994E+02 0.13620129863E+02
 0.13587045251E+02 0.13451114528E+02 0.13222806134E+02 0.12915816924E+02 0.12542546484E+02
 0.12119753669E+02 0.11666348489E+02 0.11201005664E+02 0.10740177032E+02 0.10296732621E+02
 0.98793518682E+01 0.94926685419E+01 0.91380599794E+01 0.88148754729E+01 0.85218311024E+01
 0.82582727999E+01 0.80250412301E+01 0.78247669982E+01 0.76615666047E+01 0.75402597357E+01
 0.74653412766E+01 0.74399862253E+01 0.74653386617E+01 0.75402548819E+01 0.76615602962E+01
 0.78247604276E+01 0.80250358796E+01 0.82582701534E+01 0.85218322257E+01 0.88148805890E+01
 0.91380682190E+01 0.87901568782E+01 0.92182100723E+01 0.96808242055E+01 0.10171454084E+02
 0.10679451914E+02 0.11190290181E+02 0.11686517816E+02 0.12149377310E+02 0.12560887747E+02
 0.12906105367E+02 0.13173845632E+02 0.13349682443E+02 0.13428155646E+02 0.13420394499E+02
 0.13351555221E+02 0.13255342557E+02 0.13166730147E+02 0.13114377485E+02 0.13114377809E+02
 0.13166730637E+02 0.13255341994E+02 0.13351552241E+02 0.13420388305E+02 0.13428146531E+02
 0.13349671901E+02 0.13173835993E+02 0.12906099057E+02 0.12560886471E+02 0.12149381431E+02
 0.11686526173E+02 0.11190300419E+02 0.10679461186E+02 0.10171459899E+02 0.96808251156E+01
 0.92182059981E+01 0.87901489940E+01 0.83995517490E+01 0.80466281582E+01 0.77301431145E+01
 0.74486447614E+01 0.72014423133E+01 0.69891497725E+01 0.68137282635E+01 0.66780841860E+01
 0.65853813016E+01 0.65382754581E+01 0.65382748686E+01 0.65853797087E+01 0.66780821085E+01
 0.68137265191E+01 0.69891493576E+01 0.72014441791E+01 0.74486495069E+01 0.77301506807E+01
 0.80466376479E+01 0.83995614874E+01 0.81933774590E+01 0.86601418027E+01 0.91639564381E+01
 0.96969119231E+01 0.10247160531E+02 0.10799423674E+02 0.11336168929E+02 0.11839319185E+02
 0.12292245494E+02 0.12681732768E+02 0.12996847391E+02 0.13224123548E+02 0.13361358717E+02
 0.13420392486E+02 0.13423645400E+02 0.13398560493E+02 0.13371106947E+02 0.13359735098E+02
 0.13371107557E+02 0.13398560827E+02 0.13423644086E+02 0.13420388305E+02 0.13361351230E+02
 0.13224113448E+02 0.12996836436E+02 0.12681723302E+02 0.12292239725E+02 0.11839318475E+02
 0.11336173346E+02 0.10799431962E+02 0.10247170484E+02 0.96969210358E+01 0.91639625936E+01
 0.86601437808E+01 0.81933751241E+01 0.77677943789E+01 0.73844842857E+01 0.70425332813E+01
 0.67401891845E+01 0.64758666137E+01 0.62488270505E+01 0.60594438778E+01 0.59090705642E+01
 0.57996194605E+01 0.57330082858E+01 0.57106349001E+01 0.57330091266E+01 0.57996212082E+01
 0.59090733592E+01 0.60594479223E+01 0.62488325394E+01 0.64758735955E+01 0.67401973867E+01
 0.70425419755E+01 0.73844922843E+01 0.77678002245E+01 0.76977411310E+01 0.82005504235E+01
 0.87424543719E+01 0.93147614949E+01 0.99051088121E+01 0.10498148649E+02 0.11076810266E+02
 0.11623950278E+02 0.12124119162E+02 0.12565141082E+02 0.12935913830E+02 0.13224122110E+02
 0.13428152232E+02 0.13557540738E+02 0.13629288885E+02 0.13662843299E+02 0.13674852109E+02
 0.13674852352E+02 0.13662843627E+02 0.13629288275E+02 0.13557537994E+02 0.13428146531E+02
 0.13224113448E+02 0.12935903178E+02 0.12565130187E+02 0.12124110074E+02 0.11623944750E+02
 0.11076809249E+02 0.10498152043E+02 0.99051155351E+01 0.93147698310E+01 0.87424624593E+01
 0.82005567100E+01 0.76977446655E+01 0.72389940367E+01 0.68260565848E+01 0.64583639082E+01
 0.61340833270E+01 0.58511068587E+01 0.56077937345E+01 0.54033678899E+01 0.52379653094E+01
 0.51124066150E+01 0.50278170108E+01 0.49852220380E+01 0.49852232132E+01 0.50278203931E+01
 0.51124118149E+01 0.52379717897E+01 0.54033750737E+01 0.56078010711E+01 0.58511138217E+01
 0.61340893639E+01 0.64583683977E+01 0.68260588649E+01 0.72389935379E+01 0.72977612362E+01
 0.78351391322E+01 0.84139216725E+01 0.90251106403E+01 0.96562891329E+01 0.10292381257E+02
 0.10916880541E+02 0.11513334995E+02 0.12066820425E+02 0.12565140086E+02 0.12996845059E+02
 0.13349678342E+02 0.13620133853E+02 0.13813198011E+02 0.13938990403E+02 0.14008722036E+02
 0.14030912618E+02 0.14008722012E+02 0.13938989846E+02 0.13813196115E+02 0.13620129863E+02
 0.13349671901E+02 0.12996836436E+02 0.12565130187E+02 0.12066810599E+02 0.11513326690E+02
 0.10916874943E+02 0.10292379013E+02 0.96562902484E+01 0.90251145487E+01 0.84139274384E+01
 0.78351456944E+01 0.72977676113E+01 0.68071839307E+01 0.63655320574E+01 0.59724557104E+01
 0.56260670578E+01 0.53238974032E+01 0.50636601378E+01 0.48437214593E+01 0.46632596768E+01
 0.45221689530E+01 0.44208080682E+01 0.43597017360E+01 0.43392795879E+01 0.43597044088E+01
 0.44208129211E+01 0.45221751232E+01 0.46632661349E+01 0.48437272239E+01 0.50636644386E+01
 0.53238997565E+01 0.56260672592E+01 0.59724537838E+01 0.63655282076E+01 0.68071785330E+01
 0.69890326213E+01 0.75612947802E+01 0.81778976334E+01 0.88298026168E+01 0.95047039661E+01
 0.10187773542E+02 0.10862775446E+02 0.11513334515E+02 0.12124117696E+02 0.12681730041E+02
 0.13173841379E+02 0.13587049099E+02 0.13914152459E+02 0.14154421825E+02 0.14310966184E+02
 0.14387881066E+02 0.14387880919E+02 0.14310965622E+02 0.14154420533E+02 0.13914150047E+02
 0.13587045251E+02 0.13173835993E+02 0.12681723302E+02 0.12124110074E+02 0.11513326690E+02
 0.10862768186E+02 0.10187767578E+02 0.95046998839E+01 0.88298007961E+01 0.81778982148E+01
 0.75612976605E+01 0.69890374589E+01 0.64666423043E+01 0.59963840286E+01 0.55779455545E+01
 0.52093097055E+01 0.48876728622E+01 0.46102115615E+01 0.43745940856E+01 0.41792086029E+01
 0.40231515068E+01 0.39060642467E+01 0.38279150263E+01 0.37887995627E+01 0.37888005967E+01
 0.38279178555E+01 0.39060681237E+01 0.40231554006E+01 0.41792114545E+01 0.43745950555E+01
 0.46102102070E+01 0.48876692048E+01 0.52093041885E+01 0.55779389200E+01 0.59963771592E+01
 0.64666360741E+01 0.67690506182E+01 0.73782706734E+01 0.80353731393E+01 0.87313008004E+01
 0.94537362839E+01 0.10187773624E+02 0.10916880312E+02 0.11623949191E+02 0.12292243192E+02
 0.12906101646E+02 0.13451116401E+02 0.13912291092E+02 0.14277902298E+02 0.14541489947E+02
 0.14700212231E+02 0.14753171141E+02 0.14700211953E+02 0.14541489376E+02 0.14277901393E+02
 0.13912289768E+02 0.13451114528E+02 0.12906099057E+02 0.12292239725E+02 0.11623944750E+02
 0.10916874943E+02 0.10187767578E+02 0.94537300407E+01 0.87312950418E+01 0.80353686530E+01
 0.73782682072E+01 0.67690507115E+01 0.62132705114E+01 0.57132004484E+01 0.52684412909E+01
 0.48767644814E+01 0.45350023279E+01 0.42398186981E+01 0.39882498415E+01 0.37779796487E+01
 0.36073841534E+01 0.34754262900E+01 0.33814928177E+01 0.33252442712E+01 0.33065120992E+01
 0.33252451794E+01 0.33814941834E+01 0.34754273441E+01 0.36073840348E+01 0.37779776612E+01
 0.39882456688E+01 0.42398125181E+01 0.45349947983E+01 0.48767566031E+01 0.52684341893E+01
 0.57131951336E+01 0.62132676768E+01 0.66369970577E+01 0.72864795375E+01 0.79876700192E+01
 0.87313008222E+01 0.95047042847E+01 0.10292381745E+02 0.11076810399E+02 0.11839318405E+02
 0.12560885676E+02 0.13222805086E+02 0.13807230400E+02 0.14297307183E+02 0.14677505519E+02
 0.14936628954E+02 0.15067807489E+02 0.15067807536E+02 0.14936629132E+02 0.14677505913E+02
 0.14297307867E+02 0.13807231354E+02 0.13222806134E+02 0.12560886471E+02 0.11839318475E+02
 0.11076809249E+02 0.10292379013E+02 0.95046998839E+01 0.87312950418E+01 0.79876635367E+01
 0.72864733258E+01 0.66369921976E+01 0.60448899317E+01 0.55124598807E+01 0.50392073761E+01
 0.46226713472E+01 0.42593074688E+01 0.39452713885E+01 0.36769897199E+01 0.34514763859E+01
 0.32664210821E+01 0.31201251327E+01 0.30113752556E+01 0.29393279028E+01 0.29034393054E+01
 0.29034393721E+01 0.29393279085E+01 0.30113746894E+01 0.31201233606E+01 0.32664175980E+01
 0.34514710381E+01 0.36769828382E+01 0.39452637684E+01 0.42593002142E+01 0.46226656164E+01
 0.50392041041E+01 0.55124595568E+01 0.60448924919E+01 0.65929350833E+01 0.72864793292E+01
 0.80353728789E+01 0.88298028104E+01 0.96562900946E+01 0.10498150143E+02 0.11336170330E+02
 0.12149377958E+02 0.12915813541E+02 0.13613298482E+02 0.14220252731E+02 0.14716637223E+02
 0.15085030538E+02 0.15311740260E+02 0.15388255458E+02 0.15311740748E+02 0.15085031563E+02
 0.14716638858E+02 0.14220255027E+02 0.13613301410E+02 0.12915816924E+02 0.12149381431E+02
 0.11336173346E+02 0.10498152043E+02 0.96562902484E+01 0.88298007961E+01 0.80353686530E+01
 0.72864733258E+01 0.65929281937E+01 0.59607499308E+01 0.53924077067E+01 0.48874146526E+01
 0.44431465966E+01 0.40557308198E+01 0.37208500979E+01 0.34343487724E+01 0.31925920858E+01
 0.29925972701E+01 0.28320053598E+01 0.27089828629E+01 0.26221296430E+01 0.25704335617E+01
 0.25532719821E+01 0.25704334004E+01 0.26221289875E+01 0.27089812065E+01 0.28320022787E+01
 0.29925926762E+01 0.31925863752E+01 0.34343428052E+01 0.37208450075E+01 0.40557277103E+01
 0.44431462277E+01 0.48874172149E+01 0.53924127593E+01 0.59607565151E+01 0.66369968177E+01
 0.73782700709E+01 0.81778972728E+01 0.90251113166E+01 0.99051108737E+01 0.10799426800E+02