    2    2    1    1
  0.2079688E+02  0.3889087E-09  0.3889087E-09  0.3889087E-09  0.5000000E-15
  1.000000000000000E-004
  CAR 
 Si diamante                             
      8    100      8
 
  0.2500000E+00  0.5000000E+00  0.7500000E+00  0.1000000E-01
    1       -2.098426   1.000000
    2       -2.098426   1.000000
    3        1.756717   1.000000
    4        1.756717   1.000000
    5        9.718601   0.000000
    6        9.718601   0.000000
    7       10.317872   0.000000
    8       10.317872   0.000000
 
  0.2631579E+00  0.5000000E+00  0.7368421E+00  0.1000000E-01
    1       -2.265889   1.000000
    2       -1.933801   1.000000
    3        1.644140   1.000000
    4        1.889765   1.000000
    5        9.569019   0.000000
    6        9.774617   0.000000
    7       10.256859   0.000000
    8       10.496761   0.000000
 
  0.2763158E+00  0.5000000E+00  0.7236842E+00  0.1000000E-01
    1       -2.433000   1.000000
    2       -1.775977   1.000000
    3        1.556592   1.000000
    4        2.039325   1.000000
    5        9.404030   0.000000
    6        9.673185   0.000000
    7       10.377251   0.000000
    8       10.715593   0.000000
 
  0.2894737E+00  0.5000000E+00  0.7105263E+00  0.1000000E-01
    1       -2.597234   1.000000
    2       -1.629636   1.000000
    3        1.499185   1.000000
    4        2.201933   1.000000
    5        9.245080   0.000000
    6        9.507627   0.000000
    7       10.585388   0.000000
    8       10.953102   0.000000
 
  0.3026316E+00  0.5000000E+00  0.6973684E+00  0.1000000E-01
    1       -2.756651   1.000000
    2       -1.499845   1.000000
    3        1.477270   1.000000
    4        2.374475   1.000000
    5        9.098632   0.000000
    6        9.330697   0.000000
    7       10.828041   0.000000
    8       11.202889   0.000000
 
  0.3157895E+00  0.5000000E+00  0.6842105E+00  0.1000000E-01
    1       -2.909735   1.000000
    2       -1.391349   1.000000
    3        1.495720   1.000000
    4        2.554044   1.000000
    5        8.967510   0.000000
    6        9.155391   0.000000
    7       11.091469   0.000000
    8       11.462029   0.000000
 
  0.3289474E+00  0.5000000E+00  0.6710526E+00  0.1000000E-01
    1       -3.055300   1.000000
    2       -1.307488   1.000000
    3        1.557879   1.000000
    4        2.737838   1.000000
    5        8.853423   0.000000
    6        8.985309   0.000000
    7       11.370900   0.000000
    8       11.728433   0.000000
 
  0.3421053E+00  0.5000000E+00  0.6578947E+00  0.1000000E-01
    1       -3.192411   1.000000
    2       -1.249289   1.000000
    3        1.664595   1.000000
    4        2.923050   1.000000
    5        8.757640   0.000000
    6        8.821304   0.000000
    7       11.662472   0.000000
    8       12.000171   0.000000
 
  0.3552632E+00  0.5000000E+00  0.6447368E+00  0.1000000E-01
    1       -3.320349   1.000000
    2       -1.215149   1.000000
    3        1.813885   1.000000
    4        3.106814   1.000000
    5        8.662958   0.000000
    6        8.681161   0.000000
    7       11.899121   0.000000
    8       12.065722   0.000000
 
  0.3684211E+00  0.5000000E+00  0.6315789E+00  0.1000000E-01
    1       -3.438536   1.000000
    2       -1.201388   1.000000
    3        2.001443   1.000000
    4        3.286190   1.000000
    5        8.508945   0.000000
    6        8.624793   0.000000
    7       11.478827   0.000000
    8       12.337935   0.000000
 
  0.3815789E+00  0.5000000E+00  0.6184211E+00  0.1000000E-01
    1       -3.546513   1.000000
    2       -1.203295   1.000000
    3        2.221588   1.000000
    4        3.458188   1.000000
    5        8.356878   0.000000
    6        8.588923   0.000000
    7       11.005668   0.000000
    8       12.645980   0.000000
 
  0.3947368E+00  0.5000000E+00  0.6052632E+00  0.1000000E-01
    1       -3.643918   1.000000
    2       -1.216085   1.000000
    3        2.468098   1.000000
    4        3.619836   1.000000
    5        8.203110   0.000000
    6        8.573438   0.000000
    7       10.556212   0.000000
    8       12.990540   0.000000
 
  0.4078947E+00  0.5000000E+00  0.5921053E+00  0.1000000E-01
    1       -3.730437   1.000000
    2       -1.235485   1.000000
    3        2.734600   1.000000
    4        3.768321   1.000000
    5        8.042538   0.000000
    6        8.577400   0.000000
    7       10.140972   0.000000
    8       13.283694   0.000000
 
  0.4210526E+00  0.5000000E+00  0.5789474E+00  0.1000000E-01
    1       -3.805834   1.000000
    2       -1.257983   1.000000
    3        3.014424   1.000000
    4        3.901105   1.000000
    5        7.868943   0.000000
    6        8.598722   0.000000
    7        9.770689   0.000000
    8       13.408255   0.000000
 
  0.4342105E+00  0.5000000E+00  0.5657895E+00  0.1000000E-01
    1       -3.869915   1.000000
    2       -1.280823   1.000000
    3        3.299952   1.000000
    4        4.016066   1.000000
    5        7.677086   0.000000
    6        8.633926   0.000000
    7        9.456317   0.000000
    8       13.452517   0.000000
 
  0.4473684E+00  0.5000000E+00  0.5526316E+00  0.1000000E-01
    1       -3.922534   1.000000
    2       -1.301918   1.000000
    3        3.581413   1.000000
    4        4.111591   1.000000
    5        7.467248   0.000000
    6        8.677903   0.000000
    7        9.205879   0.000000
    8       13.408776   0.000000
 
  0.4605263E+00  0.5000000E+00  0.5394737E+00  0.1000000E-01
    1       -3.963574   1.000000
    2       -1.319731   1.000000
    3        3.844900   1.000000
    4        4.186589   1.000000
    5        7.250664   0.000000
    6        8.724033   0.000000
    7        9.020913   0.000000
    8       13.316247   0.000000
 
  0.4736842E+00  0.5000000E+00  0.5263158E+00  0.1000000E-01
    1       -3.992954   1.000000
    2       -1.333174   1.000000
    3        4.069625   1.000000
    4        4.240415   1.000000
    5        7.052088   0.000000
    6        8.764786   0.000000
    7        8.896634   0.000000
    8       13.219737   0.000000
 
  0.4868421E+00  0.5000000E+00  0.5131579E+00  0.1000000E-01
    1       -4.010605   1.000000
    2       -1.341517   1.000000
    3        4.226366   1.000000
    4        4.272779   1.000000
    5        6.907462   0.000000
    6        8.792887   0.000000
    7        8.825850   0.000000
    8       13.150488   0.000000
 
  0.5000000E+00  0.5000000E+00  0.5000000E+00  0.1000000E-01
    1       -4.016491   1.000000
    2       -1.344339   1.000000
    3        4.283577   1.000000
    4        4.283577   1.000000
    5        6.853638   0.000000
    6        8.802955   0.000000
    7        8.802955   0.000000
    8       13.125598   0.000000
 
  0.5000000E+00  0.5000000E+00  0.5000000E+00  0.1000000E-01
    1       -4.016491   1.000000
    2       -1.344339   1.000000
    3        4.283577   1.000000
    4        4.283577   1.000000
    5        6.853638   0.000000
    6        8.802955   0.000000
    7        8.802955   0.000000
    8       13.125598   0.000000
 
  0.4736842E+00  0.4736842E+00  0.4736842E+00  0.1000000E-01
    1       -4.053200   1.000000
    2       -1.291002   1.000000
    3        4.288454   1.000000
    4        4.288454   1.000000
    5        6.859330   0.000000
    6        8.808099   0.000000
    7        8.808099   0.000000
    8       13.133507   0.000000
 
  0.4473684E+00  0.4473684E+00  0.4473684E+00  0.1000000E-01
    1       -4.155112   1.000000
    2       -1.139161   1.000000
    3        4.303087   1.000000
    4        4.303087   1.000000
    5        6.876491   0.000000
    6        8.823160   0.000000
    7        8.823160   0.000000
    8       13.156221   0.000000
 
  0.4210526E+00  0.4210526E+00  0.4210526E+00  0.1000000E-01
    1       -4.303652   1.000000
    2       -0.907523   1.000000
    3        4.327448   1.000000
    4        4.327448   1.000000
    5        6.905012   0.000000
    6        8.846717   0.000000
    7        8.846717   0.000000
    8       13.190035   0.000000
 
  0.3947368E+00  0.3947368E+00  0.3947368E+00  0.1000000E-01
    1       -4.479803   1.000000
    2       -0.615359   1.000000
    3        4.361476   1.000000
    4        4.361476   1.000000
    5        6.944726   0.000000
    6        8.876328   0.000000
    7        8.876328   0.000000
    8       13.226169   0.000000
 
  0.3684211E+00  0.3684211E+00  0.3684211E+00  0.1000000E-01
    1       -4.668934   1.000000
    2       -0.277637   1.000000
    3        4.405083   1.000000
    4        4.405083   1.000000
    5        6.995415   0.000000
    6        8.908353   0.000000
    7        8.908353   0.000000
    8       13.244062   0.000000
 
  0.3421053E+00  0.3421053E+00  0.3421053E+00  0.1000000E-01
    1       -4.861027   1.000000
    2        0.095240   1.000000
    3        4.458105   1.000000
    4        4.458105   1.000000
    5        7.056773   0.000000
    6        8.937837   0.000000
    7        8.937837   0.000000
    8       13.199967   0.000000
 
  0.3157895E+00  0.3157895E+00  0.3157895E+00  0.1000000E-01
    1       -5.049522   1.000000
    2        0.496106   1.000000
    3        4.520284   1.000000
    4        4.520284   1.000000
    5        7.128274   0.000000
    6        8.958410   0.000000
    7        8.958410   0.000000
    8       13.020735   0.000000
 
  0.2894737E+00  0.2894737E+00  0.2894737E+00  0.1000000E-01
    1       -5.230110   1.000000
    2        0.919873   1.000000
    3        4.591239   1.000000
    4        4.591239   1.000000
    5        7.209262   0.000000
    6        8.962686   0.000000
    7        8.962686   0.000000
    8       12.711204   0.000000
 
  0.2631579E+00  0.2631579E+00  0.2631579E+00  0.1000000E-01
    1       -5.399916   1.000000
    2        1.362629   1.000000
    3        4.670398   1.000000
    4        4.670398   1.000000
    5        7.298824   0.000000
    6        8.943265   0.000000
    7        8.943265   0.000000
    8       12.278685   0.000000
 
  0.2368421E+00  0.2368421E+00  0.2368421E+00  0.1000000E-01
    1       -5.556916   1.000000
    2        1.821086   1.000000
    3        4.756952   1.000000
    4        4.756952   1.000000
    5        7.395705   0.000000
    6        8.894494   0.000000
    7        8.894494   0.000000
    8       11.833697   0.000000
 
  0.2105263E+00  0.2105263E+00  0.2105263E+00  0.1000000E-01
    1       -5.699717   1.000000
    2        2.292058   1.000000
    3        4.849715   1.000000
    4        4.849715   1.000000
    5        7.498126   0.000000
    6        8.814526   0.000000
    7        8.814526   0.000000
    8       11.371294   0.000000
 
  0.1842105E+00  0.1842105E+00  0.1842105E+00  0.1000000E-01
    1       -5.827343   1.000000
    2        2.772044   1.000000
    3        4.947038   1.000000
    4        4.947038   1.000000
    5        7.603835   0.000000
    6        8.706517   0.000000
    7        8.706517   0.000000
    8       10.899949   0.000000
 
  0.1578947E+00  0.1578947E+00  0.1578947E+00  0.1000000E-01
    1       -5.939053   1.000000
    2        3.256728   1.000000
    3        5.046621   1.000000
    4        5.046621   1.000000
    5        7.709690   0.000000
    6        8.578120   0.000000
    7        8.578120   0.000000
    8       10.425157   0.000000
 
  0.1315789E+00  0.1315789E+00  0.1315789E+00  0.1000000E-01
    1       -6.034301   1.000000
    2        3.740117   1.000000
    3        5.145311   1.000000
    4        5.145311   1.000000
    5        7.811497   0.000000
    6        8.439830   0.000000
    7        8.439831   0.000000
    8        9.952913   0.000000
 
  0.1052632E+00  0.1052632E+00  0.1052632E+00  0.1000000E-01
    1       -6.112680   1.000000
    2        4.212966   1.000000
    3        5.238923   1.000000
    4        5.238923   1.000000
    5        7.903619   0.000000
    6        8.303326   0.000000
    7        8.303326   0.000000
    8        9.492747   0.000000
 
  0.7894737E-01  0.7894737E-01  0.7894737E-01  0.1000000E-01
    1       -6.173928   1.000000
    2        4.659589   1.000000
    3        5.322098   1.000000
    4        5.322098   1.000000
    5        7.977996   0.000000
    6        8.180377   0.000000
    7        8.180377   0.000000
    8        9.062374   0.000000
 
  0.5263158E-01  0.5263158E-01  0.5263158E-01  0.1000000E-01
    1       -6.217819   1.000000
    2        5.051562   1.000000
    3        5.388533   1.000000
    4        5.388533   1.000000
    5        8.021672   0.000000
    6        8.082195   0.000000
    7        8.082195   0.000000
    8        8.697118   0.000000
 
  0.2631579E-01  0.2631579E-01  0.2631579E-01  0.1000000E-01
    1       -6.244188   1.000000
    2        5.337903   1.000000
    3        5.431813   0.999999
    4        5.431813   0.999999
    5        8.017719   0.000000
    6        8.018593   0.000000
    7        8.018593   0.000000
    8        8.459592   0.000000
 
  0.0000000E+00  0.0000000E+00  0.0000000E+00  0.1000000E-01
    1       -6.252968   1.000000
    2        5.446889   0.999998
    3        5.446890   0.999998
    4        5.446890   0.999998
    5        7.996540   0.000000
    6        7.996540   0.000000
    7        7.996541   0.000000
    8        8.387241   0.000000
 
  0.0000000E+00  0.0000000E+00  0.0000000E+00  0.1000000E-01
    1       -6.252968   1.000000
    2        5.446889   0.999998
    3        5.446890   0.999998
    4        5.446890   0.999998
    5        7.996540   0.000000
    6        7.996540   0.000000
    7        7.996541   0.000000
    8        8.387241   0.000000
 
  0.2631579E-01  0.2631579E-01  0.0000000E+00  0.1000000E-01
    1       -6.241251   1.000000
    2        5.358676   1.000000
    3        5.397762   1.000000
    4        5.397762   1.000000
    5        7.967488   0.000000
    6        8.060139   0.000000
    7        8.060139   0.000000
    8        8.473630   0.000000
 
  0.5263158E-01  0.5263158E-01  0.0000000E+00  0.1000000E-01
    1       -6.206062   1.000000
    2        5.120892   1.000000
    3        5.263665   1.000000
    4        5.263665   1.000000
    5        7.884151   0.000000
    6        8.237610   0.000000
    7        8.237610   0.000000
    8        8.702604   0.000000
 
  0.7894737E-01  0.7894737E-01  0.0000000E+00  0.1000000E-01
    1       -6.147449   1.000000
    2        4.785268   1.000000
    3        5.072763   1.000000
    4        5.072763   1.000000
    5        7.756372   0.000000
    6        8.500589   0.000000
    7        8.500590   0.000000
    8        9.010172   0.000000
 
  0.1052632E+00  0.1052632E+00  0.0000000E+00  0.1000000E-01
    1       -6.065525   1.000000
    2        4.393047   1.000000
    3        4.851084   1.000000
    4        4.851084   1.000000
    5        7.596777   0.000000
    6        8.822698   0.000000
    7        8.822698   0.000000
    8        9.325685   0.000000
 
  0.1315789E+00  0.1315789E+00  0.0000000E+00  0.1000000E-01
    1       -5.960428   1.000000
    2        3.968981   1.000000
    3        4.616698   1.000000
    4        4.616698   1.000000
    5        7.417848   0.000000
    6        9.185379   0.000000
    7        9.185381   0.000000
    8        9.560934   0.000000
 
  0.1578947E+00  0.1578947E+00  0.0000000E+00  0.1000000E-01
    1       -5.832309   1.000000
    2        3.526836   1.000000
    3        4.381075   1.000000
    4        4.381075   1.000000
    5        7.230327   0.000000
    6        9.576657   0.000000
    7        9.576659   0.000000
    8        9.608808   0.000000
 
  0.1842105E+00  0.1842105E+00  0.0000000E+00  0.1000000E-01
    1       -5.681399   1.000000
    2        3.074411   1.000000
    3        4.151384   1.000000
    4        4.151384   1.000000
    5        7.042820   0.000000
    6        9.437474   0.000000
    7        9.988838   0.000000
    8        9.988838   0.000000
 
  0.2105263E+00  0.2105263E+00  0.0000000E+00  0.1000000E-01
    1       -5.507953   1.000000
    2        2.616267   1.000000
    3        3.932264   1.000000
    4        3.932264   1.000000
    5        6.862005   0.000000
    6        9.129248   0.000000
    7       10.416851   0.000000
    8       10.416852   0.000000
 
  0.2368421E+00  0.2368421E+00  0.0000000E+00  0.1000000E-01
    1       -5.312264   1.000000
    2        2.155272   1.000000
    3        3.726791   1.000000
    4        3.726791   1.000000
    5        6.692977   0.000000
    6        8.767098   0.000000
    7       10.857174   0.000000
    8       10.857178   0.000000
 
  0.2631579E+00  0.2631579E+00  0.0000000E+00  0.1000000E-01
    1       -5.094690   1.000000
    2        1.693479   1.000000
    3        3.537099   1.000000
    4        3.537099   1.000000
    5        6.539668   0.000000
    6        8.395523   0.000000
    7       11.307459   0.000000
    8       11.307459   0.000000
 
  0.2894737E+00  0.2894737E+00  0.0000000E+00  0.1000000E-01
    1       -4.855693   1.000000
    2        1.232542   1.000000
    3        3.364704   1.000000
    4        3.364704   1.000000
    5        6.405144   0.000000
    6        8.035944   0.000000
    7       11.765913   0.000000
    8       11.765996   0.000000
 
  0.3157895E+00  0.3157895E+00  0.0000000E+00  0.1000000E-01
    1       -4.595709   1.000000
    2        0.773929   1.000000
    3        3.210715   1.000000
    4        3.210715   1.000000
    5        6.291856   0.000000
    6        7.699147   0.000000
    7       12.231360   0.000000
    8       12.231365   0.000000
 
  0.3421053E+00  0.3421053E+00  0.0000000E+00  0.1000000E-01
    1       -4.315309   1.000000
    2        0.319098   1.000000
    3        3.075958   1.000000
    4        3.075958   1.000000
    5        6.201786   0.000000
    6        7.390864   0.000000
    7       12.702800   0.000000
    8       12.702808   0.000000
 
  0.3684211E+00  0.3684211E+00  0.0000000E+00  0.1000000E-01
    1       -4.015133   1.000000
    2       -0.130419   1.000000
    3        2.961064   1.000000
    4        2.961064   1.000000
    5        6.136621   0.000000
    6        7.114160   0.000000
    7       13.179317   0.000000
    8       13.179318   0.000000
 
  0.3947368E+00  0.3947368E+00  0.0000000E+00  0.1000000E-01
    1       -3.695899   1.000000
    2       -0.573128   1.000000
    3        2.866501   1.000000
    4        2.866501   1.000000
    5        6.097857   0.000003
    6        6.870510   0.000000
    7       13.659105   0.000000
    8       13.659487   0.000000
 
  0.4210526E+00  0.4210526E+00  0.0000000E+00  0.1000000E-01
    1       -3.358382   1.000000
    2       -1.007527   1.000000
    3        2.792622   1.000000
    4        2.792622   1.000000
    5        6.086758   0.000006
    6        6.660538   0.000000
    7       14.138287   0.000000
    8       14.138290   0.000000
 
  0.4473684E+00  0.4473684E+00  0.0000000E+00  0.1000000E-01
    1       -3.003515   1.000000
    2       -1.432078   1.000000
    3        2.739677   1.000000
    4        2.739677   1.000000
    5        6.104485   0.000002
    6        6.484214   0.000000
    7       14.606433   0.000000
    8       14.606477   0.000000
 
  0.4736842E+00  0.4736842E+00  0.0000000E+00  0.1000000E-01
    1       -2.632300   1.000000
    2       -1.845308   1.000000
    3        2.707846   1.000000
    4        2.707846   1.000000
    5        6.152141   0.000000
    6        6.341140   0.000000
    7       15.026171   0.000000
    8       15.026271   0.000000
 
  0.5000000E+00  0.5000000E+00  0.0000000E+00  0.1000000E-01
    1       -2.245825   1.000000
    2       -2.245825   1.000000
    3        2.697221   1.000000
    4        2.697221   1.000000
    5        6.230716   0.000000
    6        6.230716   0.000000
    7       15.238483   0.000000
    8       15.238749   0.000000
 
  0.5000000E+00  0.5000000E+00  0.0000000E+00  0.1000000E-01
    1       -2.245825   1.000000
    2       -2.245825   1.000000
    3        2.697221   1.000000
    4        2.697221   1.000000
    5        6.230716   0.000000
    6        6.230716   0.000000
    7       15.238590   0.000000
    8       15.240096   0.000000
 
  0.5131579E+00  0.5000000E+00  0.1315789E-01  0.1000000E-01
    1       -2.244902   1.000000
    2       -2.244902   1.000000
    3        2.688559   1.000000
    4        2.688559   1.000000
    5        6.246869   0.000000
    6        6.246869   0.000000
    7       15.213440   0.000000
    8       15.214305   0.000000
 
  0.5263158E+00  0.5000000E+00  0.2631579E-01  0.1000000E-01
    1       -2.242139   1.000000
    2       -2.242139   1.000000
    3        2.663137   1.000000
    4        2.663137   1.000000
    5        6.294786   0.000000
    6        6.294786   0.000000
    7       15.134057   0.000000
    8       15.134673   0.000000
 
  0.5394737E+00  0.5000000E+00  0.3947368E-01  0.1000000E-01
    1       -2.237621   1.000000
    2       -2.237621   1.000000
    3        2.622546   1.000000
    4        2.622546   1.000000
    5        6.372885   0.000000
    6        6.372885   0.000000
    7       14.992232   0.000000
    8       14.995779   0.000000
 
  0.5526316E+00  0.5000000E+00  0.5263158E-01  0.1000000E-01
    1       -2.231424   1.000000
    2       -2.231424   1.000000
    3        2.569134   1.000000
    4        2.569134   1.000000
    5        6.478905   0.000000
    6        6.478905   0.000000
    7       14.787729   0.000000
    8       14.788080   0.000000
 
  0.5657895E+00  0.5000000E+00  0.6578947E-01  0.1000000E-01
    1       -2.223694   1.000000
    2       -2.223694   1.000000
    3        2.505641   1.000000
    4        2.505641   1.000000
    5        6.610182   0.000000
    6        6.610182   0.000000
    7       14.533127   0.000000
    8       14.533159   0.000000
 
  0.5789474E+00  0.5000000E+00  0.7894737E-01  0.1000000E-01
    1       -2.214601   1.000000
    2       -2.214601   1.000000
    3        2.434911   1.000000
    4        2.434911   1.000000
    5        6.763969   0.000000
    6        6.763969   0.000000
    7       14.244653   0.000000
    8       14.244672   0.000000
 
  0.5921053E+00  0.5000000E+00  0.9210526E-01  0.1000000E-01
    1       -2.204348   1.000000
    2       -2.204348   1.000000
    3        2.359669   1.000000
    4        2.359670   1.000000
    5        6.937674   0.000000
    6        6.937674   0.000000
    7       13.935459   0.000000
    8       13.935468   0.000000
 
  0.6052632E+00  0.5000000E+00  0.1052632E+00  0.1000000E-01
    1       -2.193185   1.000000
    2       -2.193185   1.000000
    3        2.282401   1.000000
    4        2.282401   1.000000
    5        7.128921   0.000000
    6        7.128921   0.000000
    7       13.614065   0.000000
    8       13.614067   0.000000
 
  0.6184211E+00  0.5000000E+00  0.1184211E+00  0.1000000E-01
    1       -2.181383   1.000000
    2       -2.181383   1.000000
    3        2.205313   1.000000
    4        2.205313   1.000000
    5        7.335657   0.000000
    6        7.335657   0.000000
    7       13.285924   0.000000
    8       13.285959   0.000000
 
  0.6315789E+00  0.5000000E+00  0.1315789E+00  0.1000000E-01
    1       -2.169246   1.000000
    2       -2.169246   1.000000
    3        2.130328   1.000000
    4        2.130328   1.000000
    5        7.556067   0.000000
    6        7.556067   0.000000
    7       12.954517   0.000000
    8       12.954519   0.000000
 
  0.6447368E+00  0.5000000E+00  0.1447368E+00  0.1000000E-01
    1       -2.157101   1.000000
    2       -2.157101   1.000000
    3        2.059106   1.000000
    4        2.059106   1.000000
    5        7.788598   0.000000
    6        7.788598   0.000000
    7       12.622304   0.000000
    8       12.622306   0.000000
 
  0.6578947E+00  0.5000000E+00  0.1578947E+00  0.1000000E-01
    1       -2.145288   1.000000
    2       -2.145288   1.000000
    3        1.993071   1.000000
    4        1.993071   1.000000
    5        8.031850   0.000000
    6        8.031850   0.000000
    7       12.291048   0.000000
    8       12.291049   0.000000
 
  0.6710526E+00  0.5000000E+00  0.1710526E+00  0.1000000E-01
    1       -2.134156   1.000000
    2       -2.134156   1.000000
    3        1.933439   1.000000
    4        1.933439   1.000000
    5        8.284502   0.000000
    6        8.284502   0.000000
    7       11.962181   0.000000
    8       11.962182   0.000000
 
  0.6842105E+00  0.5000000E+00  0.1842105E+00  0.1000000E-01
    1       -2.124034   1.000000
    2       -2.124034   1.000000
    3        1.881250   1.000000
    4        1.881250   1.000000
    5        8.545191   0.000000
    6        8.545191   0.000000
    7       11.637136   0.000000
    8       11.637136   0.000000
 
  0.6973684E+00  0.5000000E+00  0.1973684E+00  0.1000000E-01
    1       -2.115249   1.000000
    2       -2.115249   1.000000
    3        1.837368   1.000000
    4        1.837368   1.000000
    5        8.812159   0.000000
    6        8.812159   0.000000
    7       11.317574   0.000000
    8       11.317574   0.000000
 
  0.7105263E+00  0.5000000E+00  0.2105263E+00  0.1000000E-01
    1       -2.108085   1.000000
    2       -2.108085   1.000000
    3        1.802501   1.000000
    4        1.802501   1.000000
    5        9.082608   0.000000
    6        9.082608   0.000000
    7       11.006283   0.000000
    8       11.006285   0.000000
 
  0.7236842E+00  0.5000000E+00  0.2236842E+00  0.1000000E-01
    1       -2.102783   1.000000
    2       -2.102783   1.000000
    3        1.777197   1.000000
    4        1.777197   1.000000
    5        9.350161   0.000000
    6        9.350161   0.000000
    7       10.709598   0.000000
    8       10.709598   0.000000
 
  0.7368421E+00  0.5000000E+00  0.2368421E+00  0.1000000E-01
    1       -2.099525   1.000000
    2       -2.099525   1.000000
    3        1.761857   1.000000
    4        1.761857   1.000000
    5        9.593379   0.000000
    6        9.593380   0.000000
    7       10.448915   0.000000
    8       10.448916   0.000000
 
  0.7500000E+00  0.5000000E+00  0.2500000E+00  0.1000000E-01
    1       -2.098426   1.000000
    2       -2.098426   1.000000
    3        1.756717   1.000000
    4        1.756717   1.000000
    5        9.718601   0.000000
    6        9.718601   0.000000
    7       10.317872   0.000000
    8       10.317872   0.000000
 
  0.7500000E+00  0.5000000E+00  0.2500000E+00  0.1000000E-01
    1       -2.098426   1.000000
    2       -2.098426   1.000000
    3        1.756717   1.000000
    4        1.756717   1.000000
    5        9.718601   0.000000
    6        9.718604   0.000000
    7       10.317874   0.000000
    8       10.317876   0.000000
 
  0.7500000E+00  0.4934211E+00  0.2565789E+00  0.1000000E-01
    1       -2.155825   1.000000
    2       -2.041935   1.000000
    3        1.714006   1.000000
    4        1.804536   1.000000
    5        9.607735   0.000000
    6        9.750265   0.000000
    7       10.338958   0.000000
    8       10.381967   0.000000
 
  0.7500000E+00  0.4868421E+00  0.2631579E+00  0.1000000E-01
    1       -2.210181   1.000000
    2       -1.990314   1.000000
    3        1.673262   1.000000
    4        1.860492   1.000000
    5        9.414359   0.000000
    6        9.761040   0.000000
    7       10.450028   0.000000
    8       10.471556   0.000000
 
  0.7500000E+00  0.4802632E+00  0.2697368E+00  0.1000000E-01
    1       -2.261488   1.000000
    2       -1.943539   1.000000
    3        1.634548   1.000000
    4        1.924246   1.000000
    5        9.193708   0.000000
    6        9.757313   0.000000
    7       10.580133   0.000000
    8       10.596152   0.000000
 
  0.7500000E+00  0.4736842E+00  0.2763158E+00  0.1000000E-01
    1       -2.309731   1.000000
    2       -1.901506   1.000000
    3        1.597922   1.000000
    4        1.995325   1.000000
    5        8.965968   0.000000
    6        9.744844   0.000000
    7       10.701830   0.000000
    8       10.757519   0.000000
 
  0.7500000E+00  0.4671053E+00  0.2828947E+00  0.1000000E-01
    1       -2.354901   1.000000
    2       -1.864047   1.000000
    3        1.563437   1.000000
    4        2.073113   1.000000
    5        8.738381   0.000000
    6        9.727545   0.000000
    7       10.832604   0.000000
    8       10.927288   0.000000
 
  0.7500000E+00  0.4605263E+00  0.2894737E+00  0.1000000E-01
    1       -2.396989   1.000000
    2       -1.830945   1.000000
    3        1.531143   1.000000
    4        2.156847   1.000000
    5        8.514286   0.000000
    6        9.707904   0.000000
    7       10.969853   0.000000
    8       11.102661   0.000000
 
  0.7500000E+00  0.4539474E+00  0.2960526E+00  0.1000000E-01
    1       -2.435984   1.000000
    2       -1.801933   1.000000
    3        1.501083   1.000000
    4        2.245615   1.000000
    5        8.295632   0.000000
    6        9.687419   0.000000
    7       11.111903   0.000000
    8       11.282248   0.000000
 
  0.7500000E+00  0.4473684E+00  0.3026316E+00  0.1000000E-01
    1       -2.471888   1.000000
    2       -1.776714   1.000000
    3        1.473293   1.000000
    4        2.338343   1.000000
    5        8.083931   0.000000
    6        9.667055   0.000000
    7       11.257617   0.000000
    8       11.465248   0.000000
 
  0.7500000E+00  0.4407895E+00  0.3092105E+00  0.1000000E-01
    1       -2.504695   1.000000
    2       -1.754977   1.000000
    3        1.447811   1.000000
    4        2.433778   1.000000
    5        7.880536   0.000000
    6        9.647430   0.000000
    7       11.406169   0.000000
    8       11.651136   0.000000
 
  0.7500000E+00  0.4342105E+00  0.3157895E+00  0.1000000E-01
    1       -2.534389   1.000000
    2       -1.736413   1.000000
    3        1.424666   1.000000
    4        2.530465   1.000000
    5        7.686853   0.000000
    6        9.628972   0.000000
    7       11.556896   0.000000
    8       11.839506   0.000000
 