<?xml version="1.0" encoding="ISO-8859-1"?>
<modeling>
 <generator>
  <i name="program" type="string">vasp </i>
  <i name="version" type="string">5.4.1  </i>
  <i name="subversion" type="string">24Jun15 (build Jul 19 2016 16:50:41) complex                          parallel </i>
  <i name="platform" type="string">IFC91_ompi </i>
  <i name="date" type="string">2019 10 17 </i>
  <i name="time" type="string">12:18:31 </i>
 </generator>
 <incar>
  <i type="string" name="SYSTEM"> Si diamante</i>
  <i type="int" name="ISTART">     1</i>
  <i type="string" name="PREC">accurate</i>
  <i type="int" name="ICHARG">    11</i>
  <i type="int" name="IBRION">    -1</i>
  <i name="ENCUT">    450.00000000</i>
  <i type="int" name="ISMEAR">     0</i>
  <i name="SIGMA">      0.10000000</i>
  <v type="int" name="KPOINT_BSE">    -1     0     0     0</v>
 </incar>
 <kpoints>
  <generation param="listgenerated">
   <i name="divisions" type="int">      20 </i>
   <v>       0.25000000       0.50000000       0.75000000 </v>
   <v>       0.50000000       0.50000000       0.50000000 </v>
   <v>       0.00000000       0.00000000       0.00000000 </v>
   <v>       0.50000000       0.50000000       0.00000000 </v>
   <v>       0.75000000       0.50000000       0.25000000 </v>
   <v>       0.75000000       0.37500000       0.37500000 </v>
  </generation>
  <varray name="kpointlist" >
   <v>       0.25000000       0.50000000       0.75000000 </v>
   <v>       0.26315789       0.50000000       0.73684211 </v>
   <v>       0.27631579       0.50000000       0.72368421 </v>
   <v>       0.28947368       0.50000000       0.71052632 </v>
   <v>       0.30263158       0.50000000       0.69736842 </v>
   <v>       0.31578947       0.50000000       0.68421053 </v>
   <v>       0.32894737       0.50000000       0.67105263 </v>
   <v>       0.34210526       0.50000000       0.65789474 </v>
   <v>       0.35526316       0.50000000       0.64473684 </v>
   <v>       0.36842105       0.50000000       0.63157895 </v>
   <v>       0.38157895       0.50000000       0.61842105 </v>
   <v>       0.39473684       0.50000000       0.60526316 </v>
   <v>       0.40789474       0.50000000       0.59210526 </v>
   <v>       0.42105263       0.50000000       0.57894737 </v>
   <v>       0.43421053       0.50000000       0.56578947 </v>
   <v>       0.44736842       0.50000000       0.55263158 </v>
   <v>       0.46052632       0.50000000       0.53947368 </v>
   <v>       0.47368421       0.50000000       0.52631579 </v>
   <v>       0.48684211       0.50000000       0.51315789 </v>
   <v>       0.50000000       0.50000000       0.50000000 </v>
   <v>       0.50000000       0.50000000       0.50000000 </v>
   <v>       0.47368421       0.47368421       0.47368421 </v>
   <v>       0.44736842       0.44736842       0.44736842 </v>
   <v>       0.42105263       0.42105263       0.42105263 </v>
   <v>       0.39473684       0.39473684       0.39473684 </v>
   <v>       0.36842105       0.36842105       0.36842105 </v>
   <v>       0.34210526       0.34210526       0.34210526 </v>
   <v>       0.31578947       0.31578947       0.31578947 </v>
   <v>       0.28947368       0.28947368       0.28947368 </v>
   <v>       0.26315789       0.26315789       0.26315789 </v>
   <v>       0.23684211       0.23684211       0.23684211 </v>
   <v>       0.21052632       0.21052632       0.21052632 </v>
   <v>       0.18421053       0.18421053       0.18421053 </v>
   <v>       0.15789474       0.15789474       0.15789474 </v>
   <v>       0.13157895       0.13157895       0.13157895 </v>
   <v>       0.10526316       0.10526316       0.10526316 </v>
   <v>       0.07894737       0.07894737       0.07894737 </v>
   <v>       0.05263158       0.05263158       0.05263158 </v>
   <v>       0.02631579       0.02631579       0.02631579 </v>
   <v>       0.00000000       0.00000000       0.00000000 </v>
   <v>       0.00000000       0.00000000       0.00000000 </v>
   <v>       0.02631579       0.02631579       0.00000000 </v>
   <v>       0.05263158       0.05263158       0.00000000 </v>
   <v>       0.07894737       0.07894737       0.00000000 </v>
   <v>       0.10526316       0.10526316       0.00000000 </v>
   <v>       0.13157895       0.13157895       0.00000000 </v>
   <v>       0.15789474       0.15789474       0.00000000 </v>
   <v>       0.18421053       0.18421053       0.00000000 </v>
   <v>       0.21052632       0.21052632       0.00000000 </v>
   <v>       0.23684211       0.23684211       0.00000000 </v>
   <v>       0.26315789       0.26315789       0.00000000 </v>
   <v>       0.28947368       0.28947368       0.00000000 </v>
   <v>       0.31578947       0.31578947       0.00000000 </v>
   <v>       0.34210526       0.34210526       0.00000000 </v>
   <v>       0.36842105       0.36842105       0.00000000 </v>
   <v>       0.39473684       0.39473684       0.00000000 </v>
   <v>       0.42105263       0.42105263       0.00000000 </v>
   <v>       0.44736842       0.44736842       0.00000000 </v>
   <v>       0.47368421       0.47368421       0.00000000 </v>
   <v>       0.50000000       0.50000000       0.00000000 </v>
   <v>       0.50000000       0.50000000       0.00000000 </v>
   <v>       0.51315789       0.50000000       0.01315789 </v>
   <v>       0.52631579       0.50000000       0.02631579 </v>
   <v>       0.53947368       0.50000000       0.03947368 </v>
   <v>       0.55263158       0.50000000       0.05263158 </v>
   <v>       0.56578947       0.50000000       0.06578947 </v>
   <v>       0.57894737       0.50000000       0.07894737 </v>
   <v>       0.59210526       0.50000000       0.09210526 </v>
   <v>       0.60526316       0.50000000       0.10526316 </v>
   <v>       0.61842105       0.50000000       0.11842105 </v>
   <v>       0.63157895       0.50000000       0.13157895 </v>
   <v>       0.64473684       0.50000000       0.14473684 </v>
   <v>       0.65789474       0.50000000       0.15789474 </v>
   <v>       0.67105263       0.50000000       0.17105263 </v>
   <v>       0.68421053       0.50000000       0.18421053 </v>
   <v>       0.69736842       0.50000000       0.19736842 </v>
   <v>       0.71052632       0.50000000       0.21052632 </v>
   <v>       0.72368421       0.50000000       0.22368421 </v>
   <v>       0.73684211       0.50000000       0.23684211 </v>
   <v>       0.75000000       0.50000000       0.25000000 </v>
   <v>       0.75000000       0.50000000       0.25000000 </v>
   <v>       0.75000000       0.49342105       0.25657895 </v>
   <v>       0.75000000       0.48684211       0.26315789 </v>
   <v>       0.75000000       0.48026316       0.26973684 </v>
   <v>       0.75000000       0.47368421       0.27631579 </v>
   <v>       0.75000000       0.46710526       0.28289474 </v>
   <v>       0.75000000       0.46052632       0.28947368 </v>
   <v>       0.75000000       0.45394737       0.29605263 </v>
   <v>       0.75000000       0.44736842       0.30263158 </v>
   <v>       0.75000000       0.44078947       0.30921053 </v>
   <v>       0.75000000       0.43421053       0.31578947 </v>
   <v>       0.75000000       0.42763158       0.32236842 </v>
   <v>       0.75000000       0.42105263       0.32894737 </v>
   <v>       0.75000000       0.41447368       0.33552632 </v>
   <v>       0.75000000       0.40789474       0.34210526 </v>
   <v>       0.75000000       0.40131579       0.34868421 </v>
   <v>       0.75000000       0.39473684       0.35526316 </v>
   <v>       0.75000000       0.38815789       0.36184211 </v>
   <v>       0.75000000       0.38157895       0.36842105 </v>
   <v>       0.75000000       0.37500000       0.37500000 </v>
  </varray>
  <varray name="weights" >
   <v>       0.01000000 </v>
   <v>       0.01000000 </v>
   <v>       0.01000000 </v>
   <v>       0.01000000 </v>
   <v>       0.01000000 </v>
   <v>       0.01000000 </v>
   <v>       0.01000000 </v>
   <v>       0.01000000 </v>
   <v>       0.01000000 </v>
   <v>       0.01000000 </v>
   <v>       0.01000000 </v>
   <v>       0.01000000 </v>
   <v>       0.01000000 </v>
   <v>       0.01000000 </v>
   <v>       0.01000000 </v>
   <v>       0.01000000 </v>
   <v>       0.01000000 </v>
   <v>       0.01000000 </v>
   <v>       0.01000000 </v>
   <v>       0.01000000 </v>
   <v>       0.01000000 </v>
   <v>       0.01000000 </v>
   <v>       0.01000000 </v>
   <v>       0.01000000 </v>
   <v>       0.01000000 </v>
   <v>       0.01000000 </v>
   <v>       0.01000000 </v>
   <v>       0.01000000 </v>
   <v>       0.01000000 </v>
   <v>       0.01000000 </v>
   <v>       0.01000000 </v>
   <v>       0.01000000 </v>
   <v>       0.01000000 </v>
   <v>       0.01000000 </v>
   <v>       0.01000000 </v>
   <v>       0.01000000 </v>
   <v>       0.01000000 </v>
   <v>       0.01000000 </v>
   <v>       0.01000000 </v>
   <v>       0.01000000 </v>
   <v>       0.01000000 </v>
   <v>       0.01000000 </v>
   <v>       0.01000000 </v>
   <v>       0.01000000 </v>
   <v>       0.01000000 </v>
   <v>       0.01000000 </v>
   <v>       0.01000000 </v>
   <v>       0.01000000 </v>
   <v>       0.01000000 </v>
   <v>       0.01000000 </v>
   <v>       0.01000000 </v>
   <v>       0.01000000 </v>
   <v>       0.01000000 </v>
   <v>       0.01000000 </v>
   <v>       0.01000000 </v>
   <v>       0.01000000 </v>
   <v>       0.01000000 </v>
   <v>       0.01000000 </v>
   <v>       0.01000000 </v>
   <v>       0.01000000 </v>
   <v>       0.01000000 </v>
   <v>       0.01000000 </v>
   <v>       0.01000000 </v>
   <v>       0.01000000 </v>
   <v>       0.01000000 </v>
   <v>       0.01000000 </v>
   <v>       0.01000000 </v>
   <v>       0.01000000 </v>
   <v>       0.01000000 </v>
   <v>       0.01000000 </v>
   <v>       0.01000000 </v>
   <v>       0.01000000 </v>
   <v>       0.01000000 </v>
   <v>       0.01000000 </v>
   <v>       0.01000000 </v>
   <v>       0.01000000 </v>
   <v>       0.01000000 </v>
   <v>       0.01000000 </v>
   <v>       0.01000000 </v>
   <v>       0.01000000 </v>
   <v>       0.01000000 </v>
   <v>       0.01000000 </v>
   <v>       0.01000000 </v>
   <v>       0.01000000 </v>
   <v>       0.01000000 </v>
   <v>       0.01000000 </v>
   <v>       0.01000000 </v>
   <v>       0.01000000 </v>
   <v>       0.01000000 </v>
   <v>       0.01000000 </v>
   <v>       0.01000000 </v>
   <v>       0.01000000 </v>
   <v>       0.01000000 </v>
   <v>       0.01000000 </v>
   <v>       0.01000000 </v>
   <v>       0.01000000 </v>
   <v>       0.01000000 </v>
   <v>       0.01000000 </v>
   <v>       0.01000000 </v>
   <v>       0.01000000 </v>
  </varray>
 </kpoints>
 <parameters>
  <separator name="general" >
   <i type="string" name="SYSTEM">Si diamante</i>
   <i type="logical" name="LCOMPAT"> F  </i>
  </separator>
  <separator name="electronic" >
   <i type="string" name="PREC">accura</i>
   <i name="ENMAX">    450.00000000</i>
   <i name="ENAUG">    322.06900000</i>
   <i name="EDIFF">      0.00010000</i>
   <i type="int" name="IALGO">    38</i>
   <i type="int" name="IWAVPR">    10</i>
   <i type="int" name="NBANDS">     8</i>
   <i name="NELECT">      8.00000000</i>
   <i type="int" name="TURBO">     0</i>
   <i type="int" name="IRESTART">     0</i>
   <i type="int" name="NREBOOT">     0</i>
   <i type="int" name="NMIN">     0</i>
   <i name="EREF">      0.00000000</i>
   <separator name="electronic smearing" >
    <i type="int" name="ISMEAR">     0</i>
    <i name="SIGMA">      0.10000000</i>
    <i name="KSPACING">      0.50000000</i>
    <i type="logical" name="KGAMMA"> T  </i>
   </separator>
   <separator name="electronic projectors" >
    <i type="logical" name="LREAL"> F  </i>
    <v name="ROPT">      0.00000000</v>
    <i type="int" name="LMAXPAW">  -100</i>
    <i type="int" name="LMAXMIX">     2</i>
    <i type="logical" name="NLSPLINE"> F  </i>
   </separator>
   <separator name="electronic startup" >
    <i type="int" name="ISTART">     0</i>
    <i type="int" name="ICHARG">    11</i>
    <i type="int" name="INIWAV">     1</i>
   </separator>
   <separator name="electronic spin" >
    <i type="int" name="ISPIN">     1</i>
    <i type="logical" name="LNONCOLLINEAR"> F  </i>
    <v name="MAGMOM">      1.00000000      1.00000000</v>
    <i name="NUPDOWN">     -1.00000000</i>
    <i type="logical" name="LSORBIT"> F  </i>
    <v name="SAXIS">      0.00000000      0.00000000      1.00000000</v>
    <i type="logical" name="LSPIRAL"> F  </i>
    <v name="QSPIRAL">      0.00000000      0.00000000      0.00000000</v>
    <i type="logical" name="LZEROZ"> F  </i>
   </separator>
   <separator name="electronic exchange-correlation" >
    <i type="logical" name="LASPH"> F  </i>
    <i type="logical" name="LMETAGGA"> F  </i>
   </separator>
   <separator name="electronic convergence" >
    <i type="int" name="NELM">    60</i>
    <i type="int" name="NELMDL">     0</i>
    <i type="int" name="NELMIN">     2</i>
    <i name="ENINI">    450.00000000</i>
    <separator name="electronic convergence detail" >
     <i type="logical" name="LDIAG"> T  </i>
     <i type="logical" name="LSUBROT"> F  </i>
     <i name="WEIMIN">      0.00000000</i>
     <i name="EBREAK">      0.00000313</i>
     <i name="DEPER">      0.30000000</i>
     <i type="int" name="NRMM">     4</i>
     <i name="TIME">      0.40000000</i>
    </separator>
   </separator>
   <separator name="electronic mixer" >
    <i name="AMIX">      0.40000000</i>
    <i name="BMIX">      1.00000000</i>
    <i name="AMIN">      0.10000000</i>
    <i name="AMIX_MAG">      1.60000000</i>
    <i name="BMIX_MAG">      1.00000000</i>
    <separator name="electronic mixer details" >
     <i type="int" name="IMIX">     4</i>
     <i type="logical" name="MIXFIRST"> F  </i>
     <i type="int" name="MAXMIX">   -45</i>
     <i name="WC">    100.00000000</i>
     <i type="int" name="INIMIX">     1</i>
     <i type="int" name="MIXPRE">     1</i>
     <i type="int" name="MREMOVE">     5</i>
    </separator>
   </separator>
   <separator name="electronic dipolcorrection" >
    <i type="logical" name="LDIPOL"> F  </i>
    <i type="logical" name="LMONO"> F  </i>
    <i type="int" name="IDIPOL">     0</i>
    <i name="EPSILON">      1.00000000</i>
    <v name="DIPOL">   -100.00000000   -100.00000000   -100.00000000</v>
    <i name="EFIELD">      0.00000000</i>
   </separator>
  </separator>
  <separator name="grids" >
   <i type="int" name="NGX">    28</i>
   <i type="int" name="NGY">    28</i>
   <i type="int" name="NGZ">    28</i>
   <i type="int" name="NGXF">    56</i>
   <i type="int" name="NGYF">    56</i>
   <i type="int" name="NGZF">    56</i>
   <i type="logical" name="ADDGRID"> F  </i>
  </separator>
  <separator name="ionic" >
   <i type="int" name="NSW">     0</i>
   <i type="int" name="IBRION">    -1</i>
   <i type="int" name="ISIF">     2</i>
   <i name="PSTRESS">      0.00000000</i>
   <i name="EDIFFG">      0.00100000</i>
   <i type="int" name="NFREE">     0</i>
   <i name="POTIM">      0.50000000</i>
   <i name="SMASS">     -3.00000000</i>
   <i name="SCALEE">      1.00000000</i>
  </separator>
  <separator name="ionic md" >
   <i name="TEBEG">      0.00010000</i>
   <i name="TEEND">      0.00010000</i>
   <i type="int" name="NBLOCK">     1</i>
   <i type="int" name="KBLOCK">     1</i>
   <i type="int" name="NPACO">   256</i>
   <i name="APACO">     16.00000000</i>
  </separator>
  <separator name="symmetry" >
   <i type="int" name="ISYM">     2</i>
   <i name="SYMPREC">      0.00001000</i>
  </separator>
  <separator name="dos" >
   <i type="logical" name="LORBIT"> F  </i>
   <v name="RWIGS">     -1.00000000</v>
   <i type="int" name="NEDOS">   301</i>
   <i name="EMIN">     10.00000000</i>
   <i name="EMAX">    -10.00000000</i>
   <i name="EFERMI">      0.00000000</i>
  </separator>
  <separator name="writing" >
   <i type="int" name="NWRITE">     2</i>
   <i type="logical" name="LWAVE"> T  </i>
   <i type="logical" name="LCHARG"> T  </i>
   <i type="logical" name="LPARD"> F  </i>
   <i type="logical" name="LVTOT"> F  </i>
   <i type="logical" name="LVHAR"> F  </i>
   <i type="logical" name="LELF"> F  </i>
   <i type="logical" name="LOPTICS"> F  </i>
   <v name="STM">      0.00000000      0.00000000      0.00000000      0.00000000      0.00000000      0.00000000      0.00000000</v>
  </separator>
  <separator name="performance" >
   <i type="int" name="NPAR">     4</i>
   <i type="int" name="NSIM">     4</i>
   <i type="int" name="NBLK">    -1</i>
   <i type="logical" name="LPLANE"> T  </i>
   <i type="logical" name="LSCALAPACK"> F  </i>
   <i type="logical" name="LSCAAWARE"> F  </i>
   <i type="logical" name="LSCALU"> F  </i>
   <i type="logical" name="LASYNC"> F  </i>
   <i type="logical" name="LORBITALREAL"> F  </i>
  </separator>
  <separator name="miscellaneous" >
   <i type="int" name="IDIOT">     3</i>
   <i type="logical" name="LMUSIC"> F  </i>
   <v name="POMASS">     28.08500000</v>
   <v name="DARWINR">      0.00000000</v>
   <v name="DARWINV">      1.00000000</v>
   <i type="logical" name="LCORR"> T  </i>
  </separator>
  <i type="logical" name="GGA_COMPAT"> T  </i>
  <i type="logical" name="LBERRY"> F  </i>
  <i type="int" name="ICORELEVEL">     0</i>
  <i type="logical" name="LDAU"> F  </i>
  <i type="int" name="I_CONSTRAINED_M">     0</i>
  <separator name="electronic exchange-correlation" >
   <i type="string" name="GGA">--</i>
   <i type="int" name="VOSKOWN">     0</i>
   <i type="logical" name="LHFCALC"> F  </i>
   <i type="string" name="PRECFOCK"></i>
   <i type="logical" name="LSYMGRAD"> F  </i>
   <i type="logical" name="LHFONE"> F  </i>
   <i type="logical" name="LRHFCALC"> F  </i>
   <i type="logical" name="LTHOMAS"> F  </i>
   <i type="logical" name="LMODELHF"> F  </i>
   <i name="ENCUT4O">     -1.00000000</i>
   <i type="int" name="EXXOEP">     0</i>
   <i type="int" name="FOURORBIT">     0</i>
   <i name="AEXX">      0.00000000</i>
   <i name="HFALPHA">      0.00000000</i>
   <i name="MCALPHA">      0.00000000</i>
   <i name="ALDAX">      1.00000000</i>
   <i name="AGGAX">      1.00000000</i>
   <i name="ALDAC">      1.00000000</i>
   <i name="AGGAC">      1.00000000</i>
   <i type="int" name="NKREDX">     1</i>
   <i type="int" name="NKREDY">     1</i>
   <i type="int" name="NKREDZ">     1</i>
   <i type="logical" name="SHIFTRED"> F  </i>
   <i type="logical" name="ODDONLY"> F  </i>
   <i type="logical" name="EVENONLY"> F  </i>
   <i type="int" name="LMAXFOCK">     0</i>
   <i type="int" name="NMAXFOCKAE">     0</i>
   <i type="logical" name="LFOCKAEDFT"> F  </i>
   <i name="HFSCREEN">      0.00000000</i>
   <i name="HFSCREENC">      0.00000000</i>
   <i type="int" name="NBANDSGWLOW">     0</i>
  </separator>
  <separator name="vdW DFT" >
   <i type="logical" name="LUSE_VDW"> F  </i>
   <i name="Zab_VDW">     -0.84910000</i>
   <i name="PARAM1">      0.12340000</i>
   <i name="PARAM2">      1.00000000</i>
   <i name="PARAM3">      0.00000000</i>
  </separator>
  <separator name="model GW" >
   <i type="int" name="MODEL_GW">     0</i>
   <i name="MODEL_EPS0">     12.47812500</i>
   <i name="MODEL_ALPHA">      1.00000000</i>
  </separator>
  <separator name="linear response parameters" >
   <i type="logical" name="LEPSILON"> F  </i>
   <i type="logical" name="LRPA"> F  </i>
   <i type="logical" name="LNABLA"> F  </i>
   <i type="logical" name="LVEL"> F  </i>
   <i type="int" name="KINTER">     0</i>
   <i name="CSHIFT">      0.10000000</i>
   <i name="OMEGAMAX">     -1.00000000</i>
   <i name="DEG_THRESHOLD">      0.00200000</i>
  </separator>
  <separator name="orbital magnetization" >
   <i type="logical" name="NUCIND"> F  </i>
   <v name="MAGPOS">      0.00000000      0.00000000      0.00000000</v>
   <i type="logical" name="LNICSALL"> T  </i>
   <i type="logical" name="ORBITALMAG"> F  </i>
   <i type="logical" name="LMAGBLOCH"> F  </i>
   <i type="logical" name="LCHIMAG"> F  </i>
   <i type="logical" name="LGAUGE"> T  </i>
   <i type="int" name="MAGATOM">     0</i>
   <v name="MAGDIPOL">      0.00000000      0.00000000      0.00000000</v>
   <v name="AVECCONST">      0.00000000      0.00000000      0.00000000</v>
  </separator>
  <separator name="response functions" >
   <i type="logical" name="LADDER"> F  </i>
   <i type="logical" name="LFXC"> F  </i>
   <i type="logical" name="LHARTREE"> T  </i>
   <i type="int" name="IBSE">     0</i>
   <v type="int" name="KPOINT">    -1     0     0     0</v>
   <i type="logical" name="LTCTE"> F  </i>
   <i type="logical" name="LTETE"> F  </i>
   <i type="logical" name="LTRIPLET"> F  </i>
   <i type="logical" name="LFXCEPS"> F  </i>
   <i type="logical" name="LFXHEG"> F  </i>
   <i type="int" name="NATURALO">     0</i>
   <i type="logical" name="L2ORDER"> F  </i>
   <i type="logical" name="LUSEW"> F  </i>
   <i name="ENCUTGW">     -2.00000000</i>
   <i name="ENCUTGWSOFT">     -2.00000000</i>
   <i name="ENCUTLF">     -1.00000000</i>
   <i type="int" name="LMAXMP2">    -1</i>
   <i name="SCISSOR">      0.00000000</i>
   <i type="int" name="NOMEGA">     0</i>
   <i type="int" name="NOMEGAR">     0</i>
   <i type="int" name="NBANDSGW">    -1</i>
   <i type="int" name="NBANDSO">    -1</i>
   <i type="int" name="NBANDSV">    -1</i>
   <i type="int" name="NELM">     1</i>
   <i type="int" name="NELMHF">     1</i>
   <i type="int" name="DIM">     3</i>
   <i type="int" name="ANTIRES">     0</i>
   <i name="OMEGAMAX">    -30.00000000</i>
   <i name="OMEGAMIN">    -30.00000000</i>
   <i name="OMEGATL">   -200.00000000</i>
   <i type="int" name="OMEGAGRID">     0</i>
   <i name="CSHIFT">     -0.10000000</i>
   <i type="logical" name="SELFENERGY"> F  </i>
   <i type="logical" name="LSPECTRAL"> F  </i>
   <i type="logical" name="LSPECTRALGW"> F  </i>
   <i type="logical" name="LSINGLES"> F  </i>
   <i type="logical" name="LFERMIGW"> F  </i>
   <i type="logical" name="ODDONLYGW"> F  </i>
   <i type="logical" name="EVENONLYGW"> F  </i>
   <i type="int" name="NKREDLFX">     1</i>
   <i type="int" name="NKREDLFY">     1</i>
   <i type="int" name="NKREDLFZ">     1</i>
   <i type="int" name="MAXMEM">  1800</i>
   <i type="int" name="TELESCOPE">     0</i>
   <i type="int" name="TAUPAR">     1</i>
   <i type="int" name="OMEGAPAR">    -1</i>
   <i name="LAMBDA">      1.00000000</i>
  </separator>
  <separator name="External order field" >
   <i name="OFIELD_KAPPA">      0.00000000</i>
   <v name="OFIELD_K">      0.00000000      0.00000000      0.00000000</v>
   <i name="OFIELD_Q6_NEAR">      0.00000000</i>
   <i name="OFIELD_Q6_FAR">      0.00000000</i>
   <i name="OFIELD_A">      0.00000000</i>
  </separator>
 </parameters>
 <atominfo>
  <atoms>       2 </atoms>
  <types>       1 </types>
  <array name="atoms" >
   <dimension dim="1">ion</dimension>
   <field type="string">element</field>
   <field type="int">atomtype</field>
   <set>
    <rc><c>Si</c><c>   1</c></rc>
    <rc><c>Si</c><c>   1</c></rc>
   </set>
  </array>
  <array name="atomtypes" >
   <dimension dim="1">type</dimension>
   <field type="int">atomspertype</field>
   <field type="string">element</field>
   <field>mass</field>
   <field>valence</field>
   <field type="string">pseudopotential</field>
   <set>
    <rc><c>   2</c><c>Si</c><c>     28.08500000</c><c>      4.00000000</c><c>  PAW_PBE Si 05Jan2001                  </c></rc>
   </set>
  </array>
 </atominfo>
 <structure name="initialpos" >
  <crystal>
   <varray name="basis" >
    <v>       0.00000000       2.75000000       2.75000000 </v>
    <v>       2.75000000       0.00000000       2.75000000 </v>
    <v>       2.75000000       2.75000000       0.00000000 </v>
   </varray>
   <i name="volume">     41.59375000 </i>
   <varray name="rec_basis" >
    <v>      -0.18181818       0.18181818       0.18181818 </v>
    <v>       0.18181818      -0.18181818       0.18181818 </v>
    <v>       0.18181818       0.18181818      -0.18181818 </v>
   </varray>
  </crystal>
  <varray name="positions" >
   <v>       0.00000000       0.00000000       0.00000000 </v>
   <v>       0.25000000       0.25000000       0.25000000 </v>
  </varray>
 </structure>
 <calculation>
  <scstep>
   <time name="dav">    5.15    3.22</time>
   <time name="total">    5.29    3.30</time>
   <energy>
    <i name="alphaZ">      3.23732588 </i>
    <i name="ewald">   -225.65453461 </i>
    <i name="hartreedc">    -15.37331520 </i>
    <i name="XCdc">    -18.13770262 </i>
    <i name="pawpsdc">    800.87287296 </i>
    <i name="pawaedc">   -765.87716001 </i>
    <i name="eentropy">     -0.00340016 </i>
    <i name="bandstr">     20.84238930 </i>
    <i name="atom">    206.13192747 </i>
    <i name="e_fr_energy">      6.03840301 </i>
    <i name="e_wo_entrp">      6.04180317 </i>
    <i name="e_0_energy">      6.04010309 </i>
   </energy>
  </scstep>
  <scstep>
   <time name="dav">    7.07    4.58</time>
   <time name="total">    7.07    4.58</time>
   <energy>
    <i name="e_fr_energy">     -9.95792068 </i>
    <i name="e_wo_entrp">     -9.95792038 </i>
    <i name="e_0_energy">     -9.95792053 </i>
   </energy>
  </scstep>
  <scstep>
   <time name="dav">    6.34    4.02</time>
   <time name="total">    6.35    4.02</time>
   <energy>
    <i name="e_fr_energy">    -10.20276463 </i>
    <i name="e_wo_entrp">    -10.20276448 </i>
    <i name="e_0_energy">    -10.20276455 </i>
   </energy>
  </scstep>
  <scstep>
   <time name="dav">    7.79    4.79</time>
   <time name="total">    7.80    4.80</time>
   <energy>
    <i name="e_fr_energy">    -10.20389874 </i>
    <i name="e_wo_entrp">    -10.20389860 </i>
    <i name="e_0_energy">    -10.20389867 </i>
   </energy>
  </scstep>
  <scstep>
   <time name="dav">    6.47    4.02</time>
   <time name="total">    6.47    4.03</time>
   <energy>
    <i name="e_fr_energy">    -10.20390177 </i>
    <i name="e_wo_entrp">    -10.20390163 </i>
    <i name="e_0_energy">    -10.20390170 </i>
   </energy>
  </scstep>
  <scstep>
   <time name="dav">    7.11    4.46</time>
   <time name="total">    7.12    4.46</time>
   <energy>
    <i name="alphaZ">      3.23732588 </i>
    <i name="ewald">   -225.65453461 </i>
    <i name="hartreedc">    -15.37331520 </i>
    <i name="XCdc">    -18.13770262 </i>
    <i name="pawpsdc">    800.87287296 </i>
    <i name="pawaedc">   -765.87716001 </i>
    <i name="eentropy">     -0.00000014 </i>
    <i name="bandstr">      4.59668447 </i>
    <i name="atom">    206.13192747 </i>
    <i name="e_fr_energy">    -10.20390181 </i>
    <i name="e_wo_entrp">    -10.20390166 </i>
    <i name="e_0_energy">    -10.20390173 </i>
   </energy>
  </scstep>
  <structure>
   <crystal>
    <varray name="basis" >
     <v>       0.00000000       2.75000000       2.75000000 </v>
     <v>       2.75000000       0.00000000       2.75000000 </v>
     <v>       2.75000000       2.75000000       0.00000000 </v>
    </varray>
    <i name="volume">     41.59375000 </i>
    <varray name="rec_basis" >
     <v>      -0.18181818       0.18181818       0.18181818 </v>
     <v>       0.18181818      -0.18181818       0.18181818 </v>
     <v>       0.18181818       0.18181818      -0.18181818 </v>
    </varray>
   </crystal>
   <varray name="positions" >
    <v>       0.00000000       0.00000000       0.00000000 </v>
    <v>       0.25000000       0.25000000       0.25000000 </v>
   </varray>
  </structure>
  <varray name="forces" >
   <v>       0.00000000      -0.00000000       0.00000000 </v>
   <v>      -0.00000000       0.00000000      -0.00000000 </v>
  </varray>
  <varray name="stress" >
   <v>       2.00588997      -0.00000000      -0.00000000 </v>
   <v>      -0.00000000       2.00588997       0.00000000 </v>
   <v>       0.00000000       0.00000000       2.00588997 </v>
  </varray>
  <energy>
   <i name="e_fr_energy">    -10.20390181 </i>
   <i name="e_wo_entrp">    -10.20390173 </i>
   <i name="e_0_energy">     -0.00000014 </i>
  </energy>
  <time name="totalsc">   41.41   26.33</time>
  <eigenvalues>
   <array>
    <dimension dim="1">band</dimension>
    <dimension dim="2">kpoint</dimension>
    <dimension dim="3">spin</dimension>
    <field>eigene</field>
    <field>occ</field>
    <set>
     <set comment="spin 1">
      <set comment="kpoint 1">
       <r>   -2.0984    1.0000 </r>
       <r>   -2.0984    1.0000 </r>
       <r>    1.7567    1.0000 </r>
       <r>    1.7567    1.0000 </r>
       <r>    9.7186    0.0000 </r>
       <r>    9.7186    0.0000 </r>
       <r>   10.3179    0.0000 </r>
       <r>   10.3179    0.0000 </r>
      </set>
      <set comment="kpoint 2">
       <r>   -2.2659    1.0000 </r>
       <r>   -1.9338    1.0000 </r>
       <r>    1.6441    1.0000 </r>
       <r>    1.8898    1.0000 </r>
       <r>    9.5690    0.0000 </r>
       <r>    9.7746    0.0000 </r>
       <r>   10.2569    0.0000 </r>
       <r>   10.4968    0.0000 </r>
      </set>
      <set comment="kpoint 3">
       <r>   -2.4330    1.0000 </r>
       <r>   -1.7760    1.0000 </r>
       <r>    1.5566    1.0000 </r>
       <r>    2.0393    1.0000 </r>
       <r>    9.4040    0.0000 </r>
       <r>    9.6732    0.0000 </r>
       <r>   10.3773    0.0000 </r>
       <r>   10.7156    0.0000 </r>
      </set>
      <set comment="kpoint 4">
       <r>   -2.5972    1.0000 </r>
       <r>   -1.6296    1.0000 </r>
       <r>    1.4992    1.0000 </r>
       <r>    2.2019    1.0000 </r>
       <r>    9.2451    0.0000 </r>
       <r>    9.5076    0.0000 </r>
       <r>   10.5854    0.0000 </r>
       <r>   10.9531    0.0000 </r>
      </set>
      <set comment="kpoint 5">
       <r>   -2.7567    1.0000 </r>
       <r>   -1.4998    1.0000 </r>
       <r>    1.4773    1.0000 </r>
       <r>    2.3745    1.0000 </r>
       <r>    9.0986    0.0000 </r>
       <r>    9.3307    0.0000 </r>
       <r>   10.8280    0.0000 </r>
       <r>   11.2029    0.0000 </r>
      </set>
      <set comment="kpoint 6">
       <r>   -2.9097    1.0000 </r>
       <r>   -1.3913    1.0000 </r>
       <r>    1.4957    1.0000 </r>
       <r>    2.5540    1.0000 </r>
       <r>    8.9675    0.0000 </r>
       <r>    9.1554    0.0000 </r>
       <r>   11.0915    0.0000 </r>
       <r>   11.4620    0.0000 </r>
      </set>
      <set comment="kpoint 7">
       <r>   -3.0553    1.0000 </r>
       <r>   -1.3075    1.0000 </r>
       <r>    1.5579    1.0000 </r>
       <r>    2.7378    1.0000 </r>
       <r>    8.8534    0.0000 </r>
       <r>    8.9853    0.0000 </r>
       <r>   11.3709    0.0000 </r>
       <r>   11.7284    0.0000 </r>
      </set>
      <set comment="kpoint 8">
       <r>   -3.1924    1.0000 </r>
       <r>   -1.2493    1.0000 </r>
       <r>    1.6646    1.0000 </r>
       <r>    2.9230    1.0000 </r>
       <r>    8.7576    0.0000 </r>
       <r>    8.8213    0.0000 </r>
       <r>   11.6625    0.0000 </r>
       <r>   12.0002    0.0000 </r>
      </set>
      <set comment="kpoint 9">
       <r>   -3.3203    1.0000 </r>
       <r>   -1.2151    1.0000 </r>
       <r>    1.8139    1.0000 </r>
       <r>    3.1068    1.0000 </r>
       <r>    8.6630    0.0000 </r>
       <r>    8.6812    0.0000 </r>
       <r>   11.8991    0.0000 </r>
       <r>   12.0657    0.0000 </r>
      </set>
      <set comment="kpoint 10">
       <r>   -3.4385    1.0000 </r>
       <r>   -1.2014    1.0000 </r>
       <r>    2.0014    1.0000 </r>
       <r>    3.2862    1.0000 </r>
       <r>    8.5089    0.0000 </r>
       <r>    8.6248    0.0000 </r>
       <r>   11.4788    0.0000 </r>
       <r>   12.3379    0.0000 </r>
      </set>
      <set comment="kpoint 11">
       <r>   -3.5465    1.0000 </r>
       <r>   -1.2033    1.0000 </r>
       <r>    2.2216    1.0000 </r>
       <r>    3.4582    1.0000 </r>
       <r>    8.3569    0.0000 </r>
       <r>    8.5889    0.0000 </r>
       <r>   11.0057    0.0000 </r>
       <r>   12.6460    0.0000 </r>
      </set>
      <set comment="kpoint 12">
       <r>   -3.6439    1.0000 </r>
       <r>   -1.2161    1.0000 </r>
       <r>    2.4681    1.0000 </r>
       <r>    3.6198    1.0000 </r>
       <r>    8.2031    0.0000 </r>
       <r>    8.5734    0.0000 </r>
       <r>   10.5562    0.0000 </r>
       <r>   12.9905    0.0000 </r>
      </set>
      <set comment="kpoint 13">
       <r>   -3.7304    1.0000 </r>
       <r>   -1.2355    1.0000 </r>
       <r>    2.7346    1.0000 </r>
       <r>    3.7683    1.0000 </r>
       <r>    8.0425    0.0000 </r>
       <r>    8.5774    0.0000 </r>
       <r>   10.1410    0.0000 </r>
       <r>   13.2837    0.0000 </r>
      </set>
      <set comment="kpoint 14">
       <r>   -3.8058    1.0000 </r>
       <r>   -1.2580    1.0000 </r>
       <r>    3.0144    1.0000 </r>
       <r>    3.9011    1.0000 </r>
       <r>    7.8689    0.0000 </r>
       <r>    8.5987    0.0000 </r>
       <r>    9.7707    0.0000 </r>
       <r>   13.4083    0.0000 </r>
      </set>
      <set comment="kpoint 15">
       <r>   -3.8699    1.0000 </r>
       <r>   -1.2808    1.0000 </r>
       <r>    3.3000    1.0000 </r>
       <r>    4.0161    1.0000 </r>
       <r>    7.6771    0.0000 </r>
       <r>    8.6339    0.0000 </r>
       <r>    9.4563    0.0000 </r>
       <r>   13.4525    0.0000 </r>
      </set>
      <set comment="kpoint 16">
       <r>   -3.9225    1.0000 </r>
       <r>   -1.3019    1.0000 </r>
       <r>    3.5814    1.0000 </r>
       <r>    4.1116    1.0000 </r>
       <r>    7.4672    0.0000 </r>
       <r>    8.6779    0.0000 </r>
       <r>    9.2059    0.0000 </r>
       <r>   13.4088    0.0000 </r>
      </set>
      <set comment="kpoint 17">
       <r>   -3.9636    1.0000 </r>
       <r>   -1.3197    1.0000 </r>
       <r>    3.8449    1.0000 </r>
       <r>    4.1866    1.0000 </r>
       <r>    7.2507    0.0000 </r>
       <r>    8.7240    0.0000 </r>
       <r>    9.0209    0.0000 </r>
       <r>   13.3162    0.0000 </r>
      </set>
      <set comment="kpoint 18">
       <r>   -3.9930    1.0000 </r>
       <r>   -1.3332    1.0000 </r>
       <r>    4.0696    1.0000 </r>
       <r>    4.2404    1.0000 </r>
       <r>    7.0521    0.0000 </r>
       <r>    8.7648    0.0000 </r>
       <r>    8.8966    0.0000 </r>
       <r>   13.2197    0.0000 </r>
      </set>
      <set comment="kpoint 19">
       <r>   -4.0106    1.0000 </r>
       <r>   -1.3415    1.0000 </r>
       <r>    4.2264    1.0000 </r>
       <r>    4.2728    1.0000 </r>
       <r>    6.9075    0.0000 </r>
       <r>    8.7929    0.0000 </r>
       <r>    8.8258    0.0000 </r>
       <r>   13.1505    0.0000 </r>
      </set>
      <set comment="kpoint 20">
       <r>   -4.0165    1.0000 </r>
       <r>   -1.3443    1.0000 </r>
       <r>    4.2836    1.0000 </r>
       <r>    4.2836    1.0000 </r>
       <r>    6.8536    0.0000 </r>
       <r>    8.8030    0.0000 </r>
       <r>    8.8030    0.0000 </r>
       <r>   13.1256    0.0000 </r>
      </set>
      <set comment="kpoint 21">
       <r>   -4.0165    1.0000 </r>
       <r>   -1.3443    1.0000 </r>
       <r>    4.2836    1.0000 </r>
       <r>    4.2836    1.0000 </r>
       <r>    6.8536    0.0000 </r>
       <r>    8.8030    0.0000 </r>
       <r>    8.8030    0.0000 </r>
       <r>   13.1256    0.0000 </r>
      </set>
      <set comment="kpoint 22">
       <r>   -4.0532    1.0000 </r>
       <r>   -1.2910    1.0000 </r>
       <r>    4.2885    1.0000 </r>
       <r>    4.2885    1.0000 </r>
       <r>    6.8593    0.0000 </r>
       <r>    8.8081    0.0000 </r>
       <r>    8.8081    0.0000 </r>
       <r>   13.1335    0.0000 </r>
      </set>
      <set comment="kpoint 23">
       <r>   -4.1551    1.0000 </r>
       <r>   -1.1392    1.0000 </r>
       <r>    4.3031    1.0000 </r>
       <r>    4.3031    1.0000 </r>
       <r>    6.8765    0.0000 </r>
       <r>    8.8232    0.0000 </r>
       <r>    8.8232    0.0000 </r>
       <r>   13.1562    0.0000 </r>
      </set>
      <set comment="kpoint 24">
       <r>   -4.3037    1.0000 </r>
       <r>   -0.9075    1.0000 </r>
       <r>    4.3274    1.0000 </r>
       <r>    4.3274    1.0000 </r>
       <r>    6.9050    0.0000 </r>
       <r>    8.8467    0.0000 </r>
       <r>    8.8467    0.0000 </r>
       <r>   13.1900    0.0000 </r>
      </set>
      <set comment="kpoint 25">
       <r>   -4.4798    1.0000 </r>
       <r>   -0.6154    1.0000 </r>
       <r>    4.3615    1.0000 </r>
       <r>    4.3615    1.0000 </r>
       <r>    6.9447    0.0000 </r>
       <r>    8.8763    0.0000 </r>
       <r>    8.8763    0.0000 </r>
       <r>   13.2262    0.0000 </r>
      </set>
      <set comment="kpoint 26">
       <r>   -4.6689    1.0000 </r>
       <r>   -0.2776    1.0000 </r>
       <r>    4.4051    1.0000 </r>
       <r>    4.4051    1.0000 </r>
       <r>    6.9954    0.0000 </r>
       <r>    8.9084    0.0000 </r>
       <r>    8.9084    0.0000 </r>
       <r>   13.2441    0.0000 </r>
      </set>
      <set comment="kpoint 27">
       <r>   -4.8610    1.0000 </r>
       <r>    0.0952    1.0000 </r>
       <r>    4.4581    1.0000 </r>
       <r>    4.4581    1.0000 </r>
       <r>    7.0568    0.0000 </r>
       <r>    8.9378    0.0000 </r>
       <r>    8.9378    0.0000 </r>
       <r>   13.2000    0.0000 </r>
      </set>
      <set comment="kpoint 28">
       <r>   -5.0495    1.0000 </r>
       <r>    0.4961    1.0000 </r>
       <r>    4.5203    1.0000 </r>
       <r>    4.5203    1.0000 </r>
       <r>    7.1283    0.0000 </r>
       <r>    8.9584    0.0000 </r>
       <r>    8.9584    0.0000 </r>
       <r>   13.0207    0.0000 </r>
      </set>
      <set comment="kpoint 29">
       <r>   -5.2301    1.0000 </r>
       <r>    0.9199    1.0000 </r>
       <r>    4.5912    1.0000 </r>
       <r>    4.5912    1.0000 </r>
       <r>    7.2093    0.0000 </r>
       <r>    8.9627    0.0000 </r>
       <r>    8.9627    0.0000 </r>
       <r>   12.7112    0.0000 </r>
      </set>
      <set comment="kpoint 30">
       <r>   -5.3999    1.0000 </r>
       <r>    1.3626    1.0000 </r>
       <r>    4.6704    1.0000 </r>
       <r>    4.6704    1.0000 </r>
       <r>    7.2988    0.0000 </r>
       <r>    8.9433    0.0000 </r>
       <r>    8.9433    0.0000 </r>
       <r>   12.2787    0.0000 </r>
      </set>
      <set comment="kpoint 31">
       <r>   -5.5569    1.0000 </r>
       <r>    1.8211    1.0000 </r>
       <r>    4.7570    1.0000 </r>
       <r>    4.7570    1.0000 </r>
       <r>    7.3957    0.0000 </r>
       <r>    8.8945    0.0000 </r>
       <r>    8.8945    0.0000 </r>
       <r>   11.8337    0.0000 </r>
      </set>
      <set comment="kpoint 32">
       <r>   -5.6997    1.0000 </r>
       <r>    2.2921    1.0000 </r>
       <r>    4.8497    1.0000 </r>
       <r>    4.8497    1.0000 </r>
       <r>    7.4981    0.0000 </r>
       <r>    8.8145    0.0000 </r>
       <r>    8.8145    0.0000 </r>
       <r>   11.3713    0.0000 </r>
      </set>
      <set comment="kpoint 33">
       <r>   -5.8273    1.0000 </r>
       <r>    2.7720    1.0000 </r>
       <r>    4.9470    1.0000 </r>
       <r>    4.9470    1.0000 </r>
       <r>    7.6038    0.0000 </r>
       <r>    8.7065    0.0000 </r>
       <r>    8.7065    0.0000 </r>
       <r>   10.8999    0.0000 </r>
      </set>
      <set comment="kpoint 34">
       <r>   -5.9391    1.0000 </r>
       <r>    3.2567    1.0000 </r>
       <r>    5.0466    1.0000 </r>
       <r>    5.0466    1.0000 </r>
       <r>    7.7097    0.0000 </r>
       <r>    8.5781    0.0000 </r>
       <r>    8.5781    0.0000 </r>
       <r>   10.4252    0.0000 </r>
      </set>
      <set comment="kpoint 35">
       <r>   -6.0343    1.0000 </r>
       <r>    3.7401    1.0000 </r>
       <r>    5.1453    1.0000 </r>
       <r>    5.1453    1.0000 </r>
       <r>    7.8115    0.0000 </r>
       <r>    8.4398    0.0000 </r>
       <r>    8.4398    0.0000 </r>
       <r>    9.9529    0.0000 </r>
      </set>
      <set comment="kpoint 36">
       <r>   -6.1127    1.0000 </r>
       <r>    4.2130    1.0000 </r>
       <r>    5.2389    1.0000 </r>
       <r>    5.2389    1.0000 </r>
       <r>    7.9036    0.0000 </r>
       <r>    8.3033    0.0000 </r>
       <r>    8.3033    0.0000 </r>
       <r>    9.4927    0.0000 </r>
      </set>
      <set comment="kpoint 37">
       <r>   -6.1739    1.0000 </r>
       <r>    4.6596    1.0000 </r>
       <r>    5.3221    1.0000 </r>
       <r>    5.3221    1.0000 </r>
       <r>    7.9780    0.0000 </r>
       <r>    8.1804    0.0000 </r>
       <r>    8.1804    0.0000 </r>
       <r>    9.0624    0.0000 </r>
      </set>
      <set comment="kpoint 38">
       <r>   -6.2178    1.0000 </r>
       <r>    5.0516    1.0000 </r>
       <r>    5.3885    1.0000 </r>
       <r>    5.3885    1.0000 </r>
       <r>    8.0217    0.0000 </r>
       <r>    8.0822    0.0000 </r>
       <r>    8.0822    0.0000 </r>
       <r>    8.6971    0.0000 </r>
      </set>
      <set comment="kpoint 39">
       <r>   -6.2442    1.0000 </r>
       <r>    5.3379    1.0000 </r>
       <r>    5.4318    1.0000 </r>
       <r>    5.4318    1.0000 </r>
       <r>    8.0177    0.0000 </r>
       <r>    8.0186    0.0000 </r>
       <r>    8.0186    0.0000 </r>
       <r>    8.4596    0.0000 </r>
      </set>
      <set comment="kpoint 40">
       <r>   -6.2530    1.0000 </r>
       <r>    5.4469    1.0000 </r>
       <r>    5.4469    1.0000 </r>
       <r>    5.4469    1.0000 </r>
       <r>    7.9965    0.0000 </r>
       <r>    7.9965    0.0000 </r>
       <r>    7.9965    0.0000 </r>
       <r>    8.3872    0.0000 </r>
      </set>
      <set comment="kpoint 41">
       <r>   -6.2530    1.0000 </r>
       <r>    5.4469    1.0000 </r>
       <r>    5.4469    1.0000 </r>
       <r>    5.4469    1.0000 </r>
       <r>    7.9965    0.0000 </r>
       <r>    7.9965    0.0000 </r>
       <r>    7.9965    0.0000 </r>
       <r>    8.3872    0.0000 </r>
      </set>
      <set comment="kpoint 42">
       <r>   -6.2413    1.0000 </r>
       <r>    5.3587    1.0000 </r>
       <r>    5.3978    1.0000 </r>
       <r>    5.3978    1.0000 </r>
       <r>    7.9675    0.0000 </r>
       <r>    8.0601    0.0000 </r>
       <r>    8.0601    0.0000 </r>
       <r>    8.4736    0.0000 </r>
      </set>
      <set comment="kpoint 43">
       <r>   -6.2061    1.0000 </r>
       <r>    5.1209    1.0000 </r>
       <r>    5.2637    1.0000 </r>
       <r>    5.2637    1.0000 </r>
       <r>    7.8842    0.0000 </r>
       <r>    8.2376    0.0000 </r>
       <r>    8.2376    0.0000 </r>
       <r>    8.7026    0.0000 </r>
      </set>
      <set comment="kpoint 44">
       <r>   -6.1474    1.0000 </r>
       <r>    4.7853    1.0000 </r>
       <r>    5.0728    1.0000 </r>
       <r>    5.0728    1.0000 </r>
       <r>    7.7564    0.0000 </r>
       <r>    8.5006    0.0000 </r>
       <r>    8.5006    0.0000 </r>
       <r>    9.0102    0.0000 </r>
      </set>
      <set comment="kpoint 45">
       <r>   -6.0655    1.0000 </r>
       <r>    4.3930    1.0000 </r>
       <r>    4.8511    1.0000 </r>
       <r>    4.8511    1.0000 </r>
       <r>    7.5968    0.0000 </r>
       <r>    8.8227    0.0000 </r>
       <r>    8.8227    0.0000 </r>
       <r>    9.3257    0.0000 </r>
      </set>
      <set comment="kpoint 46">
       <r>   -5.9604    1.0000 </r>
       <r>    3.9690    1.0000 </r>
       <r>    4.6167    1.0000 </r>
       <r>    4.6167    1.0000 </r>
       <r>    7.4178    0.0000 </r>
       <r>    9.1854    0.0000 </r>
       <r>    9.1854    0.0000 </r>
       <r>    9.5609    0.0000 </r>
      </set>
      <set comment="kpoint 47">
       <r>   -5.8323    1.0000 </r>
       <r>    3.5268    1.0000 </r>
       <r>    4.3811    1.0000 </r>
       <r>    4.3811    1.0000 </r>
       <r>    7.2303    0.0000 </r>
       <r>    9.5767    0.0000 </r>
       <r>    9.5767    0.0000 </r>
       <r>    9.6088    0.0000 </r>
      </set>
      <set comment="kpoint 48">
       <r>   -5.6814    1.0000 </r>
       <r>    3.0744    1.0000 </r>
       <r>    4.1514    1.0000 </r>
       <r>    4.1514    1.0000 </r>
       <r>    7.0428    0.0000 </r>
       <r>    9.4375    0.0000 </r>
       <r>    9.9888    0.0000 </r>
       <r>    9.9888    0.0000 </r>
      </set>
      <set comment="kpoint 49">
       <r>   -5.5080    1.0000 </r>
       <r>    2.6163    1.0000 </r>
       <r>    3.9323    1.0000 </r>
       <r>    3.9323    1.0000 </r>
       <r>    6.8620    0.0000 </r>
       <r>    9.1292    0.0000 </r>
       <r>   10.4169    0.0000 </r>
       <r>   10.4169    0.0000 </r>
      </set>
      <set comment="kpoint 50">
       <r>   -5.3123    1.0000 </r>
       <r>    2.1553    1.0000 </r>
       <r>    3.7268    1.0000 </r>
       <r>    3.7268    1.0000 </r>
       <r>    6.6930    0.0000 </r>
       <r>    8.7671    0.0000 </r>
       <r>   10.8572    0.0000 </r>
       <r>   10.8572    0.0000 </r>
      </set>
      <set comment="kpoint 51">
       <r>   -5.0947    1.0000 </r>
       <r>    1.6935    1.0000 </r>
       <r>    3.5371    1.0000 </r>
       <r>    3.5371    1.0000 </r>
       <r>    6.5397    0.0000 </r>
       <r>    8.3955    0.0000 </r>
       <r>   11.3075    0.0000 </r>
       <r>   11.3075    0.0000 </r>
      </set>
      <set comment="kpoint 52">
       <r>   -4.8557    1.0000 </r>
       <r>    1.2325    1.0000 </r>
       <r>    3.3647    1.0000 </r>
       <r>    3.3647    1.0000 </r>
       <r>    6.4051    0.0000 </r>
       <r>    8.0359    0.0000 </r>
       <r>   11.7659    0.0000 </r>
       <r>   11.7660    0.0000 </r>
      </set>
      <set comment="kpoint 53">
       <r>   -4.5957    1.0000 </r>
       <r>    0.7739    1.0000 </r>
       <r>    3.2107    1.0000 </r>
       <r>    3.2107    1.0000 </r>
       <r>    6.2919    0.0000 </r>
       <r>    7.6991    0.0000 </r>
       <r>   12.2314    0.0000 </r>
       <r>   12.2314    0.0000 </r>
      </set>
      <set comment="kpoint 54">
       <r>   -4.3153    1.0000 </r>
       <r>    0.3191    1.0000 </r>
       <r>    3.0760    1.0000 </r>
       <r>    3.0760    1.0000 </r>
       <r>    6.2018    0.0000 </r>
       <r>    7.3909    0.0000 </r>
       <r>   12.7028    0.0000 </r>
       <r>   12.7028    0.0000 </r>
      </set>
      <set comment="kpoint 55">
       <r>   -4.0151    1.0000 </r>
       <r>   -0.1304    1.0000 </r>
       <r>    2.9611    1.0000 </r>
       <r>    2.9611    1.0000 </r>
       <r>    6.1366    0.0000 </r>
       <r>    7.1142    0.0000 </r>
       <r>   13.1793    0.0000 </r>
       <r>   13.1793    0.0000 </r>
      </set>
      <set comment="kpoint 56">
       <r>   -3.6959    1.0000 </r>
       <r>   -0.5731    1.0000 </r>
       <r>    2.8665    1.0000 </r>
       <r>    2.8665    1.0000 </r>
       <r>    6.0979    0.0000 </r>
       <r>    6.8705    0.0000 </r>
       <r>   13.6591    0.0000 </r>
       <r>   13.6595    0.0000 </r>
      </set>
      <set comment="kpoint 57">
       <r>   -3.3584    1.0000 </r>
       <r>   -1.0075    1.0000 </r>
       <r>    2.7926    1.0000 </r>
       <r>    2.7926    1.0000 </r>
       <r>    6.0868    0.0000 </r>
       <r>    6.6605    0.0000 </r>
       <r>   14.1383    0.0000 </r>
       <r>   14.1383    0.0000 </r>
      </set>
      <set comment="kpoint 58">
       <r>   -3.0035    1.0000 </r>
       <r>   -1.4321    1.0000 </r>
       <r>    2.7397    1.0000 </r>
       <r>    2.7397    1.0000 </r>
       <r>    6.1045    0.0000 </r>
       <r>    6.4842    0.0000 </r>
       <r>   14.6064    0.0000 </r>
       <r>   14.6065    0.0000 </r>
      </set>
      <set comment="kpoint 59">
       <r>   -2.6323    1.0000 </r>
       <r>   -1.8453    1.0000 </r>
       <r>    2.7078    1.0000 </r>
       <r>    2.7078    1.0000 </r>
       <r>    6.1521    0.0000 </r>
       <r>    6.3411    0.0000 </r>
       <r>   15.0262    0.0000 </r>
       <r>   15.0263    0.0000 </r>
      </set>
      <set comment="kpoint 60">
       <r>   -2.2458    1.0000 </r>
       <r>   -2.2458    1.0000 </r>
       <r>    2.6972    1.0000 </r>
       <r>    2.6972    1.0000 </r>
       <r>    6.2307    0.0000 </r>
       <r>    6.2307    0.0000 </r>
       <r>   15.2385    0.0000 </r>
       <r>   15.2387    0.0000 </r>
      </set>
      <set comment="kpoint 61">
       <r>   -2.2458    1.0000 </r>
       <r>   -2.2458    1.0000 </r>
       <r>    2.6972    1.0000 </r>
       <r>    2.6972    1.0000 </r>
       <r>    6.2307    0.0000 </r>
       <r>    6.2307    0.0000 </r>
       <r>   15.2386    0.0000 </r>
       <r>   15.2401    0.0000 </r>
      </set>
      <set comment="kpoint 62">
       <r>   -2.2449    1.0000 </r>
       <r>   -2.2449    1.0000 </r>
       <r>    2.6886    1.0000 </r>
       <r>    2.6886    1.0000 </r>
       <r>    6.2469    0.0000 </r>
       <r>    6.2469    0.0000 </r>
       <r>   15.2134    0.0000 </r>
       <r>   15.2143    0.0000 </r>
      </set>
      <set comment="kpoint 63">
       <r>   -2.2421    1.0000 </r>
       <r>   -2.2421    1.0000 </r>
       <r>    2.6631    1.0000 </r>
       <r>    2.6631    1.0000 </r>
       <r>    6.2948    0.0000 </r>
       <r>    6.2948    0.0000 </r>
       <r>   15.1341    0.0000 </r>
       <r>   15.1347    0.0000 </r>
      </set>
      <set comment="kpoint 64">
       <r>   -2.2376    1.0000 </r>
       <r>   -2.2376    1.0000 </r>
       <r>    2.6225    1.0000 </r>
       <r>    2.6225    1.0000 </r>
       <r>    6.3729    0.0000 </r>
       <r>    6.3729    0.0000 </r>
       <r>   14.9922    0.0000 </r>
       <r>   14.9958    0.0000 </r>
      </set>
      <set comment="kpoint 65">
       <r>   -2.2314    1.0000 </r>
       <r>   -2.2314    1.0000 </r>
       <r>    2.5691    1.0000 </r>
       <r>    2.5691    1.0000 </r>
       <r>    6.4789    0.0000 </r>
       <r>    6.4789    0.0000 </r>
       <r>   14.7877    0.0000 </r>
       <r>   14.7881    0.0000 </r>
      </set>
      <set comment="kpoint 66">
       <r>   -2.2237    1.0000 </r>
       <r>   -2.2237    1.0000 </r>
       <r>    2.5056    1.0000 </r>
       <r>    2.5056    1.0000 </r>
       <r>    6.6102    0.0000 </r>
       <r>    6.6102    0.0000 </r>
       <r>   14.5331    0.0000 </r>
       <r>   14.5332    0.0000 </r>
      </set>
      <set comment="kpoint 67">
       <r>   -2.2146    1.0000 </r>
       <r>   -2.2146    1.0000 </r>
       <r>    2.4349    1.0000 </r>
       <r>    2.4349    1.0000 </r>
       <r>    6.7640    0.0000 </r>
       <r>    6.7640    0.0000 </r>
       <r>   14.2447    0.0000 </r>
       <r>   14.2447    0.0000 </r>
      </set>
      <set comment="kpoint 68">
       <r>   -2.2043    1.0000 </r>
       <r>   -2.2043    1.0000 </r>
       <r>    2.3597    1.0000 </r>
       <r>    2.3597    1.0000 </r>
       <r>    6.9377    0.0000 </r>
       <r>    6.9377    0.0000 </r>
       <r>   13.9355    0.0000 </r>
       <r>   13.9355    0.0000 </r>
      </set>
      <set comment="kpoint 69">
       <r>   -2.1932    1.0000 </r>
       <r>   -2.1932    1.0000 </r>
       <r>    2.2824    1.0000 </r>
       <r>    2.2824    1.0000 </r>
       <r>    7.1289    0.0000 </r>
       <r>    7.1289    0.0000 </r>
       <r>   13.6141    0.0000 </r>
       <r>   13.6141    0.0000 </r>
      </set>
      <set comment="kpoint 70">
       <r>   -2.1814    1.0000 </r>
       <r>   -2.1814    1.0000 </r>
       <r>    2.2053    1.0000 </r>
       <r>    2.2053    1.0000 </r>
       <r>    7.3357    0.0000 </r>
       <r>    7.3357    0.0000 </r>
       <r>   13.2859    0.0000 </r>
       <r>   13.2860    0.0000 </r>
      </set>
      <set comment="kpoint 71">
       <r>   -2.1692    1.0000 </r>
       <r>   -2.1692    1.0000 </r>
       <r>    2.1303    1.0000 </r>
       <r>    2.1303    1.0000 </r>
       <r>    7.5561    0.0000 </r>
       <r>    7.5561    0.0000 </r>
       <r>   12.9545    0.0000 </r>
       <r>   12.9545    0.0000 </r>
      </set>
      <set comment="kpoint 72">
       <r>   -2.1571    1.0000 </r>
       <r>   -2.1571    1.0000 </r>
       <r>    2.0591    1.0000 </r>
       <r>    2.0591    1.0000 </r>
       <r>    7.7886    0.0000 </r>
       <r>    7.7886    0.0000 </r>
       <r>   12.6223    0.0000 </r>
       <r>   12.6223    0.0000 </r>
      </set>
      <set comment="kpoint 73">
       <r>   -2.1453    1.0000 </r>
       <r>   -2.1453    1.0000 </r>
       <r>    1.9931    1.0000 </r>
       <r>    1.9931    1.0000 </r>
       <r>    8.0318    0.0000 </r>
       <r>    8.0318    0.0000 </r>
       <r>   12.2910    0.0000 </r>
       <r>   12.2910    0.0000 </r>
      </set>
      <set comment="kpoint 74">
       <r>   -2.1342    1.0000 </r>
       <r>   -2.1342    1.0000 </r>
       <r>    1.9334    1.0000 </r>
       <r>    1.9334    1.0000 </r>
       <r>    8.2845    0.0000 </r>
       <r>    8.2845    0.0000 </r>
       <r>   11.9622    0.0000 </r>
       <r>   11.9622    0.0000 </r>
      </set>
      <set comment="kpoint 75">
       <r>   -2.1240    1.0000 </r>
       <r>   -2.1240    1.0000 </r>
       <r>    1.8813    1.0000 </r>
       <r>    1.8813    1.0000 </r>
       <r>    8.5452    0.0000 </r>
       <r>    8.5452    0.0000 </r>
       <r>   11.6371    0.0000 </r>
       <r>   11.6371    0.0000 </r>
      </set>
      <set comment="kpoint 76">
       <r>   -2.1152    1.0000 </r>
       <r>   -2.1152    1.0000 </r>
       <r>    1.8374    1.0000 </r>
       <r>    1.8374    1.0000 </r>
       <r>    8.8122    0.0000 </r>
       <r>    8.8122    0.0000 </r>
       <r>   11.3176    0.0000 </r>
       <r>   11.3176    0.0000 </r>
      </set>
      <set comment="kpoint 77">
       <r>   -2.1081    1.0000 </r>
       <r>   -2.1081    1.0000 </r>
       <r>    1.8025    1.0000 </r>
       <r>    1.8025    1.0000 </r>
       <r>    9.0826    0.0000 </r>
       <r>    9.0826    0.0000 </r>
       <r>   11.0063    0.0000 </r>
       <r>   11.0063    0.0000 </r>
      </set>
      <set comment="kpoint 78">
       <r>   -2.1028    1.0000 </r>
       <r>   -2.1028    1.0000 </r>
       <r>    1.7772    1.0000 </r>
       <r>    1.7772    1.0000 </r>
       <r>    9.3502    0.0000 </r>
       <r>    9.3502    0.0000 </r>
       <r>   10.7096    0.0000 </r>
       <r>   10.7096    0.0000 </r>
      </set>
      <set comment="kpoint 79">
       <r>   -2.0995    1.0000 </r>
       <r>   -2.0995    1.0000 </r>
       <r>    1.7619    1.0000 </r>
       <r>    1.7619    1.0000 </r>
       <r>    9.5934    0.0000 </r>
       <r>    9.5934    0.0000 </r>
       <r>   10.4489    0.0000 </r>
       <r>   10.4489    0.0000 </r>
      </set>
      <set comment="kpoint 80">
       <r>   -2.0984    1.0000 </r>
       <r>   -2.0984    1.0000 </r>
       <r>    1.7567    1.0000 </r>
       <r>    1.7567    1.0000 </r>
       <r>    9.7186    0.0000 </r>
       <r>    9.7186    0.0000 </r>
       <r>   10.3179    0.0000 </r>
       <r>   10.3179    0.0000 </r>
      </set>
      <set comment="kpoint 81">
       <r>   -2.0984    1.0000 </r>
       <r>   -2.0984    1.0000 </r>
       <r>    1.7567    1.0000 </r>
       <r>    1.7567    1.0000 </r>
       <r>    9.7186    0.0000 </r>
       <r>    9.7186    0.0000 </r>
       <r>   10.3179    0.0000 </r>
       <r>   10.3179    0.0000 </r>
      </set>
      <set comment="kpoint 82">
       <r>   -2.1558    1.0000 </r>
       <r>   -2.0419    1.0000 </r>
       <r>    1.7140    1.0000 </r>
       <r>    1.8045    1.0000 </r>
       <r>    9.6077    0.0000 </r>
       <r>    9.7503    0.0000 </r>
       <r>   10.3390    0.0000 </r>
       <r>   10.3820    0.0000 </r>
      </set>
      <set comment="kpoint 83">
       <r>   -2.2102    1.0000 </r>
       <r>   -1.9903    1.0000 </r>
       <r>    1.6733    1.0000 </r>
       <r>    1.8605    1.0000 </r>
       <r>    9.4144    0.0000 </r>
       <r>    9.7610    0.0000 </r>
       <r>   10.4500    0.0000 </r>
       <r>   10.4716    0.0000 </r>
      </set>
      <set comment="kpoint 84">
       <r>   -2.2615    1.0000 </r>
       <r>   -1.9435    1.0000 </r>
       <r>    1.6345    1.0000 </r>
       <r>    1.9242    1.0000 </r>
       <r>    9.1937    0.0000 </r>
       <r>    9.7573    0.0000 </r>
       <r>   10.5801    0.0000 </r>
       <r>   10.5962    0.0000 </r>
      </set>
      <set comment="kpoint 85">
       <r>   -2.3097    1.0000 </r>
       <r>   -1.9015    1.0000 </r>
       <r>    1.5979    1.0000 </r>
       <r>    1.9953    1.0000 </r>
       <r>    8.9660    0.0000 </r>
       <r>    9.7448    0.0000 </r>
       <r>   10.7018    0.0000 </r>
       <r>   10.7575    0.0000 </r>
      </set>
      <set comment="kpoint 86">
       <r>   -2.3549    1.0000 </r>
       <r>   -1.8640    1.0000 </r>
       <r>    1.5634    1.0000 </r>
       <r>    2.0731    1.0000 </r>
       <r>    8.7384    0.0000 </r>
       <r>    9.7275    0.0000 </r>
       <r>   10.8326    0.0000 </r>
       <r>   10.9273    0.0000 </r>
      </set>
      <set comment="kpoint 87">
       <r>   -2.3970    1.0000 </r>
       <r>   -1.8309    1.0000 </r>
       <r>    1.5311    1.0000 </r>
       <r>    2.1568    1.0000 </r>
       <r>    8.5143    0.0000 </r>
       <r>    9.7079    0.0000 </r>
       <r>   10.9699    0.0000 </r>
       <r>   11.1027    0.0000 </r>
      </set>
      <set comment="kpoint 88">
       <r>   -2.4360    1.0000 </r>
       <r>   -1.8019    1.0000 </r>
       <r>    1.5011    1.0000 </r>
       <r>    2.2456    1.0000 </r>
       <r>    8.2956    0.0000 </r>
       <r>    9.6874    0.0000 </r>
       <r>   11.1119    0.0000 </r>
       <r>   11.2822    0.0000 </r>
      </set>
      <set comment="kpoint 89">
       <r>   -2.4719    1.0000 </r>
       <r>   -1.7767    1.0000 </r>
       <r>    1.4733    1.0000 </r>
       <r>    2.3383    1.0000 </r>
       <r>    8.0839    0.0000 </r>
       <r>    9.6671    0.0000 </r>
       <r>   11.2576    0.0000 </r>
       <r>   11.4652    0.0000 </r>
      </set>
      <set comment="kpoint 90">
       <r>   -2.5047    1.0000 </r>
       <r>   -1.7550    1.0000 </r>
       <r>    1.4478    1.0000 </r>
       <r>    2.4338    1.0000 </r>
       <r>    7.8805    0.0000 </r>
       <r>    9.6474    0.0000 </r>
       <r>   11.4062    0.0000 </r>
       <r>   11.6511    0.0000 </r>
      </set>
      <set comment="kpoint 91">
       <r>   -2.5344    1.0000 </r>
       <r>   -1.7364    1.0000 </r>
       <r>    1.4247    1.0000 </r>
       <r>    2.5305    1.0000 </r>
       <r>    7.6869    0.0000 </r>
       <r>    9.6290    0.0000 </r>
       <r>   11.5569    0.0000 </r>
       <r>   11.8395    0.0000 </r>
      </set>
      <set comment="kpoint 92">
       <r>   -2.5610    1.0000 </r>
       <r>   -1.7207    1.0000 </r>
       <r>    1.4039    1.0000 </r>
       <r>    2.6267    1.0000 </r>
       <r>    7.5044    0.0000 </r>
       <r>    9.6120    0.0000 </r>
       <r>   11.7092    0.0000 </r>
       <r>   12.0300    0.0000 </r>
      </set>
      <set comment="kpoint 93">
       <r>   -2.5844    1.0000 </r>
       <r>   -1.7076    1.0000 </r>
       <r>    1.3855    1.0000 </r>
       <r>    2.7206    1.0000 </r>
       <r>    7.3350    0.0000 </r>
       <r>    9.5966    0.0000 </r>
       <r>   11.8625    0.0000 </r>
       <r>   12.2222    0.0000 </r>
      </set>
      <set comment="kpoint 94">
       <r>   -2.6048    1.0000 </r>
       <r>   -1.6968    1.0000 </r>
       <r>    1.3695    1.0000 </r>
       <r>    2.8100    1.0000 </r>
       <r>    7.1806    0.0000 </r>
       <r>    9.5831    0.0000 </r>
       <r>   12.0161    0.0000 </r>
       <r>   12.4156    0.0000 </r>
      </set>
      <set comment="kpoint 95">
       <r>   -2.6220    1.0000 </r>
       <r>   -1.6881    1.0000 </r>
       <r>    1.3560    1.0000 </r>
       <r>    2.8924    1.0000 </r>
       <r>    7.0436    0.0000 </r>
       <r>    9.5715    0.0000 </r>
       <r>   12.1690    0.0000 </r>
       <r>   12.6095    0.0000 </r>
      </set>
      <set comment="kpoint 96">
       <r>   -2.6361    1.0000 </r>
       <r>   -1.6812    1.0000 </r>
       <r>    1.3449    1.0000 </r>
       <r>    2.9652    1.0000 </r>
       <r>    6.9263    0.0000 </r>
       <r>    9.5619    0.0000 </r>
       <r>   12.3198    0.0000 </r>
       <r>   12.8028    0.0000 </r>
      </set>
      <set comment="kpoint 97">
       <r>   -2.6471    1.0000 </r>
       <r>   -1.6761    1.0000 </r>
       <r>    1.3362    1.0000 </r>
       <r>    3.0257    1.0000 </r>
       <r>    6.8314    0.0000 </r>
       <r>    9.5544    0.0000 </r>
       <r>   12.4657    0.0000 </r>
       <r>   12.9935    0.0000 </r>
      </set>
      <set comment="kpoint 98">
       <r>   -2.6549    1.0000 </r>
       <r>   -1.6725    1.0000 </r>
       <r>    1.3300    1.0000 </r>
       <r>    3.0711    1.0000 </r>
       <r>    6.7614    0.0000 </r>
       <r>    9.5490    0.0000 </r>
       <r>   12.6004    0.0000 </r>
       <r>   13.1760    0.0000 </r>
      </set>
      <set comment="kpoint 99">
       <r>   -2.6596    1.0000 </r>
       <r>   -1.6704    1.0000 </r>
       <r>    1.3263    1.0000 </r>
       <r>    3.0994    1.0000 </r>
       <r>    6.7184    0.0000 </r>
       <r>    9.5458    0.0000 </r>
       <r>   12.7083    0.0000 </r>
       <r>   13.3305    0.0000 </r>
      </set>
      <set comment="kpoint 100">
       <r>   -2.6612    1.0000 </r>
       <r>   -1.6697    1.0000 </r>
       <r>    1.3251    1.0000 </r>
       <r>    3.1090    1.0000 </r>
       <r>    6.7039    0.0000 </r>
       <r>    9.5447    0.0000 </r>
       <r>   12.7538    0.0000 </r>
       <r>   13.2887    0.0000 </r>
      </set>
     </set>
    </set>
   </array>
  </eigenvalues>
  <separator name="orbital magnetization" >
   <v name="MAGDIPOLOUT">      0.00000000      0.00000000      0.00000000</v>
  </separator>
  <dos>
   <i name="efermi">      5.77661982 </i>
   <total>
    <array>
     <dimension dim="1">gridpoints</dimension>
     <dimension dim="2">spin</dimension>
     <field>energy</field>
     <field>total</field>
     <field>integrated</field>
     <set>
      <set comment="spin 1">
       <r>    -7.3276     0.0000     0.0000 </r>
       <r>    -7.2488     0.0000     0.0000 </r>
       <r>    -7.1700     0.0000     0.0000 </r>
       <r>    -7.0912     0.0000     0.0000 </r>
       <r>    -7.0124     0.0000     0.0000 </r>
       <r>    -6.9336     0.0000     0.0000 </r>
       <r>    -6.8548     0.0000     0.0000 </r>
       <r>    -6.7760     0.0000     0.0000 </r>
       <r>    -6.6972     0.0000     0.0000 </r>
       <r>    -6.6183     0.0000     0.0000 </r>
       <r>    -6.5395     0.0000     0.0000 </r>
       <r>    -6.4607     0.0015     0.0001 </r>
       <r>    -6.3819     0.0330     0.0027 </r>
       <r>    -6.3031     0.2502     0.0224 </r>
       <r>    -6.2243     0.6877     0.0766 </r>
       <r>    -6.1455     0.8129     0.1407 </r>
       <r>    -6.0667     0.6025     0.1882 </r>
       <r>    -5.9879     0.4471     0.2234 </r>
       <r>    -5.9091     0.3732     0.2528 </r>
       <r>    -5.8303     0.3317     0.2790 </r>
       <r>    -5.7515     0.2981     0.3025 </r>
       <r>    -5.6727     0.2817     0.3247 </r>
       <r>    -5.5938     0.2557     0.3448 </r>
       <r>    -5.5150     0.2495     0.3645 </r>
       <r>    -5.4362     0.2341     0.3829 </r>
       <r>    -5.3574     0.2179     0.4001 </r>
       <r>    -5.2786     0.2249     0.4178 </r>
       <r>    -5.1998     0.2036     0.4339 </r>
       <r>    -5.1210     0.1912     0.4489 </r>
       <r>    -5.0422     0.2212     0.4664 </r>
       <r>    -4.9634     0.1717     0.4799 </r>
       <r>    -4.8846     0.1793     0.4940 </r>
       <r>    -4.8058     0.2207     0.5114 </r>
       <r>    -4.7270     0.1533     0.5235 </r>
       <r>    -4.6482     0.1715     0.5370 </r>
       <r>    -4.5693     0.2077     0.5534 </r>
       <r>    -4.4905     0.1795     0.5675 </r>
       <r>    -4.4117     0.1525     0.5795 </r>
       <r>    -4.3329     0.1906     0.5946 </r>
       <r>    -4.2541     0.2336     0.6130 </r>
       <r>    -4.1753     0.1968     0.6285 </r>
       <r>    -4.0965     0.3158     0.6534 </r>
       <r>    -4.0177     0.6660     0.7059 </r>
       <r>    -3.9389     0.7879     0.7679 </r>
       <r>    -3.8601     0.5261     0.8094 </r>
       <r>    -3.7813     0.3567     0.8375 </r>
       <r>    -3.7025     0.3494     0.8651 </r>
       <r>    -3.6236     0.3244     0.8906 </r>
       <r>    -3.5448     0.2407     0.9096 </r>
       <r>    -3.4660     0.2078     0.9260 </r>
       <r>    -3.3872     0.2467     0.9454 </r>
       <r>    -3.3084     0.2726     0.9669 </r>
       <r>    -3.2296     0.2099     0.9834 </r>
       <r>    -3.1508     0.1644     0.9964 </r>
       <r>    -3.0720     0.1828     1.0108 </r>
       <r>    -2.9932     0.2400     1.0297 </r>
       <r>    -2.9144     0.2221     1.0472 </r>
       <r>    -2.8356     0.1635     1.0601 </r>
       <r>    -2.7568     0.2380     1.0789 </r>
       <r>    -2.6780     0.6678     1.1315 </r>
       <r>    -2.5991     1.1752     1.2241 </r>
       <r>    -2.5203     1.0899     1.3100 </r>
       <r>    -2.4415     0.7995     1.3730 </r>
       <r>    -2.3627     0.8033     1.4363 </r>
       <r>    -2.2839     1.6524     1.5665 </r>
       <r>    -2.2051     3.3837     1.8332 </r>
       <r>    -2.1263     4.1075     2.1569 </r>
       <r>    -2.0475     2.9960     2.3930 </r>
       <r>    -1.9687     1.3513     2.4995 </r>
       <r>    -1.8899     0.7846     2.5613 </r>
       <r>    -1.8111     0.9287     2.6345 </r>
       <r>    -1.7323     1.2742     2.7349 </r>
       <r>    -1.6535     1.3765     2.8434 </r>
       <r>    -1.5746     0.8158     2.9077 </r>
       <r>    -1.4958     0.3547     2.9357 </r>
       <r>    -1.4170     0.4809     2.9736 </r>
       <r>    -1.3382     1.0126     3.0534 </r>
       <r>    -1.2594     1.4382     3.1667 </r>
       <r>    -1.1806     1.2079     3.2619 </r>
       <r>    -1.1018     0.5991     3.3091 </r>
       <r>    -1.0230     0.2382     3.3279 </r>
       <r>    -0.9442     0.1826     3.3423 </r>
       <r>    -0.8654     0.1494     3.3540 </r>
       <r>    -0.7866     0.0665     3.3593 </r>
       <r>    -0.7078     0.0399     3.3624 </r>
       <r>    -0.6289     0.1312     3.3728 </r>
       <r>    -0.5501     0.2057     3.3890 </r>
       <r>    -0.4713     0.1162     3.3981 </r>
       <r>    -0.3925     0.0352     3.4009 </r>
       <r>    -0.3137     0.0669     3.4062 </r>
       <r>    -0.2349     0.1237     3.4159 </r>
       <r>    -0.1561     0.1316     3.4263 </r>
       <r>    -0.0773     0.1176     3.4356 </r>
       <r>     0.0015     0.0717     3.4412 </r>
       <r>     0.0803     0.0898     3.4483 </r>
       <r>     0.1591     0.1049     3.4566 </r>
       <r>     0.2379     0.0698     3.4621 </r>
       <r>     0.3167     0.0984     3.4698 </r>
       <r>     0.3956     0.1132     3.4788 </r>
       <r>     0.4744     0.1085     3.4873 </r>
       <r>     0.5532     0.1080     3.4958 </r>
       <r>     0.6320     0.0519     3.4999 </r>
       <r>     0.7108     0.0485     3.5037 </r>
       <r>     0.7896     0.1102     3.5124 </r>
       <r>     0.8684     0.1325     3.5229 </r>
       <r>     0.9472     0.1271     3.5329 </r>
       <r>     1.0260     0.0740     3.5387 </r>
       <r>     1.1048     0.0254     3.5407 </r>
       <r>     1.1836     0.0815     3.5471 </r>
       <r>     1.2624     0.3649     3.5759 </r>
       <r>     1.3412     0.9581     3.6514 </r>
       <r>     1.4201     1.3521     3.7579 </r>
       <r>     1.4989     1.3385     3.8634 </r>
       <r>     1.5777     1.2362     3.9608 </r>
       <r>     1.6565     1.2073     4.0560 </r>
       <r>     1.7353     1.6534     4.1863 </r>
       <r>     1.8141     2.1559     4.3562 </r>
       <r>     1.8929     1.8739     4.5039 </r>
       <r>     1.9717     1.3761     4.6123 </r>
       <r>     2.0505     1.1742     4.7049 </r>
       <r>     2.1293     1.0947     4.7911 </r>
       <r>     2.2081     1.1193     4.8793 </r>
       <r>     2.2869     1.1038     4.9663 </r>
       <r>     2.3658     1.0151     5.0463 </r>
       <r>     2.4446     0.9872     5.1241 </r>
       <r>     2.5234     1.0572     5.2074 </r>
       <r>     2.6022     1.3173     5.3113 </r>
       <r>     2.6810     1.8491     5.4570 </r>
       <r>     2.7598     2.0361     5.6174 </r>
       <r>     2.8386     1.4456     5.7314 </r>
       <r>     2.9174     0.9821     5.8088 </r>
       <r>     2.9962     0.9589     5.8843 </r>
       <r>     3.0750     1.0754     5.9691 </r>
       <r>     3.1538     0.9549     6.0443 </r>
       <r>     3.2326     0.6826     6.0981 </r>
       <r>     3.3114     0.6064     6.1459 </r>
       <r>     3.3903     0.5103     6.1861 </r>
       <r>     3.4691     0.4353     6.2204 </r>
       <r>     3.5479     0.5307     6.2623 </r>
       <r>     3.6267     0.5345     6.3044 </r>
       <r>     3.7055     0.4811     6.3423 </r>
       <r>     3.7843     0.5242     6.3836 </r>
       <r>     3.8631     0.4932     6.4225 </r>
       <r>     3.9419     0.5459     6.4655 </r>
       <r>     4.0207     0.5535     6.5091 </r>
       <r>     4.0995     0.5566     6.5530 </r>
       <r>     4.1783     0.8164     6.6173 </r>
       <r>     4.2571     1.3763     6.7258 </r>
       <r>     4.3359     1.8310     6.8701 </r>
       <r>     4.4148     1.5899     6.9954 </r>
       <r>     4.4936     1.0387     7.0772 </r>
       <r>     4.5724     0.7974     7.1401 </r>
       <r>     4.6512     0.8411     7.2064 </r>
       <r>     4.7300     0.7766     7.2676 </r>
       <r>     4.8088     0.7300     7.3251 </r>
       <r>     4.8876     0.7235     7.3821 </r>
       <r>     4.9664     0.6166     7.4307 </r>
       <r>     5.0452     0.6955     7.4855 </r>
       <r>     5.1240     0.8267     7.5507 </r>
       <r>     5.2028     0.7533     7.6100 </r>
       <r>     5.2816     0.8438     7.6765 </r>
       <r>     5.3605     1.1999     7.7711 </r>
       <r>     5.4393     1.5031     7.8895 </r>
       <r>     5.5181     1.0604     7.9731 </r>
       <r>     5.5969     0.3082     7.9974 </r>
       <r>     5.6757     0.0319     7.9999 </r>
       <r>     5.7545     0.0011     8.0000 </r>
       <r>     5.8333     0.0001     8.0000 </r>
       <r>     5.9121     0.0038     8.0003 </r>
       <r>     5.9909     0.0573     8.0048 </r>
       <r>     6.0697     0.3060     8.0289 </r>
       <r>     6.1485     0.7233     8.0859 </r>
       <r>     6.2273     1.0987     8.1725 </r>
       <r>     6.3061     1.2098     8.2679 </r>
       <r>     6.3850     0.9469     8.3425 </r>
       <r>     6.4638     0.7115     8.3986 </r>
       <r>     6.5426     0.6076     8.4464 </r>
       <r>     6.6214     0.5916     8.4931 </r>
       <r>     6.7002     0.7422     8.5516 </r>
       <r>     6.7790     0.9515     8.6266 </r>
       <r>     6.8578     1.2442     8.7246 </r>
       <r>     6.9366     1.4115     8.8358 </r>
       <r>     7.0154     1.1667     8.9278 </r>
       <r>     7.0942     1.0038     9.0069 </r>
       <r>     7.1730     0.9308     9.0802 </r>
       <r>     7.2518     0.8102     9.1441 </r>
       <r>     7.3306     0.7975     9.2069 </r>
       <r>     7.4095     0.8148     9.2712 </r>
       <r>     7.4883     0.7573     9.3308 </r>
       <r>     7.5671     0.7410     9.3892 </r>
       <r>     7.6459     0.7362     9.4472 </r>
       <r>     7.7247     0.7802     9.5087 </r>
       <r>     7.8035     0.8231     9.5736 </r>
       <r>     7.8823     0.9098     9.6453 </r>
       <r>     7.9611     1.4091     9.7563 </r>
       <r>     8.0399     2.1254     9.9238 </r>
       <r>     8.1187     1.7811    10.0642 </r>
       <r>     8.1975     1.0628    10.1480 </r>
       <r>     8.2763     1.0160    10.2280 </r>
       <r>     8.3552     1.1017    10.3149 </r>
       <r>     8.4340     1.1720    10.4072 </r>
       <r>     8.5128     1.4235    10.5194 </r>
       <r>     8.5916     1.6580    10.6501 </r>
       <r>     8.6704     1.7713    10.7897 </r>
       <r>     8.7492     2.2734    10.9688 </r>
       <r>     8.8280     3.1535    11.2173 </r>
       <r>     8.9068     3.2235    11.4714 </r>
       <r>     8.9856     2.4899    11.6676 </r>
       <r>     9.0644     1.6166    11.7950 </r>
       <r>     9.1432     1.1205    11.8833 </r>
       <r>     9.2220     0.9361    11.9571 </r>
       <r>     9.3008     0.7614    12.0171 </r>
       <r>     9.3797     0.7950    12.0797 </r>
       <r>     9.4585     1.0065    12.1591 </r>
       <r>     9.5373     1.6460    12.2888 </r>
       <r>     9.6161     2.4008    12.4780 </r>
       <r>     9.6949     2.4351    12.6699 </r>
       <r>     9.7737     1.9941    12.8270 </r>
       <r>     9.8525     0.9994    12.9058 </r>
       <r>     9.9313     0.3673    12.9347 </r>
       <r>    10.0101     0.3353    12.9612 </r>
       <r>    10.0889     0.2541    12.9812 </r>
       <r>    10.1677     0.2009    12.9970 </r>
       <r>    10.2465     0.4179    13.0300 </r>
       <r>    10.3253     0.9828    13.1074 </r>
       <r>    10.4042     1.3599    13.2146 </r>
       <r>    10.4830     1.2415    13.3124 </r>
       <r>    10.5618     0.8987    13.3833 </r>
       <r>    10.6406     0.6916    13.4378 </r>
       <r>    10.7194     0.6869    13.4919 </r>
       <r>    10.7982     0.7334    13.5497 </r>
       <r>    10.8770     0.7859    13.6116 </r>
       <r>    10.9558     0.8453    13.6782 </r>
       <r>    11.0346     0.8047    13.7417 </r>
       <r>    11.1134     0.6391    13.7920 </r>
       <r>    11.1922     0.5047    13.8318 </r>
       <r>    11.2710     0.6442    13.8826 </r>
       <r>    11.3499     0.8907    13.9528 </r>
       <r>    11.4287     0.8222    14.0176 </r>
       <r>    11.5075     0.6214    14.0665 </r>
       <r>    11.5863     0.5192    14.1075 </r>
       <r>    11.6651     0.6546    14.1590 </r>
       <r>    11.7439     0.7552    14.2186 </r>
       <r>    11.8227     0.7123    14.2747 </r>
       <r>    11.9015     0.6680    14.3273 </r>
       <r>    11.9803     0.6782    14.3808 </r>
       <r>    12.0591     0.6372    14.4310 </r>
       <r>    12.1379     0.4684    14.4679 </r>
       <r>    12.2167     0.5679    14.5127 </r>
       <r>    12.2955     0.8002    14.5757 </r>
       <r>    12.3744     0.6806    14.6294 </r>
       <r>    12.4532     0.4070    14.6615 </r>
       <r>    12.5320     0.3259    14.6871 </r>
       <r>    12.6108     0.5697    14.7320 </r>
       <r>    12.6896     0.8677    14.8004 </r>
       <r>    12.7684     0.7670    14.8609 </r>
       <r>    12.8472     0.4259    14.8944 </r>
       <r>    12.9260     0.3459    14.9217 </r>
       <r>    13.0048     0.5533    14.9653 </r>
       <r>    13.0836     0.7260    15.0225 </r>
       <r>    13.1624     1.1609    15.1140 </r>
       <r>    13.2412     1.4855    15.2311 </r>
       <r>    13.3200     1.2446    15.3291 </r>
       <r>    13.3989     0.7908    15.3915 </r>
       <r>    13.4777     0.4459    15.4266 </r>
       <r>    13.5565     0.2848    15.4491 </r>
       <r>    13.6353     0.3835    15.4793 </r>
       <r>    13.7141     0.3660    15.5081 </r>
       <r>    13.7929     0.1440    15.5195 </r>
       <r>    13.8717     0.0992    15.5273 </r>
       <r>    13.9505     0.2061    15.5435 </r>
       <r>    14.0293     0.1941    15.5588 </r>
       <r>    14.1081     0.1947    15.5742 </r>
       <r>    14.1869     0.3081    15.5984 </r>
       <r>    14.2657     0.3149    15.6233 </r>
       <r>    14.3446     0.1735    15.6369 </r>
       <r>    14.4234     0.0690    15.6424 </r>
       <r>    14.5022     0.1733    15.6560 </r>
       <r>    14.5810     0.3609    15.6845 </r>
       <r>    14.6598     0.3357    15.7109 </r>
       <r>    14.7386     0.2220    15.7284 </r>
       <r>    14.8174     0.2324    15.7467 </r>
       <r>    14.8962     0.1958    15.7622 </r>
       <r>    14.9750     0.2961    15.7855 </r>
       <r>    15.0538     0.4891    15.8240 </r>
       <r>    15.1326     0.5360    15.8663 </r>
       <r>    15.2114     0.7019    15.9216 </r>
       <r>    15.2902     0.6790    15.9751 </r>
       <r>    15.3691     0.2751    15.9968 </r>
       <r>    15.4479     0.0390    15.9999 </r>
       <r>    15.5267     0.0018    16.0000 </r>
       <r>    15.6055     0.0000    16.0000 </r>
       <r>    15.6843     0.0000    16.0000 </r>
       <r>    15.7631     0.0000    16.0000 </r>
       <r>    15.8419     0.0000    16.0000 </r>
       <r>    15.9207     0.0000    16.0000 </r>
       <r>    15.9995     0.0000    16.0000 </r>
       <r>    16.0783     0.0000    16.0000 </r>
       <r>    16.1571     0.0000    16.0000 </r>
       <r>    16.2359     0.0000    16.0000 </r>
       <r>    16.3147     0.0000    16.0000 </r>
      </set>
     </set>
    </array>
   </total>
  </dos>
 </calculation>
 <structure name="finalpos" >
  <crystal>
   <varray name="basis" >
    <v>       0.00000000       2.75000000       2.75000000 </v>
    <v>       2.75000000       0.00000000       2.75000000 </v>
    <v>       2.75000000       2.75000000       0.00000000 </v>
   </varray>
   <i name="volume">     41.59375000 </i>
   <varray name="rec_basis" >
    <v>      -0.18181818       0.18181818       0.18181818 </v>
    <v>       0.18181818      -0.18181818       0.18181818 </v>
    <v>       0.18181818       0.18181818      -0.18181818 </v>
   </varray>
  </crystal>
  <varray name="positions" >
   <v>       0.00000000       0.00000000       0.00000000 </v>
   <v>       0.25000000       0.25000000       0.25000000 </v>
  </varray>
 </structure>
</modeling>
