Fe BCC                                  
   2.90000000000000     
    -0.500000    0.500000    0.500000
     0.500000   -0.500000    0.500000
     0.500000    0.500000   -0.500000
   Fe
     1
Direct
  0.000000  0.000000  0.000000
 
   32   32   32
  103.19      100.69      93.549      82.823      69.922      56.294      43.181      31.503      21.853      14.529    
  9.5427      6.6106      5.1812      4.5336      4.1091      3.8521      3.7669      3.8521      4.1091      4.5336    
  5.1812      6.6106      9.5427      14.529      21.853      31.503      43.181      56.294      69.922      82.823    
  93.549      100.69      100.69      99.858      94.291      84.813      72.725      59.467      46.345      34.371    
  24.232      16.315      10.722      7.2641      5.4739      4.6768      4.2070      3.8975      3.7577      3.7856    
  3.9820      4.3472      4.8787      5.9249      8.2047      12.337      18.701      27.388      38.200      50.653    
  63.951      76.975      88.350      96.645      93.549      94.291      90.462      82.643      71.943      59.706    
  47.227      35.565      25.472      17.401      11.531      7.7601      5.7080      4.7699      4.2655      3.9164    
  3.7296      3.7034      3.8370      4.1333      4.5858      5.3112      6.9211      10.074      15.236      22.603    
  32.089      43.327      55.658      68.117      79.467      88.350      82.823      84.813      82.643      76.649    
  67.703      56.985      45.707      34.913      25.379      17.604      11.819      7.9926      5.8291      4.8044    
  4.2775      3.9042      3.6822      3.6100      3.6845      3.9092      4.2862      4.8183      5.8526      8.0372    
  11.903      17.751      25.609      35.233      46.104      57.419      68.117      76.975      69.922      72.725    
  71.943      67.703      60.641      51.727      42.034      32.534      23.987      16.899      11.533      7.9078    
  5.8007      4.7697      4.2403      3.8587      3.6155      3.5087      3.5329      3.6899      3.9866      4.4213    
  5.0679      6.4270      9.0598      13.354      19.453      27.240      36.337      46.104      55.658      63.951    
  56.294      59.467      59.706      56.985      51.727      44.686      36.761      28.811      21.535      15.419    
  10.731      7.5203      5.6198      4.6638      4.1558      3.7807      3.5305      3.4020      3.3877      3.4868    
  3.7068      4.0555      4.5285      5.3092      6.9104      9.7751      14.152      20.053      27.240      35.233    
  43.327      50.653      43.181      46.345      47.227      45.707      42.034      36.761      30.604      24.283    
  18.407      13.418      9.5637      6.9064      5.3180      4.4982      4.0304      3.6741      3.4296      3.2922    
  3.2524      3.3066      3.4602      3.7248      4.1070      4.6096      5.4873      7.1862      10.031      14.152    
  19.453      25.609      32.089      38.200      31.503      34.371      35.565      34.913      32.534      28.811    
  24.283      19.523      15.038      11.200      8.2286      6.1792      4.9500      4.2935      3.8737      3.5460    
  3.3173      3.1818      3.1287      3.1517      3.2534      3.4446      3.7380      4.1378      4.6554      5.5531    
  7.1862      9.7751      13.354      17.751      22.603      27.388      21.853      24.232      25.472      25.379    
  23.987      21.535      18.407      15.038      11.821      9.0574      6.9214      5.4561      4.5742      4.0703    
  3.6976      3.4051      3.1994      3.0740      3.0175      3.0220      3.0871      3.2207      3.4359      3.7446    
  4.1479      4.6554      5.4873      6.9104      9.0598      11.903      15.236      18.701      14.529      16.315    
  17.401      17.604      16.899      15.419      13.418      11.200      9.0574      7.2125      5.7946      4.8280    
  4.2331      3.8395      3.5142      3.2609      3.0827      2.9724      2.9196      2.9156      2.9578      3.0507    
  3.2048      3.4330      3.7446      4.1378      4.6096      5.3092      6.4270      8.0372      10.074      12.337    
  9.5427      10.722      11.531      11.819      11.533      10.731      9.5637      8.2286      6.9214      5.7946    
  4.9321      4.3381      3.9372      3.6101      3.3350      3.1227      2.9735      2.8810      2.8359      2.8303    
  2.8603      2.9275      3.0388      3.2048      3.4359      3.7380      4.1070      4.5285      5.0679      5.8526    
  6.9211      8.2047      6.6106      7.2641      7.7601      7.9926      7.9078      7.5203      6.9064      6.1792    
  5.4561      4.8280      4.3381      3.9721      3.6653      3.3939      3.1695      2.9976      2.8772      2.8030    
  2.7676      2.7646      2.7898      2.8429      2.9275      3.0507      3.2207      3.4446      3.7248      4.0555    
  4.4213      4.8183      5.3112      5.9249      5.1812      5.4739      5.7080      5.8291      5.8007      5.6198    
  5.3180      4.9500      4.5742      4.2331      3.9372      3.6653      3.4162      3.2005      3.0246      2.8909    
  2.7977      2.7410      2.7159      2.7175      2.7426      2.7898      2.8603      2.9578      3.0871      3.2534    
  3.4602      3.7068      3.9866      4.2862      4.5858      4.8787      4.5336      4.6768      4.7699      4.8044    
  4.7697      4.6638      4.4982      4.2935      4.0703      3.8395      3.6101      3.3939      3.2005      3.0361    
  2.9041      2.8048      2.7365      2.6965      2.6817      2.6895      2.7175      2.7646      2.8303      2.9156    
  3.0220      3.1517      3.3066      3.4868      3.6899      3.9092      4.1333      4.3472      4.1091      4.2070    
  4.2655      4.2775      4.2403      4.1558      4.0304      3.8737      3.6976      3.5142      3.3350      3.1695    
  3.0246      2.9041      2.8094      2.7398      2.6938      2.6697      2.6660      2.6817      2.7159      2.7676    
  2.8359      2.9196      3.0175      3.1287      3.2524      3.3877      3.5329      3.6845      3.8370      3.9820    
  3.8521      3.8975      3.9164      3.9042      3.8587      3.7807      3.6741      3.5460      3.4051      3.2609    
  3.1227      2.9976      2.8909      2.8048      2.7398      2.6949      2.6688      2.6605      2.6697      2.6965    
  2.7410      2.8030      2.8810      2.9724      3.0740      3.1818      3.2922      3.4020      3.5087      3.6100    
  3.7034      3.7856      3.7669      3.7577      3.7296      3.6822      3.6155      3.5305      3.4296      3.3173    
  3.1994      3.0827      2.9735      2.8772      2.7977      2.7365      2.6938      2.6688      2.6606      2.6688    
  2.6938      2.7365      2.7977      2.8772      2.9735      3.0827      3.1994      3.3173      3.4296      3.5305    
  3.6155      3.6822      3.7296      3.7577      3.8521      3.7856      3.7034      3.6100      3.5087      3.4020    
  3.2922      3.1818      3.0740      2.9724      2.8810      2.8030      2.7410      2.6965      2.6697      2.6605    
  2.6688      2.6949      2.7398      2.8048      2.8909      2.9976      3.1227      3.2609      3.4051      3.5460    
  3.6741      3.7807      3.8587      3.9042      3.9164      3.8975      4.1091      3.9820      3.8370      3.6845    
  3.5329      3.3877      3.2524      3.1287      3.0175      2.9196      2.8359      2.7676      2.7159      2.6817    
  2.6660      2.6697      2.6938      2.7398      2.8094      2.9041      3.0246      3.1695      3.3350      3.5142    
  3.6976      3.8737      4.0304      4.1558      4.2403      4.2775      4.2655      4.2070      4.5336      4.3472    
  4.1333      3.9092      3.6899      3.4868      3.3066      3.1517      3.0220      2.9156      2.8303      2.7646    
  2.7175      2.6895      2.6817      2.6965      2.7365      2.8048      2.9041      3.0361      3.2005      3.3939    
  3.6101      3.8395      4.0703      4.2935      4.4982      4.6638      4.7697      4.8044      4.7699      4.6768    
  5.1812      4.8787      4.5858      4.2862      3.9866      3.7068      3.4602      3.2534      3.0871      2.9578    
  2.8603      2.7898      2.7426      2.7175      2.7159      2.7410      2.7977      2.8909      3.0246      3.2005    
  3.4162      3.6653      3.9372      4.2331      4.5742      4.9500      5.3180      5.6198      5.8007      5.8291    
  5.7080      5.4739      6.6106      5.9249      5.3112      4.8183      4.4213      4.0555      3.7248      3.4446    
  3.2207      3.0507      2.9275      2.8429      2.7898      2.7646      2.7676      2.8030      2.8772      2.9976    
  3.1695      3.3939      3.6653      3.9721      4.3381      4.8280      5.4561      6.1792      6.9064      7.5203    
  7.9078      7.9926      7.7601      7.2641      9.5427      8.2047      6.9211      5.8526      5.0679      4.5285    
  4.1070      3.7380      3.4359      3.2048      3.0388      2.9275      2.8603      2.8303      2.8359      2.8810    
  2.9735      3.1227      3.3350      3.6101      3.9372      4.3381      4.9321      5.7946      6.9214      8.2286    
  9.5637      10.731      11.533      11.819      11.531      10.722      14.529      12.337      10.074      8.0372    
  6.4270      5.3092      4.6096      4.1378      3.7446      3.4330      3.2048      3.0507      2.9578      2.9156    
  2.9196      2.9724      3.0827      3.2609      3.5142      3.8395      4.2331      4.8280      5.7946      7.2125    
  9.0574      11.200      13.418      15.419      16.899      17.604      17.401      16.315      21.853      18.701    
  15.236      11.903      9.0598      6.9104      5.4873      4.6554      4.1479      3.7446      3.4359      3.2207    
  3.0871      3.0220      3.0175      3.0740      3.1994      3.4051      3.6976      4.0703      4.5742      5.4561    
  6.9214      9.0574      11.821      15.038      18.407      21.535      23.987      25.379      25.472      24.232    
  31.503      27.388      22.603      17.751      13.354      9.7751      7.1862      5.5531      4.6554      4.1378    
  3.7380      3.4446      3.2534      3.1517      3.1287      3.1818      3.3173      3.5460      3.8737      4.2935    
  4.9500      6.1792      8.2286      11.200      15.038      19.523      24.283      28.811      32.534      34.913    
  35.565      34.371      43.181      38.200      32.089      25.609      19.453      14.152      10.031      7.1862    
  5.4873      4.6096      4.1070      3.7248      3.4602      3.3066      3.2524      3.2922      3.4296      3.6741    
  4.0304      4.4982      5.3180      6.9064      9.5637      13.418      18.407      24.283      30.604      36.761    
  42.034      45.707      47.227      46.345      56.294      50.653      43.327      35.233      27.240      20.053    
  14.152      9.7751      6.9104      5.3092      4.5285      4.0555      3.7068      3.4868      3.3877      3.4020    
  3.5305      3.7807      4.1558      4.6638      5.6198      7.5203      10.731      15.419      21.535      28.811    
  36.761      44.686      51.727      56.985      59.706      59.467      69.922      63.951      55.658      46.104    
  36.337      27.240      19.453      13.354      9.0598      6.4270      5.0679      4.4213      3.9866      3.6899    
  3.5329      3.5087      3.6155      3.8587      4.2403      4.7697      5.8007      7.9078      11.533      16.899    
  23.987      32.534      42.034      51.727      60.641      67.703      71.943      72.725      82.823      76.975    
  68.117      57.419      46.104      35.233      25.609      17.751      11.903      8.0372      5.8526      4.8183    
  4.2862      3.9092      3.6845      3.6100      3.6822      3.9042      4.2775      4.8044      5.8291      7.9926    
  11.819      17.604      25.379      34.913      45.707      56.985      67.703      76.649      82.643      84.813    
  93.549      88.350      79.467      68.117      55.658      43.327      32.089      22.603      15.236      10.074    
  6.9211      5.3112      4.5858      4.1333      3.8370      3.7034      3.7296      3.9164      4.2655      4.7699    
  5.7080      7.7601      11.531      17.401      25.472      35.565      47.227      59.706      71.943      82.643    
  90.462      94.291      100.69      96.645      88.350      76.975      63.951      50.653      38.200      27.388    
  18.701      12.337      8.2047      5.9249      4.8787      4.3472      3.9820      3.7856      3.7577      3.8975    
  4.2070      4.6768      5.4739      7.2641      10.722      16.315      24.232      34.371      46.345      59.467    
  72.725      84.813      94.291      99.858      100.69      99.858      94.291      84.813      72.725      59.467    
  46.345      34.371      24.232      16.315      10.722      7.2641      5.4739      4.6768      4.2070      3.8975    
  3.7577      3.7856      3.9820      4.3472      4.8787      5.9249      8.2047      12.337      18.701      27.388    
  38.200      50.653      63.951      76.975      88.350      96.645      99.858      100.69      96.645      88.350    
  76.975      63.951      50.653      38.200      27.388      18.701      12.337      8.2047      5.9249      4.8787    
  4.3472      3.9820      3.7856      3.7577      3.8975      4.2070      4.6768      5.4739      7.2641      10.722    
  16.315      24.232      34.371      46.345      59.467      72.725      84.813      94.291      94.291      96.645    
  94.291      87.587      77.511      65.390      52.590      40.286      29.351      20.351      13.563      8.9845    
  6.3270      5.0466      4.4461      4.0385      3.7932      3.7121      3.7932      4.0385      4.4461      5.0466    
  6.3270      8.9845      13.563      20.351      29.351      40.286      52.590      65.390      77.511      87.587    
  84.813      88.350      87.587      82.643      74.255      63.572      51.872      40.319      29.821      20.997    
  14.184      9.4515      6.5955      5.1556      4.4936      4.0598      3.7777      3.6512      3.6769      3.8558    
  4.1911      4.6750      5.5229      7.3768      10.832      16.271      23.806      33.274      44.239      55.977    
  67.477      77.511      72.725      76.975      77.511      74.255      67.703      58.783      48.623      38.311    
  28.738      20.540      14.090      9.5101      6.6653      5.1778      4.4849      4.0414      3.7369      3.5765    
  3.5550      3.6715      3.9313      4.3355      4.9092      6.0771      8.4459      12.473      18.380      26.124    
  35.398      45.628      55.977      65.390      59.467      63.951      65.390      63.572      58.783      51.727    
  43.340      34.585      26.291      19.071      13.307      9.1481      6.5134      5.0984      4.4204      3.9825    
  3.6705      3.4893      3.4321      3.4954      3.6836      4.0047      4.4550      5.1523      6.6062      9.3161    
  13.598      19.531      26.939      35.398      44.239      52.590      46.345      50.653      52.590      51.872    
  48.623      43.340      36.761      29.695      22.868      16.843      11.981      8.4377      6.1670      4.9249    
  4.3052      3.8861      3.5803      3.3915      3.3114      3.3336      3.4603      3.7014      4.0647      4.5472    
  5.3620      6.9868      9.8029      13.998      19.531      26.124      33.274      40.286      34.371      38.200    
  40.286      40.319      38.311      34.585      29.695      24.283      18.957      14.202      10.338      7.5116    
  5.6928      4.6844      4.1490      3.7590      3.4707      3.2858      3.1949      3.1892      3.2680      3.4398    
  3.7170      4.1053      4.6102      5.4844      7.1252      9.8029      13.598      18.380      23.806      29.351    
  24.232      27.388      29.351      29.821      28.738      26.291      22.868      18.957      15.038      11.506    
  8.6274      6.5251      5.1750      4.4138      3.9638      3.6105      3.3481      3.1762      3.0845      3.0631    
  3.1084      3.2259      3.4277      3.7266      4.1254      4.6331      5.4844      6.9868      9.3161      12.473    
  16.271      20.351      16.315      18.701      20.351      20.997      20.540      19.071      16.843      14.202    
  11.506      9.0574      7.0639      5.6169      4.6898      4.1440      3.7625      3.4513      3.2203      3.0674    
  2.9824      2.9549      2.9797      3.0588      3.2018      3.4219      3.7298      4.1254      4.6102      5.3620    
  6.6062      8.4459      10.832      13.563      10.722      12.337      13.563      14.184      14.090      13.307    
  11.981      10.338      8.6274      7.0639      5.7946      4.8786      4.2825      3.8862      3.5580      3.2920    
  3.0954      2.9647      2.8909      2.8642      2.8785      2.9334      3.0350      3.1939      3.4219      3.7266    
  4.1053      4.5472      5.1523      6.0771      7.3768      8.9845      7.2641      8.2047      8.9845      9.4515    
  9.5101      9.1481      8.4377      7.5116      6.5251      5.6169      4.8786      4.3381      3.9543      3.6366    
  3.3620      3.1421      2.9803      2.8729      2.8123      2.7904      2.8013      2.8431      2.9186      3.0350    
  3.2018      3.4277      3.7170      4.0647      4.4550      4.9092      5.5229      6.3270      5.4739      5.9249    
  6.3270      6.5955      6.6653      6.5134      6.1670      5.6928      5.1750      4.6898      4.2825      3.9543    
  3.6653      3.4048      3.1839      3.0088      2.8805      2.7957      2.7488      2.7336      2.7454      2.7816    
  2.8431      2.9334      3.0588      3.2259      3.4398      3.7014      4.0047      4.3355      4.6750      5.0466    
  4.6768      4.8787      5.0466      5.1556      5.1778      5.0984      4.9249      4.6844      4.4138      4.1440    
  3.8862      3.6366      3.4048      3.2005      3.0301      2.8964      2.7991      2.7356      2.7020      2.6944    
  2.7096      2.7454      2.8013      2.8785      2.9797      3.1084      3.2680      3.4603      3.6836      3.9313    
  4.1911      4.4461      4.2070      4.3472      4.4461      4.4936      4.4849      4.4204      4.3052      4.1490    
  3.9638      3.7625      3.5580      3.3620      3.1839      3.0301      2.9041      2.8068      2.7371      2.6932    
  2.6727      2.6737      2.6944      2.7336      2.7904      2.8642      2.9549      3.0631      3.1892      3.3336    
  3.4954      3.6715      3.8558      4.0385      3.8975      3.9820      4.0385      4.0598      4.0414      3.9825    
  3.8861      3.7590      3.6105      3.4513      3.2920      3.1421      3.0088      2.8964      2.8068      2.7398    
  2.6941      2.6683      2.6614      2.6727      2.7020      2.7488      2.8123      2.8909      2.9824      3.0845    
  3.1949      3.3114      3.4321      3.5550      3.6769      3.7932      3.7577      3.7856      3.7932      3.7777    
  3.7369      3.6705      3.5803      3.4707      3.3481      3.2203      3.0954      2.9803      2.8805      2.7991    
  2.7371      2.6941      2.6688      2.6603      2.6683      2.6932      2.7356      2.7957      2.8729      2.9647    
  3.0674      3.1762      3.2858      3.3915      3.4893      3.5765      3.6512      3.7121      3.7856      3.7577    
  3.7121      3.6512      3.5765      3.4893      3.3915      3.2858      3.1762      3.0674      2.9647      2.8729    
  2.7957      2.7356      2.6932      2.6683      2.6603      2.6688      2.6941      2.7371      2.7991      2.8805    
  2.9803      3.0954      3.2203      3.3481      3.4707      3.5803      3.6705      3.7369      3.7777      3.7932    
  3.9820      3.8975      3.7932      3.6769      3.5550      3.4321      3.3114      3.1949      3.0845      2.9824    
  2.8909      2.8123      2.7488      2.7020      2.6727      2.6614      2.6683      2.6941      2.7398      2.8068    
  2.8964      3.0088      3.1421      3.2920      3.4513      3.6105      3.7590      3.8861      3.9825      4.0414    
  4.0598      4.0385      4.3472      4.2070      4.0385      3.8558      3.6715      3.4954      3.3336      3.1892    
  3.0631      2.9549      2.8642      2.7904      2.7336      2.6944      2.6737      2.6727      2.6932      2.7371    
  2.8068      2.9041      3.0301      3.1839      3.3620      3.5580      3.7625      3.9638      4.1490      4.3052    
  4.4204      4.4849      4.4936      4.4461      4.8787      4.6768      4.4461      4.1911      3.9313      3.6836    
  3.4603      3.2680      3.1084      2.9797      2.8785      2.8013      2.7454      2.7096      2.6944      2.7020    
  2.7356      2.7991      2.8964      3.0301      3.2005      3.4048      3.6366      3.8862      4.1440      4.4138    
  4.6844      4.9249      5.0984      5.1778      5.1556      5.0466      5.9249      5.4739      5.0466      4.6750    
  4.3355      4.0047      3.7014      3.4398      3.2259      3.0588      2.9334      2.8431      2.7816      2.7454    
  2.7336      2.7488      2.7957      2.8805      3.0088      3.1839      3.4048      3.6653      3.9543      4.2825    
  4.6898      5.1750      5.6928      6.1670      6.5134      6.6653      6.5955      6.3270      8.2047      7.2641    
  6.3270      5.5229      4.9092      4.4550      4.0647      3.7170      3.4277      3.2018      3.0350      2.9186    
  2.8431      2.8013      2.7904      2.8123      2.8729      2.9803      3.1421      3.3620      3.6366      3.9543    
  4.3381      4.8786      5.6169      6.5251      7.5116      8.4377      9.1481      9.5101      9.4515      8.9845    
  12.337      10.722      8.9845      7.3768      6.0771      5.1523      4.5472      4.1053      3.7266      3.4219    
  3.1939      3.0350      2.9334      2.8785      2.8642      2.8909      2.9647      3.0954      3.2920      3.5580    
  3.8862      4.2825      4.8786      5.7946      7.0639      8.6274      10.338      11.981      13.307      14.090    
  14.184      13.563      18.701      16.315      13.563      10.832      8.4459      6.6062      5.3620      4.6102    
  4.1254      3.7298      3.4219      3.2018      3.0588      2.9797      2.9549      2.9824      3.0674      3.2203    
  3.4513      3.7625      4.1440      4.6898      5.6169      7.0639      9.0574      11.506      14.202      16.843    
  19.071      20.540      20.997      20.351      27.388      24.232      20.351      16.271      12.473      9.3161    
  6.9868      5.4844      4.6331      4.1254      3.7266      3.4277      3.2259      3.1084      3.0631      3.0845    
  3.1762      3.3481      3.6105      3.9638      4.4138      5.1750      6.5251      8.6274      11.506      15.038    
  18.957      22.868      26.291      28.738      29.821      29.351      38.200      34.371      29.351      23.806    
  18.380      13.598      9.8029      7.1252      5.4844      4.6102      4.1053      3.7170      3.4398      3.2680    
  3.1892      3.1949      3.2858      3.4707      3.7590      4.1490      4.6844      5.6928      7.5116      10.338    
  14.202      18.957      24.283      29.695      34.585      38.311      40.319      40.286      50.653      46.345    
  40.286      33.274      26.124      19.531      13.998      9.8029      6.9868      5.3620      4.5472      4.0647    
  3.7014      3.4603      3.3336      3.3114      3.3915      3.5803      3.8861      4.3052      4.9249      6.1670    
  8.4377      11.981      16.843      22.868      29.695      36.761      43.340      48.623      51.872      52.590    
  63.951      59.467      52.590      44.239      35.398      26.939      19.531      13.598      9.3161      6.6062    
  5.1523      4.4550      4.0047      3.6836      3.4954      3.4321      3.4893      3.6705      3.9825      4.4204    
  5.0984      6.5134      9.1481      13.307      19.071      26.291      34.585      43.340      51.727      58.783    
  63.572      65.390      76.975      72.725      65.390      55.977      45.628      35.398      26.124      18.380    
  12.473      8.4459      6.0771      4.9092      4.3355      3.9313      3.6715      3.5550      3.5765      3.7369    
  4.0414      4.4849      5.1778      6.6653      9.5101      14.090      20.540      28.738      38.311      48.623    
  58.783      67.703      74.255      77.511      88.350      84.813      77.511      67.477      55.977      44.239    
  33.274      23.806      16.271      10.832      7.3768      5.5229      4.6750      4.1911      3.8558      3.6769    
  3.6512      3.7777      4.0598      4.4936      5.1556      6.5955      9.4515      14.184      20.997      29.821    
  40.319      51.872      63.572      74.255      82.643      87.587      96.645      94.291      87.587      77.511    
  65.390      52.590      40.286      29.351      20.351      13.563      8.9845      6.3270      5.0466      4.4461    
  4.0385      3.7932      3.7121      3.7932      4.0385      4.4461      5.0466      6.3270      8.9845      13.563    
  20.351      29.351      40.286      52.590      65.390      77.511      87.587      94.291      93.549      94.291    
  90.462      82.643      71.943      59.706      47.227      35.565      25.472      17.401      11.531      7.7601    
  5.7080      4.7699      4.2655      3.9164      3.7296      3.7034      3.8370      4.1333      4.5858      5.3112    
  6.9211      10.074      15.236      22.603      32.089      43.327      55.658      68.117      79.467      88.350    
  94.291      96.645      94.291      87.587      77.511      65.390      52.590      40.286      29.351      20.351    
  13.563      8.9845      6.3270      5.0466      4.4461      4.0385      3.7932      3.7121      3.7932      4.0385    
  4.4461      5.0466      6.3270      8.9845      13.563      20.351      29.351      40.286      52.590      65.390    
  77.511      87.587      90.462      94.291      93.549      88.350      79.467      68.117      55.658      43.327    
  32.089      22.603      15.236      10.074      6.9211      5.3112      4.5858      4.1333      3.8370      3.7034    
  3.7296      3.9164      4.2655      4.7699      5.7080      7.7601      11.531      17.401      25.472      35.565    
  47.227      59.706      71.943      82.643      82.643      87.587      88.350      84.813      77.511      67.477    
  55.977      44.239      33.274      23.806      16.271      10.832      7.3768      5.5229      4.6750      4.1911    
  3.8558      3.6769      3.6512      3.7777      4.0598      4.4936      5.1556      6.5955      9.4515      14.184    
  20.997      29.821      40.319      51.872      63.572      74.255      71.943      77.511      79.467      77.511    
  71.943      63.572      53.505      42.891      32.729      23.769      16.491      11.114      7.5957      5.6332    
  4.7077      4.2049      3.8452      3.6322      3.5623      3.6322      3.8452      4.2049      4.7077      5.6332    
  7.5957      11.114      16.491      23.769      32.729      42.891      53.505      63.572      59.706      65.390    
  68.117      67.477      63.572      56.985      48.623      39.503      30.555      22.512      15.866      10.868    
  7.5262      5.6091      4.6761      4.1718      3.8029      3.5691      3.4659      3.4877      3.6359      3.9177    
  4.3337      4.9279      6.1413      8.5165      12.436      18.053      25.273      33.750      42.891      51.872    
  47.227      52.590      55.658      55.977      53.505      48.623      42.034      34.585      27.099      20.251    
  14.514      10.143      7.1794      5.4470      4.5790      4.0932      3.7297      3.4885      3.3644      3.3494    
  3.4423      3.6503      3.9824      4.4341      5.1386      6.5707      9.1624      13.165      18.605      25.273    
  32.729      40.319      35.565      40.286      43.327      44.239      42.891      39.503      34.585      28.811    
  22.868      17.345      12.667      9.0762      6.6238      5.1748      4.4263      3.9751      3.6291      3.3927    
  3.2599      3.2205      3.2705      3.4152      3.6661      4.0308      4.5065      5.2940      6.8164      9.3943    
  13.165      18.053      23.769      29.821      25.472      29.351      32.089      33.274      32.729      30.555    
  27.099      22.868      18.407      14.202      10.614      7.8508      5.9629      4.8412      4.2357      3.8266    
  3.5076      3.2860      3.1547      3.1025      3.1229      3.2182      3.3988      3.6776      4.0597      4.5465    
  5.3514      6.8164      9.1624      12.436      16.491      20.997      17.401      20.351      22.603      23.806    
  23.769      22.512      20.251      17.345      14.202      11.200      8.6274      6.6501      5.3047      4.4985    
  4.0243      3.6587      3.3736      3.1739      3.0519      2.9964      2.9992      3.0598      3.1856      3.3895    
  3.6834      4.0693      4.5465      5.2940      6.5707      8.5165      11.114      14.184      11.531      13.563    
  15.236      16.271      16.491      15.866      14.514      12.667      10.614      8.6274      6.9214      5.6169    
  4.7321      4.1834      3.8019      3.4832      3.2362      3.0627      2.9551      2.9029      2.8977      2.9366    
  3.0240      3.1697      3.3864      3.6834      4.0597      4.5065      5.1386      6.1413      7.5957      9.4515    
  7.7601      8.9845      10.074      10.832      11.114      10.868      10.143      9.0762      7.8508      6.6501    
  5.6169      4.8280      4.2825      3.9017      3.5803      3.3113      3.1042      2.9586      2.8680      2.8232    
  2.8164      2.8439      2.9070      3.0123      3.1697      3.3895      3.6776      4.0308      4.4341      4.9279    
  5.6332      6.5955      5.7080      6.3270      6.9211      7.3768      7.5957      7.5262      7.1794      6.6238    
  5.9629      5.3047      4.7321      4.2825      3.9372      3.6366      3.3712      3.1522      2.9846      2.8669    