Fe BCC                                  
   2.90000000000000     
    -0.500000    0.500000    0.500000
     0.500000   -0.500000    0.500000
     0.500000    0.500000   -0.500000
   Fe
     1
Direct
  0.000000  0.000000  0.000000
 
   32   32   32
 0.10319334163E+03 0.10068594466E+03 0.93548781085E+02 0.82823453286E+02 0.69921619605E+02
 0.56293999716E+02 0.43181310241E+02 0.31502936660E+02 0.21852920678E+02 0.14529198487E+02
 0.95426985757E+01 0.66105693673E+01 0.51811622943E+01 0.45336187337E+01 0.41090846791E+01
 0.38520927165E+01 0.37669358581E+01 0.38520927165E+01 0.41090846791E+01 0.45336187337E+01
 0.51811622943E+01 0.66105693673E+01 0.95426985757E+01 0.14529198487E+02 0.21852920678E+02
 0.31502936660E+02 0.43181310241E+02 0.56293999716E+02 0.69921619605E+02 0.82823453286E+02
 0.93548781085E+02 0.10068594466E+03 0.10068594466E+03 0.99858387541E+02 0.94290539162E+02
 0.84813164309E+02 0.72724743301E+02 0.59467145380E+02 0.46345030063E+02 0.34370966016E+02
 0.24232348687E+02 0.16315399017E+02 0.10721927749E+02 0.72640509391E+01 0.54738943937E+01
 0.46767878301E+01 0.42069610551E+01 0.38975202399E+01 0.37576547870E+01 0.37855894678E+01
 0.39820199094E+01 0.43471980780E+01 0.48786865075E+01 0.59249384311E+01 0.82046745530E+01
 0.12337164706E+02 0.18701427300E+02 0.27387954789E+02 0.38199791737E+02 0.50652559785E+02
 0.63950812205E+02 0.76974883770E+02 0.88349641558E+02 0.96645380613E+02 0.93548781085E+02
 0.94290539162E+02 0.90461796851E+02 0.82643294824E+02 0.71942753845E+02 0.59705618322E+02
 0.47227436089E+02 0.35565400316E+02 0.25471561641E+02 0.17401205687E+02 0.11531423808E+02
 0.77601352873E+01 0.57080150502E+01 0.47699456597E+01 0.42654989326E+01 0.39163688210E+01
 0.37295783044E+01 0.37033901548E+01 0.38370136955E+01 0.41333214242E+01 0.45857595051E+01
 0.53112468130E+01 0.69211352891E+01 0.10073845166E+02 0.15235524385E+02 0.22603005533E+02
 0.32089137901E+02 0.43327020128E+02 0.55658256428E+02 0.68116947985E+02 0.79466780864E+02
 0.88349641558E+02 0.82823453286E+02 0.84813164309E+02 0.82643294824E+02 0.76648595709E+02
 0.67702941779E+02 0.56984644093E+02 0.45706780945E+02 0.34912641011E+02 0.25379228853E+02
 0.17604144368E+02 0.11819142645E+02 0.79926219905E+01 0.58290510418E+01 0.48044261159E+01
 0.42775489868E+01 0.39041735125E+01 0.36822400669E+01 0.36099640363E+01 0.36845172925E+01
 0.39091723068E+01 0.42861954361E+01 0.48182714978E+01 0.58526390653E+01 0.80371927024E+01
 0.11903434500E+02 0.17751246700E+02 0.25609248615E+02 0.35232987298E+02 0.46103609994E+02
 0.57419448680E+02 0.68116947985E+02 0.76974883770E+02 0.69921619605E+02 0.72724743301E+02
 0.71942753845E+02 0.67702941779E+02 0.60640817977E+02 0.51726905837E+02 0.42033741686E+02
 0.32534396102E+02 0.23986713823E+02 0.16898786557E+02 0.11532683896E+02 0.79078285856E+01
 0.58006835094E+01 0.47696600605E+01 0.42403101746E+01 0.38586804607E+01 0.36155397036E+01
 0.35086516862E+01 0.35328501315E+01 0.36899216190E+01 0.39866404965E+01 0.44213041310E+01
 0.50678687334E+01 0.64269942512E+01 0.90598312138E+01 0.13353593702E+02 0.19452878024E+02
 0.27240352023E+02 0.36337026881E+02 0.46103609994E+02 0.55658256428E+02 0.63950812205E+02
 0.56293999716E+02 0.59467145380E+02 0.59705618322E+02 0.56984644093E+02 0.51726905837E+02
 0.44686417322E+02 0.36761361457E+02 0.28811284725E+02 0.21534885497E+02 0.15418988575E+02
 0.10730932690E+02 0.75203107083E+01 0.56198099003E+01 0.46638484651E+01 0.41557863916E+01
 0.37806606010E+01 0.35304548701E+01 0.34019636561E+01 0.33877013597E+01 0.34868231299E+01
 0.37067906793E+01 0.40555323960E+01 0.45284566057E+01 0.53092118358E+01 0.69103612931E+01
 0.97750598325E+01 0.14152402146E+02 0.20053273399E+02 0.27240352023E+02 0.35232987298E+02
 0.43327020128E+02 0.50652559785E+02 0.43181310241E+02 0.46345030063E+02 0.47227436089E+02
 0.45706780945E+02 0.42033741686E+02 0.36761361457E+02 0.30604030652E+02 0.24282669228E+02
 0.18407474667E+02 0.13417627193E+02 0.95637160466E+01 0.69063543390E+01 0.53180031488E+01
 0.44982331126E+01 0.40303599448E+01 0.36741365527E+01 0.34295810384E+01 0.32921547282E+01
 0.32524055370E+01 0.33065543952E+01 0.34601930740E+01 0.37247642230E+01 0.41070002059E+01
 0.46095936697E+01 0.54873410511E+01 0.71861679304E+01 0.10031446424E+02 0.14152402146E+02
 0.19452878024E+02 0.25609248615E+02 0.32089137901E+02 0.38199791737E+02 0.31502936660E+02
 0.34370966016E+02 0.35565400316E+02 0.34912641011E+02 0.32534396102E+02 0.28811284725E+02
 0.24282669228E+02 0.19523040932E+02 0.15037698497E+02 0.11200355761E+02 0.82286408631E+01
 0.61792150425E+01 0.49499620982E+01 0.42935007394E+01 0.38737417552E+01 0.35459888092E+01
 0.33172916664E+01 0.31817759825E+01 0.31286828643E+01 0.31517069331E+01 0.32534316276E+01
 0.34445812054E+01 0.37379944074E+01 0.41377537065E+01 0.46553936157E+01 0.55530987369E+01
 0.71861679304E+01 0.97750598325E+01 0.13353593702E+02 0.17751246700E+02 0.22603005533E+02
 0.27387954789E+02 0.21852920678E+02 0.24232348687E+02 0.25471561641E+02 0.25379228853E+02
 0.23986713823E+02 0.21534885497E+02 0.18407474667E+02 0.15037698497E+02 0.11821227872E+02
 0.90574242096E+01 0.69214145152E+01 0.54561452162E+01 0.45742272406E+01 0.40703330400E+01
 0.36976178763E+01 0.34050574312E+01 0.31994422202E+01 0.30739725871E+01 0.30174704062E+01
 0.30219830461E+01 0.30870954218E+01 0.32206628835E+01 0.34358818897E+01 0.37446176528E+01
 0.41478511003E+01 0.46553936157E+01 0.54873410511E+01 0.69103612931E+01 0.90598312138E+01
 0.11903434500E+02 0.15235524385E+02 0.18701427300E+02 0.14529198487E+02 0.16315399017E+02
 0.17401205687E+02 0.17604144368E+02 0.16898786557E+02 0.15418988575E+02 0.13417627193E+02
 0.11200355761E+02 0.90574242096E+01 0.72125122079E+01 0.57946204873E+01 0.48279980617E+01
 0.42331046805E+01 0.38394504704E+01 0.35142292808E+01 0.32609331034E+01 0.30826725529E+01
 0.29724230187E+01 0.29195582434E+01 0.29155738315E+01 0.29577844305E+01 0.30506676741E+01
 0.32047625106E+01 0.34330012031E+01 0.37446176528E+01 0.41377537065E+01 0.46095936697E+01
 0.53092118358E+01 0.64269942512E+01 0.80371927024E+01 0.10073845166E+02 0.12337164706E+02
 0.95426985757E+01 0.10721927749E+02 0.11531423808E+02 0.11819142645E+02 0.11532683896E+02
 0.10730932690E+02 0.95637160466E+01 0.82286408631E+01 0.69214145152E+01 0.57946204873E+01
 0.49321220024E+01 0.43381409635E+01 0.39371917744E+01 0.36100591058E+01 0.33350289397E+01
 0.31226658636E+01 0.29734718718E+01 0.28809540991E+01 0.28359010909E+01 0.28303326038E+01
 0.28603428923E+01 0.29275259578E+01 0.30388328765E+01 0.32047625106E+01 0.34358818897E+01
 0.37379944074E+01 0.41070002059E+01 0.45284566057E+01 0.50678687334E+01 0.58526390653E+01
 0.69211352891E+01 0.82046745530E+01 0.66105693673E+01 0.72640509391E+01 0.77601352873E+01
 0.79926219905E+01 0.79078285856E+01 0.75203107083E+01 0.69063543390E+01 0.61792150425E+01
 0.54561452162E+01 0.48279980617E+01 0.43381409635E+01 0.39721346268E+01 0.36653285199E+01
 0.33939189135E+01 0.31695443521E+01 0.29976399653E+01 0.28772488854E+01 0.28029862979E+01
 0.27676305725E+01 0.27645785201E+01 0.27897688044E+01 0.28428642035E+01 0.29275259578E+01
 0.30506676741E+01 0.32206628835E+01 0.34445812054E+01 0.37247642230E+01 0.40555323960E+01
 0.44213041310E+01 0.48182714978E+01 0.53112468130E+01 0.59249384311E+01 0.51811622943E+01
 0.54738943937E+01 0.57080150502E+01 0.58290510418E+01 0.58006835094E+01 0.56198099003E+01
 0.53180031488E+01 0.49499620982E+01 0.45742272406E+01 0.42331046805E+01 0.39371917744E+01
 0.36653285199E+01 0.34162481358E+01 0.32004785040E+01 0.30246093833E+01 0.28908550000E+01
 0.27976713180E+01 0.27410346199E+01 0.27159019110E+01 0.27175357108E+01 0.27425718290E+01
 0.27897688044E+01 0.28603428923E+01 0.29577844305E+01 0.30870954218E+01 0.32534316276E+01
 0.34601930740E+01 0.37067906793E+01 0.39866404965E+01 0.42861954361E+01 0.45857595051E+01
 0.48786865075E+01 0.45336187337E+01 0.46767878301E+01 0.47699456597E+01 0.48044261159E+01
 0.47696600605E+01 0.46638484651E+01 0.44982331126E+01 0.42935007394E+01 0.40703330400E+01
 0.38394504704E+01 0.36100591058E+01 0.33939189135E+01 0.32004785040E+01 0.30361472906E+01
 0.29041209300E+01 0.28047758718E+01 0.27364726088E+01 0.26964762107E+01 0.26817448568E+01
 0.26894887048E+01 0.27175357108E+01 0.27645785201E+01 0.28303326038E+01 0.29155738315E+01
 0.30219830461E+01 0.31517069331E+01 0.33065543952E+01 0.34868231299E+01 0.36899216190E+01
 0.39091723068E+01 0.41333214242E+01 0.43471980780E+01 0.41090846791E+01 0.42069610551E+01
 0.42654989326E+01 0.42775489868E+01 0.42403101746E+01 0.41557863916E+01 0.40303599448E+01
 0.38737417552E+01 0.36976178763E+01 0.35142292808E+01 0.33350289397E+01 0.31695443521E+01
 0.30246093833E+01 0.29041209300E+01 0.28093624562E+01 0.27397567666E+01 0.26937716681E+01
 0.26696878433E+01 0.26660456333E+01 0.26817448568E+01 0.27159019110E+01 0.27676305725E+01
 0.28359010909E+01 0.29195582434E+01 0.30174704062E+01 0.31286828643E+01 0.32524055370E+01
 0.33877013597E+01 0.35328501315E+01 0.36845172925E+01 0.38370136955E+01 0.39820199094E+01
 0.38520927165E+01 0.38975202399E+01 0.39163688210E+01 0.39041735125E+01 0.38586804607E+01
 0.37806606010E+01 0.36741365527E+01 0.35459888092E+01 0.34050574312E+01 0.32609331034E+01
 0.31226658636E+01 0.29976399653E+01 0.28908550000E+01 0.28047758718E+01 0.27397567666E+01
 0.26948601888E+01 0.26687703276E+01 0.26604986964E+01 0.26696878433E+01 0.26964762107E+01
 0.27410346199E+01 0.28029862979E+01 0.28809540991E+01 0.29724230187E+01 0.30739725871E+01
 0.31817759825E+01 0.32921547282E+01 0.34019636561E+01 0.35086516862E+01 0.36099640363E+01
 0.37033901548E+01 0.37855894678E+01 0.37669358581E+01 0.37576547870E+01 0.37295783044E+01
 0.36822400669E+01 0.36155397036E+01 0.35304548701E+01 0.34295810384E+01 0.33172916664E+01
 0.31994422202E+01 0.30826725529E+01 0.29734718718E+01 0.28772488854E+01 0.27976713180E+01
 0.27364726088E+01 0.26937716681E+01 0.26687703276E+01 0.26605634235E+01 0.26687703276E+01
 0.26937716681E+01 0.27364726088E+01 0.27976713180E+01 0.28772488854E+01 0.29734718718E+01
 0.30826725529E+01 0.31994422202E+01 0.33172916664E+01 0.34295810384E+01 0.35304548701E+01
 0.36155397036E+01 0.36822400669E+01 0.37295783044E+01 0.37576547870E+01 0.38520927165E+01
 0.37855894678E+01 0.37033901548E+01 0.36099640363E+01 0.35086516862E+01 0.34019636561E+01
 0.32921547282E+01 0.31817759825E+01 0.30739725871E+01 0.29724230187E+01 0.28809540991E+01
 0.28029862979E+01 0.27410346199E+01 0.26964762107E+01 0.26696878433E+01 0.26604986964E+01
 0.26687703276E+01 0.26948601888E+01 0.27397567666E+01 0.28047758718E+01 0.28908550000E+01
 0.29976399653E+01 0.31226658636E+01 0.32609331034E+01 0.34050574312E+01 0.35459888092E+01
 0.36741365527E+01 0.37806606010E+01 0.38586804607E+01 0.39041735125E+01 0.39163688210E+01
 0.38975202399E+01 0.41090846791E+01 0.39820199094E+01 0.38370136955E+01 0.36845172925E+01
 0.35328501315E+01 0.33877013597E+01 0.32524055370E+01 0.31286828643E+01 0.30174704062E+01
 0.29195582434E+01 0.28359010909E+01 0.27676305725E+01 0.27159019110E+01 0.26817448568E+01
 0.26660456333E+01 0.26696878433E+01 0.26937716681E+01 0.27397567666E+01 0.28093624562E+01
 0.29041209300E+01 0.30246093833E+01 0.31695443521E+01 0.33350289397E+01 0.35142292808E+01
 0.36976178763E+01 0.38737417552E+01 0.40303599448E+01 0.41557863916E+01 0.42403101746E+01
 0.42775489868E+01 0.42654989326E+01 0.42069610551E+01 0.45336187337E+01 0.43471980780E+01
 0.41333214242E+01 0.39091723068E+01 0.36899216190E+01 0.34868231299E+01 0.33065543952E+01
 0.31517069331E+01 0.30219830461E+01 0.29155738315E+01 0.28303326038E+01 0.27645785201E+01
 0.27175357108E+01 0.26894887048E+01 0.26817448568E+01 0.26964762107E+01 0.27364726088E+01
 0.28047758718E+01 0.29041209300E+01 0.30361472906E+01 0.32004785040E+01 0.33939189135E+01
 0.36100591058E+01 0.38394504704E+01 0.40703330400E+01 0.42935007394E+01 0.44982331126E+01
 0.46638484651E+01 0.47696600605E+01 0.48044261159E+01 0.47699456597E+01 0.46767878301E+01
 0.51811622943E+01 0.48786865075E+01 0.45857595051E+01 0.42861954361E+01 0.39866404965E+01
 0.37067906793E+01 0.34601930740E+01 0.32534316276E+01 0.30870954218E+01 0.29577844305E+01
 0.28603428923E+01 0.27897688044E+01 0.27425718290E+01 0.27175357108E+01 0.27159019110E+01
 0.27410346199E+01 0.27976713180E+01 0.28908550000E+01 0.30246093833E+01 0.32004785040E+01
 0.34162481358E+01 0.36653285199E+01 0.39371917744E+01 0.42331046805E+01 0.45742272406E+01
 0.49499620982E+01 0.53180031488E+01 0.56198099003E+01 0.58006835094E+01 0.58290510418E+01
 0.57080150502E+01 0.54738943937E+01 0.66105693673E+01 0.59249384311E+01 0.53112468130E+01
 0.48182714978E+01 0.44213041310E+01 0.40555323960E+01 0.37247642230E+01 0.34445812054E+01
 0.32206628835E+01 0.30506676741E+01 0.29275259578E+01 0.28428642035E+01 0.27897688044E+01
 0.27645785201E+01 0.27676305725E+01 0.28029862979E+01 0.28772488854E+01 0.29976399653E+01
 0.31695443521E+01 0.33939189135E+01 0.36653285199E+01 0.39721346268E+01 0.43381409635E+01
 0.48279980617E+01 0.54561452162E+01 0.61792150425E+01 0.69063543390E+01 0.75203107083E+01
 0.79078285856E+01 0.79926219905E+01 0.77601352873E+01 0.72640509391E+01 0.95426985757E+01
 0.82046745530E+01 0.69211352891E+01 0.58526390653E+01 0.50678687334E+01 0.45284566057E+01
 0.41070002059E+01 0.37379944074E+01 0.34358818897E+01 0.32047625106E+01 0.30388328765E+01
 0.29275259578E+01 0.28603428923E+01 0.28303326038E+01 0.28359010909E+01 0.28809540991E+01
 0.29734718718E+01 0.31226658636E+01 0.33350289397E+01 0.36100591058E+01 0.39371917744E+01
 0.43381409635E+01 0.49321220024E+01 0.57946204873E+01 0.69214145152E+01 0.82286408631E+01
 0.95637160466E+01 0.10730932690E+02 0.11532683896E+02 0.11819142645E+02 0.11531423808E+02
 0.10721927749E+02 0.14529198487E+02 0.12337164706E+02 0.10073845166E+02 0.80371927024E+01
 0.64269942512E+01 0.53092118358E+01 0.46095936697E+01 0.41377537065E+01 0.37446176528E+01
 0.34330012031E+01 0.32047625106E+01 0.30506676741E+01 0.29577844305E+01 0.29155738315E+01
 0.29195582434E+01 0.29724230187E+01 0.30826725529E+01 0.32609331034E+01 0.35142292808E+01
 0.38394504704E+01 0.42331046805E+01 0.48279980617E+01 0.57946204873E+01 0.72125122079E+01
 0.90574242096E+01 0.11200355761E+02 0.13417627193E+02 0.15418988575E+02 0.16898786557E+02
 0.17604144368E+02 0.17401205687E+02 0.16315399017E+02 0.21852920678E+02 0.18701427300E+02
 0.15235524385E+02 0.11903434500E+02 0.90598312138E+01 0.69103612931E+01 0.54873410511E+01
 0.46553936157E+01 0.41478511003E+01 0.37446176528E+01 0.34358818897E+01 0.32206628835E+01
 0.30870954218E+01 0.30219830461E+01 0.30174704062E+01 0.30739725871E+01 0.31994422202E+01
 0.34050574312E+01 0.36976178763E+01 0.40703330400E+01 0.45742272406E+01 0.54561452162E+01
 0.69214145152E+01 0.90574242096E+01 0.11821227872E+02 0.15037698497E+02 0.18407474667E+02
 0.21534885497E+02 0.23986713823E+02 0.25379228853E+02 0.25471561641E+02 0.24232348687E+02
 0.31502936660E+02 0.27387954789E+02 0.22603005533E+02 0.17751246700E+02 0.13353593702E+02
 0.97750598325E+01 0.71861679304E+01 0.55530987369E+01 0.46553936157E+01 0.41377537065E+01
 0.37379944074E+01 0.34445812054E+01 0.32534316276E+01 0.31517069331E+01 0.31286828643E+01
 0.31817759825E+01 0.33172916664E+01 0.35459888092E+01 0.38737417552E+01 0.42935007394E+01
 0.49499620982E+01 0.61792150425E+01 0.82286408631E+01 0.11200355761E+02 0.15037698497E+02
 0.19523040932E+02 0.24282669228E+02 0.28811284725E+02 0.32534396102E+02 0.34912641011E+02
 0.35565400316E+02 0.34370966016E+02 0.43181310241E+02 0.38199791737E+02 0.32089137901E+02
 0.25609248615E+02 0.19452878024E+02 0.14152402146E+02 0.10031446424E+02 0.71861679304E+01
 0.54873410511E+01 0.46095936697E+01 0.41070002059E+01 0.37247642230E+01 0.34601930740E+01
 0.33065543952E+01 0.32524055370E+01 0.32921547282E+01 0.34295810384E+01 0.36741365527E+01
 0.40303599448E+01 0.44982331126E+01 0.53180031488E+01 0.69063543390E+01 0.95637160466E+01
 0.13417627193E+02 0.18407474667E+02 0.24282669228E+02 0.30604030652E+02 0.36761361457E+02
 0.42033741686E+02 0.45706780945E+02 0.47227436089E+02 0.46345030063E+02 0.56293999716E+02
 0.50652559785E+02 0.43327020128E+02 0.35232987298E+02 0.27240352023E+02 0.20053273399E+02
 0.14152402146E+02 0.97750598325E+01 0.69103612931E+01 0.53092118358E+01 0.45284566057E+01
 0.40555323960E+01 0.37067906793E+01 0.34868231299E+01 0.33877013597E+01 0.34019636561E+01
 0.35304548701E+01 0.37806606010E+01 0.41557863916E+01 0.46638484651E+01 0.56198099003E+01
 0.75203107083E+01 0.10730932690E+02 0.15418988575E+02 0.21534885497E+02 0.28811284725E+02
 0.36761361457E+02 0.44686417322E+02 0.51726905837E+02 0.56984644093E+02 0.59705618322E+02
 0.59467145380E+02 0.69921619605E+02 0.63950812205E+02 0.55658256428E+02 0.46103609994E+02
 0.36337026881E+02 0.27240352023E+02 0.19452878024E+02 0.13353593702E+02 0.90598312138E+01
 0.64269942512E+01 0.50678687334E+01 0.44213041310E+01 0.39866404965E+01 0.36899216190E+01
 0.35328501315E+01 0.35086516862E+01 0.36155397036E+01 0.38586804607E+01 0.42403101746E+01
 0.47696600605E+01 0.58006835094E+01 0.79078285856E+01 0.11532683896E+02 0.16898786557E+02
 0.23986713823E+02 0.32534396102E+02 0.42033741686E+02 0.51726905837E+02 0.60640817977E+02
 0.67702941779E+02 0.71942753845E+02 0.72724743301E+02 0.82823453286E+02 0.76974883770E+02
 0.68116947985E+02 0.57419448680E+02 0.46103609994E+02 0.35232987298E+02 0.25609248615E+02
 0.17751246700E+02 0.11903434500E+02 0.80371927024E+01 0.58526390653E+01 0.48182714978E+01
 0.42861954361E+01 0.39091723068E+01 0.36845172925E+01 0.36099640363E+01 0.36822400669E+01
 0.39041735125E+01 0.42775489868E+01 0.48044261159E+01 0.58290510418E+01 0.79926219905E+01
 0.11819142645E+02 0.17604144368E+02 0.25379228853E+02 0.34912641011E+02 0.45706780945E+02
 0.56984644093E+02 0.67702941779E+02 0.76648595709E+02 0.82643294824E+02 0.84813164309E+02
 0.93548781085E+02 0.88349641558E+02 0.79466780864E+02 0.68116947985E+02 0.55658256428E+02
 0.43327020128E+02 0.32089137901E+02 0.22603005533E+02 0.15235524385E+02 0.10073845166E+02
 0.69211352891E+01 0.53112468130E+01 0.45857595051E+01 0.41333214242E+01 0.38370136955E+01
 0.37033901548E+01 0.37295783044E+01 0.39163688210E+01 0.42654989326E+01 0.47699456597E+01
 0.57080150502E+01 0.77601352873E+01 0.11531423808E+02 0.17401205687E+02 0.25471561641E+02
 0.35565400316E+02 0.47227436089E+02 0.59705618322E+02 0.71942753845E+02 0.82643294824E+02
 0.90461796851E+02 0.94290539162E+02 0.10068594466E+03 0.96645380613E+02 0.88349641558E+02
 0.76974883770E+02 0.63950812205E+02 0.50652559785E+02 0.38199791737E+02 0.27387954789E+02
 0.18701427300E+02 0.12337164706E+02 0.82046745530E+01 0.59249384311E+01 0.48786865075E+01
 0.43471980780E+01 0.39820199094E+01 0.37855894678E+01 0.37576547870E+01 0.38975202399E+01
 0.42069610551E+01 0.46767878301E+01 0.54738943937E+01 0.72640509391E+01 0.10721927749E+02
 0.16315399017E+02 0.24232348687E+02 0.34370966016E+02 0.46345030063E+02 0.59467145380E+02
 0.72724743301E+02 0.84813164309E+02 0.94290539162E+02 0.99858387541E+02 0.10068594446E+03
 0.99858387541E+02 0.94290539356E+02 0.84813164636E+02 0.72724743662E+02 0.59467145678E+02
 0.46345030228E+02 0.34370966026E+02 0.24232348568E+02 0.16315398827E+02 0.10721927554E+02
 0.72640507904E+01 0.54738943162E+01 0.46767878198E+01 0.42069610870E+01 0.38975202798E+01
 0.37576548046E+01 0.37855894466E+01 0.39820198524E+01 0.43471980078E+01 0.48786864608E+01
 0.59249384464E+01 0.82046746563E+01 0.12337164896E+02 0.18701427542E+02 0.27387955020E+02
 0.38199791880E+02 0.50652559777E+02 0.63950812025E+02 0.76974883447E+02 0.88349641173E+02
 0.96645380272E+02 0.99858387541E+02 0.10068594447E+03 0.96645380309E+02 0.88349641237E+02
 0.76974883541E+02 0.63950812142E+02 0.50652559900E+02 0.38199791985E+02 0.27387955088E+02
 0.18701427566E+02 0.12337164884E+02 0.82046746282E+01 0.59249384233E+01 0.48786864549E+01
 0.43471980182E+01 0.39820198676E+01 0.37855894535E+01 0.37576547971E+01 0.38975202631E+01
 0.42069610742E+01 0.46767878236E+01 0.54738943397E+01 0.72640508234E+01 0.10721927577E+02
 0.16315398820E+02 0.24232348521E+02 0.34370965943E+02 0.46345030127E+02 0.59467145582E+02
 0.72724743588E+02 0.84813164590E+02 0.94290539336E+02 0.94290539356E+02 0.96645380309E+02
 0.94290539193E+02 0.87586826731E+02 0.77511131865E+02 0.65389779029E+02 0.52589898056E+02
 0.40285705081E+02 0.29351140976E+02 0.20350977630E+02 0.13563090761E+02 0.89845101038E+01
 0.63270015379E+01 0.50465608182E+01 0.44460636343E+01 0.40384801255E+01 0.37932005637E+01
 0.37121436410E+01 0.37932005840E+01 0.40384801624E+01 0.44460636755E+01 0.50465608388E+01
 0.63270015038E+01 0.89845099852E+01 0.13563090552E+02 0.20350977364E+02 0.29351140719E+02
 0.40285704914E+02 0.52589898040E+02 0.65389779173E+02 0.77511132116E+02 0.87586826991E+02
 0.84813164636E+02 0.88349641237E+02 0.87586826731E+02 0.82643295056E+02 0.74255394222E+02
 0.63572006457E+02 0.51872101954E+02 0.40319055065E+02 0.29821456658E+02 0.20996799141E+02
 0.14183826602E+02 0.94515108561E+01 0.65955158201E+01 0.51555711873E+01 0.44936345969E+01
 0.40597849333E+01 0.37776581446E+01 0.36512229059E+01 0.36768941136E+01 0.38557747429E+01
 0.41911469796E+01 0.46750000842E+01 0.55228506158E+01 0.73768421574E+01 0.10831966878E+02
 0.16270530141E+02 0.23805563776E+02 0.33274255826E+02 0.44239408337E+02 0.55977289751E+02
 0.67477280213E+02 0.77511132139E+02 0.72724743662E+02 0.76974883541E+02 0.77511131865E+02
 0.74255394222E+02 0.67702941995E+02 0.58783290032E+02 0.48623106464E+02 0.38310530210E+02
 0.28737891244E+02 0.20539821897E+02 0.14090318683E+02 0.95101214309E+01 0.66652555110E+01
 0.51777574326E+01 0.44849267017E+01 0.40414149095E+01 0.37368913505E+01 0.35764704606E+01
 0.35550048029E+01 0.36714950925E+01 0.39312811334E+01 0.43354625211E+01 0.49091883276E+01
 0.60771280873E+01 0.84458566211E+01 0.12472992554E+02 0.18379930624E+02 0.26123991843E+02
 0.35397904019E+02 0.45628181842E+02 0.55977289770E+02 0.65389779220E+02 0.59467145678E+02
 0.63950812142E+02 0.65389779029E+02 0.63572006457E+02 0.58783290032E+02 0.51726905837E+02
 0.43340047354E+02 0.34585274592E+02 0.26290948378E+02 0.19071221501E+02 0.13306993121E+02
 0.91481245028E+01 0.65134315996E+01 0.50984449576E+01 0.44203971848E+01 0.39824952824E+01
 0.36704831175E+01 0.34892863428E+01 0.34321424020E+01 0.34953523245E+01 0.36836058898E+01
 0.40047461407E+01 0.44550301132E+01 0.51523054303E+01 0.66061534113E+01 0.93161464674E+01
 0.13598428946E+02 0.19530912534E+02 0.26939172202E+02 0.35397904026E+02 0.44239408365E+02
 0.52589898102E+02 0.46345030228E+02 0.50652559900E+02 0.52589898056E+02 0.51872101954E+02
 0.48623106464E+02 0.43340047354E+02 0.36761361261E+02 0.29694682774E+02 0.22868409827E+02
 0.16843399344E+02 0.11980813909E+02 0.84376543958E+01 0.61670091472E+01 0.49248893991E+01
 0.43051612381E+01 0.38861312849E+01 0.35803078757E+01 0.33914918826E+01 0.33113821974E+01
 0.33335569498E+01 0.34603270587E+01 0.37014447541E+01 0.40647201487E+01 0.45472265415E+01
 0.53620122416E+01 0.69867969145E+01 0.98028788195E+01 0.13998080782E+02 0.19530912529E+02
 0.26123991845E+02 0.33274255851E+02 0.40285704976E+02 0.34370966026E+02 0.38199791985E+02
 0.40285705081E+02 0.40319055065E+02 0.38310530210E+02 0.34585274592E+02 0.29694682774E+02
 0.24282669037E+02 0.18957040965E+02 0.14202086003E+02 0.10338279042E+02 0.75115503115E+01
 0.56927603133E+01 0.46844448528E+01 0.41489898935E+01 0.37590172338E+01 0.34707045854E+01
 0.32858377300E+01 0.31948831055E+01 0.31891811394E+01 0.32680325583E+01 0.34398075496E+01
 0.37169802552E+01 0.41053481074E+01 0.46102154346E+01 0.54844006015E+01 0.71251794031E+01
 0.98028788124E+01 0.13598428933E+02 0.18379930616E+02 0.23805563788E+02 0.29351140765E+02
 0.24232348568E+02 0.27387955088E+02 0.29351140976E+02 0.29821456658E+02 0.28737891244E+02
 0.26290948378E+02 0.22868409827E+02 0.18957040965E+02 0.15037698477E+02 0.11505655406E+02
 0.86273777418E+01 0.65251252452E+01 0.51750383296E+01 0.44138250755E+01 0.39637640806E+01
 0.36104891330E+01 0.33481267635E+01 0.31762066901E+01 0.30845395281E+01 0.30630809915E+01
 0.31083879805E+01 0.32258676886E+01 0.34277466023E+01 0.37266466253E+01 0.41253896670E+01
 0.46330794618E+01 0.54844005996E+01 0.69867969052E+01 0.93161464500E+01 0.12472992536E+02
 0.16270530134E+02 0.20350977382E+02 0.16315398827E+02 0.18701427566E+02 0.20350977630E+02
 0.20996799141E+02 0.20539821897E+02 0.19071221501E+02 0.16843399344E+02 0.14202086003E+02
 0.11505655406E+02 0.90574243346E+01 0.70639235036E+01 0.56168889535E+01 0.46897821105E+01
 0.41440351741E+01 0.37624629115E+01 0.34512523419E+01 0.32203437399E+01 0.30674199796E+01
 0.29824160145E+01 0.29549489450E+01 0.29796668940E+01 0.30587947942E+01 0.32017738351E+01
 0.34218779279E+01 0.37298252742E+01 0.41253896703E+01 0.46102154364E+01 0.53620122363E+01
 0.66061533961E+01 0.84458565990E+01 0.10831966857E+02 0.13563090542E+02 0.10721927554E+02
 0.12337164884E+02 0.13563090761E+02 0.14183826602E+02 0.14090318683E+02 0.13306993121E+02
 0.11980813909E+02 0.10338279042E+02 0.86273777418E+01 0.70639235036E+01 0.57946206084E+01
 0.48785756764E+01 0.42824954159E+01 0.38861533225E+01 0.35579995915E+01 0.32920024856E+01
 0.30953630078E+01 0.29646876657E+01 0.28908507040E+01 0.28641747856E+01 0.28784825011E+01
 0.29334368953E+01 0.30349930502E+01 0.31938558385E+01 0.34218779322E+01 0.37266466327E+01
 0.41053481142E+01 0.45472265428E+01 0.51523054220E+01 0.60771280685E+01 0.73768421309E+01
 0.89845099571E+01 0.72640507904E+01 0.82046746282E+01 0.89845101038E+01 0.94515108561E+01
 0.95101214309E+01 0.91481245028E+01 0.84376543958E+01 0.75115503115E+01 0.65251252452E+01
 0.56168889535E+01 0.48785756764E+01 0.43381409790E+01 0.39543263962E+01 0.36366022183E+01
 0.33620101662E+01 0.31421441602E+01 0.29803094014E+01 0.28728610120E+01 0.28122576465E+01
 0.27903745253E+01 0.28012739387E+01 0.28430565850E+01 0.29185920655E+01 0.30349930531E+01
 0.32017738408E+01 0.34277466101E+01 0.37169802632E+01 0.40647201539E+01 0.44550301121E+01
 0.49091883169E+01 0.55228505945E+01 0.63270014738E+01 0.54738943162E+01 0.59249384233E+01
 0.63270015379E+01 0.65955158201E+01 0.66652555110E+01 0.65134315996E+01 0.61670091472E+01
 0.56927603133E+01 0.51750383296E+01 0.46897821105E+01 0.42824954159E+01 0.39543263962E+01
 0.36653284556E+01 0.34047904311E+01 0.31838774948E+01 0.30088193084E+01 0.28805271307E+01
 0.27957234992E+01 0.27487743992E+01 0.27336071185E+01 0.27453621014E+01 0.27816178260E+01
 0.28430565874E+01 0.29334368986E+01 0.30587947974E+01 0.32258676916E+01 0.34398075532E+01
 0.37014447582E+01 0.40047461436E+01 0.43354625198E+01 0.46750000756E+01 0.50465608215E+01
 0.46767878198E+01 0.48786864549E+01 0.50465608182E+01 0.51555711873E+01 0.51777574326E+01
 0.50984449576E+01 0.49248893991E+01 0.46844448528E+01 0.44138250755E+01 0.41440351741E+01
 0.38861533225E+01 0.36366022183E+01 0.34047904311E+01 0.32004784436E+01 0.30300926372E+01
 0.28964381615E+01 0.27991352848E+01 0.27355630538E+01 0.27019566459E+01 0.26943913011E+01
 0.27095611264E+01 0.27453621045E+01 0.28012739425E+01 0.28784825028E+01 0.29796668923E+01
 0.31083879765E+01 0.32680325548E+01 0.34603270585E+01 0.36836058936E+01 0.39312811396E+01
 0.41911469847E+01 0.44460636765E+01 0.42069610870E+01 0.43471980182E+01 0.44460636343E+01
 0.44936345969E+01 0.44849267017E+01 0.44203971848E+01 0.43051612381E+01 0.41489898935E+01
 0.39637640806E+01 0.37624629115E+01 0.35579995915E+01 0.33620101662E+01 0.31838774948E+01
 0.30300926372E+01 0.29041209159E+01 0.28068049840E+01 0.27371451965E+01 0.26931772741E+01
 0.26726892623E+01 0.26736524377E+01 0.26943913048E+01 0.27336071238E+01 0.27903745291E+01
 0.28641747851E+01 0.29549489396E+01 0.30630809832E+01 0.31891811318E+01 0.33335569468E+01
 0.34953523280E+01 0.36714951023E+01 0.38557747565E+01 0.40384801767E+01 0.38975202798E+01
 0.39820198676E+01 0.40384801255E+01 0.40597849333E+01 0.40414149095E+01 0.39824952824E+01
 0.38861312849E+01 0.37590172338E+01 0.36104891330E+01 0.34512523419E+01 0.32920024856E+01
 0.31421441602E+01 0.30088193084E+01 0.28964381615E+01 0.28068049840E+01 0.27397567839E+01
 0.26940671780E+01 0.26683014838E+01 0.26613721189E+01 0.26726892657E+01 0.27019566513E+01
 0.27487744043E+01 0.28122576487E+01 0.28908507022E+01 0.29824160093E+01 0.30845395216E+01
 0.31948831006E+01 0.33113821967E+01 0.34321424066E+01 0.35550048128E+01 0.36768941276E+01
 0.37932006003E+01 0.37576548046E+01 0.37855894535E+01 0.37932005637E+01 0.37776581446E+01
 0.37368913505E+01 0.36704831175E+01 0.35803078757E+01 0.34707045854E+01 0.33481267635E+01
 0.32203437399E+01 0.30953630078E+01 0.29803094014E+01 0.28805271307E+01 0.27991352848E+01
 0.27371451965E+01 0.26940671780E+01 0.26687703534E+01 0.26602875326E+01 0.26683014866E+01
 0.26931772784E+01 0.27355630577E+01 0.27957235011E+01 0.28728610115E+01 0.29646876638E+01
 0.30674199781E+01 0.31762066907E+01 0.32858377333E+01 0.33914918883E+01 0.34892863499E+01
 0.35764704681E+01 0.36512229134E+01 0.37121436484E+01 0.37855894466E+01 0.37576547971E+01
 0.37121436410E+01 0.36512229059E+01 0.35764704606E+01 0.34892863428E+01 0.33914918826E+01
 0.32858377300E+01 0.31762066901E+01 0.30674199796E+01 0.29646876657E+01 0.28728610120E+01
 0.27957234992E+01 0.27355630538E+01 0.26931772741E+01 0.26683014838E+01 0.26602875326E+01
 0.26687703559E+01 0.26940671814E+01 0.27371451986E+01 0.27991352843E+01 0.28805271277E+01
 0.29803093978E+01 0.30953630063E+01 0.32203437426E+01 0.33481267709E+01 0.34707045959E+01
 0.35803078865E+01 0.36704831256E+01 0.37368913540E+01 0.37776581433E+01 0.37932005587E+01
 0.39820198524E+01 0.38975202631E+01 0.37932005840E+01 0.36768941136E+01 0.35550048029E+01
 0.34321424020E+01 0.33113821974E+01 0.31948831055E+01 0.30845395281E+01 0.29824160145E+01
 0.28908507040E+01 0.28122576465E+01 0.27487743992E+01 0.27019566459E+01 0.26726892623E+01
 0.26613721189E+01 0.26683014866E+01 0.26940671814E+01 0.27397567853E+01 0.28068049817E+01
 0.28964381556E+01 0.30088193009E+01 0.31421441540E+01 0.32920024835E+01 0.34512523450E+01
 0.36104891404E+01 0.37590172430E+01 0.38861312928E+01 0.39824952862E+01 0.40414149078E+01