   1   1   1   0
  0.1219450E+02  0.2511474E-09  0.2511474E-09  0.2511474E-09  0.5000000E-15
  1.000000000000000E-004
  CAR 
 Fe BCC                                  
     44.59160248     -5.08891455  301      4.90778560      1.00000000
     -5.089  0.0000E+00  0.0000E+00  0.0000E+00  0.0000E+00
     -4.923  0.0000E+00  0.0000E+00  0.0000E+00  0.0000E+00
     -4.758  0.0000E+00  0.0000E+00  0.0000E+00  0.0000E+00
     -4.592  0.0000E+00  0.0000E+00  0.0000E+00  0.0000E+00
     -4.427  0.0000E+00  0.0000E+00  0.0000E+00  0.0000E+00
     -4.261  0.0000E+00  0.0000E+00  0.0000E+00  0.0000E+00
     -4.095  0.0000E+00  0.0000E+00  0.0000E+00  0.0000E+00
     -3.930  0.0000E+00  0.0000E+00  0.0000E+00  0.0000E+00
     -3.764  0.0000E+00  0.0000E+00  0.0000E+00  0.0000E+00
     -3.598  0.0000E+00  0.0000E+00  0.0000E+00  0.0000E+00
     -3.433  0.0000E+00  0.0000E+00  0.0000E+00  0.0000E+00
     -3.267  0.0000E+00  0.0000E+00  0.0000E+00  0.0000E+00
     -3.102  0.0000E+00  0.0000E+00  0.0000E+00  0.0000E+00
     -2.936  0.0000E+00  0.0000E+00  0.0000E+00  0.0000E+00
     -2.770  0.1279E-01  0.0000E+00  0.1340E-02  0.0000E+00
     -2.605  0.1951E-01  0.0000E+00  0.4030E-02  0.0000E+00
     -2.439  0.2511E-01  0.1239E-01  0.7740E-02  0.1276E-02
     -2.274  0.2960E-01  0.1892E-01  0.1228E-01  0.3883E-02
     -2.108  0.3725E-01  0.2433E-01  0.1778E-01  0.7480E-02
     -1.942  0.4411E-01  0.2864E-01  0.2454E-01  0.1188E-01
     -1.777  0.4913E-01  0.3558E-01  0.3228E-01  0.1714E-01
     -1.611  0.5016E-01  0.4204E-01  0.4049E-01  0.2359E-01
     -1.446  0.5569E-01  0.4665E-01  0.4924E-01  0.3096E-01
     -1.280  0.6170E-01  0.4645E-01  0.5896E-01  0.3876E-01
     -1.114  0.6820E-01  0.5078E-01  0.6970E-01  0.4681E-01
     -0.949  0.7519E-01  0.5541E-01  0.8157E-01  0.5560E-01
     -0.783  0.8267E-01  0.6034E-01  0.9464E-01  0.6518E-01
     -0.618  0.9257E-01  0.6555E-01  0.1090E+00  0.7560E-01
     -0.452  0.1077E+00  0.7107E-01  0.1256E+00  0.8691E-01
     -0.286  0.1237E+00  0.7545E-01  0.1447E+00  0.9915E-01
     -0.121  0.1412E+00  0.8337E-01  0.1666E+00  0.1123E+00
      0.045  0.1691E+00  0.9112E-01  0.1921E+00  0.1267E+00
      0.210  0.2067E+00  0.9841E-01  0.2231E+00  0.1425E+00
      0.376  0.2527E+00  0.1053E+00  0.2610E+00  0.1593E+00
      0.542  0.4884E+00  0.1141E+00  0.3182E+00  0.1774E+00
      0.707  0.5440E+00  0.1260E+00  0.4015E+00  0.1973E+00
      0.873  0.8093E+00  0.1395E+00  0.5196E+00  0.2192E+00
      1.038  0.1059E+01  0.1547E+00  0.6686E+00  0.2436E+00
      1.204  0.9678E+00  0.1715E+00  0.8487E+00  0.2706E+00
      1.370  0.5870E+00  0.1926E+00  0.9768E+00  0.3005E+00
      1.535  0.3953E+00  0.2599E+00  0.1060E+01  0.3368E+00
      1.701  0.4112E+00  0.3978E+00  0.1119E+01  0.3893E+00
      1.866  0.1760E+01  0.4035E+00  0.1285E+01  0.4577E+00
      2.032  0.1672E+01  0.4209E+00  0.1591E+01  0.5262E+00
      2.198  0.9410E+00  0.4200E+00  0.1805E+01  0.5961E+00
      2.363  0.9156E+00  0.5833E+00  0.1950E+01  0.6743E+00
      2.529  0.1295E+01  0.8500E+00  0.2126E+01  0.7924E+00
      2.694  0.2166E+01  0.6185E+00  0.2414E+01  0.9176E+00
      2.860  0.8530E+00  0.4623E+00  0.2686E+01  0.1004E+01
      3.026  0.4798E+00  0.2533E+00  0.2783E+01  0.1059E+01
      3.191  0.4299E+00  0.1945E+00  0.2857E+01  0.1093E+01
      3.357  0.4388E+00  0.8077E+00  0.2929E+01  0.1162E+01
      3.522  0.6663E+00  0.1361E+01  0.3024E+01  0.1374E+01
      3.688  0.1116E+01  0.1748E+01  0.3160E+01  0.1635E+01
      3.854  0.2033E+01  0.1092E+01  0.3416E+01  0.1841E+01
      4.019  0.2464E+01  0.1142E+01  0.3809E+01  0.2034E+01
      4.185  0.2313E+01  0.1382E+01  0.4177E+01  0.2232E+01
      4.350  0.1416E+01  0.1487E+01  0.4528E+01  0.2481E+01
      4.516  0.9540E+00  0.1128E+01  0.4725E+01  0.2698E+01
      4.682  0.8909E+00  0.3822E+00  0.4878E+01  0.2829E+01
      4.847  0.1036E+01  0.2630E+00  0.5033E+01  0.2881E+01
      5.013  0.4439E+00  0.2034E+00  0.5197E+01  0.2920E+01
      5.178  0.1643E+00  0.2024E+00  0.5240E+01  0.2952E+01
      5.344  0.1637E+00  0.3799E+00  0.5267E+01  0.2995E+01
      5.510  0.1692E+00  0.4693E+00  0.5295E+01  0.3062E+01
      5.675  0.1870E+00  0.7544E+00  0.5327E+01  0.3157E+01
      5.841  0.1756E+00  0.1068E+01  0.5357E+01  0.3308E+01
      6.006  0.1646E+00  0.1638E+01  0.5386E+01  0.3534E+01
      6.172  0.1607E+00  0.1914E+01  0.5412E+01  0.3831E+01
      6.338  0.1605E+00  0.1417E+01  0.5439E+01  0.4101E+01
      6.503  0.1603E+00  0.2185E+01  0.5465E+01  0.4362E+01
      6.669  0.1601E+00  0.1374E+01  0.5492E+01  0.4745E+01
      6.834  0.1599E+00  0.1172E+01  0.5519E+01  0.4950E+01
      7.000  0.1596E+00  0.1221E+01  0.5545E+01  0.5148E+01
      7.166  0.1582E+00  0.2407E+00  0.5571E+01  0.5247E+01
      7.331  0.1555E+00  0.2625E+00  0.5597E+01  0.5288E+01
      7.497  0.1544E+00  0.2554E+00  0.5623E+01  0.5331E+01
      7.662  0.1543E+00  0.2290E+00  0.5649E+01  0.5372E+01
      7.828  0.1477E+00  0.2088E+00  0.5674E+01  0.5407E+01
      7.994  0.1426E+00  0.2056E+00  0.5698E+01  0.5442E+01
      8.159  0.1368E+00  0.2030E+00  0.5723E+01  0.5475E+01
      8.325  0.1313E+00  0.2011E+00  0.5745E+01  0.5509E+01
      8.490  0.1259E+00  0.1984E+00  0.5767E+01  0.5542E+01
      8.656  0.1205E+00  0.1930E+00  0.5787E+01  0.5574E+01
      8.822  0.1153E+00  0.1949E+00  0.5807E+01  0.5606E+01
      8.987  0.1101E+00  0.1818E+00  0.5825E+01  0.5637E+01
      9.153  0.1040E+00  0.1688E+00  0.5843E+01  0.5666E+01
      9.318  0.9723E-01  0.1648E+00  0.5860E+01  0.5693E+01
      9.484  0.9051E-01  0.1680E+00  0.5875E+01  0.5721E+01
      9.650  0.8389E-01  0.1484E+00  0.5890E+01  0.5748E+01
      9.815  0.8633E-01  0.1412E+00  0.5903E+01  0.5772E+01
      9.981  0.7967E-01  0.1342E+00  0.5917E+01  0.5794E+01
     10.146  0.7074E-01  0.1275E+00  0.5930E+01  0.5816E+01
     10.312  0.4970E-01  0.1211E+00  0.5940E+01  0.5837E+01
     10.478  0.4577E-01  0.1133E+00  0.5948E+01  0.5856E+01
     10.643  0.4206E-01  0.1047E+00  0.5956E+01  0.5874E+01
     10.809  0.3965E-01  0.1042E+00  0.5964E+01  0.5891E+01
     10.974  0.3075E-01  0.9513E-01  0.5969E+01  0.5908E+01
     11.140  0.2403E-01  0.8411E-01  0.5974E+01  0.5923E+01
     11.306  0.1949E-01  0.7115E-01  0.5977E+01  0.5936E+01
     11.471  0.1713E-01  0.5377E-01  0.5980E+01  0.5945E+01
     11.637  0.1868E-01  0.4908E-01  0.5983E+01  0.5954E+01
     11.802  0.3230E-01  0.4468E-01  0.5987E+01  0.5961E+01
     11.968  0.6262E-01  0.3848E-01  0.5995E+01  0.5970E+01
     12.134  0.9649E-01  0.2932E-01  0.6008E+01  0.5975E+01
     12.299  0.1363E+00  0.2266E-01  0.6027E+01  0.5980E+01
     12.465  0.1973E+00  0.1852E-01  0.6056E+01  0.5983E+01
     12.630  0.2369E+00  0.1707E-01  0.6094E+01  0.5986E+01
     12.796  0.2540E+00  0.1984E-01  0.6135E+01  0.5989E+01
     12.962  0.2641E+00  0.2716E-01  0.6178E+01  0.5993E+01
     13.127  0.2723E+00  0.6147E-01  0.6223E+01  0.6000E+01
     13.293  0.2271E+00  0.1042E+00  0.6264E+01  0.6013E+01
     13.458  0.1882E+00  0.1661E+00  0.6297E+01  0.6036E+01
     13.624  0.1840E+00  0.2295E+00  0.6328E+01  0.6070E+01
     13.790  0.1796E+00  0.2774E+00  0.6358E+01  0.6112E+01
     13.955  0.1759E+00  0.2872E+00  0.6387E+01  0.6158E+01
     14.121  0.1755E+00  0.2993E+00  0.6416E+01  0.6207E+01
     14.286  0.1785E+00  0.2642E+00  0.6445E+01  0.6255E+01
     14.452  0.1842E+00  0.2098E+00  0.6476E+01  0.6293E+01
     14.618  0.1851E+00  0.2038E+00  0.6507E+01  0.6327E+01
     14.783  0.1835E+00  0.2014E+00  0.6538E+01  0.6361E+01
     14.949  0.1737E+00  0.2033E+00  0.6568E+01  0.6394E+01
     15.114  0.1774E+00  0.2370E+00  0.6597E+01  0.6428E+01
     15.280  0.1832E+00  0.2048E+00  0.6627E+01  0.6464E+01
     15.446  0.1898E+00  0.1822E+00  0.6658E+01  0.6497E+01
     15.611  0.2071E+00  0.1842E+00  0.6692E+01  0.6527E+01
     15.777  0.2089E+00  0.1869E+00  0.6726E+01  0.6558E+01
     15.943  0.2111E+00  0.1901E+00  0.6761E+01  0.6589E+01
     16.108  0.2139E+00  0.1941E+00  0.6796E+01  0.6621E+01
     16.274  0.2238E+00  0.2005E+00  0.6833E+01  0.6654E+01
     16.439  0.2255E+00  0.2191E+00  0.6870E+01  0.6689E+01
     16.605  0.2349E+00  0.2210E+00  0.6908E+01  0.6725E+01
     16.771  0.2125E+00  0.2231E+00  0.6947E+01  0.6762E+01
     16.936  0.1987E+00  0.2253E+00  0.6981E+01  0.6799E+01
     17.102  0.1960E+00  0.2355E+00  0.7014E+01  0.6839E+01
     17.267  0.1933E+00  0.2366E+00  0.7046E+01  0.6879E+01
     17.433  0.1908E+00  0.2226E+00  0.7078E+01  0.6919E+01
     17.599  0.1886E+00  0.2209E+00  0.7110E+01  0.6956E+01
     17.764  0.1874E+00  0.2049E+00  0.7141E+01  0.6991E+01
     17.930  0.1857E+00  0.2022E+00  0.7172E+01  0.7024E+01
     18.095  0.1927E+00  0.1995E+00  0.7202E+01  0.7058E+01
     18.261  0.1837E+00  0.1970E+00  0.7233E+01  0.7090E+01
     18.427  0.1785E+00  0.1947E+00  0.7263E+01  0.7123E+01
     18.592  0.1775E+00  0.1936E+00  0.7293E+01  0.7155E+01
     18.758  0.1758E+00  0.1919E+00  0.7322E+01  0.7187E+01
     18.923  0.1733E+00  0.2029E+00  0.7351E+01  0.7219E+01
     19.089  0.1717E+00  0.1877E+00  0.7380E+01  0.7251E+01
     19.255  0.1701E+00  0.1849E+00  0.7408E+01  0.7282E+01
     19.420  0.1685E+00  0.1836E+00  0.7436E+01  0.7312E+01
     19.586  0.1669E+00  0.1813E+00  0.7464E+01  0.7343E+01
     19.751  0.1654E+00  0.1794E+00  0.7491E+01  0.7372E+01
     19.917  0.1643E+00  0.1779E+00  0.7519E+01  0.7402E+01
     20.083  0.1695E+00  0.1764E+00  0.7547E+01  0.7431E+01
     20.248  0.1705E+00  0.1750E+00  0.7575E+01  0.7460E+01
     20.414  0.1734E+00  0.1736E+00  0.7603E+01  0.7489E+01
     20.579  0.1777E+00  0.1725E+00  0.7632E+01  0.7518E+01
     20.745  0.1849E+00  0.1713E+00  0.7662E+01  0.7546E+01
     20.911  0.1957E+00  0.1695E+00  0.7694E+01  0.7575E+01
     21.076  0.2108E+00  0.1686E+00  0.7728E+01  0.7603E+01
     21.242  0.2320E+00  0.1782E+00  0.7766E+01  0.7632E+01
     21.407  0.2258E+00  0.1856E+00  0.7804E+01  0.7662E+01
     21.573  0.2339E+00  0.1967E+00  0.7842E+01  0.7694E+01
     21.739  0.2413E+00  0.2097E+00  0.7881E+01  0.7727E+01
     21.904  0.2488E+00  0.2315E+00  0.7922E+01  0.7765E+01
     22.070  0.2576E+00  0.2332E+00  0.7964E+01  0.7805E+01
     22.235  0.2656E+00  0.2423E+00  0.8007E+01  0.7844E+01
     22.401  0.2752E+00  0.2518E+00  0.8052E+01  0.7885E+01
     22.567  0.2862E+00  0.2609E+00  0.8098E+01  0.7928E+01
     22.732  0.2932E+00  0.2693E+00  0.8146E+01  0.7972E+01
     22.898  0.3070E+00  0.2796E+00  0.8196E+01  0.8017E+01
     23.063  0.3259E+00  0.2788E+00  0.8249E+01  0.8063E+01
     23.229  0.3157E+00  0.2875E+00  0.8303E+01  0.8110E+01
     23.395  0.3142E+00  0.3027E+00  0.8355E+01  0.8159E+01
     23.560  0.3122E+00  0.3319E+00  0.8407E+01  0.8211E+01
     23.726  0.3094E+00  0.3347E+00  0.8458E+01  0.8266E+01
     23.891  0.2979E+00  0.3255E+00  0.8508E+01  0.8321E+01
     24.057  0.2963E+00  0.3223E+00  0.8557E+01  0.8374E+01
     24.223  0.2889E+00  0.3181E+00  0.8606E+01  0.8427E+01
     24.388  0.2802E+00  0.3144E+00  0.8653E+01  0.8480E+01
     24.554  0.2703E+00  0.3045E+00  0.8699E+01  0.8531E+01
     24.719  0.2576E+00  0.3050E+00  0.8742E+01  0.8581E+01
     24.885  0.2476E+00  0.2920E+00  0.8784E+01  0.8631E+01
     25.051  0.2235E+00  0.2814E+00  0.8823E+01  0.8678E+01
     25.216  0.1952E+00  0.2682E+00  0.8858E+01  0.8724E+01
     25.382  0.1743E+00  0.2517E+00  0.8889E+01  0.8767E+01
     25.547  0.1604E+00  0.2377E+00  0.8917E+01  0.8807E+01
     25.713  0.1561E+00  0.2081E+00  0.8943E+01  0.8845E+01
     25.879  0.1573E+00  0.1787E+00  0.8969E+01  0.8876E+01
     26.044  0.1596E+00  0.1648E+00  0.8995E+01  0.8904E+01
     26.210  0.1629E+00  0.1603E+00  0.9022E+01  0.8932E+01
     26.375  0.1540E+00  0.1614E+00  0.9048E+01  0.8959E+01
     26.541  0.1536E+00  0.1626E+00  0.9074E+01  0.8985E+01
     26.707  0.1531E+00  0.1585E+00  0.9099E+01  0.9012E+01
     26.872  0.1531E+00  0.1629E+00  0.9125E+01  0.9039E+01
     27.038  0.1625E+00  0.1557E+00  0.9151E+01  0.9065E+01
     27.203  0.1607E+00  0.1549E+00  0.9178E+01  0.9090E+01
     27.369  0.1569E+00  0.1539E+00  0.9204E+01  0.9116E+01
     27.535  0.1515E+00  0.1527E+00  0.9230E+01  0.9141E+01
     27.700  0.1569E+00  0.1595E+00  0.9255E+01  0.9169E+01
     27.866  0.1629E+00  0.1537E+00  0.9282E+01  0.9195E+01
     28.031  0.1696E+00  0.1494E+00  0.9309E+01  0.9220E+01
     28.197  0.1768E+00  0.1544E+00  0.9338E+01  0.9245E+01
     28.363  0.1846E+00  0.1604E+00  0.9368E+01  0.9271E+01
     28.528  0.3179E+00  0.1671E+00  0.9406E+01  0.9298E+01
     28.694  0.3660E+00  0.1744E+00  0.9464E+01  0.9326E+01
     28.859  0.2953E+00  0.1825E+00  0.9523E+01  0.9356E+01
     29.025  0.2295E+00  0.2124E+00  0.9563E+01  0.9389E+01
     29.191  0.2147E+00  0.2961E+00  0.9600E+01  0.9431E+01
     29.356  0.1998E+00  0.3718E+00  0.9634E+01  0.9499E+01
     29.522  0.1813E+00  0.2625E+00  0.9666E+01  0.9544E+01
     29.687  0.1731E+00  0.2448E+00  0.9695E+01  0.9586E+01
     29.853  0.1711E+00  0.2258E+00  0.9723E+01  0.9625E+01
     30.019  0.1704E+00  0.1954E+00  0.9751E+01  0.9660E+01
     30.184  0.1942E+00  0.1905E+00  0.9781E+01  0.9692E+01
     30.350  0.2058E+00  0.1938E+00  0.9815E+01  0.9724E+01
     30.515  0.1993E+00  0.2041E+00  0.9849E+01  0.9756E+01
     30.681  0.1900E+00  0.1961E+00  0.9881E+01  0.9789E+01
     30.847  0.1772E+00  0.1901E+00  0.9912E+01  0.9821E+01
     31.012  0.2291E+00  0.1857E+00  0.9945E+01  0.9852E+01
     31.178  0.2534E+00  0.1803E+00  0.9985E+01  0.9883E+01
     31.343  0.2684E+00  0.1739E+00  0.1003E+02  0.9912E+01
     31.509  0.2805E+00  0.1601E+00  0.1007E+02  0.9940E+01
     31.675  0.3031E+00  0.2280E+00  0.1012E+02  0.9975E+01
     31.840  0.3241E+00  0.2437E+00  0.1017E+02  0.1001E+02
     32.006  0.3370E+00  0.2699E+00  0.1023E+02  0.1006E+02
     32.171  0.3525E+00  0.2957E+00  0.1029E+02  0.1010E+02
     32.337  0.3498E+00  0.3274E+00  0.1034E+02  0.1016E+02
     32.503  0.3485E+00  0.3421E+00  0.1040E+02  0.1021E+02
     32.668  0.3463E+00  0.3485E+00  0.1046E+02  0.1027E+02
     32.834  0.3361E+00  0.3402E+00  0.1051E+02  0.1033E+02
     32.999  0.3085E+00  0.3538E+00  0.1057E+02  0.1038E+02
     33.165  0.2647E+00  0.3524E+00  0.1061E+02  0.1044E+02
     33.331  0.2552E+00  0.3432E+00  0.1066E+02  0.1050E+02
     33.496  0.2416E+00  0.3184E+00  0.1070E+02  0.1055E+02
     33.662  0.2290E+00  0.2796E+00  0.1074E+02  0.1060E+02
     33.827  0.2231E+00  0.2631E+00  0.1078E+02  0.1065E+02
     33.993  0.2130E+00  0.2547E+00  0.1081E+02  0.1069E+02
     34.159  0.2132E+00  0.2450E+00  0.1085E+02  0.1073E+02
     34.324  0.2164E+00  0.2338E+00  0.1088E+02  0.1077E+02
     34.490  0.2273E+00  0.2293E+00  0.1092E+02  0.1081E+02
     34.655  0.2415E+00  0.2175E+00  0.1096E+02  0.1085E+02
     34.821  0.2561E+00  0.2140E+00  0.1100E+02  0.1089E+02
     34.987  0.2709E+00  0.2177E+00  0.1104E+02  0.1092E+02
     35.152  0.2852E+00  0.2325E+00  0.1109E+02  0.1096E+02
     35.318  0.2976E+00  0.2497E+00  0.1114E+02  0.1100E+02
     35.484  0.3464E+00  0.2670E+00  0.1119E+02  0.1104E+02
     35.649  0.4201E+00  0.2814E+00  0.1126E+02  0.1109E+02
     35.815  0.3334E+00  0.2948E+00  0.1131E+02  0.1113E+02
     35.980  0.2936E+00  0.3392E+00  0.1137E+02  0.1119E+02
     36.146  0.2502E+00  0.3688E+00  0.1141E+02  0.1125E+02
     36.312  0.2408E+00  0.3385E+00  0.1145E+02  0.1131E+02
     36.477  0.2333E+00  0.3040E+00  0.1149E+02  0.1136E+02
     36.643  0.2194E+00  0.2655E+00  0.1153E+02  0.1141E+02
     36.808  0.2114E+00  0.2440E+00  0.1156E+02  0.1145E+02
     36.974  0.2034E+00  0.2296E+00  0.1160E+02  0.1149E+02
     37.140  0.1954E+00  0.2217E+00  0.1163E+02  0.1153E+02
     37.305  0.1874E+00  0.2137E+00  0.1166E+02  0.1156E+02
     37.471  0.1828E+00  0.2056E+00  0.1169E+02  0.1160E+02
     37.636  0.1689E+00  0.1976E+00  0.1172E+02  0.1163E+02
     37.802  0.1772E+00  0.1896E+00  0.1175E+02  0.1166E+02
     37.968  0.1785E+00  0.1758E+00  0.1178E+02  0.1169E+02
     38.133  0.1759E+00  0.1688E+00  0.1181E+02  0.1172E+02
     38.299  0.1707E+00  0.1838E+00  0.1185E+02  0.1175E+02
     38.464  0.1060E+00  0.1860E+00  0.1187E+02  0.1178E+02
     38.630  0.8582E-01  0.1834E+00  0.1188E+02  0.1181E+02
     38.796  0.7198E-01  0.1373E+00  0.1189E+02  0.1185E+02
     38.961  0.6438E-01  0.1096E+00  0.1191E+02  0.1187E+02
     39.127  0.5974E-01  0.8681E-01  0.1192E+02  0.1188E+02
     39.292  0.5575E-01  0.7088E-01  0.1193E+02  0.1189E+02
     39.458  0.5193E-01  0.6454E-01  0.1193E+02  0.1191E+02
     39.624  0.4827E-01  0.6036E-01  0.1194E+02  0.1192E+02
     39.789  0.4478E-01  0.5633E-01  0.1195E+02  0.1193E+02
     39.955  0.4145E-01  0.5247E-01  0.1196E+02  0.1193E+02
     40.120  0.3829E-01  0.4876E-01  0.1196E+02  0.1194E+02
     40.286  0.3530E-01  0.4522E-01  0.1197E+02  0.1195E+02
     40.452  0.3247E-01  0.4183E-01  0.1198E+02  0.1196E+02
     40.617  0.2980E-01  0.3861E-01  0.1198E+02  0.1196E+02
     40.783  0.2730E-01  0.3554E-01  0.1199E+02  0.1197E+02
     40.948  0.2076E-01  0.3263E-01  0.1199E+02  0.1198E+02
     41.114  0.1616E-01  0.2510E-01  0.1200E+02  0.1198E+02
     41.280  0.3898E-02  0.2308E-01  0.1200E+02  0.1199E+02
     41.445  0.3442E-02  0.2120E-01  0.1200E+02  0.1199E+02
     41.611  0.3006E-02  0.1799E-01  0.1200E+02  0.1200E+02
     41.776  0.2589E-02  0.7883E-02  0.1200E+02  0.1200E+02
     41.942  0.0000E+00  0.3493E-02  0.1200E+02  0.1200E+02
     42.108  0.0000E+00  0.2936E-02  0.1200E+02  0.1200E+02
     42.273  0.0000E+00  0.2501E-02  0.1200E+02  0.1200E+02
     42.439  0.0000E+00  0.0000E+00  0.1200E+02  0.1200E+02
     42.604  0.0000E+00  0.0000E+00  0.1200E+02  0.1200E+02
     42.770  0.0000E+00  0.0000E+00  0.1200E+02  0.1200E+02
     42.936  0.0000E+00  0.0000E+00  0.1200E+02  0.1200E+02
     43.101  0.0000E+00  0.0000E+00  0.1200E+02  0.1200E+02
     43.267  0.0000E+00  0.0000E+00  0.1200E+02  0.1200E+02
     43.432  0.0000E+00  0.0000E+00  0.1200E+02  0.1200E+02
     43.598  0.0000E+00  0.0000E+00  0.1200E+02  0.1200E+02
     43.764  0.0000E+00  0.0000E+00  0.1200E+02  0.1200E+02
     43.929  0.0000E+00  0.0000E+00  0.1200E+02  0.1200E+02
     44.095  0.0000E+00  0.0000E+00  0.1200E+02  0.1200E+02
     44.260  0.0000E+00  0.0000E+00  0.1200E+02  0.1200E+02
     44.426  0.0000E+00  0.0000E+00  0.1200E+02  0.1200E+02
     44.592  0.0000E+00  0.0000E+00  0.1200E+02  0.1200E+02
     44.59160248     -5.08891455  301      4.90778560      1.00000000
     -5.089  0.0000E+00  0.0000E+00  0.0000E+00  0.0000E+00  0.0000E+00  0.0000E+00  0.0000E+00  0.0000E+00  0.0000E+00  0.0000E+00  0.0000E+00  0.0000E+00  0.0000E+00  0.0000E+00  0.0000E+00  0.0000E+00  0.0000E+00  0.0000E+00
     -4.923  0.0000E+00  0.0000E+00  0.0000E+00  0.0000E+00  0.0000E+00  0.0000E+00  0.0000E+00  0.0000E+00  0.0000E+00  0.0000E+00  0.0000E+00  0.0000E+00  0.0000E+00  0.0000E+00  0.0000E+00  0.0000E+00  0.0000E+00  0.0000E+00
     -4.758  0.0000E+00  0.0000E+00  0.0000E+00  0.0000E+00  0.0000E+00  0.0000E+00  0.0000E+00  0.0000E+00  0.0000E+00  0.0000E+00  0.0000E+00  0.0000E+00  0.0000E+00  0.0000E+00  0.0000E+00  0.0000E+00  0.0000E+00  0.0000E+00
     -4.592  0.0000E+00  0.0000E+00  0.0000E+00  0.0000E+00  0.0000E+00  0.0000E+00  0.0000E+00  0.0000E+00  0.0000E+00  0.0000E+00  0.0000E+00  0.0000E+00  0.0000E+00  0.0000E+00  0.0000E+00  0.0000E+00  0.0000E+00  0.0000E+00
     -4.427  0.0000E+00  0.0000E+00  0.0000E+00  0.0000E+00  0.0000E+00  0.0000E+00  0.0000E+00  0.0000E+00  0.0000E+00  0.0000E+00  0.0000E+00  0.0000E+00  0.0000E+00  0.0000E+00  0.0000E+00  0.0000E+00  0.0000E+00  0.0000E+00
     -4.261  0.0000E+00  0.0000E+00  0.0000E+00  0.0000E+00  0.0000E+00  0.0000E+00  0.0000E+00  0.0000E+00  0.0000E+00  0.0000E+00  0.0000E+00  0.0000E+00  0.0000E+00  0.0000E+00  0.0000E+00  0.0000E+00  0.0000E+00  0.0000E+00
     -4.095  0.0000E+00  0.0000E+00  0.0000E+00  0.0000E+00  0.0000E+00  0.0000E+00  0.0000E+00  0.0000E+00  0.0000E+00  0.0000E+00  0.0000E+00  0.0000E+00  0.0000E+00  0.0000E+00  0.0000E+00  0.0000E+00  0.0000E+00  0.0000E+00
     -3.930  0.0000E+00  0.0000E+00  0.0000E+00  0.0000E+00  0.0000E+00  0.0000E+00  0.0000E+00  0.0000E+00  0.0000E+00  0.0000E+00  0.0000E+00  0.0000E+00  0.0000E+00  0.0000E+00  0.0000E+00  0.0000E+00  0.0000E+00  0.0000E+00
     -3.764  0.0000E+00  0.0000E+00  0.0000E+00  0.0000E+00  0.0000E+00  0.0000E+00  0.0000E+00  0.0000E+00  0.0000E+00  0.0000E+00  0.0000E+00  0.0000E+00  0.0000E+00  0.0000E+00  0.0000E+00  0.0000E+00  0.0000E+00  0.0000E+00
     -3.598  0.0000E+00  0.0000E+00  0.0000E+00  0.0000E+00  0.0000E+00  0.0000E+00  0.0000E+00  0.0000E+00  0.0000E+00  0.0000E+00  0.0000E+00  0.0000E+00  0.0000E+00  0.0000E+00  0.0000E+00  0.0000E+00  0.0000E+00  0.0000E+00
     -3.433  0.0000E+00  0.0000E+00  0.0000E+00  0.0000E+00  0.0000E+00  0.0000E+00  0.0000E+00  0.0000E+00  0.0000E+00  0.0000E+00  0.0000E+00  0.0000E+00  0.0000E+00  0.0000E+00  0.0000E+00  0.0000E+00  0.0000E+00  0.0000E+00
     -3.267  0.0000E+00  0.0000E+00  0.0000E+00  0.0000E+00  0.0000E+00  0.0000E+00  0.0000E+00  0.0000E+00  0.0000E+00  0.0000E+00  0.0000E+00  0.0000E+00  0.0000E+00  0.0000E+00  0.0000E+00  0.0000E+00  0.0000E+00  0.0000E+00
     -3.102  0.0000E+00  0.0000E+00  0.0000E+00  0.0000E+00  0.0000E+00  0.0000E+00  0.0000E+00  0.0000E+00  0.0000E+00  0.0000E+00  0.0000E+00  0.0000E+00  0.0000E+00  0.0000E+00  0.0000E+00  0.0000E+00  0.0000E+00  0.0000E+00
     -2.936  0.0000E+00  0.0000E+00  0.0000E+00  0.0000E+00  0.0000E+00  0.0000E+00  0.0000E+00  0.0000E+00  0.0000E+00  0.0000E+00  0.0000E+00  0.0000E+00  0.0000E+00  0.0000E+00  0.0000E+00  0.0000E+00  0.0000E+00  0.0000E+00
     -2.770  0.8133E-02  0.0000E+00  0.7914E-04  0.0000E+00  0.5349E-04  0.0000E+00  0.3344E-03  0.0000E+00  0.2434E-04  0.0000E+00  0.6502E-05  0.0000E+00  0.8858E-05  0.0000E+00  0.6207E-05  0.0000E+00  0.1033E-04  0.0000E+00
     -2.605  0.1219E-01  0.0000E+00  0.1725E-03  0.0000E+00  0.1076E-03  0.0000E+00  0.5988E-03  0.0000E+00  0.5943E-04  0.0000E+00  0.1771E-04  0.0000E+00  0.2242E-04  0.0000E+00  0.1356E-04  0.0000E+00  0.2617E-04  0.0000E+00
     -2.439  0.1546E-01  0.7916E-02  0.2683E-03  0.7646E-04  0.1519E-03  0.5149E-04  0.8927E-03  0.3237E-03  0.1035E-03  0.1562E-04  0.3361E-04  0.4405E-05  0.4148E-04  0.5644E-05  0.2112E-04  0.4263E-05  0.5068E-04  0.6992E-05
     -2.274  0.1793E-01  0.1189E-01  0.3666E-03  0.1687E-03  0.1862E-03  0.1051E-03  0.1216E-02  0.5810E-03  0.1564E-03  0.3821E-04  0.5418E-04  0.1149E-04  0.6604E-04  0.1414E-04  0.2890E-04  0.9271E-05  0.8387E-04  0.1708E-04
     -2.108  0.2215E-01  0.1509E-01  0.5506E-03  0.2634E-03  0.2817E-03  0.1491E-03  0.1695E-02  0.8660E-03  0.2458E-03  0.6621E-04  0.1146E-03  0.2102E-04  0.1060E-03  0.2597E-04  0.4881E-04  0.1423E-04  0.1370E-03  0.3240E-04
     -1.942  0.2569E-01  0.1749E-01  0.7591E-03  0.3605E-03  0.4116E-03  0.1835E-03  0.2158E-02  0.1178E-02  0.3649E-03  0.9961E-04  0.2208E-03  0.3298E-04  0.1603E-03  0.4113E-04  0.8514E-04  0.1914E-04  0.2088E-03  0.5295E-04
     -1.777  0.2793E-01  0.2136E-01  0.9739E-03  0.5340E-03  0.5628E-03  0.2710E-03  0.2567E-02  0.1630E-02  0.5090E-03  0.1532E-03  0.3683E-03  0.6540E-04  0.2275E-03  0.6430E-04  0.1366E-03  0.3076E-04  0.2973E-03  0.8442E-04
     -1.611  0.2715E-01  0.2478E-01  0.1169E-02  0.7376E-03  0.7529E-03  0.3962E-03  0.2987E-02  0.2077E-02  0.7332E-03  0.2224E-03  0.5857E-03  0.1234E-03  0.3628E-03  0.9415E-04  0.2332E-03  0.5179E-04  0.5044E-03  0.1258E-03
     -1.446  0.2927E-01  0.2694E-01  0.1362E-02  0.9471E-03  0.9045E-03  0.5421E-03  0.3501E-02  0.2471E-02  0.1079E-02  0.3031E-03  0.7542E-03  0.2035E-03  0.5584E-03  0.1294E-03  0.3255E-03  0.8101E-04  0.6906E-03  0.1755E-03
     -1.280  0.3151E-01  0.2571E-01  0.1562E-02  0.1138E-02  0.1062E-02  0.7319E-03  0.4073E-02  0.2827E-02  0.1490E-02  0.4067E-03  0.9516E-03  0.3259E-03  0.7967E-03  0.1888E-03  0.4380E-03  0.1345E-03  0.9078E-03  0.2860E-03
     -1.114  0.3387E-01  0.2748E-01  0.1770E-02  0.1323E-02  0.1226E-02  0.8743E-03  0.4702E-02  0.3286E-02  0.1968E-02  0.5753E-03  0.1178E-02  0.4111E-03  0.1078E-02  0.2754E-03  0.5708E-03  0.1820E-03  0.1156E-02  0.3843E-03
     -0.949  0.3634E-01  0.2932E-01  0.1983E-02  0.1514E-02  0.1395E-02  0.1022E-02  0.5388E-02  0.3794E-02  0.2511E-02  0.7729E-03  0.1433E-02  0.5088E-03  0.1402E-02  0.3788E-03  0.7240E-03  0.2387E-03  0.1435E-02  0.4974E-03
     -0.783  0.3893E-01  0.3123E-01  0.2204E-02  0.1712E-02  0.1570E-02  0.1174E-02  0.6131E-02  0.4349E-02  0.3121E-02  0.9996E-03  0.1717E-02  0.6189E-03  0.1768E-02  0.4992E-03  0.8974E-03  0.3046E-03  0.1745E-02  0.6252E-03
     -0.618  0.4149E-01  0.3323E-01  0.2517E-02  0.1915E-02  0.1893E-02  0.1331E-02  0.7019E-02  0.4951E-02  0.4134E-02  0.1255E-02  0.2559E-02  0.7416E-03  0.2453E-02  0.6363E-03  0.1352E-02  0.3797E-03  0.2215E-02  0.7677E-03
     -0.452  0.4517E-01  0.3530E-01  0.2948E-02  0.2124E-02  0.2352E-02  0.1493E-02  0.8248E-02  0.5601E-02  0.5811E-02  0.1540E-02  0.4036E-02  0.8767E-03  0.3679E-02  0.7904E-03  0.1953E-02  0.4640E-03  0.3086E-02  0.9250E-03
     -0.286  0.4829E-01  0.3655E-01  0.3310E-02  0.2286E-02  0.2787E-02  0.1651E-02  0.9632E-02  0.6242E-02  0.7869E-02  0.1849E-02  0.5799E-02  0.1042E-02  0.5312E-02  0.9715E-03  0.2650E-02  0.6030E-03  0.4286E-02  0.1090E-02
     -0.121  0.5049E-01  0.3876E-01  0.3508E-02  0.2637E-02  0.3082E-02  0.2003E-02  0.1114E-01  0.7104E-02  0.1099E-01  0.2464E-02  0.7861E-02  0.1571E-02  0.7812E-02  0.1343E-02  0.3416E-02  0.8286E-03  0.5878E-02  0.1390E-02
      0.045  0.5527E-01  0.4053E-01  0.3840E-02  0.2946E-02  0.3418E-02  0.2349E-02  0.1306E-01  0.8016E-02  0.1640E-01  0.3171E-02  0.1084E-01  0.2186E-02  0.1183E-01  0.1813E-02  0.4256E-02  0.1076E-02  0.7891E-02  0.1803E-02
      0.210  0.6130E-01  0.4173E-01  0.4202E-02  0.3197E-02  0.3781E-02  0.2673E-02  0.1527E-01  0.8957E-02  0.2457E-01  0.3976E-02  0.1499E-01  0.2879E-02  0.1789E-01  0.2388E-02  0.5214E-02  0.1344E-02  0.1039E-01  0.2326E-02
      0.376  0.6820E-01  0.4240E-01  0.4572E-02  0.3355E-02  0.4179E-02  0.2922E-02  0.1773E-01  0.9865E-02  0.3518E-01  0.5013E-02  0.2022E-01  0.3620E-02  0.2582E-01  0.3128E-02  0.6310E-02  0.1622E-02  0.1336E-01  0.2930E-02
      0.542  0.9817E-01  0.4382E-01  0.5570E-02  0.3558E-02  0.5717E-02  0.3188E-02  0.2337E-01  0.1087E-01  0.9056E-01  0.6339E-02  0.6510E-01  0.4463E-02  0.6790E-01  0.4034E-02  0.8506E-02  0.1916E-02  0.2997E-01  0.3596E-02
      0.707  0.9528E-01  0.4611E-01  0.5390E-02  0.3809E-02  0.6472E-02  0.3454E-02  0.2869E-01  0.1202E-01  0.9975E-01  0.8265E-02  0.7160E-01  0.5498E-02  0.8558E-01  0.5284E-02  0.1384E-01  0.2217E-02  0.3744E-01  0.4343E-02
      0.873  0.9532E-01  0.4862E-01  0.5795E-02  0.4066E-02  0.7491E-02  0.3732E-02  0.3848E-01  0.1327E-01  0.1199E+00  0.1063E-01  0.9083E-01  0.6714E-02  0.1788E+00  0.6822E-02  0.2411E-01  0.2550E-02  0.1141E+00  0.5177E-02
      1.038  0.8271E-01  0.5136E-01  0.6737E-02  0.4328E-02  0.7058E-02  0.4021E-02  0.4745E-01  0.1462E-01  0.1279E+00  0.1344E-01  0.9180E-01  0.8111E-02  0.3089E+00  0.8646E-02  0.3562E-01  0.2914E-02  0.1872E+00  0.6100E-02
      1.204  0.6019E-01  0.5433E-01  0.7178E-02  0.4596E-02  0.6383E-02  0.4322E-02  0.4171E-01  0.1608E-01  0.1124E+00  0.1669E-01  0.1074E+00  0.9691E-02  0.2760E+00  0.1076E-01  0.5051E-01  0.3309E-02  0.1658E+00  0.7110E-02
      1.370  0.3048E-01  0.5762E-01  0.5813E-02  0.4873E-02  0.3949E-02  0.4627E-02  0.1940E-01  0.1814E-01  0.6734E-01  0.2051E-01  0.1099E+00  0.1145E-01  0.1106E+00  0.1353E-01  0.5370E-01  0.3763E-02  0.1092E+00  0.9056E-02
      1.535  0.1224E-01  0.6704E-01  0.5331E-02  0.5815E-02  0.1964E-02  0.6116E-02  0.1245E-01  0.2193E-01  0.2722E-01  0.3181E-01  0.8170E-01  0.2380E-01  0.6292E-01  0.2201E-01  0.3481E-01  0.5571E-02  0.1077E+00  0.1427E-01
      1.701  0.3288E-02  0.8597E-01  0.9054E-02  0.6502E-02  0.2740E-02  0.7313E-02  0.1202E-01  0.2764E-01  0.1506E-01  0.6311E-01  0.6354E-01  0.4737E-01  0.7848E-01  0.4332E-01  0.3547E-01  0.7618E-02  0.1420E+00  0.2359E-01
      1.866  0.1364E-02  0.7764E-01  0.3081E-01  0.5724E-02  0.2516E-01  0.7137E-02  0.1626E-01  0.2896E-01  0.3828E+00  0.6589E-01  0.1797E+00  0.4888E-01  0.1796E+00  0.5020E-01  0.5770E+00  0.9497E-02  0.2120E+00  0.2604E-01
      2.032  0.3770E-02  0.7397E-01  0.2531E-01  0.5462E-02  0.1576E-01  0.7081E-02  0.1531E-01  0.3054E-01  0.2138E+00  0.6859E-01  0.2866E+00  0.5300E-01  0.1777E+00  0.5621E-01  0.5707E+00  0.1201E-01  0.2226E+00  0.2941E-01
      2.198  0.6753E-02  0.6715E-01  0.1571E-01  0.5081E-02  0.1298E-01  0.6791E-02  0.7434E-02  0.3105E-01  0.1742E+00  0.6710E-01  0.1353E+00  0.5405E-01  0.1157E+00  0.5964E-01  0.2950E+00  0.1477E-01  0.9924E-01  0.3201E-01
      2.363  0.1021E-01  0.6311E-01  0.2343E-01  0.5346E-02  0.2469E-01  0.6870E-02  0.1332E-01  0.4000E-01  0.2230E+00  0.7059E-01  0.1604E+00  0.5554E-01  0.6271E-01  0.1189E+00  0.2384E+00  0.1964E-01  0.7699E-01  0.9546E-01
      2.529  0.1666E-01  0.6090E-01  0.3500E-01  0.7364E-02  0.3353E-01  0.7798E-02  0.2494E-01  0.5519E-01  0.3050E+00  0.7853E-01  0.3019E+00  0.7128E-01  0.6779E-01  0.2056E+00  0.2638E+00  0.2928E-01  0.1288E+00  0.1846E+00
      2.694  0.2831E-01  0.4019E-01  0.5679E-01  0.7749E-02  0.3995E-01  0.7491E-02  0.4922E-01  0.3184E-01  0.5098E+00  0.6606E-01  0.4893E+00  0.7319E-01  0.1023E+00  0.1640E+00  0.4618E+00  0.3119E-01  0.2424E+00  0.9436E-01
      2.860  0.1350E-01  0.2597E-01  0.2861E-01  0.7814E-02  0.2189E-01  0.5954E-02  0.1829E-01  0.2038E-01  0.1536E+00  0.5238E-01  0.1720E+00  0.6609E-01  0.3659E-01  0.1108E+00  0.2182E+00  0.3479E-01  0.1121E+00  0.6580E-01
      3.026  0.7601E-02  0.6320E-02  0.1878E-01  0.6330E-02  0.1377E-01  0.2369E-02  0.1091E-01  0.1179E-01  0.6715E-01  0.9980E-02  0.1063E+00  0.5089E-01  0.2205E-01  0.5417E-01  0.1103E+00  0.1006E-01  0.7756E-01  0.6271E-01
      3.191  0.5264E-02  0.1024E-03  0.1472E-01  0.7140E-02  0.1096E-01  0.1169E-02  0.7941E-02  0.5344E-02  0.6013E-01  0.5237E-02  0.1015E+00  0.1779E-02  0.2921E-01  0.5961E-01  0.9885E-01  0.5384E-02  0.6480E-01  0.7816E-01