    1    1    1    2
  0.1219450E+02  0.2511474E-09  0.2511474E-09  0.2511474E-09  0.5000000E-15
  1.000000000000000E-004
  CAR 
 Fe BCC                                  
      8     26     12
 
  0.6250000E-01  0.6250000E-01  0.6250000E-01  0.1562500E-01
    1       -2.243307     -1.900881   1.000000   1.000000
    2        2.624522      4.423421   1.000000   1.000000
    3        2.624522      4.423421   1.000000   1.000000
    4        3.358653      5.240095   1.000000  -0.017235
    5        3.961611      6.240736   1.000000   0.000000
    6        3.961611      6.240736   1.002996   0.000000
    7       25.464105     25.924419   0.000000   0.000000
    8       25.464105     25.924419   0.000000   0.000000
    9       28.733797     29.536894   0.000000   0.000000
   10       29.999552     30.096407   0.000000   0.000000
   11       34.436000     34.908336   0.000000   0.000000
   12       34.436000     34.908336   0.000000   0.000000
 
  0.1875000E+00  0.6250000E-01  0.6250000E-01  0.4687500E-01
    1       -0.704343     -0.290469   1.000000   1.000000
    2        2.249031      3.979067   1.000000   1.000000
    3        2.443503      4.132408   1.000000   1.000002
    4        3.894560      6.120185   1.000000  -0.001468
    5        4.072471      6.220792   1.000939   0.000000
    6        4.294397      6.380220   0.892494   0.000000
    7       20.095597     20.832918   0.000000   0.000000
    8       23.166666     23.693363   0.000000   0.000000
    9       25.073852     25.800157   0.000000   0.000000
   10       30.213291     30.496265   0.000000   0.000000
   11       33.785437     34.443313   0.000000   0.000000
   12       35.122955     35.548078   0.000000   0.000000
 
  0.3125000E+00  0.6250000E-01  0.6250000E-01  0.4687500E-01
    1        0.503309      1.431385   1.000000   1.000000
    2        1.924987      3.596141   1.000000   1.000000
    3        3.113820      4.302823   1.000000   1.022861
    4        4.013828      6.223308   1.000000   0.000000
    5        4.160540      6.500324   1.032761   0.000000
    6        5.601960      7.429509   0.014496   0.000000
    7       14.765738     15.749779   0.000000   0.000000
    8       21.531365     22.033872   0.000000   0.000000
    9       22.859526     23.523089   0.000000   0.000000
   10       29.612250     30.083462   0.000000   0.000000
   11       33.121590     33.790000   0.000000   0.000000
   12       38.318939     38.747400   0.000000   0.000000
 
  0.4375000E+00  0.6250000E-01  0.6250000E-01  0.2343750E-01
    1        0.605563      1.869875   1.000000   1.000000
    2        1.800448      3.449566   1.000000   1.000000
    3        4.052804      5.103689   1.000000   0.694672
    4        4.071264      6.287723   1.000000   0.000000
    5        4.196722      6.551757   1.077933   0.000000
    6        6.911288      8.293891  -0.005306   0.000000
    7       11.745646     13.034513   0.000000   0.000000
    8       20.936346     21.418028   0.000000   0.000000
    9       22.031300     22.655597   0.000000   0.000000
   10       29.362992     29.890868   0.000000   0.000000
   11       33.008852     33.701584   0.000000   0.000000
   12       38.402707     38.662429   0.000000   0.000000
 
 -0.6250000E-01  0.6250000E-01  0.6250000E-01  0.1171875E-01
    1       -2.830709     -2.495190   1.000000   1.000000
    2        2.809143      4.639669   1.000000   1.000000
    3        2.809143      4.639669   1.000000   1.000000
    4        2.890330      4.738145   1.000000   0.468874
    5        3.895108      6.162989   1.000000   0.000000
    6        4.075839      6.386786   1.000000   0.000000
    7       27.452444     27.699558   0.000000   0.000000
    8       28.694231     28.946814   0.000000   0.000000
    9       28.694231     28.946814   0.000000   0.000000
   10       31.435734     31.953082   0.000000   0.000000
   11       33.276668     34.003571   0.000000   0.000000
   12       33.276668     34.003571   0.000000   0.000000
 
  0.1875000E+00  0.1875000E+00  0.6250000E-01  0.4687500E-01
    1        0.762376      1.425581   1.000000   1.000000
    2        1.996123      3.619616   1.000000   1.000000
    3        2.155695      3.729548   1.000000   1.000508
    4        3.965945      6.199402   1.000000   0.000000
    5        4.185741      6.503284   1.000768   0.000000
    6        5.790471      7.607955  -0.004814   0.000000
    7       17.704135     18.530861   0.000000   0.000000
    8       18.364904     19.084295   0.000000   0.000000
    9       22.089390     22.729762   0.000000   0.000000
   10       32.057888     32.329648   0.000000   0.000000
   11       35.390288     35.890351   0.000000   0.000000
   12       37.675845     38.154051   0.000000   0.000000
 
  0.3125000E+00  0.1875000E+00  0.6250000E-01  0.9375000E-01
    1        1.183364      2.459881   1.000000   1.000000
    2        1.833662      3.413570   1.000000   1.000000
    3        2.737758      4.005855   1.000000   1.010249
    4        4.090389      6.330829   1.000000   0.000000
    5        4.267893      6.573125   1.009651   0.000000
    6        8.102127      9.495314  -0.003782   0.000000
    7       13.152542     14.194247   0.000000   0.000000
    8       16.881896     17.626304   0.000000   0.000000
    9       20.888241     21.512508   0.000000   0.000000
   10       32.343540     32.711586   0.000000   0.000000
   11       36.482865     36.851130   0.000000   0.000000
   12       38.209343     38.765987   0.000000   0.000000
 
 -0.1875000E+00  0.1875000E+00  0.6250000E-01  0.4687500E-01
    1       -1.690987     -1.333863   1.000000   1.000000
    2        2.564716      4.350261   1.000000   1.000000
    3        2.747747      4.529193   1.000000   1.000000
    4        3.457512      5.357120   1.000000  -0.013127
    5        3.667669      5.857411   1.000000   0.000000
    6        4.163627      6.483778   1.009666   0.000000
    7       22.923832     23.548489   0.000000   0.000000
    8       26.274354     26.647932   0.000000   0.000000
    9       26.952857     27.551913   0.000000   0.000000
   10       30.813111     31.356069   0.000000   0.000000
   11       30.905077     31.514342   0.000000   0.000000
   12       32.471323     32.946888   0.000000   0.000000
 
  0.3125000E+00  0.3125000E+00  0.6250000E-01  0.1562500E-01
    1        1.491263      2.980651   1.000000   1.000000
    2        2.159357      3.558403   1.000000   1.000000
    3        2.159357      3.558403   1.000000   1.000624
    4        4.217441      6.486486   1.000000   0.000000
    5        4.217441      6.486486   1.000000   0.000000
    6       11.474403     12.559194   0.000000   0.000000
    7       11.474403     12.559194   0.000000   0.000000
    8       13.683195     14.566671   0.000000   0.000000
    9       20.442765     21.091661   0.000000   0.000000
   10       34.707333     35.029737   0.000000   0.000000
   11       34.707333     35.029737   0.000000   0.000000
   12       41.247279     41.972899   0.000000   0.000000
 
 -0.3125000E+00  0.3125000E+00  0.6250000E-01  0.4687500E-01
    1       -0.059927      0.533894   1.000000   1.000000
    2        2.200292      3.924172   1.000000   1.000000
    3        2.792383      4.298741   1.000000   1.006517
    4        3.830206      5.947209   1.000000   0.000000
    5        4.318033      6.390884   1.017087   0.000000
    6        4.389190      6.595123   0.722305   0.000000
    7       17.250194     18.122729   0.000000   0.000000
    8       23.962794     24.318524   0.000000   0.000000
    9       24.754014     25.456607   0.000000   0.000000
   10       29.192609     29.820157   0.000000   0.000000
   11       30.954089     31.572612   0.000000   0.000000
   12       33.852868     34.308780   0.000000   0.000000
 
 -0.1875000E+00  0.3125000E+00  0.6250000E-01  0.4687500E-01
    1       -0.276876      0.186009   1.000000   1.000000
    2        2.389276      4.138482   1.000000   1.000000
    3        2.549036      4.260204   1.000000   1.001755
    4        3.537263      5.634571   1.000000  -0.000994
    5        4.150737      6.147263   1.001810   0.000000
    6        4.482705      6.702297   0.761834   0.000000
    7       20.210275     20.974398   0.000000   0.000000
    8       21.025437     21.700394   0.000000   0.000000
    9       27.495756     27.980737   0.000000   0.000000
   10       27.520411     28.070189   0.000000   0.000000
   11       31.216608     31.784728   0.000000   0.000000
   12       35.690340     36.140804   0.000000   0.000000
 
 -0.4375000E+00  0.4375000E+00  0.6250000E-01  0.4687500E-01
    1        0.483845      1.667865   1.000000   1.000000
    2        1.952710      3.637238   1.000000   1.000000
    3        3.541063      4.916930   1.000000   0.850968
    4        3.988608      6.140528   1.000000   0.000000
    5        5.138819      7.021504   0.480237   0.000000
    6        5.518522      7.240621   0.003372   0.000000
    7       12.628919     13.813655   0.000000   0.000000
    8       22.650771     22.973043   0.000000   0.000000
    9       23.168812     23.813899   0.000000   0.000000
   10       28.516682     29.207873   0.000000   0.000000
   11       31.170107     31.862874   0.000000   0.000000
   12       35.590176     35.953033   0.000000   0.000000
 
 -0.3125000E+00  0.4375000E+00  0.6250000E-01  0.9375000E-01
    1        0.836689      1.817800   1.000000   1.000000
    2        2.096884      3.740876   1.000000   1.000000
    3        2.614788      4.133840   1.000000   1.012453
    4        3.802856      5.886387   1.000000   0.000000
    5        4.511737      6.670812   1.024307   0.000000
    6        6.051663      7.774018  -0.035765   0.000000
    7       15.136188     16.087964   0.000000   0.000000
    8       18.912230     19.626665   0.000000   0.000000
    9       25.272378     25.749305   0.000000   0.000000
   10       28.380758     28.960706   0.000000   0.000000
   11       31.871608     32.398538   0.000000   0.000000
   12       36.153913     36.711050   0.000000   0.000000
 
 -0.4375000E+00 -0.4375000E+00  0.6250000E-01  0.4687500E-01
    1        0.919070      2.254659   1.000000   1.000000
    2        2.078315      3.745592   1.000000   1.000000
    3        2.797036      4.234751   1.000000   1.026250
    4        3.899980      6.017055   1.000000   0.000000
    5        4.826373      6.918151   0.887835   0.000000
    6        7.960832      9.185355  -0.001962   0.000000
    7       11.851350     13.084999   0.000000   0.000000
    8       18.242243     18.941071   0.000000   0.000000
    9       24.476982     24.927893   0.000000   0.000000
   10       28.676200     29.331605   0.000000   0.000000
   11       32.928155     33.301814   0.000000   0.000000
   12       35.452353     36.081334   0.000000   0.000000
 
 -0.3125000E+00 -0.4375000E+00  0.6250000E-01  0.4687500E-01
    1        1.551946      2.925503   1.000000   1.000000
    2        1.829432      3.377480   1.000000   1.000000
    3        2.314357      3.859567   1.000000   1.005951
    4        4.072415      6.165789   1.000000   0.000000
    5        4.485810      6.608720   1.036774   0.000000
    6        9.109820     10.386920  -0.000595   0.000000
    7       13.335849     14.370531   0.000000   0.000000
    8       14.486989     15.320393   0.000000   0.000000
    9       25.593299     26.152540   0.000000   0.000000
   10       28.864143     29.327411   0.000000   0.000000
   11       30.950106     31.416873   0.000000   0.000000
   12       37.419757     38.218254   0.000000   0.000000
 
  0.1875000E+00  0.1875000E+00  0.1875000E+00  0.1562500E-01
    1        1.815293      2.873478   1.000000   1.000000
    2        1.815293      3.351271   1.000000   1.000000
    3        1.905079      3.351271   1.000000   1.000746
    4        4.171395      6.498528   1.000000   0.000000
    5        4.171395      6.498528   1.000000   0.000000
    6        8.075481      9.559297  -0.004838   0.000000
    7       16.118051     16.968959   0.000000   0.000000
    8       16.118051     16.968959   0.000000   0.000000
    9       17.108507     17.756793   0.000000   0.000000
   10       36.669257     36.772798   0.000000   0.000000
   11       39.053763     39.443750   0.000000   0.000000
   12       39.053763     39.443750   0.000000   0.000000
 
  0.3125000E+00  0.1875000E+00  0.1875000E+00  0.2343750E-01
    1        1.694295      3.076623   1.000000   1.000000
    2        1.774432      3.277970   1.000000   1.000000
    3        2.366688      3.686521   1.000000   1.001096
    4        4.201264      6.529669   1.000000   0.000000
    5        4.219756      6.580829   1.000000   0.000000
    6       10.799249     11.895520   0.000000   0.000000
    7       12.480877     13.529364   0.000000   0.000000
    8       15.574457     16.431012   0.000000   0.000000
    9       16.267444     16.937791   0.000000   0.000000
   10       37.596229     37.816980   0.000000   0.000000
   11       40.816350     41.097732   0.000000   0.000000
   12       41.037580     41.535468   0.000000   0.000000
 
 -0.1875000E+00  0.1875000E+00  0.1875000E+00  0.1171875E-01
    1       -0.679496     -0.272682   1.000000   1.000000
    2        2.949678      4.742033   1.000000   1.000000
    3        2.949678      4.742033   1.000000   0.985200
    4        2.959030      5.007492   1.000000   0.005450
    5        3.472618      5.382263   1.000000   0.000000
    6        4.481043      6.769123   0.901950   0.000000
    7       23.192488     23.783913   0.000000   0.000000
    8       23.844407     24.565096   0.000000   0.000000
    9       23.844407     24.565096   0.000000   0.000000
   10       25.746595     26.221490   0.000000   0.000000
   11       34.899734     35.310691   0.000000   0.000000
   12       34.899734     35.310691   0.000000   0.000000
 
 -0.3125000E+00  0.3125000E+00  0.1875000E+00  0.4687500E-01
    1        0.646283      1.358367   1.000000   1.000000
    2        2.237440      4.021212   1.000000   1.000000
    3        2.822775      4.591027   1.000000   0.967698
    4        3.444533      5.342501   1.000000   0.000000
    5        4.283009      6.271374   1.032826   0.000000
    6        5.228786      7.197088   0.114872   0.000000
    7       18.073735     18.909442   0.000000   0.000000
    8       21.308029     22.038760   0.000000   0.000000
    9       22.649294     23.255887   0.000000   0.000000
   10       26.350830     26.898557   0.000000   0.000000
   11       33.942549     34.525216   0.000000   0.000000
   12       35.622417     36.133952   0.000000   0.000000
 
 -0.4375000E+00  0.4375000E+00  0.1875000E+00  0.4687500E-01
    1        1.021942      2.348770   1.000000   1.000000
    2        2.155711      3.686200   1.000000   1.000000
    3        2.640701      4.381232   1.000000   0.987401
    4        3.649570      5.626801   1.000000   0.000000
    5        5.064193      7.156040   0.360819   0.000000
    6        7.542455      8.821079  -0.011762   0.000000
    7       13.139569     14.203303   0.000000   0.000000
    8       19.751278     20.429625   0.000000   0.000000
    9       21.835173     22.453456   0.000000   0.000000
   10       28.862323     29.362553   0.000000   0.000000
   11       33.044892     33.657766   0.000000   0.000000
   12       33.613423     34.253184   0.000000   0.000000
 
 -0.3125000E+00  0.4375000E+00  0.1875000E+00  0.4687500E-01
    1        1.301070      2.486101   1.000000   1.000000
    2        1.661103      3.360676   1.000000   1.000000
    3        2.900372      4.655469   1.000000   0.859183
    4        3.803868      5.721968   1.000000   0.000000
    5        4.674940      6.721485   1.065436   0.000000
    6        7.414337      8.814588  -0.015334   0.000000
    7       16.032240     16.949451   0.000000   0.000000
    8       16.534660     17.284492   0.000000   0.000000
    9       24.024747     24.686097   0.000000   0.000000
   10       25.366774     25.914078   0.000000   0.000000
   11       32.685120     33.286162   0.000000   0.000000
   12       35.360134     36.067731   0.000000   0.000000
 
 -0.4375000E+00 -0.4375000E+00  0.1875000E+00  0.4687500E-01
    1        1.307990      2.853240   1.000000   1.000000
    2        1.655686      3.194614   1.000000   1.000000
    3        2.714032      4.412613   1.000000   0.907163
    4        4.089964      6.048936   1.000000   0.000000
    5        4.888152      6.950069   0.781270   0.000000
    6       10.293670     11.333770   0.000000   0.000000
    7       12.325229     13.375534   0.000000   0.000000
    8       15.613015     16.394701   0.000000   0.000000
    9       24.007064     24.636082   0.000000   0.000000
   10       27.103676     27.638549   0.000000   0.000000
   11       30.114562     30.791036   0.000000   0.000000
   12       34.421981     35.126779   0.000000   0.000000
 
 -0.3125000E+00  0.3125000E+00  0.3125000E+00  0.1171875E-01
    1        1.100584      2.234498   1.000000   1.000000
    2        1.632393      3.411041   1.000000   1.000000
    3        3.661381      5.490815   1.000000   0.040266
    4        3.661381      5.490815   1.000000   0.000000
    5        4.317421      6.322868   1.165421   0.000000
    6        6.811323      8.249465  -0.022158   0.000000
    7       18.492239     19.196030   0.000000   0.000000
    8       18.492239     19.196030   0.000000   0.000000
    9       20.899137     21.807312   0.000000   0.000000
   10       22.685132     23.300664   0.000000   0.000000
   11       33.849853     34.561086   0.000000   0.000000
   12       38.673508     39.251786   0.000000   0.000000
 
 -0.4375000E+00  0.4375000E+00  0.3125000E+00  0.4687500E-01
    1        1.068847      2.580541   1.000000   1.000000
    2        1.196449      2.826020   1.000000   1.000000
    3        3.790560      5.653867   1.000000  -0.010097
    4        4.049529      5.924468   1.000000   0.000000
    5        4.961198      7.039883   0.317429   0.000000
    6        9.769497     10.755298   0.000000   0.000000
    7       14.297754     15.111640   0.000000   0.000000
    8       16.758448     17.383291   0.000000   0.000000
    9       21.002019     21.884166   0.000000   0.000000
   10       23.740752     24.424418   0.000000   0.000000
   11       29.272343     30.043260   0.000000   0.000000
   12       38.190830     38.730821   0.000000   0.000000
 
 -0.4375000E+00 -0.4375000E+00  0.3125000E+00  0.1562500E-01
    1        0.949210      2.548082   1.000000   1.000000
    2        0.949210      2.548082   1.000000   1.000000
    3        3.886878      5.732225   1.000000  -0.022982
    4        4.817288      6.852151   1.000000   0.000000
    5        4.817288      6.852151   1.100406   0.000000
    6       13.031835     13.813382   0.000000   0.000000
    7       13.031835     13.813382   0.000000   0.000000
    8       14.036895     14.712256   0.000000   0.000000
    9       22.441600     23.238592   0.000000   0.000000
   10       22.441600     23.238592   0.000000   0.000000
   11       26.718284     27.533695   0.000000   0.000000
   12       38.714232     39.242255   0.000000   0.000000
 
 -0.4375000E+00  0.4375000E+00  0.4375000E+00  0.1171875E-01
    1        0.708202      2.286789   1.000000   1.000000
    2        0.713697      2.334426   1.000000   1.000000
    3        4.779291      6.803112   1.000000  -0.011595
    4        4.779291      6.803112   1.000000   0.000000
    5        4.929176      7.008515   0.268738   0.000000
    6       12.432930     13.079500   0.000000   0.000000
    7       14.841824     15.337425   0.000000   0.000000
    8       14.841824     15.337425   0.000000   0.000000
    9       20.019496     21.106328   0.000000   0.000000
   10       21.100908     22.025091   0.000000   0.000000
   11       25.259482     26.096853   0.000000   0.000000
   12       41.907350     42.333397   0.000000   0.000000
