 running on    4 total cores
 distrk:  each k-point on    4 cores,    1 groups
 distr:  one band on    1 cores,    4 groups
 using from now: INCAR     
 vasp.5.4.1 24Jun15 (build Jul 19 2016 16:50:41) complex                        
  
 POSCAR found type information on POSCAR  Fe
 POSCAR found :  1 types and       1 ions
 LDA part: xc-table for Ceperly-Alder, standard interpolation
 POSCAR, INCAR and KPOINTS ok, starting setup
 WARNING: small aliasing (wrap around) errors must be expected
 FFT: planning ...
 WAVECAR not read
 entering main loop
       N       E                     dE             d eps       ncg     rms          rms(c)
DAV:   1     0.157707786684E+02    0.15771E+02   -0.36793E+03  1408   0.751E+02
DAV:   2    -0.910821679622E+01   -0.24879E+02   -0.22665E+02  1292   0.116E+02
DAV:   3    -0.977304327071E+01   -0.66483E+00   -0.66144E+00  1496   0.220E+01
DAV:   4    -0.977580724083E+01   -0.27640E-02   -0.27645E-02  1372   0.124E+00
DAV:   5    -0.977582662464E+01   -0.19384E-04   -0.19397E-04  1460   0.110E-01    0.120E+01
DAV:   6    -0.916481501417E+01    0.61101E+00   -0.11650E+01  1392   0.454E+01    0.633E+00
DAV:   7    -0.905819364375E+01    0.10662E+00   -0.92144E-01  1448   0.124E+01    0.348E+00
DAV:   8    -0.904807441517E+01    0.10119E-01   -0.62066E-03  1780   0.620E-01    0.104E+00
DAV:   9    -0.904142647029E+01    0.66479E-02   -0.96153E-03  1896   0.678E-01    0.220E-01
DAV:  10    -0.904094984602E+01    0.47662E-03   -0.54145E-04  1460   0.393E-01    0.395E-02
DAV:  11    -0.904097957243E+01   -0.29726E-04   -0.22774E-05  1468   0.418E-02    0.359E-02
DAV:  12    -0.904098369077E+01   -0.41183E-05   -0.58750E-07   888   0.777E-03    0.129E-02
DAV:  13    -0.904098161736E+01    0.20734E-05   -0.31453E-07   664   0.685E-03    0.167E-03
DAV:  14    -0.904098039818E+01    0.12192E-05   -0.47672E-08   656   0.258E-03    0.723E-04
DAV:  15    -0.904098051763E+01   -0.11945E-06   -0.75549E-09   640   0.631E-04
   1 F= -.90409805E+01 E0= -.90409805E+01  d E =0.000000E+00  mag=     2.2082
 writing wavefunctions
