PROCAR lm decomposed
# of k-points:   26         # of bands:  12         # of ions:   1

 k-point    1 :    0.06250000 0.06250000 0.06250000     weight = 0.01562500

band   1 # energy   -2.24330738 # occ.  1.00000000
 
ion      s     py     pz     px    dxy    dyz    dz2    dxz    dx2    tot
  1  0.614  0.019  0.019  0.019  0.002  0.002  0.000  0.002  0.000  0.678
 
band   2 # energy    2.62452209 # occ.  1.00000000
 
ion      s     py     pz     px    dxy    dyz    dz2    dxz    dx2    tot
  1  0.000  0.000  0.002  0.000  0.624  0.157  0.022  0.155  0.000  0.961
 
band   3 # energy    2.62452209 # occ.  1.00000000
 
ion      s     py     pz     px    dxy    dyz    dz2    dxz    dx2    tot
  1  0.000  0.001  0.000  0.001  0.000  0.467  0.000  0.469  0.022  0.961
 
band   4 # energy    3.35865273 # occ.  1.00000000
 
ion      s     py     pz     px    dxy    dyz    dz2    dxz    dx2    tot
  1  0.002  0.003  0.003  0.003  0.320  0.320  0.000  0.320  0.000  0.969
 
band   5 # energy    3.96161086 # occ.  1.00000000
 
ion      s     py     pz     px    dxy    dyz    dz2    dxz    dx2    tot
  1  0.000  0.000  0.000  0.000  0.000  0.011  0.016  0.013  0.927  0.967
 
band   6 # energy    3.96161086 # occ.  1.00299645
 
ion      s     py     pz     px    dxy    dyz    dz2    dxz    dx2    tot
  1  0.000  0.000  0.000  0.000  0.016  0.005  0.927  0.003  0.016  0.967
 
band   7 # energy   25.46410533 # occ.  0.00000000
 
ion      s     py     pz     px    dxy    dyz    dz2    dxz    dx2    tot
  1  0.000  0.054  0.044  0.019  0.097  0.042  0.094  0.120  0.074  0.543
 
band   8 # energy   25.46410533 # occ.  0.00000000
 
ion      s     py     pz     px    dxy    dyz    dz2    dxz    dx2    tot
  1  0.000  0.024  0.034  0.059  0.076  0.130  0.074  0.053  0.094  0.543
 
band   9 # energy   28.73379730 # occ.  0.00000000
 
ion      s     py     pz     px    dxy    dyz    dz2    dxz    dx2    tot
  1  0.079  0.171  0.171  0.171  0.129  0.129  0.000  0.129  0.000  0.979
 
band  10 # energy   29.99955157 # occ.  0.00000000
 
ion      s     py     pz     px    dxy    dyz    dz2    dxz    dx2    tot
  1  0.000  0.000  0.000  0.000  0.000  0.000  0.000  0.000  0.000  0.000
 
band  11 # energy   34.43599986 # occ.  0.00000000
 
ion      s     py     pz     px    dxy    dyz    dz2    dxz    dx2    tot
  1  0.000  0.050  0.190  0.138  0.023  0.017  0.010  0.006  0.003  0.438
 
band  12 # energy   34.43599987 # occ.  0.00000000
 
ion      s     py     pz     px    dxy    dyz    dz2    dxz    dx2    tot
  1  0.000  0.202  0.062  0.114  0.008  0.014  0.003  0.025  0.010  0.438
 

 k-point    2 :    0.18750000 0.06250000 0.06250000     weight = 0.04687500

band   1 # energy   -0.70434273 # occ.  1.00000000
 
ion      s     py     pz     px    dxy    dyz    dz2    dxz    dx2    tot
  1  0.481  0.058  0.058  0.017  0.007  0.058  0.003  0.007  0.009  0.697
 
band   2 # energy    2.24903067 # occ.  1.00000000
 
ion      s     py     pz     px    dxy    dyz    dz2    dxz    dx2    tot
  1  0.000  0.002  0.002  0.000  0.461  0.000  0.017  0.461  0.006  0.950
 
band   3 # energy    2.44350288 # occ.  1.00000000
 
ion      s     py     pz     px    dxy    dyz    dz2    dxz    dx2    tot
  1  0.010  0.016  0.016  0.002  0.090  0.559  0.036  0.090  0.107  0.926
 
band   4 # energy    3.89455960 # occ.  1.00000000
 
ion      s     py     pz     px    dxy    dyz    dz2    dxz    dx2    tot
  1  0.001  0.000  0.000  0.000  0.015  0.141  0.199  0.015  0.598  0.969
 
band   5 # energy    4.07247056 # occ.  1.00093895
 
ion      s     py     pz     px    dxy    dyz    dz2    dxz    dx2    tot
  1  0.000  0.000  0.000  0.000  0.013  0.000  0.710  0.013  0.237  0.973
 
band   6 # energy    4.29439676 # occ.  0.89249361
 
ion      s     py     pz     px    dxy    dyz    dz2    dxz    dx2    tot
  1  0.012  0.010  0.010  0.009  0.371  0.180  0.000  0.371  0.000  0.964
 
band   7 # energy   20.09559657 # occ.  0.00000000
 
ion      s     py     pz     px    dxy    dyz    dz2    dxz    dx2    tot
  1  0.065  0.119  0.119  0.020  0.007  0.280  0.030  0.007  0.091  0.740
 
band   8 # energy   23.16666602 # occ.  0.00000000
 
ion      s     py     pz     px    dxy    dyz    dz2    dxz    dx2    tot
  1  0.000  0.105  0.105  0.000  0.145  0.000  0.069  0.145  0.023  0.593
 
band   9 # energy   25.07385171 # occ.  0.00000000
 
ion      s     py     pz     px    dxy    dyz    dz2    dxz    dx2    tot
  1  0.122  0.052  0.052  0.389  0.097  0.001  0.009  0.097  0.028  0.847
 
band  10 # energy   30.21329099 # occ.  0.00000000
 
ion      s     py     pz     px    dxy    dyz    dz2    dxz    dx2    tot
  1  0.000  0.004  0.004  0.000  0.174  0.000  0.018  0.174  0.006  0.379
 
band  11 # energy   33.78543722 # occ.  0.00000000
 
ion      s     py     pz     px    dxy    dyz    dz2    dxz    dx2    tot
  1  0.037  0.053  0.053  0.155  0.054  0.057  0.104  0.054  0.311  0.879
 
band  12 # energy   35.12295502 # occ.  0.00000000
 
ion      s     py     pz     px    dxy    dyz    dz2    dxz    dx2    tot
  1  0.000  0.112  0.112  0.000  0.128  0.000  0.007  0.128  0.002  0.489
 

 k-point    3 :    0.31250000 0.06250000 0.06250000     weight = 0.04687500

band   1 # energy    0.50330879 # occ.  1.00000000
 
ion      s     py     pz     px    dxy    dyz    dz2    dxz    dx2    tot
  1  0.206  0.025  0.025  0.015  0.001  0.384  0.038  0.001  0.115  0.811
 
band   2 # energy    1.92498743 # occ.  1.00000000
 
ion      s     py     pz     px    dxy    dyz    dz2    dxz    dx2    tot
  1  0.000  0.003  0.003  0.000  0.465  0.000  0.006  0.465  0.002  0.943
 
band   3 # energy    3.11382042 # occ.  1.00000000
 
ion      s     py     pz     px    dxy    dyz    dz2    dxz    dx2    tot
  1  0.072  0.108  0.108  0.000  0.155  0.107  0.030  0.155  0.090  0.826
 
band   4 # energy    4.01382764 # occ.  1.00000000
 
ion      s     py     pz     px    dxy    dyz    dz2    dxz    dx2    tot
  1  0.002  0.001  0.001  0.000  0.015  0.279  0.166  0.015  0.497  0.976
 
band   5 # energy    4.16054003 # occ.  1.03276055
 
ion      s     py     pz     px    dxy    dyz    dz2    dxz    dx2    tot
  1  0.000  0.000  0.000  0.000  0.004  0.000  0.728  0.004  0.243  0.979
 
band   6 # energy    5.60196005 # occ.  0.01449552
 
ion      s     py     pz     px    dxy    dyz    dz2    dxz    dx2    tot
  1  0.045  0.054  0.054  0.008  0.320  0.114  0.001  0.320  0.003  0.918
 
band   7 # energy   14.76573835 # occ.  0.00000000
 
ion      s     py     pz     px    dxy    dyz    dz2    dxz    dx2    tot
  1  0.223  0.104  0.104  0.011  0.004  0.278  0.020  0.004  0.060  0.808
 
band   8 # energy   21.53136533 # occ.  0.00000000
 
ion      s     py     pz     px    dxy    dyz    dz2    dxz    dx2    tot
  1  0.000  0.130  0.130  0.000  0.135  0.000  0.019  0.135  0.006  0.556
 
band   9 # energy   22.85952583 # occ.  0.00000000
 
ion      s     py     pz     px    dxy    dyz    dz2    dxz    dx2    tot
  1  0.120  0.009  0.009  0.521  0.032  0.013  0.011  0.032  0.034  0.782
 
band  10 # energy   29.61224998 # occ.  0.00000000
 
ion      s     py     pz     px    dxy    dyz    dz2    dxz    dx2    tot
  1  0.000  0.007  0.007  0.000  0.347  0.000  0.006  0.347  0.002  0.717
 
band  11 # energy   33.12158999 # occ.  0.00000000
 
ion      s     py     pz     px    dxy    dyz    dz2    dxz    dx2    tot
  1  0.103  0.021  0.021  0.127  0.014  0.000  0.148  0.014  0.444  0.890
 
band  12 # energy   38.31893863 # occ.  0.00000000
 
ion      s     py     pz     px    dxy    dyz    dz2    dxz    dx2    tot
  1  0.001  0.104  0.089  0.000  0.060  0.005  0.142  0.052  0.047  0.500
 

 k-point    4 :    0.43750000 0.06250000 0.06250000     weight = 0.02343750

band   1 # energy    0.60556261 # occ.  1.00000000
 
ion      s     py     pz     px    dxy    dyz    dz2    dxz    dx2    tot
  1  0.114  0.000  0.000  0.014  0.000  0.492  0.060  0.000  0.179  0.858
 
band   2 # energy    1.80044833 # occ.  1.00000000
 
ion      s     py     pz     px    dxy    dyz    dz2    dxz    dx2    tot
  1  0.000  0.003  0.003  0.000  0.467  0.000  0.000  0.467  0.000  0.941
 
band   3 # energy    4.05280433 # occ.  1.00000000
 
ion      s     py     pz     px    dxy    dyz    dz2    dxz    dx2    tot
  1  0.000  0.127  0.127  0.000  0.296  0.000  0.000  0.296  0.000  0.846
 
band   4 # energy    4.07126386 # occ.  1.00000000
 
ion      s     py     pz     px    dxy    dyz    dz2    dxz    dx2    tot
  1  0.010  0.000  0.000  0.000  0.000  0.282  0.171  0.000  0.514  0.978
 
band   5 # energy    4.19672216 # occ.  1.07793336
 
ion      s     py     pz     px    dxy    dyz    dz2    dxz    dx2    tot
  1  0.000  0.000  0.000  0.000  0.000  0.000  0.737  0.000  0.246  0.982
 
band   6 # energy    6.91128799 # occ. -0.00530583
 
ion      s     py     pz     px    dxy    dyz    dz2    dxz    dx2    tot
  1  0.000  0.191  0.191  0.000  0.207  0.000  0.000  0.207  0.000  0.795
 
band   7 # energy   11.74564565 # occ.  0.00000000
 
ion      s     py     pz     px    dxy    dyz    dz2    dxz    dx2    tot
  1  0.416  0.000  0.000  0.015  0.000  0.362  0.020  0.000  0.061  0.874
 
band   8 # energy   20.93634600 # occ.  0.00000000
 
ion      s     py     pz     px    dxy    dyz    dz2    dxz    dx2    tot
  1  0.000  0.138  0.138  0.000  0.130  0.000  0.000  0.130  0.000  0.535
 
band   9 # energy   22.03130031 # occ.  0.00000000
 
ion      s     py     pz     px    dxy    dyz    dz2    dxz    dx2    tot
  1  0.118  0.000  0.000  0.570  0.000  0.022  0.011  0.000  0.032  0.753
 
band  10 # energy   29.36299183 # occ.  0.00000000
 
ion      s     py     pz     px    dxy    dyz    dz2    dxz    dx2    tot
  1  0.000  0.008  0.008  0.000  0.398  0.000  0.000  0.398  0.000  0.812
 
band  11 # energy   33.00885228 # occ.  0.00000000
 
ion      s     py     pz     px    dxy    dyz    dz2    dxz    dx2    tot
  1  0.139  0.000  0.000  0.118  0.000  0.013  0.166  0.000  0.498  0.934
 
band  12 # energy   38.40270703 # occ.  0.00000000
 
ion      s     py     pz     px    dxy    dyz    dz2    dxz    dx2    tot
  1  0.000  0.033  0.033  0.000  0.006  0.000  0.000  0.006  0.000  0.079
 

 k-point    5 :   -0.06250000 0.06250000 0.06250000     weight = 0.01171875

band   1 # energy   -2.83070923 # occ.  1.00000000
 
ion      s     py     pz     px    dxy    dyz    dz2    dxz    dx2    tot
  1  0.655  0.000  0.000  0.020  0.000  0.000  0.000  0.000  0.000  0.676
 
band   2 # energy    2.80914309 # occ.  1.00000000
 
ion      s     py     pz     px    dxy    dyz    dz2    dxz    dx2    tot
  1  0.000  0.001  0.001  0.000  0.483  0.000  0.000  0.483  0.000  0.968
 
band   3 # energy    2.80914325 # occ.  1.00000000
 
ion      s     py     pz     px    dxy    dyz    dz2    dxz    dx2    tot
  1  0.000  0.001  0.001  0.000  0.483  0.000  0.000  0.483  0.000  0.968
 
band   4 # energy    2.89033037 # occ.  1.00000000
 
ion      s     py     pz     px    dxy    dyz    dz2    dxz    dx2    tot
  1  0.000  0.000  0.000  0.000  0.000  0.970  0.000  0.000  0.000  0.970
 
band   5 # energy    3.89510761 # occ.  1.00000000
 
ion      s     py     pz     px    dxy    dyz    dz2    dxz    dx2    tot
  1  0.000  0.000  0.000  0.000  0.000  0.000  0.722  0.000  0.241  0.963
 
band   6 # energy    4.07583948 # occ.  1.00000000
 
ion      s     py     pz     px    dxy    dyz    dz2    dxz    dx2    tot
  1  0.000  0.000  0.000  0.000  0.000  0.000  0.243  0.000  0.728  0.971
 
band   7 # energy   27.45244395 # occ.  0.00000000
 
ion      s     py     pz     px    dxy    dyz    dz2    dxz    dx2    tot
  1  0.000  0.000  0.000  0.000  0.000  0.000  0.186  0.000  0.062  0.248
 
band   8 # energy   28.69423089 # occ.  0.00000000
 
ion      s     py     pz     px    dxy    dyz    dz2    dxz    dx2    tot
  1  0.000  0.017  0.017  0.000  0.134  0.000  0.000  0.133  0.000  0.302
 
band   9 # energy   28.69423089 # occ.  0.00000000
 
ion      s     py     pz     px    dxy    dyz    dz2    dxz    dx2    tot
  1  0.000  0.017  0.017  0.000  0.133  0.000  0.000  0.134  0.000  0.302
 
band  10 # energy   31.43573351 # occ.  0.00000000
 
ion      s     py     pz     px    dxy    dyz    dz2    dxz    dx2    tot
  1  0.021  0.000  0.000  0.333  0.000  0.000  0.063  0.000  0.190  0.608
 
band  11 # energy   33.27666772 # occ.  0.00000000
 
ion      s     py     pz     px    dxy    dyz    dz2    dxz    dx2    tot
  1  0.000  0.236  0.228  0.000  0.205  0.000  0.000  0.198  0.000  0.868
 
band  12 # energy   33.27666776 # occ.  0.00000000
 
ion      s     py     pz     px    dxy    dyz    dz2    dxz    dx2    tot
  1  0.000  0.228  0.236  0.000  0.198  0.000  0.000  0.205  0.000  0.868
 

 k-point    6 :    0.18750000 0.18750000 0.06250000     weight = 0.04687500

band   1 # energy    0.76237556 # occ.  1.00000000
 
ion      s     py     pz     px    dxy    dyz    dz2    dxz    dx2    tot
  1  0.280  0.041  0.069  0.041  0.000  0.144  0.040  0.144  0.000  0.761
 
band   2 # energy    1.99612344 # occ.  1.00000000
 
ion      s     py     pz     px    dxy    dyz    dz2    dxz    dx2    tot
  1  0.000  0.018  0.000  0.018  0.000  0.348  0.000  0.348  0.185  0.917
 
band   3 # energy    2.15569478 # occ.  1.00000000
 
ion      s     py     pz     px    dxy    dyz    dz2    dxz    dx2    tot
  1  0.023  0.003  0.053  0.003  0.653  0.085  0.008  0.085  0.000  0.912
 
band   4 # energy    3.96594517 # occ.  1.00000000
 
ion      s     py     pz     px    dxy    dyz    dz2    dxz    dx2    tot
  1  0.000  0.001  0.000  0.001  0.000  0.104  0.000  0.104  0.763  0.973
 
band   5 # energy    4.18574115 # occ.  1.00076822
 
ion      s     py     pz     px    dxy    dyz    dz2    dxz    dx2    tot
  1  0.004  0.000  0.000  0.000  0.000  0.032  0.910  0.032  0.000  0.979
 
band   6 # energy    5.79047116 # occ. -0.00481438
 
ion      s     py     pz     px    dxy    dyz    dz2    dxz    dx2    tot
  1  0.062  0.026  0.049  0.026  0.304  0.219  0.019  0.219  0.000  0.924
 
band   7 # energy   17.70413452 # occ.  0.00000000
 
ion      s     py     pz     px    dxy    dyz    dz2    dxz    dx2    tot
  1  0.000  0.160  0.000  0.160  0.000  0.159  0.000  0.159  0.115  0.752
 
band   8 # energy   18.36490354 # occ.  0.00000000
 
ion      s     py     pz     px    dxy    dyz    dz2    dxz    dx2    tot
  1  0.222  0.018  0.244  0.018  0.062  0.084  0.013  0.084  0.000  0.747
 
band   9 # energy   22.08938997 # occ.  0.00000000
 
ion      s     py     pz     px    dxy    dyz    dz2    dxz    dx2    tot
  1  0.126  0.192  0.012  0.192  0.165  0.009  0.028  0.009  0.000  0.733
 
band  10 # energy   32.05788777 # occ.  0.00000000
 
ion      s     py     pz     px    dxy    dyz    dz2    dxz    dx2    tot
  1  0.000  0.014  0.000  0.014  0.000  0.085  0.000  0.085  0.148  0.347
 
band  11 # energy   35.39028776 # occ.  0.00000000
 
ion      s     py     pz     px    dxy    dyz    dz2    dxz    dx2    tot
  1  0.022  0.025  0.036  0.025  0.362  0.158  0.016  0.158  0.000  0.800
 
band  12 # energy   37.67584463 # occ.  0.00000000
 
ion      s     py     pz     px    dxy    dyz    dz2    dxz    dx2    tot
  1  0.000  0.091  0.000  0.091  0.000  0.018  0.000  0.018  0.396  0.613
 

 k-point    7 :    0.31250000 0.18750000 0.06250000     weight = 0.09375000

band   1 # energy    1.18336450 # occ.  1.00000000
 
ion      s     py     pz     px    dxy    dyz    dz2    dxz    dx2    tot
  1  0.082  0.002  0.006  0.041  0.027  0.525  0.054  0.041  0.091  0.870
 
band   2 # energy    1.83366210 # occ.  1.00000000
 
ion      s     py     pz     px    dxy    dyz    dz2    dxz    dx2    tot
  1  0.000  0.019  0.008  0.010  0.322  0.024  0.000  0.470  0.066  0.921
 
band   3 # energy    2.73775817 # occ.  1.00000000
 
ion      s     py     pz     px    dxy    dyz    dz2    dxz    dx2    tot
  1  0.018  0.075  0.105  0.000  0.373  0.012  0.069  0.146  0.058  0.858
 
band   4 # energy    4.09038865 # occ.  1.00000000
 
ion      s     py     pz     px    dxy    dyz    dz2    dxz    dx2    tot
  1  0.002  0.001  0.000  0.001  0.000  0.204  0.053  0.044  0.671  0.978
 
band   5 # energy    4.26789304 # occ.  1.00965137
 
ion      s     py     pz     px    dxy    dyz    dz2    dxz    dx2    tot
  1  0.003  0.003  0.004  0.000  0.050  0.012  0.776  0.074  0.057  0.980
 
band   6 # energy    8.10212658 # occ. -0.00378222
 
ion      s     py     pz     px    dxy    dyz    dz2    dxz    dx2    tot
  1  0.073  0.107  0.160  0.017  0.188  0.083  0.031  0.172  0.000  0.831
 
band   7 # energy   13.15254214 # occ.  0.00000000
 
ion      s     py     pz     px    dxy    dyz    dz2    dxz    dx2    tot
  1  0.252  0.111  0.031  0.059  0.014  0.267  0.004  0.017  0.055  0.810
 
band   8 # energy   16.88189600 # occ.  0.00000000
 
ion      s     py     pz     px    dxy    dyz    dz2    dxz    dx2    tot
  1  0.175  0.047  0.094  0.163  0.078  0.004  0.001  0.150  0.027  0.739
 
band   9 # energy   20.88824066 # occ.  0.00000000
 
ion      s     py     pz     px    dxy    dyz    dz2    dxz    dx2    tot
  1  0.116  0.111  0.059  0.224  0.109  0.038  0.008  0.046  0.003  0.714
 
band  10 # energy   32.34353982 # occ.  0.00000000
 
ion      s     py     pz     px    dxy    dyz    dz2    dxz    dx2    tot
  1  0.008  0.001  0.002  0.029  0.130  0.005  0.014  0.201  0.145  0.534
 
band  11 # energy   36.48286469 # occ.  0.00000000
 
ion      s     py     pz     px    dxy    dyz    dz2    dxz    dx2    tot
  1  0.003  0.064  0.000  0.000  0.155  0.060  0.085  0.011  0.121  0.502
 
band  12 # energy   38.20934346 # occ.  0.00000000
 
ion      s     py     pz     px    dxy    dyz    dz2    dxz    dx2    tot
  1  0.046  0.006  0.005  0.117  0.060  0.001  0.240  0.036  0.281  0.792
 

 k-point    8 :   -0.18750000 0.18750000 0.06250000     weight = 0.04687500

band   1 # energy   -1.69098717 # occ.  1.00000000
 
ion      s     py     pz     px    dxy    dyz    dz2    dxz    dx2    tot
  1  0.570  0.017  0.000  0.072  0.012  0.000  0.005  0.000  0.004  0.681
 
band   2 # energy    2.56471639 # occ.  1.00000000
 
ion      s     py     pz     px    dxy    dyz    dz2    dxz    dx2    tot
  1  0.000  0.000  0.002  0.000  0.000  0.372  0.000  0.587  0.000  0.960
 
band   3 # energy    2.74774704 # occ.  1.00000000
 
ion      s     py     pz     px    dxy    dyz    dz2    dxz    dx2    tot
  1  0.004  0.011  0.000  0.006  0.822  0.000  0.095  0.000  0.010  0.947
 
band   4 # energy    3.45751249 # occ.  1.00000000
 
ion      s     py     pz     px    dxy    dyz    dz2    dxz    dx2    tot
  1  0.000  0.000  0.006  0.000  0.000  0.595  0.000  0.369  0.000  0.970
 
band   5 # energy    3.66766898 # occ.  1.00000000
 
ion      s     py     pz     px    dxy    dyz    dz2    dxz    dx2    tot
  1  0.000  0.000  0.000  0.000  0.111  0.000  0.667  0.000  0.179  0.957
 
band   6 # energy    4.16362683 # occ.  1.00966552
 
ion      s     py     pz     px    dxy    dyz    dz2    dxz    dx2    tot
  1  0.005  0.000  0.000  0.001  0.004  0.000  0.186  0.000  0.778  0.974
 
band   7 # energy   22.92383195 # occ.  0.00000000
 
ion      s     py     pz     px    dxy    dyz    dz2    dxz    dx2    tot
  1  0.030  0.131  0.000  0.062  0.268  0.000  0.176  0.000  0.013  0.680
 
band   8 # energy   26.27435411 # occ.  0.00000000
 
ion      s     py     pz     px    dxy    dyz    dz2    dxz    dx2    tot
  1  0.027  0.001  0.000  0.148  0.041  0.000  0.051  0.000  0.135  0.403
 
band   9 # energy   26.95285658 # occ.  0.00000000
 
ion      s     py     pz     px    dxy    dyz    dz2    dxz    dx2    tot
  1  0.000  0.000  0.235  0.000  0.000  0.016  0.000  0.553  0.000  0.804
 
band  10 # energy   30.81311113 # occ.  0.00000000
 
ion      s     py     pz     px    dxy    dyz    dz2    dxz    dx2    tot
  1  0.000  0.272  0.000  0.073  0.203  0.000  0.126  0.000  0.001  0.676
 
band  11 # energy   30.90507731 # occ.  0.00000000
 
ion      s     py     pz     px    dxy    dyz    dz2    dxz    dx2    tot
  1  0.000  0.000  0.326  0.000  0.000  0.459  0.000  0.000  0.000  0.786
 
band  12 # energy   32.47132276 # occ.  0.00000000
 
ion      s     py     pz     px    dxy    dyz    dz2    dxz    dx2    tot
  1  0.095  0.105  0.000  0.127  0.002  0.000  0.085  0.000  0.009  0.423
 

 k-point    9 :    0.31250000 0.31250000 0.06250000     weight = 0.01562500

band   1 # energy    1.49126343 # occ.  1.00000000
 
ion      s     py     pz     px    dxy    dyz    dz2    dxz    dx2    tot
  1  0.037  0.006  0.006  0.006  0.286  0.286  0.000  0.286  0.000  0.913
 
band   2 # energy    2.15935730 # occ.  1.00000000
 
ion      s     py     pz     px    dxy    dyz    dz2    dxz    dx2    tot
  1  0.000  0.021  0.084  0.021  0.366  0.092  0.203  0.092  0.000  0.878
 
band   3 # energy    2.15935740 # occ.  1.00000000
 
ion      s     py     pz     px    dxy    dyz    dz2    dxz    dx2    tot
  1  0.000  0.063  0.000  0.063  0.000  0.275  0.000  0.275  0.203  0.878
 
band   4 # energy    4.21744082 # occ.  1.00000000
 
ion      s     py     pz     px    dxy    dyz    dz2    dxz    dx2    tot
  1  0.000  0.001  0.004  0.001  0.154  0.039  0.743  0.039  0.000  0.980
 
band   5 # energy    4.21744089 # occ.  1.00000000
 
ion      s     py     pz     px    dxy    dyz    dz2    dxz    dx2    tot
  1  0.000  0.003  0.000  0.003  0.000  0.116  0.000  0.116  0.743  0.980
 
band   6 # energy   11.47440283 # occ.  0.00000000
 
ion      s     py     pz     px    dxy    dyz    dz2    dxz    dx2    tot
  1  0.000  0.068  0.273  0.068  0.212  0.053  0.057  0.053  0.000  0.785
 
band   7 # energy   11.47440287 # occ.  0.00000000
 
ion      s     py     pz     px    dxy    dyz    dz2    dxz    dx2    tot
  1  0.000  0.204  0.000  0.204  0.000  0.159  0.000  0.159  0.057  0.785
 
band   8 # energy   13.68319527 # occ.  0.00000000
 
ion      s     py     pz     px    dxy    dyz    dz2    dxz    dx2    tot
  1  0.585  0.001  0.001  0.001  0.071  0.071  0.000  0.071  0.000  0.802
 
band   9 # energy   20.44276466 # occ.  0.00000000
 
ion      s     py     pz     px    dxy    dyz    dz2    dxz    dx2    tot
  1  0.117  0.126  0.126  0.126  0.078  0.078  0.000  0.078  0.000  0.730
 
band  10 # energy   34.70733291 # occ.  0.00000000
 
ion      s     py     pz     px    dxy    dyz    dz2    dxz    dx2    tot
  1  0.000  0.024  0.000  0.024  0.000  0.043  0.000  0.043  0.284  0.419
 
band  11 # energy   34.70733291 # occ.  0.00000000
 
ion      s     py     pz     px    dxy    dyz    dz2    dxz    dx2    tot
  1  0.000  0.008  0.032  0.008  0.058  0.014  0.284  0.014  0.000  0.419
 
band  12 # energy   41.24727909 # occ.  0.00000000
 
ion      s     py     pz     px    dxy    dyz    dz2    dxz    dx2    tot
  1  0.030  0.056  0.056  0.056  0.346  0.346  0.000  0.346  0.000  1.236
 

 k-point   10 :   -0.31250000 0.31250000 0.06250000     weight = 0.04687500

band   1 # energy   -0.05992694 # occ.  1.00000000
 
ion      s     py     pz     px    dxy    dyz    dz2    dxz    dx2    tot
  1  0.356  0.028  0.000  0.088  0.179  0.000  0.080  0.000  0.010  0.741
 
band   2 # energy    2.20029199 # occ.  1.00000000
 
ion      s     py     pz     px    dxy    dyz    dz2    dxz    dx2    tot
  1  0.000  0.000  0.002  0.000  0.000  0.429  0.000  0.519  0.000  0.951
 
band   3 # energy    2.79238333 # occ.  1.00000000
 
ion      s     py     pz     px    dxy    dyz    dz2    dxz    dx2    tot
  1  0.050  0.058  0.000  0.062  0.304  0.000  0.263  0.000  0.127  0.865
 
band   4 # energy    3.83020570 # occ.  1.00000000
 
ion      s     py     pz     px    dxy    dyz    dz2    dxz    dx2    tot
  1  0.001  0.008  0.000  0.008  0.425  0.000  0.495  0.000  0.028  0.965
 
band   5 # energy    4.31803282 # occ.  1.01708654
 
ion      s     py     pz     px    dxy    dyz    dz2    dxz    dx2    tot
  1  0.027  0.007  0.000  0.014  0.004  0.000  0.102  0.000  0.810  0.964
 
band   6 # energy    4.38919009 # occ.  0.72230513
 
ion      s     py     pz     px    dxy    dyz    dz2    dxz    dx2    tot
  1  0.000  0.000  0.008  0.000  0.000  0.537  0.000  0.433  0.000  0.977
 
band   7 # energy   17.25019391 # occ.  0.00000000
 
ion      s     py     pz     px    dxy    dyz    dz2    dxz    dx2    tot
  1  0.143  0.168  0.000  0.092  0.276  0.000  0.103  0.000  0.006  0.789
 
band   8 # energy   23.96279353 # occ.  0.00000000
 
ion      s     py     pz     px    dxy    dyz    dz2    dxz    dx2    tot
  1  0.028  0.060  0.000  0.148  0.002  0.000  0.068  0.000  0.062  0.369
 
band   9 # energy   24.75401377 # occ.  0.00000000
 
ion      s     py     pz     px    dxy    dyz    dz2    dxz    dx2    tot
  1  0.000  0.000  0.482  0.000  0.000  0.010  0.000  0.384  0.000  0.876
 
band  10 # energy   29.19260881 # occ.  0.00000000
 
ion      s     py     pz     px    dxy    dyz    dz2    dxz    dx2    tot
  1  0.000  0.000  0.173  0.000  0.000  0.564  0.000  0.176  0.000  0.913
 
band  11 # energy   30.95408850 # occ.  0.00000000
 
ion      s     py     pz     px    dxy    dyz    dz2    dxz    dx2    tot
  1  0.082  0.225  0.000  0.000  0.011  0.000  0.442  0.000  0.004  0.763
 
band  12 # energy   33.85286802 # occ.  0.00000000
 
ion      s     py     pz     px    dxy    dyz    dz2    dxz    dx2    tot
  1  0.107  0.021  0.000  0.069  0.189  0.000  0.024  0.000  0.112  0.522
 

 k-point   11 :   -0.18750000 0.31250000 0.06250000     weight = 0.04687500

band   1 # energy   -0.27687562 # occ.  1.00000000
 
ion      s     py     pz     px    dxy    dyz    dz2    dxz    dx2    tot
  1  0.425  0.012  0.012  0.128  0.035  0.000  0.015  0.035  0.044  0.706
 
band   2 # energy    2.38927611 # occ.  1.00000000
 
ion      s     py     pz     px    dxy    dyz    dz2    dxz    dx2    tot
  1  0.000  0.010  0.010  0.000  0.291  0.000  0.242  0.291  0.081  0.925
 
band   3 # energy    2.54903591 # occ.  1.00000000
 
ion      s     py     pz     px    dxy    dyz    dz2    dxz    dx2    tot
  1  0.008  0.004  0.004  0.017  0.223  0.464  0.000  0.223  0.000  0.942
 
band   4 # energy    3.53726330 # occ.  1.00000000
 
ion      s     py     pz     px    dxy    dyz    dz2    dxz    dx2    tot
  1  0.000  0.001  0.001  0.000  0.174  0.000  0.456  0.174  0.152  0.958
 
band   5 # energy    4.15073719 # occ.  1.00181048
 
ion      s     py     pz     px    dxy    dyz    dz2    dxz    dx2    tot
  1  0.000  0.004  0.004  0.001  0.173  0.371  0.063  0.173  0.188  0.975
 
band   6 # energy    4.48270546 # occ.  0.76183385
 
ion      s     py     pz     px    dxy    dyz    dz2    dxz    dx2    tot
  1  0.041  0.005  0.005  0.019  0.041  0.133  0.169  0.041  0.506  0.959
 
band   7 # energy   20.21027478 # occ.  0.00000000
 
ion      s     py     pz     px    dxy    dyz    dz2    dxz    dx2    tot
  1  0.000  0.129  0.129  0.000  0.131  0.000  0.169  0.131  0.056  0.745
 
band   8 # energy   21.02543727 # occ.  0.00000000
 
ion      s     py     pz     px    dxy    dyz    dz2    dxz    dx2    tot
  1  0.149  0.070  0.070  0.174  0.132  0.015  0.001  0.132  0.003  0.745
 
band   9 # energy   27.49575554 # occ.  0.00000000
 
ion      s     py     pz     px    dxy    dyz    dz2    dxz    dx2    tot
  1  0.000  0.057  0.057  0.000  0.120  0.000  0.195  0.120  0.065  0.615
 
band  10 # energy   27.52041150 # occ.  0.00000000
 
ion      s     py     pz     px    dxy    dyz    dz2    dxz    dx2    tot
  1  0.000  0.220  0.220  0.067  0.013  0.086  0.003  0.013  0.009  0.633
 
band  11 # energy   31.21660844 # occ.  0.00000000
 
ion      s     py     pz     px    dxy    dyz    dz2    dxz    dx2    tot
  1  0.100  0.001  0.001  0.064  0.124  0.324  0.013  0.124  0.038  0.791
 
band  12 # energy   35.69034015 # occ.  0.00000000
 
ion      s     py     pz     px    dxy    dyz    dz2    dxz    dx2    tot
  1  0.000  0.143  0.143  0.000  0.007  0.000  0.094  0.007  0.031  0.425
 

 k-point   12 :   -0.43750000 0.43750000 0.06250000     weight = 0.04687500

band   1 # energy    0.48384472 # occ.  1.00000000
 
ion      s     py     pz     px    dxy    dyz    dz2    dxz    dx2    tot
  1  0.140  0.001  0.000  0.016  0.429  0.000  0.258  0.000  0.001  0.845
 
band   2 # energy    1.95271020 # occ.  1.00000000
 
ion      s     py     pz     px    dxy    dyz    dz2    dxz    dx2    tot
  1  0.000  0.000  0.002  0.000  0.000  0.458  0.000  0.485  0.000  0.946
 
band   3 # energy    3.54106293 # occ.  1.00000000
 
ion      s     py     pz     px    dxy    dyz    dz2    dxz    dx2    tot
  1  0.017  0.062  0.000  0.068  0.001  0.000  0.104  0.000  0.634  0.886
 
band   4 # energy    3.98860758 # occ.  1.00000000
 
ion      s     py     pz     px    dxy    dyz    dz2    dxz    dx2    tot
  1  0.007  0.005  0.000  0.004  0.330  0.000  0.550  0.000  0.076  0.971
 
band   5 # energy    5.13881866 # occ.  0.48023703
 
ion      s     py     pz     px    dxy    dyz    dz2    dxz    dx2    tot
  1  0.000  0.000  0.002  0.000  0.000  0.510  0.000  0.477  0.000  0.989
 
band   6 # energy    5.51852182 # occ.  0.00337168
 
ion      s     py     pz     px    dxy    dyz    dz2    dxz    dx2    tot
  1  0.052  0.175  0.000  0.211  0.063  0.000  0.009  0.000  0.272  0.782
 
band   7 # energy   12.62891861 # occ.  0.00000000
 
ion      s     py     pz     px    dxy    dyz    dz2    dxz    dx2    tot
  1  0.341  0.080  0.000  0.023  0.319  0.000  0.087  0.000  0.003  0.853
 
band   8 # energy   22.65077096 # occ.  0.00000000
 
ion      s     py     pz     px    dxy    dyz    dz2    dxz    dx2    tot
  1  0.026  0.107  0.000  0.133  0.001  0.000  0.066  0.000  0.007  0.339
 
band   9 # energy   23.16881157 # occ.  0.00000000
 
ion      s     py     pz     px    dxy    dyz    dz2    dxz    dx2    tot
  1  0.000  0.000  0.612  0.000  0.000  0.038  0.000  0.154  0.000  0.804
 
band  10 # energy   28.51668171 # occ.  0.00000000
 
ion      s     py     pz     px    dxy    dyz    dz2    dxz    dx2    tot
  1  0.000  0.000  0.110  0.000  0.000  0.525  0.000  0.400  0.000  1.035
 
band  11 # energy   31.17010695 # occ.  0.00000000
 
ion      s     py     pz     px    dxy    dyz    dz2    dxz    dx2    tot