<?xml version="1.0" encoding="ISO-8859-1"?>
<modeling>
 <generator>
  <i name="program" type="string">vasp </i>
  <i name="version" type="string">5.4.1  </i>
  <i name="subversion" type="string">24Jun15 (build Jul 19 2016 16:50:41) complex                          parallel </i>
  <i name="platform" type="string">IFC91_ompi </i>
  <i name="date" type="string">2019 10 17 </i>
  <i name="time" type="string">12:23:57 </i>
 </generator>
 <incar>
  <i type="string" name="SYSTEM"> Fe BCC</i>
  <i type="string" name="PREC">accurate</i>
  <i type="int" name="ISPIN">     2</i>
  <i name="EDIFF">      0.00000100</i>
  <i name="ENMAX">    400.00000000</i>
  <v name="MAGMOM">      4.00000000</v>
  <i type="int" name="ISMEAR">    -5</i>
  <i type="logical" name="LORBIT"> F  </i>
  <v type="int" name="KPOINT_BSE">    -1     0     0     0</v>
 </incar>
 <kpoints>
  <generation param="Monkhorst-Pack">
   <v type="int" name="divisions">       8        8        8 </v>
   <v name="usershift">      0.00000000       0.00000000       0.00000000 </v>
   <v name="genvec1">      0.12500000       0.00000000       0.00000000 </v>
   <v name="genvec2">      0.00000000       0.12500000       0.00000000 </v>
   <v name="genvec3">      0.00000000       0.00000000       0.12500000 </v>
   <v name="shift">      0.50000000       0.50000000       0.50000000 </v>
  </generation>
  <varray name="kpointlist" >
   <v>       0.06250000       0.06250000       0.06250000 </v>
   <v>       0.18750000       0.06250000       0.06250000 </v>
   <v>       0.31250000       0.06250000       0.06250000 </v>
   <v>       0.43750000       0.06250000       0.06250000 </v>
   <v>      -0.06250000       0.06250000       0.06250000 </v>
   <v>       0.18750000       0.18750000       0.06250000 </v>
   <v>       0.31250000       0.18750000       0.06250000 </v>
   <v>      -0.18750000       0.18750000       0.06250000 </v>
   <v>       0.31250000       0.31250000       0.06250000 </v>
   <v>      -0.31250000       0.31250000       0.06250000 </v>
   <v>      -0.18750000       0.31250000       0.06250000 </v>
   <v>      -0.43750000       0.43750000       0.06250000 </v>
   <v>      -0.31250000       0.43750000       0.06250000 </v>
   <v>      -0.43750000      -0.43750000       0.06250000 </v>
   <v>      -0.31250000      -0.43750000       0.06250000 </v>
   <v>       0.18750000       0.18750000       0.18750000 </v>
   <v>       0.31250000       0.18750000       0.18750000 </v>
   <v>      -0.18750000       0.18750000       0.18750000 </v>
   <v>      -0.31250000       0.31250000       0.18750000 </v>
   <v>      -0.43750000       0.43750000       0.18750000 </v>
   <v>      -0.31250000       0.43750000       0.18750000 </v>
   <v>      -0.43750000      -0.43750000       0.18750000 </v>
   <v>      -0.31250000       0.31250000       0.31250000 </v>
   <v>      -0.43750000       0.43750000       0.31250000 </v>
   <v>      -0.43750000      -0.43750000       0.31250000 </v>
   <v>      -0.43750000       0.43750000       0.43750000 </v>
  </varray>
  <varray name="weights" >
   <v>       0.01562500 </v>
   <v>       0.04687500 </v>
   <v>       0.04687500 </v>
   <v>       0.02343750 </v>
   <v>       0.01171875 </v>
   <v>       0.04687500 </v>
   <v>       0.09375000 </v>
   <v>       0.04687500 </v>
   <v>       0.01562500 </v>
   <v>       0.04687500 </v>
   <v>       0.04687500 </v>
   <v>       0.04687500 </v>
   <v>       0.09375000 </v>
   <v>       0.04687500 </v>
   <v>       0.04687500 </v>
   <v>       0.01562500 </v>
   <v>       0.02343750 </v>
   <v>       0.01171875 </v>
   <v>       0.04687500 </v>
   <v>       0.04687500 </v>
   <v>       0.04687500 </v>
   <v>       0.04687500 </v>
   <v>       0.01171875 </v>
   <v>       0.04687500 </v>
   <v>       0.01562500 </v>
   <v>       0.01171875 </v>
  </varray>
  <varray name="tetrahedronlist"  type="int" >
   <v type="int" >        4        1        2        2        6 </v>
   <v type="int" >        8        2        2        6        6 </v>
   <v type="int" >        4        2        6        6       16 </v>
   <v type="int" >        4        2        3        6        7 </v>
   <v type="int" >        4        2        6        6        7 </v>
   <v type="int" >       12        6        6        7       16 </v>
   <v type="int" >        8        3        6        7        7 </v>
   <v type="int" >        8        6        7        7       17 </v>
   <v type="int" >        8        6        7       16       17 </v>
   <v type="int" >        4        3        4        7        7 </v>
   <v type="int" >        4        3        7        7        7 </v>
   <v type="int" >       16        7        7        7       17 </v>
   <v type="int" >        8        4        7        7        7 </v>
   <v type="int" >        4        7        7        7       16 </v>
   <v type="int" >       20        7        7       16       17 </v>
   <v type="int" >        4        3        4        6        7 </v>
   <v type="int" >        4        4        6        7        7 </v>
   <v type="int" >       16        6        7        7       16 </v>
   <v type="int" >        8        3        6        6        7 </v>
   <v type="int" >        4        6        6        6        7 </v>
   <v type="int" >        4        2        2        3        6 </v>
   <v type="int" >        8        2        3        6        6 </v>
   <v type="int" >        4        2        6        6        6 </v>
   <v type="int" >        4        2        2        2        6 </v>
   <v type="int" >        8        2        2        6       11 </v>
   <v type="int" >        4        2        6        6       11 </v>
   <v type="int" >       16        1        2        2        8 </v>
   <v type="int" >        4        2        2        2        8 </v>
   <v type="int" >       12        2        2        8       11 </v>
   <v type="int" >       16        1        2        8        8 </v>
   <v type="int" >        4        2        8        8       18 </v>
   <v type="int" >        4        2        8       11       18 </v>
   <v type="int" >       20        1        5        8        8 </v>
   <v type="int" >        4        1        8        8        8 </v>
   <v type="int" >        4        8        8        8       18 </v>
   <v type="int" >        8        5        8        8        8 </v>
   <v type="int" >        4        8        8        8       11 </v>
   <v type="int" >        4        8        8       11       18 </v>
   <v type="int" >        8        1        2        5        8 </v>
   <v type="int" >        8        2        5        8        8 </v>
   <v type="int" >        8        2        8        8       11 </v>
   <v type="int" >        4        2        2        6        8 </v>
   <v type="int" >        4        2        6        8       11 </v>
   <v type="int" >        4        6        7        9       16 </v>
   <v type="int" >       16        7        9       16       17 </v>
   <v type="int" >       12        9       16       17       17 </v>
   <v type="int" >       20        7        7        9       17 </v>
   <v type="int" >       12        7        9       17       17 </v>
   <v type="int" >        8        7        7       17       17 </v>
   <v type="int" >       12        3        6        7       16 </v>
   <v type="int" >        8        3        7        7       16 </v>
   <v type="int" >        8        3        6        6       16 </v>
   <v type="int" >        4        3        6       13       16 </v>
   <v type="int" >        4        3        7       13       16 </v>
   <v type="int" >        4        2        6        6       10 </v>
   <v type="int" >        4        3        6        6       10 </v>
   <v type="int" >        8        3        6       10       13 </v>
   <v type="int" >       12        2        6       10       11 </v>
   <v type="int" >        4        6       10       11       19 </v>
   <v type="int" >        4        6       10       13       19 </v>
   <v type="int" >        4        2        8       11       11 </v>
   <v type="int" >        4        2       10       11       11 </v>
   <v type="int" >        4       10       11       11       19 </v>
   <v type="int" >        8        8       11       11       18 </v>
   <v type="int" >        8       11       11       18       19 </v>
   <v type="int" >        4       11       11       19       19 </v>
   <v type="int" >        4        8        8       10       18 </v>
   <v type="int" >       12        8       10       11       18 </v>
   <v type="int" >       12       10       11       18       19 </v>
   <v type="int" >        4       10       11       13       18 </v>
   <v type="int" >        4       10       13       18       19 </v>
   <v type="int" >        4        2        3        8       11 </v>
   <v type="int" >        4        3        8       10       11 </v>
   <v type="int" >        8        3       10       11       13 </v>
   <v type="int" >       16        2        3        6       11 </v>
   <v type="int" >        4        3        6        7       11 </v>
   <v type="int" >        4        3        7       11       13 </v>
   <v type="int" >        4        4        7        9       17 </v>
   <v type="int" >        8        4        7        7       17 </v>
   <v type="int" >        4        4        7       14       17 </v>
   <v type="int" >        4        3        7        7       12 </v>
   <v type="int" >        8        4        7        7       12 </v>
   <v type="int" >        8        4        7       12       14 </v>
   <v type="int" >        8        3        7       12       13 </v>
   <v type="int" >        4        7       12       13       20 </v>
   <v type="int" >        4        7       12       14       20 </v>
   <v type="int" >        4        3       10       13       13 </v>
   <v type="int" >        4        3       12       13       13 </v>
   <v type="int" >        4       12       13       13       20 </v>
   <v type="int" >        8       10       13       13       19 </v>
   <v type="int" >       12       13       13       19       21 </v>
   <v type="int" >        4       13       13       20       21 </v>
   <v type="int" >        8       10       11       13       19 </v>
   <v type="int" >        8       11       13       19       19 </v>
   <v type="int" >        4       13       19       19       20 </v>
   <v type="int" >        8       13       19       20       21 </v>
   <v type="int" >        4       10       11       12       19 </v>
   <v type="int" >        4       11       12       13       19 </v>
   <v type="int" >        8       12       13       19       20 </v>
   <v type="int" >        8       10       12       13       19 </v>
   <v type="int" >        4       12       13       14       19 </v>
   <v type="int" >        4       12       14       19       20 </v>
   <v type="int" >        4        3        4       10       13 </v>
   <v type="int" >        4        4       10       12       13 </v>
   <v type="int" >       12        4       12       13       14 </v>
   <v type="int" >       12        3        4        7       13 </v>
   <v type="int" >        8        4        7        7       13 </v>
   <v type="int" >       12        4        7       13       14 </v>
   <v type="int" >        4        4       12       14       14 </v>
   <v type="int" >        4       12       14       14       20 </v>
   <v type="int" >        4       14       14       20       22 </v>
   <v type="int" >        4       12       13       15       20 </v>
   <v type="int" >        4       12       14       15       20 </v>
   <v type="int" >        8       14       15       20       22 </v>
   <v type="int" >       12       13       15       20       21 </v>
   <v type="int" >       12       15       20       21       22 </v>
   <v type="int" >        4       15       20       22       22 </v>
   <v type="int" >        4       13       13       14       21 </v>
   <v type="int" >       12       13       14       15       21 </v>
   <v type="int" >       16       14       15       21       22 </v>
   <v type="int" >        8       13       14       20       21 </v>
   <v type="int" >        4       14       20       20       21 </v>
   <v type="int" >       12       14       20       21       22 </v>
   <v type="int" >        4       12       12       13       20 </v>
   <v type="int" >        8       12       13       14       20 </v>
   <v type="int" >        8       12       14       20       20 </v>
   <v type="int" >        8       12       12       14       20 </v>
   <v type="int" >        4       12       13       20       20 </v>
   <v type="int" >       16        3        4       12       14 </v>
   <v type="int" >        8        3       12       12       14 </v>
   <v type="int" >        8        3       12       13       14 </v>
   <v type="int" >       16        3        4        7       14 </v>
   <v type="int" >        4        3        6        7       14 </v>
   <v type="int" >        4        3        6       13       14 </v>
   <v type="int" >        8       14       15       15       22 </v>
   <v type="int" >        8       15       15       22       22 </v>
   <v type="int" >        8       15       21       22       22 </v>
   <v type="int" >       12       13       14       15       22 </v>
   <v type="int" >        4       13       15       15       22 </v>
   <v type="int" >        8       13       15       21       22 </v>
   <v type="int" >       12       13       14       20       22 </v>
   <v type="int" >        4       13       19       20       22 </v>
   <v type="int" >        4       13       19       21       22 </v>
   <v type="int" >        4       10       12       14       20 </v>
   <v type="int" >        4       10       13       14       20 </v>
   <v type="int" >        8       10       13       19       20 </v>
   <v type="int" >        8       10       12       13       20 </v>
   <v type="int" >        4       10       11       13       20 </v>
   <v type="int" >        4       10       11       19       20 </v>
   <v type="int" >        4        2        3       12       13 </v>
   <v type="int" >        4        2       10       12       13 </v>
   <v type="int" >        8        2       10       11       13 </v>
   <v type="int" >       12        2        3        6       13 </v>
   <v type="int" >        4        2        2        6       13 </v>
   <v type="int" >        4        2        2       11       13 </v>
   <v type="int" >        4       11       13       15       21 </v>
   <v type="int" >        8       11       13       19       21 </v>
   <v type="int" >        4       11       18       19       21 </v>
   <v type="int" >        4        8       10       13       19 </v>
   <v type="int" >        4        8       11       13       19 </v>
   <v type="int" >        8        8       11       18       19 </v>
   <v type="int" >        8        8       10       11       19 </v>
   <v type="int" >        4        8        8       11       19 </v>
   <v type="int" >        4        8        8       18       19 </v>
   <v type="int" >        4        1        2       10       11 </v>
   <v type="int" >        4        1        8       10       11 </v>
   <v type="int" >        8        1        8        8       11 </v>
   <v type="int" >        8        1        2        2       11 </v>
   <v type="int" >       12        1        2        8       11 </v>
   <v type="int" >        4        5        8       11       18 </v>
   <v type="int" >        4        5        8        8       18 </v>
   <v type="int" >        4        1        5        8       18 </v>
   <v type="int" >        4        5        5        8        8 </v>
   <v type="int" >       12        1        5        5        8 </v>
   <v type="int" >        6        1        1        5        5 </v>
   <v type="int" >        8        1        1        5        8 </v>
   <v type="int" >        4        1        1        2        8 </v>
   <v type="int" >        4        2        3        6       16 </v>
   <v type="int" >        4        3        7       16       17 </v>
   <v type="int" >       12        7       16       17       17 </v>
   <v type="int" >        8        7       17       17       17 </v>
   <v type="int" >       12        7        7        9       16 </v>
   <v type="int" >        4        6        6        7        7 </v>
   <v type="int" >       16        3        6        7       13 </v>
   <v type="int" >       12        6        7        7       13 </v>
   <v type="int" >        4        3        6        6       11 </v>
   <v type="int" >       12        3        6       11       13 </v>
   <v type="int" >       12        2        3       10       11 </v>
   <v type="int" >        4        3       10       11       19 </v>
   <v type="int" >        4        3       11       13       19 </v>
   <v type="int" >        4        2        8       10       18 </v>
   <v type="int" >        4        2       10       11       18 </v>
   <v type="int" >        4       10       18       19       19 </v>
   <v type="int" >        4        8        8       11       11 </v>
   <v type="int" >        4        8       10       11       11 </v>
   <v type="int" >        4       10       11       11       13 </v>
   <v type="int" >        4       11       11       13       19 </v>
   <v type="int" >        4        2        6        8       10 </v>
   <v type="int" >        4        6        8       10       11 </v>
   <v type="int" >       12        6       10       11       13 </v>
   <v type="int" >        8        2        3        6       10 </v>
   <v type="int" >        4        3        6        7       10 </v>
   <v type="int" >        4        6        7       10       13 </v>
   <v type="int" >        4       16       17       17       17 </v>
   <v type="int" >        4       17       17       17       17 </v>
   <v type="int" >        4        9       17       17       17 </v>
   <v type="int" >        8        7        7       15       17 </v>
   <v type="int" >        8        7        9       15       17 </v>
   <v type="int" >        4        6        7       13       16 </v>
   <v type="int" >        4        7        7       13       16 </v>
   <v type="int" >       12        7        7       13       15 </v>
   <v type="int" >        8        6        7       13       13 </v>
   <v type="int" >        4        7       13       13       21 </v>
   <v type="int" >        4        7       13       15       21 </v>
   <v type="int" >        4        6       11       13       19 </v>
   <v type="int" >        4        6       13       13       19 </v>
   <v type="int" >        4       13       19       19       23 </v>
   <v type="int" >        4       13       19       21       23 </v>
   <v type="int" >        4       11       18       19       19 </v>
   <v type="int" >        4       11       19       19       19 </v>
   <v type="int" >        4       19       19       19       23 </v>
   <v type="int" >        4       18       19       19       19 </v>
   <v type="int" >        4       19       19       19       21 </v>
   <v type="int" >        4       19       19       21       23 </v>
   <v type="int" >        4       11       13       18       19 </v>
   <v type="int" >        4       13       18       19       19 </v>
   <v type="int" >        8       13       19       19       21 </v>
   <v type="int" >       12       11       13       13       19 </v>
   <v type="int" >        4       13       13       15       19 </v>
   <v type="int" >        4       13       15       19       21 </v>
   <v type="int" >        4        6        7       11       13 </v>
   <v type="int" >        4        7       11       13       13 </v>
   <v type="int" >        8        7       13       13       15 </v>
   <v type="int" >        4        7        7        9       13 </v>
   <v type="int" >        4        7        9       13       15 </v>
   <v type="int" >        4        7        9       14       17 </v>
   <v type="int" >       12        7        9       14       15 </v>
   <v type="int" >        4        9       14       15       22 </v>
   <v type="int" >        4        7       13       15       20 </v>
   <v type="int" >        4        7       14       15       20 </v>
   <v type="int" >        4       15       20       21       24 </v>
   <v type="int" >        4       15       20       22       24 </v>
   <v type="int" >        4       13       19       21       21 </v>
   <v type="int" >        4       13       20       21       21 </v>
   <v type="int" >        4       20       21       21       24 </v>
   <v type="int" >        8       19       21       21       23 </v>
   <v type="int" >        8       21       21       23       24 </v>
   <v type="int" >        4       21       21       24       24 </v>
   <v type="int" >        4       19       19       20       23 </v>
   <v type="int" >       12       19       20       21       23 </v>
   <v type="int" >       12       20       21       23       24 </v>
   <v type="int" >        4       20       21       22       23 </v>
   <v type="int" >        4       20       22       23       24 </v>
   <v type="int" >        4       13       14       19       21 </v>
   <v type="int" >        4       14       19       20       21 </v>
   <v type="int" >        4       14       15       15       21 </v>
   <v type="int" >       16        7       13       14       15 </v>
   <v type="int" >        8        7       14       15       15 </v>
   <v type="int" >       16        7        7        9       15 </v>
   <v type="int" >        4        7        7       15       15 </v>
   <v type="int" >        4       14       20       22       22 </v>
   <v type="int" >        8       20       22       22       24 </v>
   <v type="int" >       16       22       22       24       25 </v>
   <v type="int" >       16       20       21       22       24 </v>
   <v type="int" >        8       21       22       24       24 </v>
   <v type="int" >        4       22       24       24       24 </v>
   <v type="int" >       16       22       24       24       25 </v>
   <v type="int" >        4       20       20       21       24 </v>
   <v type="int" >       12       20       22       24       24 </v>
   <v type="int" >        8       20       20       22       24 </v>
   <v type="int" >        4       20       21       24       24 </v>
   <v type="int" >        4       13       20       20       22 </v>
   <v type="int" >        8       13       20       21       22 </v>
   <v type="int" >        4       13       13       15       22 </v>
   <v type="int" >        4       13       13       21       22 </v>
   <v type="int" >        4        6        7       14       15 </v>
   <v type="int" >        4        6       13       14       15 </v>
   <v type="int" >        4        6       13       13       15 </v>
   <v type="int" >        4        6        7        7       15 </v>
   <v type="int" >        4        3        6        7       15 </v>
   <v type="int" >        4        3        6       13       15 </v>
   <v type="int" >        8       21       22       22       25 </v>
   <v type="int" >       12       21       22       24       25 </v>
   <v type="int" >        4       21       23       24       25 </v>
   <v type="int" >        4       19       20       22       24 </v>
   <v type="int" >        4       19       21       22       24 </v>
   <v type="int" >        8       19       21       23       24 </v>
   <v type="int" >        8       19       20       21       24 </v>
   <v type="int" >        4       19       19       21       24 </v>
   <v type="int" >        4       19       19       23       24 </v>
   <v type="int" >        4       11       13       20       21 </v>
   <v type="int" >        4       11       19       20       21 </v>
   <v type="int" >        4       11       19       19       21 </v>
   <v type="int" >        4       11       13       13       21 </v>
   <v type="int" >        4       10       11       13       21 </v>
   <v type="int" >        4       10       11       19       21 </v>
   <v type="int" >        4        2        6       13       13 </v>
   <v type="int" >        4        2       11       13       13 </v>
   <v type="int" >       12        2        3       10       13 </v>
   <v type="int" >        4        2       10       10       13 </v>
   <v type="int" >        4       18       19       21       23 </v>
   <v type="int" >        4       18       19       19       23 </v>
   <v type="int" >        4       11       18       19       23 </v>
   <v type="int" >        4        8       11       19       19 </v>
   <v type="int" >        4        8       18       19       19 </v>
   <v type="int" >        4        2        8       10       19 </v>
   <v type="int" >        4        2        8       11       19 </v>
   <v type="int" >       16        2        8       10       11 </v>
   <v type="int" >        4        8        8       10       11 </v>
   <v type="int" >       12        2        8        8       10 </v>
   <v type="int" >        8        2        8       10       10 </v>
   <v type="int" >        4        8       10       10       11 </v>
   <v type="int" >        4        1        8       11       18 </v>
   <v type="int" >        4        2        8        8        8 </v>
   <v type="int" >        8        2        2        8       10 </v>
   <v type="int" >        4        2        2        3       10 </v>
   <v type="int" >        4        3        4        7       17 </v>
   <v type="int" >        4        4        7       16       17 </v>
   <v type="int" >        4        7        7        7        9 </v>
   <v type="int" >        4        4        7        7       14 </v>
   <v type="int" >        4        7        7        7       14 </v>
   <v type="int" >       12        3        4       12       13 </v>
   <v type="int" >        4        4       12       13       20 </v>
   <v type="int" >        4        4       13       14       20 </v>
   <v type="int" >        4        3       10       12       19 </v>
   <v type="int" >        4        3       12       13       19 </v>
   <v type="int" >        4       12       13       19       21 </v>
   <v type="int" >        4       12       19       20       21 </v>
   <v type="int" >        4       10       13       19       19 </v>
   <v type="int" >        8       13       13       19       20 </v>
   <v type="int" >        4       10       11       13       13 </v>
   <v type="int" >        4       10       12       13       13 </v>
   <v type="int" >        4       12       13       13       14 </v>
   <v type="int" >        4       13       13       14       20 </v>
   <v type="int" >        4        3        7       10       12 </v>
   <v type="int" >        4        7       10       12       13 </v>
   <v type="int" >        8        7       12       13       14 </v>
   <v type="int" >        8        3        4        7       12 </v>
   <v type="int" >        4        7        7       12       14 </v>
   <v type="int" >        4        7        9       15       16 </v>
   <v type="int" >       12        7        9       15       15 </v>
   <v type="int" >        8        7        7       14       15 </v>
   <v type="int" >        4        7       14       15       22 </v>
   <v type="int" >        4        7       15       15       22 </v>
   <v type="int" >        4        7       13       14       21 </v>
   <v type="int" >        4        7       14       15       21 </v>
   <v type="int" >        4       14       20       21       24 </v>
   <v type="int" >        4       14       21       22       24 </v>
   <v type="int" >        4       13       19       20       23 </v>
   <v type="int" >        4       13       20       21       23 </v>
   <v type="int" >        4       20       23       24       24 </v>
   <v type="int" >        4       19       19       21       21 </v>
   <v type="int" >        4       19       20       21       21 </v>
   <v type="int" >        4       20       21       21       22 </v>
   <v type="int" >        4       21       21       22       24 </v>
   <v type="int" >        4       13       15       19       20 </v>
   <v type="int" >        4       15       19       20       21 </v>
   <v type="int" >        8       13       14       15       20 </v>
   <v type="int" >        4       14       15       15       20 </v>
   <v type="int" >        4       15       15       20       22 </v>
   <v type="int" >        4        7        9       13       14 </v>
   <v type="int" >        4        9       13       14       15 </v>
   <v type="int" >        8        9       14       15       15 </v>
   <v type="int" >        8        7        7        9       14 </v>
   <v type="int" >        4        9       15       15       22 </v>
   <v type="int" >        4       15       22       22       25 </v>
   <v type="int" >        4       15       21       22       24 </v>
   <v type="int" >        4       15       22       22       24 </v>
   <v type="int" >        8       22       24       24       26 </v>
   <v type="int" >        8       22       24       25       26 </v>
   <v type="int" >        4       21       23       24       24 </v>
   <v type="int" >        4       21       24       24       24 </v>
   <v type="int" >        8       24       24       24       26 </v>
   <v type="int" >        4       23       24       24       24 </v>
   <v type="int" >        4       24       24       24       25 </v>
   <v type="int" >       20       24       24       25       26 </v>
   <v type="int" >        4       21       22       23       24 </v>
   <v type="int" >        4       22       23       24       24 </v>
   <v type="int" >       12       21       22       22       24 </v>
   <v type="int" >        4       22       22       22       24 </v>
   <v type="int" >        4       15       15       21       22 </v>
   <v type="int" >        4       15       22       22       22 </v>
   <v type="int" >        4       15       15       15       22 </v>
   <v type="int" >        4       14       15       22       22 </v>
   <v type="int" >        4        7       15       15       15 </v>
   <v type="int" >        4        4        7        7       15 </v>
   <v type="int" >        4        4        7       14       15 </v>
   <v type="int" >        4       22       24       25       25 </v>
   <v type="int" >        8       24       25       25       26 </v>
   <v type="int" >        6       25       25       26       26 </v>
   <v type="int" >       12       24       25       26       26 </v>
   <v type="int" >        4       24       24       26       26 </v>
   <v type="int" >        8       21       24       24       25 </v>
   <v type="int" >        4       20       21       22       25 </v>
   <v type="int" >        4       20       21       24       25 </v>
   <v type="int" >        4       13       15       22       22 </v>
   <v type="int" >        4       13       21       22       22 </v>
   <v type="int" >        4       12       13       14       22 </v>
   <v type="int" >        4       12       13       20       22 </v>
   <v type="int" >        4        3        7       14       15 </v>
   <v type="int" >        4        3       13       14       15 </v>
   <v type="int" >        4       23       24       25       26 </v>
   <v type="int" >        4       23       24       24       26 </v>
   <v type="int" >        4       21       23       24       26 </v>
   <v type="int" >        4       19       21       24       24 </v>
   <v type="int" >        4       19       23       24       24 </v>
   <v type="int" >        4       13       19       20       24 </v>
   <v type="int" >        4       13       19       21       24 </v>
   <v type="int" >        4       10       13       20       21 </v>
   <v type="int" >        4       10       19       20       21 </v>
   <v type="int" >        4        3       10       12       20 </v>
   <v type="int" >        4        3       10       13       20 </v>
   <v type="int" >        8        3       10       12       13 </v>
   <v type="int" >        4       10       10       12       13 </v>
   <v type="int" >        8        3       10       10       12 </v>
   <v type="int" >        8        3       10       12       12 </v>
   <v type="int" >        4       10       12       12       13 </v>
   <v type="int" >        4       11       19       21       23 </v>
   <v type="int" >        4        6       11       13       21 </v>
   <v type="int" >        4        2       10       13       19 </v>
   <v type="int" >        4        2       11       13       19 </v>
   <v type="int" >        8        2        6       11       13 </v>
   <v type="int" >        4        2        6        6       13 </v>
   <v type="int" >        4        3       10       10       11 </v>
   <v type="int" >        4        3       11       13       13 </v>
   <v type="int" >        4        2        2        6       10 </v>
   <v type="int" >        4        6       10       12       13 </v>
   <v type="int" >        4        3        6       10       12 </v>
   <v type="int" >        4        2        3        3       10 </v>
   <v type="int" >        4        3        3       10       12 </v>
   <v type="int" >        4        3        3        4       12 </v>
   <v type="int" >        4        3        4        7       16 </v>
   <v type="int" >        4        6        7        7        7 </v>
   <v type="int" >        4        6        6        7       13 </v>
   <v type="int" >        8        3        7        7       14 </v>
   <v type="int" >        8        3        7       13       14 </v>
   <v type="int" >        4        3       12       14       20 </v>
   <v type="int" >        4        3       13       14       20 </v>
   <v type="int" >        4        4       12       12       20 </v>
   <v type="int" >        4        4       12       14       20 </v>
   <v type="int" >        4       12       14       20       22 </v>
   <v type="int" >        4       12       20       20       22 </v>
   <v type="int" >        4       12       13       14       21 </v>
   <v type="int" >        4       12       14       20       21 </v>
   <v type="int" >        4       14       21       22       22 </v>
   <v type="int" >        4       13       13       15       20 </v>
   <v type="int" >        4       14       15       20       20 </v>
   <v type="int" >        4       15       20       20       22 </v>
   <v type="int" >        4       12       13       14       14 </v>
   <v type="int" >        4       13       14       14       20 </v>
   <v type="int" >        2       14       14       20       20 </v>
   <v type="int" >        2       12       12       14       14 </v>
   <v type="int" >        8        4        7       12       12 </v>
   <v type="int" >        4        7       12       12       14 </v>
   <v type="int" >        4        3        6        7       12 </v>
   <v type="int" >        4        6        7       12       13 </v>
   <v type="int" >        4        6        7       15       16 </v>
   <v type="int" >        8        6        7       13       15 </v>
   <v type="int" >        4        6       13       15       21 </v>
   <v type="int" >        4        7       13       14       22 </v>
   <v type="int" >        4        7       13       15       22 </v>
   <v type="int" >        4       13       20       22       24 </v>
   <v type="int" >        4       13       21       22       24 </v>
   <v type="int" >        4       14       20       20       24 </v>
   <v type="int" >        4       14       20       22       24 </v>
   <v type="int" >        4       20       22       24       25 </v>
   <v type="int" >        4       20       24       24       25 </v>
   <v type="int" >        6       22       22       24       24 </v>
   <v type="int" >        4       20       21       22       22 </v>
   <v type="int" >        2       20       20       22       22 </v>
   <v type="int" >        4        7        7       13       14 </v>
   <v type="int" >        4        3        7       13       13 </v>
   <v type="int" >        4       15       21       22       25 </v>
   <v type="int" >        4       21       24       25       26 </v>
   <v type="int" >        4       24       26       26       26 </v>
   <v type="int" >        6       24       24       25       25 </v>
   <v type="int" >        4        4        7       13       15 </v>
   <v type="int" >        4        4       13       14       15 </v>
   <v type="int" >        8        4       12       12       13 </v>
   <v type="int" >        4       25       26       26       26 </v>
   <v type="int" >        2       26       26       26       26 </v>
   <v type="int" >        4        4       12       12       14 </v>
   <v type="int" >        4       12       12       12       14 </v>
   <v type="int" >        8        4       12       12       12 </v>
   <v type="int" >        4        3        4        4       12 </v>
   <v type="int" >        4        4        4       12       12 </v>
   <v type="int" >        4        1        5        8       11 </v>
   <v type="int" >        4        1        2        6       11 </v>
   <v type="int" >        4        2        8       10       13 </v>
   <v type="int" >        4        2        8       11       13 </v>
   <v type="int" >        4        2        3        7       13 </v>
   <v type="int" >        4        2        6        7       13 </v>
   <v type="int" >        4        3       10       12       14 </v>
   <v type="int" >        4        3       10       13       14 </v>
   <v type="int" >        4        3        4        6       13 </v>
   <v type="int" >        4        4        6        7       13 </v>
   <v type="int" >        4        3       10       11       12 </v>
   <v type="int" >        4        3       11       12       13 </v>
   <v type="int" >        4        2        2        3       11 </v>
   <v type="int" >        6        2        2        8        8 </v>
   <v type="int" >        6        1        1        8        8 </v>
   <v type="int" >        4        5        5        5        8 </v>
   <v type="int" >        4        6       11       13       15 </v>
   <v type="int" >        4        6        7        9       15 </v>
   <v type="int" >        4        7       13       15       15 </v>
   <v type="int" >        4        7        7        7       15 </v>
   <v type="int" >        4        7       13       13       14 </v>
   <v type="int" >        4        3        7        7       13 </v>
   <v type="int" >        4        6       10       13       13 </v>
   <v type="int" >        4        2        6       10       10 </v>
   <v type="int" >        4        3        6       10       10 </v>
   <v type="int" >        4        2        2       10       11 </v>
   <v type="int" >        2        2        2       10       10 </v>
   <v type="int" >        4        1        8        8       10 </v>
   <v type="int" >        4        1        2        8       10 </v>
   <v type="int" >        4        2        3        8       10 </v>
   <v type="int" >        4        3        8       10       10 </v>
   <v type="int" >        4        4        7        9       14 </v>
   <v type="int" >        4        7       12       13       15 </v>
   <v type="int" >        4        7       12       14       15 </v>
   <v type="int" >        4        3        7       12       12 </v>
   <v type="int" >        4        3        3       10       13 </v>
   <v type="int" >        4        3        3       12       13 </v>
   <v type="int" >        2        3        3       12       12 </v>
   <v type="int" >        2        3        3       10       10 </v>
   <v type="int" >        4        2       10       10       12 </v>
   <v type="int" >        4        2        3       10       12 </v>
   <v type="int" >        4        3        4       10       12 </v>
   <v type="int" >        4        4       10       12       12 </v>
   <v type="int" >        4        4        4       12       14 </v>
   <v type="int" >        4        3       12       12       12 </v>
   <v type="int" >        4        3        4       12       12 </v>
   <v type="int" >        4        1        5        5        5 </v>
   <v type="int" >        2        5        5        5        5 </v>
  </varray>
  <i name="volumeweight">      0.00032552 </i>
 </kpoints>
 <parameters>
  <separator name="general" >
   <i type="string" name="SYSTEM">Fe BCC</i>
   <i type="logical" name="LCOMPAT"> F  </i>
  </separator>
  <separator name="electronic" >
   <i type="string" name="PREC">accura</i>
   <i name="ENMAX">    400.00000000</i>
   <i name="ENAUG">    511.36800000</i>
   <i name="EDIFF">      0.00000100</i>
   <i type="int" name="IALGO">    38</i>
   <i type="int" name="IWAVPR">    10</i>
   <i type="int" name="NBANDS">    12</i>
   <i name="NELECT">      8.00000000</i>
   <i type="int" name="TURBO">     0</i>
   <i type="int" name="IRESTART">     0</i>
   <i type="int" name="NREBOOT">     0</i>
   <i type="int" name="NMIN">     0</i>
   <i name="EREF">      0.00000000</i>
   <separator name="electronic smearing" >
    <i type="int" name="ISMEAR">    -5</i>
    <i name="SIGMA">      0.20000000</i>
    <i name="KSPACING">      0.50000000</i>
    <i type="logical" name="KGAMMA"> T  </i>
   </separator>
   <separator name="electronic projectors" >
    <i type="logical" name="LREAL"> F  </i>
    <v name="ROPT">      0.00000000</v>
    <i type="int" name="LMAXPAW">  -100</i>
    <i type="int" name="LMAXMIX">     2</i>
    <i type="logical" name="NLSPLINE"> F  </i>
   </separator>
   <separator name="electronic startup" >
    <i type="int" name="ISTART">     0</i>
    <i type="int" name="ICHARG">     2</i>
    <i type="int" name="INIWAV">     1</i>
   </separator>
   <separator name="electronic spin" >
    <i type="int" name="ISPIN">     2</i>
    <i type="logical" name="LNONCOLLINEAR"> F  </i>
    <v name="MAGMOM">      4.00000000</v>
    <i name="NUPDOWN">     -1.00000000</i>
    <i type="logical" name="LSORBIT"> F  </i>
    <v name="SAXIS">      0.00000000      0.00000000      1.00000000</v>
    <i type="logical" name="LSPIRAL"> F  </i>
    <v name="QSPIRAL">      0.00000000      0.00000000      0.00000000</v>
    <i type="logical" name="LZEROZ"> F  </i>
   </separator>
   <separator name="electronic exchange-correlation" >
    <i type="logical" name="LASPH"> F  </i>
    <i type="logical" name="LMETAGGA"> F  </i>
   </separator>
   <separator name="electronic convergence" >
    <i type="int" name="NELM">    60</i>
    <i type="int" name="NELMDL">    -5</i>
    <i type="int" name="NELMIN">     2</i>
    <i name="ENINI">    400.00000000</i>
    <separator name="electronic convergence detail" >
     <i type="logical" name="LDIAG"> T  </i>
     <i type="logical" name="LSUBROT"> F  </i>
     <i name="WEIMIN">      0.00000000</i>
     <i name="EBREAK">      0.00000002</i>
     <i name="DEPER">      0.30000000</i>
     <i type="int" name="NRMM">     4</i>
     <i name="TIME">      0.40000000</i>
    </separator>
   </separator>
   <separator name="electronic mixer" >
    <i name="AMIX">      0.40000000</i>
    <i name="BMIX">      1.00000000</i>
    <i name="AMIN">      0.10000000</i>
    <i name="AMIX_MAG">      1.60000000</i>
    <i name="BMIX_MAG">      1.00000000</i>
    <separator name="electronic mixer details" >
     <i type="int" name="IMIX">     4</i>
     <i type="logical" name="MIXFIRST"> F  </i>
     <i type="int" name="MAXMIX">   -45</i>
     <i name="WC">    100.00000000</i>
     <i type="int" name="INIMIX">     1</i>
     <i type="int" name="MIXPRE">     1</i>
     <i type="int" name="MREMOVE">     5</i>
    </separator>
   </separator>
   <separator name="electronic dipolcorrection" >
    <i type="logical" name="LDIPOL"> F  </i>
    <i type="logical" name="LMONO"> F  </i>
    <i type="int" name="IDIPOL">     0</i>
    <i name="EPSILON">      1.00000000</i>
    <v name="DIPOL">   -100.00000000   -100.00000000   -100.00000000</v>
    <i name="EFIELD">      0.00000000</i>
   </separator>
  </separator>
  <separator name="grids" >
   <i type="int" name="NGX">    16</i>
   <i type="int" name="NGY">    16</i>
   <i type="int" name="NGZ">    16</i>
   <i type="int" name="NGXF">    32</i>
   <i type="int" name="NGYF">    32</i>
   <i type="int" name="NGZF">    32</i>
   <i type="logical" name="ADDGRID"> F  </i>
  </separator>
  <separator name="ionic" >
   <i type="int" name="NSW">     0</i>
   <i type="int" name="IBRION">    -1</i>
   <i type="int" name="ISIF">     2</i>
   <i name="PSTRESS">      0.00000000</i>
   <i name="EDIFFG">      0.00001000</i>
   <i type="int" name="NFREE">     0</i>
   <i name="POTIM">      0.50000000</i>
   <i name="SMASS">     -3.00000000</i>
   <i name="SCALEE">      1.00000000</i>
  </separator>
  <separator name="ionic md" >
   <i name="TEBEG">      0.00010000</i>
   <i name="TEEND">      0.00010000</i>
   <i type="int" name="NBLOCK">     1</i>
   <i type="int" name="KBLOCK">     1</i>
   <i type="int" name="NPACO">   256</i>
   <i name="APACO">     16.00000000</i>
  </separator>
  <separator name="symmetry" >
   <i type="int" name="ISYM">     2</i>
   <i name="SYMPREC">      0.00001000</i>
  </separator>
  <separator name="dos" >
   <i type="logical" name="LORBIT"> F  </i>
   <v name="RWIGS">     -1.00000000</v>
   <i type="int" name="NEDOS">   301</i>
   <i name="EMIN">     10.00000000</i>
   <i name="EMAX">    -10.00000000</i>
   <i name="EFERMI">      0.00000000</i>
  </separator>
  <separator name="writing" >
   <i type="int" name="NWRITE">     2</i>
   <i type="logical" name="LWAVE"> T  </i>
   <i type="logical" name="LCHARG"> T  </i>
   <i type="logical" name="LPARD"> F  </i>
   <i type="logical" name="LVTOT"> F  </i>
   <i type="logical" name="LVHAR"> F  </i>
   <i type="logical" name="LELF"> F  </i>
   <i type="logical" name="LOPTICS"> F  </i>
   <v name="STM">      0.00000000      0.00000000      0.00000000      0.00000000      0.00000000      0.00000000      0.00000000</v>
  </separator>
  <separator name="performance" >
   <i type="int" name="NPAR">     4</i>
   <i type="int" name="NSIM">     4</i>
   <i type="int" name="NBLK">    -1</i>
   <i type="logical" name="LPLANE"> T  </i>
   <i type="logical" name="LSCALAPACK"> F  </i>
   <i type="logical" name="LSCAAWARE"> F  </i>
   <i type="logical" name="LSCALU"> F  </i>
   <i type="logical" name="LASYNC"> F  </i>
   <i type="logical" name="LORBITALREAL"> F  </i>
  </separator>
  <separator name="miscellaneous" >
   <i type="int" name="IDIOT">     3</i>
   <i type="logical" name="LMUSIC"> F  </i>
   <v name="POMASS">     55.84700000</v>
   <v name="DARWINR">      0.00000000</v>
   <v name="DARWINV">      1.00000000</v>
   <i type="logical" name="LCORR"> T  </i>
  </separator>
  <i type="logical" name="GGA_COMPAT"> T  </i>
  <i type="logical" name="LBERRY"> F  </i>
  <i type="int" name="ICORELEVEL">     0</i>
  <i type="logical" name="LDAU"> F  </i>
  <i type="int" name="I_CONSTRAINED_M">     0</i>
  <separator name="electronic exchange-correlation" >
   <i type="string" name="GGA">--</i>
   <i type="int" name="VOSKOWN">     0</i>
   <i type="logical" name="LHFCALC"> F  </i>
   <i type="string" name="PRECFOCK"></i>
   <i type="logical" name="LSYMGRAD"> F  </i>
   <i type="logical" name="LHFONE"> F  </i>
   <i type="logical" name="LRHFCALC"> F  </i>
   <i type="logical" name="LTHOMAS"> F  </i>
   <i type="logical" name="LMODELHF"> F  </i>
   <i name="ENCUT4O">     -1.00000000</i>
   <i type="int" name="EXXOEP">     0</i>
   <i type="int" name="FOURORBIT">     0</i>
   <i name="AEXX">      0.00000000</i>
   <i name="HFALPHA">      0.00000000</i>
   <i name="MCALPHA">      0.00000000</i>
   <i name="ALDAX">      1.00000000</i>
   <i name="AGGAX">      1.00000000</i>
   <i name="ALDAC">      1.00000000</i>
   <i name="AGGAC">      1.00000000</i>
   <i type="int" name="NKREDX">     1</i>
   <i type="int" name="NKREDY">     1</i>
   <i type="int" name="NKREDZ">     1</i>
   <i type="logical" name="SHIFTRED"> F  </i>
   <i type="logical" name="ODDONLY"> F  </i>
   <i type="logical" name="EVENONLY"> F  </i>
   <i type="int" name="LMAXFOCK">     0</i>
   <i type="int" name="NMAXFOCKAE">     0</i>
   <i type="logical" name="LFOCKAEDFT"> F  </i>
   <i name="HFSCREEN">      0.00000000</i>
   <i name="HFSCREENC">      0.00000000</i>
   <i type="int" name="NBANDSGWLOW">     0</i>
  </separator>
  <separator name="vdW DFT" >
   <i type="logical" name="LUSE_VDW"> F  </i>
   <i name="Zab_VDW">     -0.84910000</i>
   <i name="PARAM1">      0.12340000</i>
   <i name="PARAM2">      1.00000000</i>
   <i name="PARAM3">      0.00000000</i>
  </separator>
  <separator name="model GW" >
   <i type="int" name="MODEL_GW">     0</i>
   <i name="MODEL_EPS0">      7.31670000</i>
   <i name="MODEL_ALPHA">      1.00000000</i>
  </separator>
  <separator name="linear response parameters" >
   <i type="logical" name="LEPSILON"> F  </i>
   <i type="logical" name="LRPA"> F  </i>
   <i type="logical" name="LNABLA"> F  </i>
   <i type="logical" name="LVEL"> F  </i>
   <i type="int" name="KINTER">     0</i>
   <i name="CSHIFT">      0.10000000</i>
   <i name="OMEGAMAX">     -1.00000000</i>
   <i name="DEG_THRESHOLD">      0.00200000</i>
  </separator>
  <separator name="orbital magnetization" >
   <i type="logical" name="NUCIND"> F  </i>
   <v name="MAGPOS">      0.00000000      0.00000000      0.00000000</v>
   <i type="logical" name="LNICSALL"> T  </i>
   <i type="logical" name="ORBITALMAG"> F  </i>
   <i type="logical" name="LMAGBLOCH"> F  </i>
   <i type="logical" name="LCHIMAG"> F  </i>
   <i type="logical" name="LGAUGE"> T  </i>
   <i type="int" name="MAGATOM">     0</i>
   <v name="MAGDIPOL">      0.00000000      0.00000000      0.00000000</v>
   <v name="AVECCONST">      0.00000000      0.00000000      0.00000000</v>
  </separator>
  <separator name="response functions" >
   <i type="logical" name="LADDER"> F  </i>
   <i type="logical" name="LFXC"> F  </i>
   <i type="logical" name="LHARTREE"> T  </i>
   <i type="int" name="IBSE">     0</i>
   <v type="int" name="KPOINT">    -1     0     0     0</v>
   <i type="logical" name="LTCTE"> F  </i>
   <i type="logical" name="LTETE"> F  </i>
   <i type="logical" name="LTRIPLET"> F  </i>
   <i type="logical" name="LFXCEPS"> F  </i>
   <i type="logical" name="LFXHEG"> F  </i>
   <i type="int" name="NATURALO">     0</i>
   <i type="logical" name="L2ORDER"> F  </i>
   <i type="logical" name="LUSEW"> F  </i>
   <i name="ENCUTGW">     -2.00000000</i>
   <i name="ENCUTGWSOFT">     -2.00000000</i>
   <i name="ENCUTLF">     -1.00000000</i>
   <i type="int" name="LMAXMP2">    -1</i>
   <i name="SCISSOR">      0.00000000</i>
   <i type="int" name="NOMEGA">     0</i>
   <i type="int" name="NOMEGAR">     0</i>
   <i type="int" name="NBANDSGW">    -1</i>
   <i type="int" name="NBANDSO">    -1</i>
   <i type="int" name="NBANDSV">    -1</i>
   <i type="int" name="NELM">     1</i>
   <i type="int" name="NELMHF">     1</i>
   <i type="int" name="DIM">     3</i>
   <i type="int" name="ANTIRES">     0</i>
   <i name="OMEGAMAX">    -30.00000000</i>
   <i name="OMEGAMIN">    -30.00000000</i>
   <i name="OMEGATL">   -200.00000000</i>
   <i type="int" name="OMEGAGRID">     0</i>
   <i name="CSHIFT">     -0.10000000</i>
   <i type="logical" name="SELFENERGY"> F  </i>
   <i type="logical" name="LSPECTRAL"> F  </i>
   <i type="logical" name="LSPECTRALGW"> F  </i>
   <i type="logical" name="LSINGLES"> F  </i>
   <i type="logical" name="LFERMIGW"> F  </i>
   <i type="logical" name="ODDONLYGW"> F  </i>
   <i type="logical" name="EVENONLYGW"> F  </i>
   <i type="int" name="NKREDLFX">     1</i>
   <i type="int" name="NKREDLFY">     1</i>
   <i type="int" name="NKREDLFZ">     1</i>
   <i type="int" name="MAXMEM">  1800</i>
   <i type="int" name="TELESCOPE">     0</i>
   <i type="int" name="TAUPAR">     1</i>
   <i type="int" name="OMEGAPAR">    -1</i>
   <i name="LAMBDA">      1.00000000</i>
  </separator>
  <separator name="External order field" >
   <i name="OFIELD_KAPPA">      0.00000000</i>
   <v name="OFIELD_K">      0.00000000      0.00000000      0.00000000</v>
   <i name="OFIELD_Q6_NEAR">      0.00000000</i>
   <i name="OFIELD_Q6_FAR">      0.00000000</i>
   <i name="OFIELD_A">      0.00000000</i>
  </separator>
 </parameters>
 <atominfo>
  <atoms>       1 </atoms>
  <types>       1 </types>
  <array name="atoms" >
   <dimension dim="1">ion</dimension>
   <field type="string">element</field>
   <field type="int">atomtype</field>
   <set>
    <rc><c>Fe</c><c>   1</c></rc>
   </set>
  </array>
  <array name="atomtypes" >
   <dimension dim="1">type</dimension>
   <field type="int">atomspertype</field>
   <field type="string">element</field>
   <field>mass</field>
   <field>valence</field>
   <field type="string">pseudopotential</field>
   <set>
    <rc><c>   1</c><c>Fe</c><c>     55.84700000</c><c>      8.00000000</c><c>  PAW Fe 03Mar1998                      </c></rc>
   </set>
  </array>
 </atominfo>
 <structure name="initialpos" >
  <crystal>
   <varray name="basis" >
    <v>      -1.45000000       1.45000000       1.45000000 </v>
    <v>       1.45000000      -1.45000000       1.45000000 </v>
    <v>       1.45000000       1.45000000      -1.45000000 </v>
   </varray>
   <i name="volume">     12.19450000 </i>
   <varray name="rec_basis" >
    <v>       0.00000000       0.34482759       0.34482759 </v>
    <v>       0.34482759       0.00000000       0.34482759 </v>
    <v>       0.34482759       0.34482759       0.00000000 </v>
   </varray>
  </crystal>
  <varray name="positions" >
   <v>       0.00000000       0.00000000       0.00000000 </v>
  </varray>
 </structure>
 <calculation>
  <scstep>
   <time name="dav">    3.86    3.65</time>
   <time name="total">    3.94    3.73</time>
   <energy>
    <i name="alphaZ">     54.92347862 </i>
    <i name="ewald">   -578.25309922 </i>
    <i name="hartreedc">   -116.51582812 </i>
    <i name="XCdc">      6.31809918 </i>
    <i name="pawpsdc">    552.76102510 </i>
    <i name="pawaedc">   -562.19386350 </i>
    <i name="eentropy">      0.00000000 </i>
    <i name="bandstr">     61.37903939 </i>
    <i name="atom">    597.35192723 </i>
    <i name="e_fr_energy">     15.77077867 </i>
    <i name="e_wo_entrp">     15.77077867 </i>
    <i name="e_0_energy">     15.77077867 </i>
   </energy>
  </scstep>
  <scstep>
   <time name="dav">    3.83    3.58</time>
   <time name="total">    3.93    3.67</time>
   <energy>
    <i name="e_fr_energy">     -9.10821680 </i>
    <i name="e_wo_entrp">     -9.10821680 </i>
    <i name="e_0_energy">     -9.10821680 </i>
   </energy>
  </scstep>
  <scstep>
   <time name="dav">    4.16    3.91</time>
   <time name="total">    4.25    3.99</time>
   <energy>
    <i name="e_fr_energy">     -9.77304327 </i>
    <i name="e_wo_entrp">     -9.77304327 </i>
    <i name="e_0_energy">     -9.77304327 </i>
   </energy>
  </scstep>
  <scstep>
   <time name="dav">    3.14    2.96</time>
   <time name="total">    3.41    3.29</time>
   <energy>
    <i name="e_fr_energy">     -9.77580724 </i>
    <i name="e_wo_entrp">     -9.77580724 </i>
    <i name="e_0_energy">     -9.77580724 </i>
   </energy>
  </scstep>
  <scstep>
   <time name="dav">    3.85    3.59</time>
   <time name="total">    3.99    3.72</time>
   <energy>
    <i name="e_fr_energy">     -9.77582662 </i>
    <i name="e_wo_entrp">     -9.77582662 </i>
    <i name="e_0_energy">     -9.77582662 </i>
   </energy>
  </scstep>
  <scstep>
   <time name="dav">    3.36    3.21</time>
   <time name="total">    3.54    3.38</time>
   <energy>
    <i name="e_fr_energy">     -9.16481501 </i>
    <i name="e_wo_entrp">     -9.16481501 </i>
    <i name="e_0_energy">     -9.16481501 </i>
   </energy>
  </scstep>
  <scstep>
   <time name="dav">    3.59    3.54</time>
   <time name="total">    3.78    3.73</time>
   <energy>
    <i name="e_fr_energy">     -9.05819364 </i>
    <i name="e_wo_entrp">     -9.05819364 </i>
    <i name="e_0_energy">     -9.05819364 </i>
   </energy>
  </scstep>
  <scstep>
   <time name="dav">    4.29    4.19</time>
   <time name="total">    4.41    4.32</time>
   <energy>
    <i name="e_fr_energy">     -9.04807442 </i>
    <i name="e_wo_entrp">     -9.04807442 </i>
    <i name="e_0_energy">     -9.04807442 </i>
   </energy>
  </scstep>
  <scstep>
   <time name="dav">    4.05    3.98</time>
   <time name="total">    4.21    4.14</time>
   <energy>
    <i name="e_fr_energy">     -9.04142647 </i>
    <i name="e_wo_entrp">     -9.04142647 </i>
    <i name="e_0_energy">     -9.04142647 </i>
   </energy>
  </scstep>
  <scstep>
   <time name="dav">    3.86    3.63</time>
   <time name="total">    4.04    3.78</time>
   <energy>
    <i name="e_fr_energy">     -9.04094985 </i>
    <i name="e_wo_entrp">     -9.04094985 </i>
    <i name="e_0_energy">     -9.04094985 </i>
   </energy>
  </scstep>
  <scstep>
   <time name="dav">    3.76    3.51</time>
   <time name="total">    3.91    3.65</time>
   <energy>
    <i name="e_fr_energy">     -9.04097957 </i>
    <i name="e_wo_entrp">     -9.04097957 </i>
    <i name="e_0_energy">     -9.04097957 </i>
   </energy>
  </scstep>
  <scstep>
   <time name="dav">    2.78    2.66</time>
   <time name="total">    2.94    2.81</time>
   <energy>
    <i name="e_fr_energy">     -9.04098369 </i>
    <i name="e_wo_entrp">     -9.04098369 </i>
    <i name="e_0_energy">     -9.04098369 </i>
   </energy>
  </scstep>
  <scstep>
   <time name="dav">    2.15    2.12</time>
   <time name="total">    2.28    2.25</time>
   <energy>
    <i name="e_fr_energy">     -9.04098162 </i>
    <i name="e_wo_entrp">     -9.04098162 </i>
    <i name="e_0_energy">     -9.04098162 </i>
   </energy>
  </scstep>
  <scstep>
   <time name="dav">    2.38    2.15</time>
   <time name="total">    2.55    2.30</time>
   <energy>
    <i name="e_fr_energy">     -9.04098040 </i>
    <i name="e_wo_entrp">     -9.04098040 </i>
    <i name="e_0_energy">     -9.04098040 </i>
   </energy>
  </scstep>
  <scstep>
   <time name="dav">    2.21    2.04</time>
   <time name="total">    2.32    2.13</time>
   <energy>
    <i name="alphaZ">     54.92347862 </i>
    <i name="ewald">   -578.25309922 </i>
    <i name="hartreedc">   -100.32636064 </i>
    <i name="XCdc">      4.53601024 </i>
    <i name="pawpsdc">    683.85586457 </i>
    <i name="pawaedc">   -694.21672566 </i>
    <i name="eentropy">      0.00000000 </i>
    <i name="bandstr">     23.08792435 </i>
    <i name="atom">    597.35192723 </i>
    <i name="e_fr_energy">     -9.04098052 </i>
    <i name="e_wo_entrp">     -9.04098052 </i>
    <i name="e_0_energy">     -9.04098052 </i>
   </energy>
  </scstep>
  <structure>
   <crystal>
    <varray name="basis" >
     <v>      -1.45000000       1.45000000       1.45000000 </v>
     <v>       1.45000000      -1.45000000       1.45000000 </v>
     <v>       1.45000000       1.45000000      -1.45000000 </v>
    </varray>
    <i name="volume">     12.19450000 </i>
    <varray name="rec_basis" >
     <v>       0.00000000       0.34482759       0.34482759 </v>
     <v>       0.34482759       0.00000000       0.34482759 </v>
     <v>       0.34482759       0.34482759       0.00000000 </v>
    </varray>
   </crystal>
   <varray name="positions" >
    <v>       0.00000000       0.00000000       0.00000000 </v>
   </varray>
  </structure>
  <varray name="forces" >
   <v>      -0.00000000       0.00000000      -0.00000000 </v>
  </varray>
  <varray name="stress" >
   <v>    -282.69949321       0.00000000       0.00000000 </v>
   <v>      -0.00000000    -282.69949321      -0.00000000 </v>
   <v>       0.00000000      -0.00000000    -282.69949321 </v>
  </varray>
  <energy>
   <i name="e_fr_energy">     -9.04098052 </i>
   <i name="e_wo_entrp">     -9.04098052 </i>
   <i name="e_0_energy">      0.00000000 </i>
  </energy>
  <time name="totalsc">   53.80   51.41</time>
  <eigenvalues>
   <array>
    <dimension dim="1">band</dimension>
    <dimension dim="2">kpoint</dimension>
    <dimension dim="3">spin</dimension>
    <field>eigene</field>
    <field>occ</field>
    <set>
     <set comment="spin 1">
      <set comment="kpoint 1">
       <r>   -2.2433    1.0000 </r>
       <r>    2.6245    1.0000 </r>
       <r>    2.6245    1.0000 </r>
       <r>    3.3587    1.0000 </r>
       <r>    3.9616    1.0000 </r>
       <r>    3.9616    1.0030 </r>
       <r>   25.4641    0.0000 </r>
       <r>   25.4641    0.0000 </r>
       <r>   28.7338    0.0000 </r>
       <r>   29.9996    0.0000 </r>
       <r>   34.4360    0.0000 </r>
       <r>   34.4360    0.0000 </r>
      </set>
      <set comment="kpoint 2">
       <r>   -0.7043    1.0000 </r>
       <r>    2.2490    1.0000 </r>
       <r>    2.4435    1.0000 </r>
       <r>    3.8946    1.0000 </r>
       <r>    4.0725    1.0009 </r>
       <r>    4.2944    0.8925 </r>
       <r>   20.0956    0.0000 </r>
       <r>   23.1667    0.0000 </r>
       <r>   25.0739    0.0000 </r>
       <r>   30.2133    0.0000 </r>
       <r>   33.7854    0.0000 </r>
       <r>   35.1230    0.0000 </r>
      </set>
      <set comment="kpoint 3">
       <r>    0.5033    1.0000 </r>
       <r>    1.9250    1.0000 </r>
       <r>    3.1138    1.0000 </r>
       <r>    4.0138    1.0000 </r>
       <r>    4.1605    1.0328 </r>
       <r>    5.6020    0.0145 </r>
       <r>   14.7657    0.0000 </r>
       <r>   21.5314    0.0000 </r>
       <r>   22.8595    0.0000 </r>
       <r>   29.6122    0.0000 </r>
       <r>   33.1216    0.0000 </r>
       <r>   38.3189    0.0000 </r>
      </set>
      <set comment="kpoint 4">
       <r>    0.6056    1.0000 </r>
       <r>    1.8004    1.0000 </r>
       <r>    4.0528    1.0000 </r>
       <r>    4.0713    1.0000 </r>
       <r>    4.1967    1.0779 </r>
       <r>    6.9113   -0.0053 </r>
       <r>   11.7456    0.0000 </r>
       <r>   20.9363    0.0000 </r>
       <r>   22.0313    0.0000 </r>
       <r>   29.3630    0.0000 </r>
       <r>   33.0089    0.0000 </r>
       <r>   38.4027    0.0000 </r>
      </set>
      <set comment="kpoint 5">
       <r>   -2.8307    1.0000 </r>
       <r>    2.8091    1.0000 </r>
       <r>    2.8091    1.0000 </r>
       <r>    2.8903    1.0000 </r>
       <r>    3.8951    1.0000 </r>
       <r>    4.0758    1.0000 </r>
       <r>   27.4524    0.0000 </r>
       <r>   28.6942    0.0000 </r>
       <r>   28.6942    0.0000 </r>
       <r>   31.4357    0.0000 </r>
       <r>   33.2767    0.0000 </r>
       <r>   33.2767    0.0000 </r>
      </set>
      <set comment="kpoint 6">
       <r>    0.7624    1.0000 </r>
       <r>    1.9961    1.0000 </r>
       <r>    2.1557    1.0000 </r>
       <r>    3.9659    1.0000 </r>
       <r>    4.1857    1.0008 </r>
       <r>    5.7905   -0.0048 </r>
       <r>   17.7041    0.0000 </r>
       <r>   18.3649    0.0000 </r>
       <r>   22.0894    0.0000 </r>
       <r>   32.0579    0.0000 </r>
       <r>   35.3903    0.0000 </r>
       <r>   37.6758    0.0000 </r>
      </set>
      <set comment="kpoint 7">
       <r>    1.1834    1.0000 </r>
       <r>    1.8337    1.0000 </r>
       <r>    2.7378    1.0000 </r>
       <r>    4.0904    1.0000 </r>
       <r>    4.2679    1.0097 </r>
       <r>    8.1021   -0.0038 </r>
       <r>   13.1525    0.0000 </r>
       <r>   16.8819    0.0000 </r>
       <r>   20.8882    0.0000 </r>
       <r>   32.3435    0.0000 </r>
       <r>   36.4829    0.0000 </r>
       <r>   38.2093    0.0000 </r>
      </set>
      <set comment="kpoint 8">
       <r>   -1.6910    1.0000 </r>
       <r>    2.5647    1.0000 </r>
       <r>    2.7477    1.0000 </r>
       <r>    3.4575    1.0000 </r>
       <r>    3.6677    1.0000 </r>
       <r>    4.1636    1.0097 </r>
       <r>   22.9238    0.0000 </r>
       <r>   26.2744    0.0000 </r>
       <r>   26.9529    0.0000 </r>
       <r>   30.8131    0.0000 </r>
       <r>   30.9051    0.0000 </r>
       <r>   32.4713    0.0000 </r>
      </set>
      <set comment="kpoint 9">
       <r>    1.4913    1.0000 </r>
       <r>    2.1594    1.0000 </r>
       <r>    2.1594    1.0000 </r>
       <r>    4.2174    1.0000 </r>
       <r>    4.2174    1.0000 </r>
       <r>   11.4744    0.0000 </r>
       <r>   11.4744    0.0000 </r>
       <r>   13.6832    0.0000 </r>
       <r>   20.4428    0.0000 </r>
       <r>   34.7073    0.0000 </r>
       <r>   34.7073    0.0000 </r>
       <r>   41.2473    0.0000 </r>
      </set>
      <set comment="kpoint 10">
       <r>   -0.0599    1.0000 </r>
       <r>    2.2003    1.0000 </r>
       <r>    2.7924    1.0000 </r>
       <r>    3.8302    1.0000 </r>
       <r>    4.3180    1.0171 </r>
       <r>    4.3892    0.7223 </r>
       <r>   17.2502    0.0000 </r>
       <r>   23.9628    0.0000 </r>
       <r>   24.7540    0.0000 </r>
       <r>   29.1926    0.0000 </r>
       <r>   30.9541    0.0000 </r>
       <r>   33.8529    0.0000 </r>
      </set>
      <set comment="kpoint 11">
       <r>   -0.2769    1.0000 </r>
       <r>    2.3893    1.0000 </r>
       <r>    2.5490    1.0000 </r>
       <r>    3.5373    1.0000 </r>
       <r>    4.1507    1.0018 </r>
       <r>    4.4827    0.7618 </r>
       <r>   20.2103    0.0000 </r>
       <r>   21.0254    0.0000 </r>
       <r>   27.4958    0.0000 </r>
       <r>   27.5204    0.0000 </r>
       <r>   31.2166    0.0000 </r>
       <r>   35.6903    0.0000 </r>
      </set>
      <set comment="kpoint 12">
       <r>    0.4838    1.0000 </r>
       <r>    1.9527    1.0000 </r>
       <r>    3.5411    1.0000 </r>
       <r>    3.9886    1.0000 </r>
       <r>    5.1388    0.4802 </r>
       <r>    5.5185    0.0034 </r>
       <r>   12.6289    0.0000 </r>
       <r>   22.6508    0.0000 </r>
       <r>   23.1688    0.0000 </r>
       <r>   28.5167    0.0000 </r>
       <r>   31.1701    0.0000 </r>
       <r>   35.5902    0.0000 </r>
      </set>
      <set comment="kpoint 13">
       <r>    0.8367    1.0000 </r>
       <r>    2.0969    1.0000 </r>
       <r>    2.6148    1.0000 </r>
       <r>    3.8029    1.0000 </r>
       <r>    4.5117    1.0243 </r>
       <r>    6.0517   -0.0358 </r>
       <r>   15.1362    0.0000 </r>
       <r>   18.9122    0.0000 </r>
       <r>   25.2724    0.0000 </r>
       <r>   28.3808    0.0000 </r>
       <r>   31.8716    0.0000 </r>
       <r>   36.1539    0.0000 </r>
      </set>
      <set comment="kpoint 14">
       <r>    0.9191    1.0000 </r>
       <r>    2.0783    1.0000 </r>
       <r>    2.7970    1.0000 </r>
       <r>    3.9000    1.0000 </r>
       <r>    4.8264    0.8878 </r>
       <r>    7.9608   -0.0020 </r>
       <r>   11.8514    0.0000 </r>
       <r>   18.2422    0.0000 </r>
       <r>   24.4770    0.0000 </r>
       <r>   28.6762    0.0000 </r>
       <r>   32.9282    0.0000 </r>
       <r>   35.4524    0.0000 </r>
      </set>
      <set comment="kpoint 15">
       <r>    1.5519    1.0000 </r>
       <r>    1.8294    1.0000 </r>
       <r>    2.3144    1.0000 </r>
       <r>    4.0724    1.0000 </r>
       <r>    4.4858    1.0368 </r>
       <r>    9.1098   -0.0006 </r>
       <r>   13.3358    0.0000 </r>
       <r>   14.4870    0.0000 </r>
       <r>   25.5933    0.0000 </r>
       <r>   28.8641    0.0000 </r>
       <r>   30.9501    0.0000 </r>
       <r>   37.4198    0.0000 </r>
      </set>
      <set comment="kpoint 16">
       <r>    1.8153    1.0000 </r>
       <r>    1.8153    1.0000 </r>
       <r>    1.9051    1.0000 </r>
       <r>    4.1714    1.0000 </r>
       <r>    4.1714    1.0000 </r>
       <r>    8.0755   -0.0048 </r>
       <r>   16.1181    0.0000 </r>
       <r>   16.1181    0.0000 </r>
       <r>   17.1085    0.0000 </r>
       <r>   36.6693    0.0000 </r>
       <r>   39.0538    0.0000 </r>
       <r>   39.0538    0.0000 </r>
      </set>
      <set comment="kpoint 17">
       <r>    1.6943    1.0000 </r>
       <r>    1.7744    1.0000 </r>
       <r>    2.3667    1.0000 </r>
       <r>    4.2013    1.0000 </r>
       <r>    4.2198    1.0000 </r>
       <r>   10.7992    0.0000 </r>
       <r>   12.4809    0.0000 </r>
       <r>   15.5745    0.0000 </r>
       <r>   16.2674    0.0000 </r>
       <r>   37.5962    0.0000 </r>
       <r>   40.8163    0.0000 </r>
       <r>   41.0376    0.0000 </r>
      </set>
      <set comment="kpoint 18">
       <r>   -0.6795    1.0000 </r>
       <r>    2.9497    1.0000 </r>
       <r>    2.9497    1.0000 </r>
       <r>    2.9590    1.0000 </r>
       <r>    3.4726    1.0000 </r>
       <r>    4.4810    0.9019 </r>
       <r>   23.1925    0.0000 </r>
       <r>   23.8444    0.0000 </r>
       <r>   23.8444    0.0000 </r>
       <r>   25.7466    0.0000 </r>
       <r>   34.8997    0.0000 </r>
       <r>   34.8997    0.0000 </r>
      </set>
      <set comment="kpoint 19">
       <r>    0.6463    1.0000 </r>
       <r>    2.2374    1.0000 </r>
       <r>    2.8228    1.0000 </r>
       <r>    3.4445    1.0000 </r>
       <r>    4.2830    1.0328 </r>
       <r>    5.2288    0.1149 </r>
       <r>   18.0737    0.0000 </r>
       <r>   21.3080    0.0000 </r>
       <r>   22.6493    0.0000 </r>
       <r>   26.3508    0.0000 </r>
       <r>   33.9425    0.0000 </r>
       <r>   35.6224    0.0000 </r>
      </set>
      <set comment="kpoint 20">
       <r>    1.0219    1.0000 </r>
       <r>    2.1557    1.0000 </r>
       <r>    2.6407    1.0000 </r>
       <r>    3.6496    1.0000 </r>
       <r>    5.0642    0.3608 </r>
       <r>    7.5425   -0.0118 </r>
       <r>   13.1396    0.0000 </r>
       <r>   19.7513    0.0000 </r>
       <r>   21.8352    0.0000 </r>
       <r>   28.8623    0.0000 </r>
       <r>   33.0449    0.0000 </r>
       <r>   33.6134    0.0000 </r>
      </set>
      <set comment="kpoint 21">
       <r>    1.3011    1.0000 </r>
       <r>    1.6611    1.0000 </r>
       <r>    2.9004    1.0000 </r>
       <r>    3.8039    1.0000 </r>
       <r>    4.6749    1.0654 </r>
       <r>    7.4143   -0.0153 </r>
       <r>   16.0322    0.0000 </r>
       <r>   16.5347    0.0000 </r>
       <r>   24.0247    0.0000 </r>
       <r>   25.3668    0.0000 </r>
       <r>   32.6851    0.0000 </r>
       <r>   35.3601    0.0000 </r>
      </set>
      <set comment="kpoint 22">
       <r>    1.3080    1.0000 </r>
       <r>    1.6557    1.0000 </r>
       <r>    2.7140    1.0000 </r>
       <r>    4.0900    1.0000 </r>
       <r>    4.8882    0.7813 </r>
       <r>   10.2937    0.0000 </r>
       <r>   12.3252    0.0000 </r>
       <r>   15.6130    0.0000 </r>
       <r>   24.0071    0.0000 </r>
       <r>   27.1037    0.0000 </r>
       <r>   30.1146    0.0000 </r>
       <r>   34.4220    0.0000 </r>
      </set>
      <set comment="kpoint 23">
       <r>    1.1006    1.0000 </r>
       <r>    1.6324    1.0000 </r>
       <r>    3.6614    1.0000 </r>
       <r>    3.6614    1.0000 </r>
       <r>    4.3174    1.1654 </r>
       <r>    6.8113   -0.0222 </r>
       <r>   18.4922    0.0000 </r>
       <r>   18.4922    0.0000 </r>
       <r>   20.8991    0.0000 </r>
       <r>   22.6851    0.0000 </r>
       <r>   33.8499    0.0000 </r>
       <r>   38.6735    0.0000 </r>
      </set>
      <set comment="kpoint 24">
       <r>    1.0688    1.0000 </r>
       <r>    1.1964    1.0000 </r>
       <r>    3.7906    1.0000 </r>
       <r>    4.0495    1.0000 </r>
       <r>    4.9612    0.3174 </r>
       <r>    9.7695    0.0000 </r>
       <r>   14.2978    0.0000 </r>
       <r>   16.7584    0.0000 </r>
       <r>   21.0020    0.0000 </r>
       <r>   23.7408    0.0000 </r>
       <r>   29.2723    0.0000 </r>
       <r>   38.1908    0.0000 </r>
      </set>
      <set comment="kpoint 25">
       <r>    0.9492    1.0000 </r>
       <r>    0.9492    1.0000 </r>
       <r>    3.8869    1.0000 </r>
       <r>    4.8173    1.0000 </r>
       <r>    4.8173    1.1004 </r>
       <r>   13.0318    0.0000 </r>
       <r>   13.0318    0.0000 </r>
       <r>   14.0369    0.0000 </r>
       <r>   22.4416    0.0000 </r>
       <r>   22.4416    0.0000 </r>
       <r>   26.7183    0.0000 </r>
       <r>   38.7142    0.0000 </r>
      </set>
      <set comment="kpoint 26">
       <r>    0.7082    1.0000 </r>
       <r>    0.7137    1.0000 </r>
       <r>    4.7793    1.0000 </r>
       <r>    4.7793    1.0000 </r>
       <r>    4.9292    0.2687 </r>
       <r>   12.4329    0.0000 </r>
       <r>   14.8418    0.0000 </r>
       <r>   14.8418    0.0000 </r>
       <r>   20.0195    0.0000 </r>
       <r>   21.1009    0.0000 </r>
       <r>   25.2595    0.0000 </r>
       <r>   41.9073    0.0000 </r>
      </set>
     </set>
     <set comment="spin 2">
      <set comment="kpoint 1">
       <r>   -1.9009    1.0000 </r>
       <r>    4.4234    1.0000 </r>
       <r>    4.4234    1.0000 </r>
       <r>    5.2401   -0.0172 </r>
       <r>    6.2407    0.0000 </r>
       <r>    6.2407    0.0000 </r>
       <r>   25.9244    0.0000 </r>
       <r>   25.9244    0.0000 </r>
       <r>   29.5369    0.0000 </r>
       <r>   30.0964    0.0000 </r>
       <r>   34.9083    0.0000 </r>
       <r>   34.9083    0.0000 </r>
      </set>
      <set comment="kpoint 2">
       <r>   -0.2905    1.0000 </r>
       <r>    3.9791    1.0000 </r>
       <r>    4.1324    1.0000 </r>
       <r>    6.1202   -0.0015 </r>
       <r>    6.2208    0.0000 </r>
       <r>    6.3802    0.0000 </r>
       <r>   20.8329    0.0000 </r>
       <r>   23.6934    0.0000 </r>
       <r>   25.8002    0.0000 </r>
       <r>   30.4963    0.0000 </r>
       <r>   34.4433    0.0000 </r>
       <r>   35.5481    0.0000 </r>
      </set>
      <set comment="kpoint 3">
       <r>    1.4314    1.0000 </r>
       <r>    3.5961    1.0000 </r>
       <r>    4.3028    1.0229 </r>
       <r>    6.2233    0.0000 </r>
       <r>    6.5003    0.0000 </r>
       <r>    7.4295    0.0000 </r>
       <r>   15.7498    0.0000 </r>
       <r>   22.0339    0.0000 </r>
       <r>   23.5231    0.0000 </r>
       <r>   30.0835    0.0000 </r>
       <r>   33.7900    0.0000 </r>
       <r>   38.7474    0.0000 </r>
      </set>
      <set comment="kpoint 4">
       <r>    1.8699    1.0000 </r>
       <r>    3.4496    1.0000 </r>
       <r>    5.1037    0.6947 </r>
       <r>    6.2877    0.0000 </r>
       <r>    6.5518    0.0000 </r>
       <r>    8.2939    0.0000 </r>
       <r>   13.0345    0.0000 </r>
       <r>   21.4180    0.0000 </r>
       <r>   22.6556    0.0000 </r>
       <r>   29.8909    0.0000 </r>
       <r>   33.7016    0.0000 </r>
       <r>   38.6624    0.0000 </r>
      </set>
      <set comment="kpoint 5">
       <r>   -2.4952    1.0000 </r>
       <r>    4.6397    1.0000 </r>
       <r>    4.6397    1.0000 </r>
       <r>    4.7381    0.4689 </r>
       <r>    6.1630    0.0000 </r>
       <r>    6.3868    0.0000 </r>
       <r>   27.6996    0.0000 </r>
       <r>   28.9468    0.0000 </r>
       <r>   28.9468    0.0000 </r>
       <r>   31.9531    0.0000 </r>
       <r>   34.0036    0.0000 </r>
       <r>   34.0036    0.0000 </r>
      </set>
      <set comment="kpoint 6">
       <r>    1.4256    1.0000 </r>
       <r>    3.6196    1.0000 </r>
       <r>    3.7295    1.0005 </r>
       <r>    6.1994    0.0000 </r>
       <r>    6.5033    0.0000 </r>
       <r>    7.6080    0.0000 </r>
       <r>   18.5309    0.0000 </r>
       <r>   19.0843    0.0000 </r>
       <r>   22.7298    0.0000 </r>
       <r>   32.3296    0.0000 </r>
       <r>   35.8904    0.0000 </r>
       <r>   38.1541    0.0000 </r>
      </set>
      <set comment="kpoint 7">
       <r>    2.4599    1.0000 </r>
       <r>    3.4136    1.0000 </r>
       <r>    4.0059    1.0102 </r>
       <r>    6.3308    0.0000 </r>
       <r>    6.5731    0.0000 </r>
       <r>    9.4953    0.0000 </r>
       <r>   14.1942    0.0000 </r>
       <r>   17.6263    0.0000 </r>
       <r>   21.5125    0.0000 </r>
       <r>   32.7116    0.0000 </r>
       <r>   36.8511    0.0000 </r>
       <r>   38.7660    0.0000 </r>
      </set>
      <set comment="kpoint 8">
       <r>   -1.3339    1.0000 </r>
       <r>    4.3503    1.0000 </r>
       <r>    4.5292    1.0000 </r>
       <r>    5.3571   -0.0131 </r>
       <r>    5.8574    0.0000 </r>
       <r>    6.4838    0.0000 </r>
       <r>   23.5485    0.0000 </r>
       <r>   26.6479    0.0000 </r>
       <r>   27.5519    0.0000 </r>
       <r>   31.3561    0.0000 </r>
       <r>   31.5143    0.0000 </r>
       <r>   32.9469    0.0000 </r>
      </set>
      <set comment="kpoint 9">
       <r>    2.9807    1.0000 </r>
       <r>    3.5584    1.0000 </r>
       <r>    3.5584    1.0006 </r>
       <r>    6.4865    0.0000 </r>
       <r>    6.4865    0.0000 </r>
       <r>   12.5592    0.0000 </r>
       <r>   12.5592    0.0000 </r>
       <r>   14.5667    0.0000 </r>
       <r>   21.0917    0.0000 </r>
       <r>   35.0297    0.0000 </r>
       <r>   35.0297    0.0000 </r>
       <r>   41.9729    0.0000 </r>
      </set>
      <set comment="kpoint 10">
       <r>    0.5339    1.0000 </r>
       <r>    3.9242    1.0000 </r>
       <r>    4.2987    1.0065 </r>
       <r>    5.9472    0.0000 </r>
       <r>    6.3909    0.0000 </r>
       <r>    6.5951    0.0000 </r>
       <r>   18.1227    0.0000 </r>
       <r>   24.3185    0.0000 </r>
       <r>   25.4566    0.0000 </r>
       <r>   29.8202    0.0000 </r>
       <r>   31.5726    0.0000 </r>
       <r>   34.3088    0.0000 </r>
      </set>
      <set comment="kpoint 11">
       <r>    0.1860    1.0000 </r>
       <r>    4.1385    1.0000 </r>
       <r>    4.2602    1.0018 </r>
       <r>    5.6346   -0.0010 </r>
       <r>    6.1473    0.0000 </r>
       <r>    6.7023    0.0000 </r>
       <r>   20.9744    0.0000 </r>
       <r>   21.7004    0.0000 </r>
       <r>   27.9807    0.0000 </r>
       <r>   28.0702    0.0000 </r>
       <r>   31.7847    0.0000 </r>
       <r>   36.1408    0.0000 </r>
      </set>
      <set comment="kpoint 12">
       <r>    1.6679    1.0000 </r>
       <r>    3.6372    1.0000 </r>
       <r>    4.9169    0.8510 </r>
       <r>    6.1405    0.0000 </r>
       <r>    7.0215    0.0000 </r>
       <r>    7.2406    0.0000 </r>
       <r>   13.8137    0.0000 </r>
       <r>   22.9730    0.0000 </r>
       <r>   23.8139    0.0000 </r>
       <r>   29.2079    0.0000 </r>
       <r>   31.8629    0.0000 </r>
       <r>   35.9530    0.0000 </r>
      </set>
      <set comment="kpoint 13">
       <r>    1.8178    1.0000 </r>
       <r>    3.7409    1.0000 </r>
       <r>    4.1338    1.0125 </r>
       <r>    5.8864    0.0000 </r>
       <r>    6.6708    0.0000 </r>
       <r>    7.7740    0.0000 </r>
       <r>   16.0880    0.0000 </r>
       <r>   19.6267    0.0000 </r>
       <r>   25.7493    0.0000 </r>
       <r>   28.9607    0.0000 </r>
       <r>   32.3985    0.0000 </r>
       <r>   36.7110    0.0000 </r>
      </set>
      <set comment="kpoint 14">
       <r>    2.2547    1.0000 </r>
       <r>    3.7456    1.0000 </r>
       <r>    4.2348    1.0263 </r>
       <r>    6.0171    0.0000 </r>
       <r>    6.9182    0.0000 </r>
       <r>    9.1854    0.0000 </r>
       <r>   13.0850    0.0000 </r>
       <r>   18.9411    0.0000 </r>
       <r>   24.9279    0.0000 </r>
       <r>   29.3316    0.0000 </r>
       <r>   33.3018    0.0000 </r>
       <r>   36.0813    0.0000 </r>
      </set>
      <set comment="kpoint 15">
       <r>    2.9255    1.0000 </r>
       <r>    3.3775    1.0000 </r>
       <r>    3.8596    1.0060 </r>
       <r>    6.1658    0.0000 </r>
       <r>    6.6087    0.0000 </r>
       <r>   10.3869    0.0000 </r>
       <r>   14.3705    0.0000 </r>
[...]
       </set>
       <set comment="band 5">
        <r>  0.0069  0.0015  0.0015  0.0114  0.0915  0.3322  0.1102  0.0915  0.3306 </r>
       </set>
       <set comment="band 6">
        <r>  0.0642  0.0403  0.0403  0.2019  0.0933  0.1358  0.0467  0.0933  0.1401 </r>
       </set>
       <set comment="band 7">
        <r>  0.0000  0.1931  0.1931  0.0000  0.1275  0.0000  0.1285  0.1275  0.0428 </r>
       </set>
       <set comment="band 8">
        <r>  0.4526  0.0428  0.0428  0.0288  0.0687  0.0827  0.0016  0.0687  0.0047 </r>
       </set>
       <set comment="band 9">
        <r>  0.0203  0.1802  0.1802  0.0942  0.0490  0.0810  0.0003  0.0490  0.0010 </r>
       </set>
       <set comment="band 10">
        <r>  0.0000  0.0434  0.0434  0.0000  0.0446  0.0000  0.2942  0.0446  0.0981 </r>
       </set>
       <set comment="band 11">
        <r>  0.0281  0.0116  0.0116  0.0242  0.0231  0.1326  0.0889  0.0231  0.2668 </r>
       </set>
       <set comment="band 12">
        <r>  0.1194  0.0366  0.0366  0.1757  0.2096  0.2104  0.0189  0.2097  0.0566 </r>
       </set>
      </set>
      <set comment="kpoint 16">
       <set comment="band 1">
        <r>  0.1453  0.0770  0.0770  0.0770  0.1338  0.1338  0.0000  0.1338  0.0000 </r>
       </set>
       <set comment="band 2">
        <r>  0.0000  0.0105  0.0443  0.0119  0.5242  0.1405  0.0465  0.1240  0.0001 </r>
       </set>
       <set comment="band 3">
        <r>  0.0000  0.0339  0.0001  0.0325  0.0016  0.3853  0.0001  0.4018  0.0465 </r>
       </set>
       <set comment="band 4">
        <r>  0.0000  0.0000  0.0000  0.0001  0.0278  0.0311  0.6508  0.0003  0.2731 </r>
       </set>
       <set comment="band 5">
        <r>  0.0000  0.0001  0.0000  0.0000  0.0117  0.0084  0.2731  0.0392  0.6508 </r>
       </set>
       <set comment="band 6">
        <r>  0.0764  0.0545  0.0545  0.0545  0.2169  0.2169  0.0000  0.2169  0.0000 </r>
       </set>
       <set comment="band 7">
        <r>  0.0000  0.0654  0.2161  0.0473  0.2502  0.0547  0.0348  0.0758  0.0005 </r>
       </set>
       <set comment="band 8">
        <r>  0.0000  0.1538  0.0031  0.1720  0.0036  0.1991  0.0005  0.1781  0.0348 </r>
       </set>
       <set comment="band 9">
        <r>  0.5484  0.0769  0.0769  0.0769  0.0008  0.0008  0.0000  0.0008  0.0000 </r>
       </set>
       <set comment="band 10">
        <r>  0.0000  0.0000  0.0000  0.0000  0.0000  0.0000  0.0000  0.0000  0.0000 </r>
       </set>
       <set comment="band 11">
        <r>  0.0000  0.0030  0.0002  0.0036  0.0160  0.2759  0.0037  0.2306  0.0779 </r>
       </set>
       <set comment="band 12">
        <r>  0.0000  0.0015  0.0043  0.0009  0.3324  0.0724  0.0779  0.1178  0.0037 </r>
       </set>
      </set>
      <set comment="kpoint 17">
       <set comment="band 1">
        <r>  0.0315  0.0000  0.0000  0.1107  0.0000  0.6728  0.0128  0.0000  0.0385 </r>
       </set>
       <set comment="band 2">
        <r>  0.0000  0.0377  0.0377  0.0000  0.4126  0.0000  0.0000  0.4126  0.0000 </r>
       </set>
       <set comment="band 3">
        <r>  0.0000  0.1029  0.1029  0.0000  0.3195  0.0000  0.0000  0.3195  0.0000 </r>
       </set>
       <set comment="band 4">
        <r>  0.0004  0.0000  0.0000  0.0004  0.0000  0.0682  0.2290  0.0000  0.6869 </r>
       </set>
       <set comment="band 5">
        <r>  0.0000  0.0000  0.0000  0.0000  0.0000  0.0000  0.7397  0.0000  0.2466 </r>
       </set>
       <set comment="band 6">
        <r>  0.0000  0.1715  0.1715  0.0000  0.2309  0.0000  0.0000  0.2309  0.0000 </r>
       </set>
       <set comment="band 7">
        <r>  0.2728  0.0000  0.0000  0.1564  0.0000  0.3678  0.0059  0.0000  0.0176 </r>
       </set>
       <set comment="band 8">
        <r>  0.0000  0.1672  0.1672  0.0000  0.2042  0.0000  0.0000  0.2042  0.0000 </r>
       </set>
       <set comment="band 9">
        <r>  0.4788  0.0000  0.0000  0.2232  0.0000  0.0607  0.0021  0.0000  0.0063 </r>
       </set>
       <set comment="band 10">
        <r>  0.0000  0.0001  0.0001  0.0000  0.1248  0.0000  0.0000  0.1248  0.0000 </r>
       </set>
       <set comment="band 11">
        <r>  0.0000  0.0247  0.0247  0.0000  0.0580  0.0000  0.0000  0.0580  0.0000 </r>
       </set>
       <set comment="band 12">
        <r>  0.0121  0.0000  0.0000  0.0945  0.0000  0.0999  0.1132  0.0000  0.3395 </r>
       </set>
      </set>
      <set comment="kpoint 18">
       <set comment="band 1">
        <r>  0.4864  0.0000  0.0000  0.1547  0.0000  0.0000  0.0106  0.0000  0.0319 </r>
       </set>
       <set comment="band 2">
        <r>  0.0000  0.0104  0.0104  0.0000  0.4668  0.0000  0.0000  0.4668  0.0000 </r>
       </set>
       <set comment="band 3">
        <r>  0.0000  0.0104  0.0104  0.0000  0.4668  0.0000  0.0000  0.4668  0.0000 </r>
       </set>
       <set comment="band 4">
        <r>  0.0000  0.0000  0.0000  0.0000  0.0000  0.0000  0.6833  0.0000  0.2278 </r>
       </set>
       <set comment="band 5">
        <r>  0.0000  0.0000  0.0000  0.0000  0.0000  0.9717  0.0000  0.0000  0.0000 </r>
       </set>
       <set comment="band 6">
        <r>  0.0263  0.0000  0.0000  0.0065  0.0000  0.0000  0.2365  0.0000  0.7095 </r>
       </set>
       <set comment="band 7">
        <r>  0.0000  0.0000  0.0000  0.0000  0.0000  0.0000  0.4130  0.0000  0.1377 </r>
       </set>
       <set comment="band 8">
        <r>  0.0000  0.1858  0.1859  0.0000  0.2477  0.0000  0.0000  0.2479  0.0000 </r>
       </set>
       <set comment="band 9">
        <r>  0.0000  0.1859  0.1858  0.0000  0.2479  0.0000  0.0000  0.2477  0.0000 </r>
       </set>
       <set comment="band 10">
        <r>  0.1716  0.0000  0.0000  0.2975  0.0000  0.0000  0.0000  0.0000  0.0000 </r>
       </set>
       <set comment="band 11">
        <r>  0.0000  0.1532  0.1552  0.0000  0.0116  0.0000  0.0000  0.0118  0.0000 </r>
       </set>
       <set comment="band 12">
        <r>  0.0000  0.1552  0.1532  0.0000  0.0118  0.0000  0.0000  0.0116  0.0000 </r>
       </set>
      </set>
      <set comment="kpoint 19">
       <set comment="band 1">
        <r>  0.3024  0.0069  0.0000  0.1956  0.0478  0.0000  0.0650  0.0000  0.0989 </r>
       </set>
       <set comment="band 2">
        <r>  0.0017  0.0242  0.0000  0.0096  0.1853  0.0000  0.4280  0.0000  0.2312 </r>
       </set>
       <set comment="band 3">
        <r>  0.0000  0.0000  0.0209  0.0000  0.0000  0.2749  0.0000  0.6528  0.0000 </r>
       </set>
       <set comment="band 4">
        <r>  0.0000  0.0213  0.0000  0.0069  0.6583  0.0000  0.2506  0.0000  0.0083 </r>
       </set>
       <set comment="band 5">
        <r>  0.0000  0.0000  0.0078  0.0000  0.0000  0.6976  0.0000  0.2699  0.0000 </r>
       </set>
       <set comment="band 6">
        <r>  0.0861  0.0073  0.0000  0.0474  0.0118  0.0000  0.1678  0.0000  0.6301 </r>
       </set>
       <set comment="band 7">
        <r>  0.0969  0.2702  0.0000  0.0373  0.2529  0.0000  0.0953  0.0000  0.0440 </r>
       </set>
       <set comment="band 8">
        <r>  0.0000  0.0000  0.4889  0.0000  0.0000  0.0086  0.0000  0.3578  0.0000 </r>
       </set>
       <set comment="band 9">
        <r>  0.0967  0.0000  0.0000  0.0804  0.0156  0.0000  0.3345  0.0000  0.0425 </r>
       </set>
       <set comment="band 10">
        <r>  0.0643  0.2016  0.0000  0.0728  0.1048  0.0000  0.0467  0.0000  0.1196 </r>
       </set>
       <set comment="band 11">
        <r>  0.0000  0.0000  0.1622  0.0000  0.0000  0.5468  0.0000  0.1477  0.0000 </r>
       </set>
       <set comment="band 12">
        <r>  0.0652  0.1644  0.0000  0.0116  0.1107  0.0000  0.1617  0.0000  0.0874 </r>
       </set>
      </set>
      <set comment="kpoint 20">
       <set comment="band 1">
        <r>  0.1094  0.0004  0.0000  0.0755  0.2525  0.0000  0.3460  0.0000  0.0340 </r>
       </set>
       <set comment="band 2">
        <r>  0.0043  0.0792  0.0000  0.0792  0.0256  0.0000  0.0959  0.0000  0.5350 </r>
       </set>
       <set comment="band 3">
        <r>  0.0000  0.0000  0.0205  0.0000  0.0000  0.4121  0.0000  0.5118  0.0000 </r>
       </set>
       <set comment="band 4">
        <r>  0.0200  0.0100  0.0000  0.0004  0.5046  0.0000  0.4069  0.0000  0.0057 </r>
       </set>
       <set comment="band 5">
        <r>  0.0000  0.0000  0.0022  0.0000  0.0000  0.5564  0.0000  0.4302  0.0000 </r>
       </set>
       <set comment="band 6">
        <r>  0.0719  0.0971  0.0000  0.2029  0.0447  0.0000  0.0325  0.0000  0.4069 </r>
       </set>
       <set comment="band 7">
        <r>  0.2672  0.1837  0.0000  0.0033  0.2769  0.0000  0.0877  0.0000  0.0269 </r>
       </set>
       <set comment="band 8">
        <r>  0.0000  0.0000  0.5688  0.0000  0.0000  0.0567  0.0000  0.1850  0.0000 </r>
       </set>
       <set comment="band 9">
        <r>  0.1109  0.0264  0.0000  0.0577  0.0042  0.0000  0.3572  0.0000  0.0046 </r>
       </set>
       <set comment="band 10">
        <r>  0.0128  0.1623  0.0000  0.0023  0.0250  0.0000  0.0413  0.0000  0.3441 </r>
       </set>
       <set comment="band 11">
        <r>  0.0000  0.0000  0.1380  0.0000  0.0000  0.4760  0.0000  0.3195  0.0000 </r>
       </set>
       <set comment="band 12">
        <r>  0.0008  0.1337  0.0000  0.2246  0.0037  0.0000  0.3262  0.0000  0.1128 </r>
       </set>
      </set>
      <set comment="kpoint 21">
       <set comment="band 1">
        <r>  0.1153  0.0044  0.0044  0.1610  0.0452  0.0002  0.1005  0.0452  0.3016 </r>
       </set>
       <set comment="band 2">
        <r>  0.0000  0.0171  0.0171  0.0000  0.0594  0.0000  0.5314  0.0594  0.1771 </r>
       </set>
       <set comment="band 3">
        <r>  0.0065  0.0137  0.0137  0.0072  0.2498  0.3192  0.0184  0.2498  0.0552 </r>
       </set>
       <set comment="band 4">
        <r>  0.0000  0.0145  0.0145  0.0000  0.3864  0.0000  0.1148  0.3864  0.0383 </r>
       </set>
       <set comment="band 5">
        <r>  0.0129  0.0002  0.0002  0.0063  0.1134  0.6087  0.0305  0.1134  0.0914 </r>
       </set>
       <set comment="band 6">
        <r>  0.1308  0.0168  0.0168  0.1769  0.0497  0.0427  0.0991  0.0497  0.2972 </r>
       </set>
       <set comment="band 7">
        <r>  0.0000  0.2072  0.2072  0.0000  0.1025  0.0000  0.1482  0.1025  0.0494 </r>
       </set>
       <set comment="band 8">
        <r>  0.2376  0.1414  0.1414  0.0329  0.0940  0.0249  0.0036  0.0940  0.0109 </r>
       </set>
       <set comment="band 9">
        <r>  0.0000  0.0579  0.0579  0.0000  0.0382  0.0000  0.3782  0.0382  0.1261 </r>
       </set>
       <set comment="band 10">
        <r>  0.0985  0.1212  0.1212  0.0440  0.0105  0.0015  0.0437  0.0105  0.1312 </r>
       </set>
       <set comment="band 11">
        <r>  0.0004  0.0621  0.0621  0.1386  0.0459  0.1967  0.0612  0.0459  0.1836 </r>
       </set>
       <set comment="band 12">
        <r>  0.1591  0.0001  0.0001  0.1563  0.1169  0.2180  0.0331  0.1169  0.0993 </r>
       </set>
      </set>
      <set comment="kpoint 22">
       <set comment="band 1">
        <r>  0.0253  0.0205  0.0182  0.0205  0.1497  0.0000  0.6071  0.0000  0.0000 </r>
       </set>
       <set comment="band 2">
        <r>  0.0000  0.0622  0.0000  0.0622  0.0000  0.0168  0.0000  0.0168  0.6664 </r>
       </set>
       <set comment="band 3">
        <r>  0.0307  0.0010  0.0185  0.0010  0.1598  0.3368  0.0434  0.3368  0.0000 </r>
       </set>
       <set comment="band 4">
        <r>  0.0096  0.0062  0.0114  0.0062  0.5131  0.1128  0.1864  0.1128  0.0000 </r>
       </set>
       <set comment="band 5">
        <r>  0.0000  0.0091  0.0000  0.0091  0.0000  0.4399  0.0000  0.4399  0.0823 </r>
       </set>
       <set comment="band 6">
        <r>  0.0000  0.2275  0.0000  0.2275  0.0000  0.0450  0.0000  0.0450  0.2701 </r>
       </set>
       <set comment="band 7">
        <r>  0.2726  0.0847  0.0342  0.0847  0.2430  0.0005  0.1193  0.0005  0.0000 </r>
       </set>
       <set comment="band 8">
        <r>  0.1588  0.0037  0.3682  0.0037  0.0010  0.0853  0.0774  0.0853  0.0000 </r>
       </set>
       <set comment="band 9">
        <r>  0.0351  0.0042  0.1477  0.0042  0.0113  0.0115  0.4301  0.0115  0.0000 </r>
       </set>
       <set comment="band 10">
        <r>  0.0000  0.0463  0.0000  0.0463  0.0000  0.0048  0.0000  0.0048  0.5199 </r>
       </set>
       <set comment="band 11">
        <r>  0.0532  0.2211  0.0775  0.2211  0.0005  0.0272  0.1115  0.0272  0.0000 </r>
       </set>
       <set comment="band 12">
        <r>  0.1961  0.0135  0.0106  0.0135  0.1858  0.2710  0.0050  0.2710  0.0000 </r>
       </set>
      </set>
      <set comment="kpoint 23">
       <set comment="band 1">
        <r>  0.1238  0.0000  0.0000  0.1845  0.0000  0.0000  0.1135  0.0000  0.3404 </r>
       </set>
       <set comment="band 2">
        <r>  0.0000  0.0000  0.0000  0.0000  0.0000  0.0000  0.6481  0.0000  0.2160 </r>
       </set>
       <set comment="band 3">
        <r>  0.0000  0.0214  0.0214  0.0000  0.4527  0.0000  0.0000  0.4527  0.0000 </r>
       </set>
       <set comment="band 4">
        <r>  0.0000  0.0214  0.0214  0.0000  0.4527  0.0000  0.0000  0.4527  0.0000 </r>
       </set>
       <set comment="band 5">
        <r>  0.0000  0.0000  0.0000  0.0000  0.0000  0.9767  0.0000  0.0000  0.0000 </r>
       </set>
       <set comment="band 6">
        <r>  0.1834  0.0000  0.0000  0.1639  0.0000  0.0000  0.1338  0.0000  0.4015 </r>
       </set>
       <set comment="band 7">
        <r>  0.0000  0.2763  0.2763  0.0000  0.1319  0.0000  0.0000  0.1318  0.0000 </r>
       </set>
       <set comment="band 8">
        <r>  0.0000  0.2763  0.2763  0.0000  0.1318  0.0000  0.0000  0.1319  0.0000 </r>
       </set>
       <set comment="band 9">
        <r>  0.0000  0.0000  0.0000  0.0000  0.0000  0.0000  0.5604  0.0000  0.1868 </r>
       </set>
       <set comment="band 10">
        <r>  0.3066  0.0000  0.0000  0.0875  0.0000  0.0000  0.0473  0.0000  0.1420 </r>
       </set>
       <set comment="band 11">
        <r>  0.1170  0.0000  0.0000  0.2991  0.0000  0.0000  0.1033  0.0000  0.3100 </r>
       </set>
       <set comment="band 12">
        <r>  0.0000  0.0000  0.0000  0.0000  0.0000  0.9577  0.0000  0.0000  0.0000 </r>
       </set>
      </set>
      <set comment="kpoint 24">
       <set comment="band 1">
        <r>  0.0209  0.0009  0.0000  0.0815  0.0199  0.0000  0.3763  0.0000  0.3222 </r>
       </set>
       <set comment="band 2">
        <r>  0.0000  0.0211  0.0000  0.0069  0.0124  0.0000  0.3944  0.0000  0.4108 </r>
       </set>
       <set comment="band 3">
        <r>  0.0000  0.0000  0.0342  0.0000  0.0000  0.3321  0.0000  0.5861  0.0000 </r>
       </set>
       <set comment="band 4">
        <r>  0.0182  0.0293  0.0000  0.0058  0.8365  0.0000  0.0565  0.0000  0.0018 </r>
       </set>
       <set comment="band 5">
        <r>  0.0000  0.0000  0.0022  0.0000  0.0000  0.6402  0.0000  0.3441  0.0000 </r>
       </set>
       <set comment="band 6">
        <r>  0.1326  0.0356  0.0000  0.3437  0.0309  0.0000  0.0465  0.0000  0.2198 </r>
       </set>
       <set comment="band 7">
        <r>  0.1256  0.4162  0.0000  0.0002  0.1563  0.0000  0.0487  0.0000  0.0480 </r>
       </set>
       <set comment="band 8">
        <r>  0.0000  0.0000  0.6107  0.0000  0.0000  0.0266  0.0000  0.1346  0.0000 </r>
       </set>
       <set comment="band 9">
        <r>  0.0924  0.0010  0.0000  0.0065  0.0051  0.0000  0.6291  0.0000  0.0139 </r>
       </set>
       <set comment="band 10">
        <r>  0.0934  0.1106  0.0000  0.0002  0.0093  0.0000  0.0013  0.0000  0.4764 </r>
       </set>
       <set comment="band 11">
        <r>  0.2609  0.0555  0.0000  0.2749  0.0119  0.0000  0.0874  0.0000  0.1175 </r>
       </set>
       <set comment="band 12">
        <r>  0.0000  0.0000  0.0705  0.0000  0.0000  0.4712  0.0000  0.2388  0.0000 </r>
       </set>
      </set>
      <set comment="kpoint 25">
       <set comment="band 1">
        <r>  0.0000  0.0166  0.0000  0.0166  0.0000  0.0038  0.0000  0.0038  0.7988 </r>
       </set>
       <set comment="band 2">
        <r>  0.0000  0.0055  0.0221  0.0055  0.0050  0.0013  0.7988  0.0013  0.0000 </r>
       </set>
       <set comment="band 3">
        <r>  0.0161  0.0114  0.0114  0.0114  0.2986  0.2986  0.0000  0.2986  0.0000 </r>
       </set>
       <set comment="band 4">
        <r>  0.0000  0.0029  0.0116  0.0029  0.6291  0.1573  0.0164  0.1573  0.0000 </r>
       </set>
       <set comment="band 5">
        <r>  0.0000  0.0087  0.0000  0.0087  0.0000  0.4718  0.0000  0.4718  0.0164 </r>
       </set>
       <set comment="band 6">
        <r>  0.0000  0.2794  0.0000  0.2794  0.0000  0.0265  0.0000  0.0265  0.1643 </r>
       </set>
       <set comment="band 7">
        <r>  0.0000  0.0931  0.3725  0.0931  0.0353  0.0088  0.1643  0.0088  0.0000 </r>
       </set>
       <set comment="band 8">
        <r>  0.2647  0.1190  0.1190  0.1190  0.0477  0.0477  0.0000  0.0477  0.0000 </r>
       </set>
       <set comment="band 9">
        <r>  0.0000  0.0402  0.0000  0.0402  0.0000  0.0032  0.0000  0.0032  0.6700 </r>
       </set>
       <set comment="band 10">
        <r>  0.0000  0.0134  0.0536  0.0134  0.0042  0.0011  0.6700  0.0011  0.0000 </r>
       </set>
       <set comment="band 11">
        <r>  0.4796  0.1004  0.1004  0.1004  0.0036  0.0036  0.0000  0.0036  0.0000 </r>
       </set>
       <set comment="band 12">
        <r>  0.0334  0.0189  0.0189  0.0189  0.2038  0.2038  0.0000  0.2038  0.0000 </r>
       </set>
      </set>
      <set comment="kpoint 26">
       <set comment="band 1">
        <r>  0.0012  0.0000  0.0000  0.0226  0.0000  0.0000  0.2035  0.0000  0.6104 </r>
       </set>
       <set comment="band 2">
        <r>  0.0000  0.0000  0.0000  0.0000  0.0000  0.0000  0.6335  0.0000  0.2112 </r>
       </set>
       <set comment="band 3">
        <r>  0.0000  0.0090  0.0090  0.0000  0.4789  0.0000  0.0000  0.4789  0.0000 </r>
       </set>
       <set comment="band 4">
        <r>  0.0000  0.0090  0.0090  0.0000  0.4789  0.0000  0.0000  0.4789  0.0000 </r>
       </set>
       <set comment="band 5">
        <r>  0.0000  0.0000  0.0000  0.0000  0.0000  0.9867  0.0000  0.0000  0.0000 </r>
       </set>
       <set comment="band 6">
        <r>  0.0860  0.0000  0.0000  0.5434  0.0000  0.0000  0.0286  0.0000  0.0859 </r>
       </set>
       <set comment="band 7">
        <r>  0.0000  0.3356  0.3356  0.0000  0.0257  0.0000  0.0000  0.0257  0.0000 </r>
       </set>
       <set comment="band 8">
        <r>  0.0000  0.3356  0.3356  0.0000  0.0257  0.0000  0.0000  0.0257  0.0000 </r>
       </set>
       <set comment="band 9">
        <r>  0.0000  0.0000  0.0000  0.0000  0.0000  0.0000  0.6349  0.0000  0.2116 </r>
       </set>
       <set comment="band 10">
        <r>  0.0877  0.0000  0.0000  0.0138  0.0000  0.0000  0.1733  0.0000  0.5198 </r>
       </set>
       <set comment="band 11">
        <r>  0.6130  0.0000  0.0000  0.1284  0.0000  0.0000  0.0142  0.0000  0.0426 </r>
       </set>
       <set comment="band 12">
        <r>  0.0000  0.0000  0.0000  0.0000  0.0000  0.2714  0.0000  0.0000  0.0000 </r>
       </set>
      </set>
     </set>
    </set>
   </array>
  </projected>
 </calculation>
 <structure name="finalpos" >
  <crystal>
   <varray name="basis" >
    <v>      -1.45000000       1.45000000       1.45000000 </v>
    <v>       1.45000000      -1.45000000       1.45000000 </v>
    <v>       1.45000000       1.45000000      -1.45000000 </v>
   </varray>
   <i name="volume">     12.19450000 </i>
   <varray name="rec_basis" >
    <v>       0.00000000       0.34482759       0.34482759 </v>
    <v>       0.34482759       0.00000000       0.34482759 </v>
    <v>       0.34482759       0.34482759       0.00000000 </v>
   </varray>
  </crystal>
  <varray name="positions" >
   <v>       0.00000000       0.00000000       0.00000000 </v>
  </varray>
 </structure>
</modeling>
