Si beta-tin                             
   2.00000000000000     
     0.987613    0.000000    0.000000
    -0.493806    0.855298    0.000000
     0.000000   -0.000000    1.674211
    S
     2
Direct
  0.000000  0.000000  0.000000
  0.333333  0.666667  0.500000
 
   28   28   48
 -3.0545     -2.8160     -2.1171     -1.0103     0.41079      2.0163      3.6581      5.1972      6.5284      7.5930    
  8.3781      8.9055      9.2188      9.3705      9.4114      9.3705      9.2188      8.9055      8.3781      7.5930    
  6.5284      5.1972      3.6581      2.0163     0.41079     -1.0103     -2.1171     -2.8160     -2.8160     -2.8160    
 -2.3537     -1.4622     -.21301      1.2833      2.8878      4.4569      5.8688      7.0429      7.9448      8.5806    
  8.9840      9.2035      9.2911      9.2911      9.2035      8.9840      8.5806      7.9448      7.0429      5.8688    
  4.4569      2.8878      1.2833     -.21301     -1.4622     -2.3537     -2.1171     -2.3408     -2.1171     -1.4622    
 -.42773     0.89675      2.3888      3.9105      5.3336      6.5618      7.5416      8.2617      8.7432      9.0274    
  9.1639      9.2008      9.1639      9.0274      8.7432      8.2617      7.5416      6.5618      5.3336      3.9105    
  2.3888     0.89675     -.42773     -1.4622     -1.0103     -1.4258     -1.4258     -1.0103     -.21301     0.89675    
  2.2161      3.6205      4.9846      6.2045      7.2127      7.9818      8.5193      8.8564      9.0373      9.1089    
  9.1089      9.0373      8.8564      8.5193      7.9818      7.2127      6.2045      4.9846      3.6205      2.2161    
 0.89675     -.21301     0.41079     -.14618     -.33738     -.14618     0.41079      1.2833      2.3888      3.6205    
  4.8634      6.0141      6.9974      7.7734      8.3366      8.7072      8.9217      9.0230      9.0514      9.0230    
  8.9217      8.7072      8.3366      7.7734      6.9974      6.0141      4.8634      3.6205      2.3888      1.2833    
  2.0163      1.3831      1.0506      1.0506      1.3831      2.0163      2.8878      3.9105      4.9846      6.0141    
  6.9224      7.6622      8.2170      8.5966      8.8286      8.9502      8.9998      8.9998      8.9502      8.8286    
  8.5966      8.2170      7.6622      6.9224      6.0141      4.9846      3.9105      2.8878      3.6581      3.0194    
  2.6075      2.4653      2.6075      3.0194      3.6581      4.4569      5.3336      6.2045      6.9974      7.6622    
  8.1754      8.5377      8.7682      8.8973      8.9592      8.9786      8.9592      8.8973      8.7682      8.5377    
  8.1754      7.6622      6.9974      6.2045      5.3336      4.4569      5.1972      4.6162      4.1888      3.9626    
  3.9626      4.1888      4.6161      5.1972      5.8688      6.5618      7.2127      7.7734      8.2170      8.5377    
  8.7473      8.8694      8.9334      8.9630      8.9630      8.9334      8.8694      8.7473      8.5377      8.2170    
  7.7734      7.2127      6.5618      5.8688      6.5284      6.0504      5.6623      5.4093      5.3214      5.4093    
  5.6623      6.0504      6.5284      7.0429      7.5415      7.9818      8.3366      8.5966      8.7682      8.8694    
  8.9245      8.9548      8.9648      8.9548      8.9245      8.8694      8.7682      8.5966      8.3366      7.9818    
  7.5416      7.0429      7.5930      7.2413      6.9300      6.6974      6.5731      6.5731      6.6974      6.9300    
  7.2413      7.5930      7.9448      8.2617      8.5193      8.7072      8.8286      8.8973      8.9334      8.9548    
  8.9654      8.9654      8.9548      8.9334      8.8973      8.8286      8.7072      8.5193      8.2617      7.9448    
  8.3781      8.1553      7.9393      7.7587      7.6389      7.5970      7.6389      7.7587      7.9393      8.1553    
  8.3781      8.5806      8.7432      8.8564      8.9217      8.9502      8.9592      8.9630      8.9648      8.9654    
  8.9648      8.9630      8.9592      8.9502      8.9217      8.8564      8.7432      8.5806      8.9055      8.7994    
  8.6804      8.5676      8.4796      8.4315      8.4315      8.4796      8.5676      8.6804      8.7994      8.9055    
  8.9840      9.0274      9.0373      9.0230      8.9998      8.9786      8.9630      8.9548      8.9548      8.9630    
  8.9786      8.9998      9.0230      9.0373      9.0274      8.9840      9.2188      9.2081      9.1764      9.1336    
  9.0915      9.0611      9.0501      9.0611      9.0915      9.1336      9.1764      9.2081      9.2188      9.2035    
  9.1639      9.1089      9.0514      8.9998      8.9592      8.9334      8.9245      8.9334      8.9592      8.9998    
  9.0514      9.1089      9.1639      9.2035      9.3705      9.4309      9.4700      9.4903      9.4974      9.4976    
  9.4963      9.4963      9.4976      9.4974      9.4903      9.4700      9.4309      9.3705      9.2911      9.2008    
  9.1089      9.0230      8.9502      8.8973      8.8694      8.8694      8.8973      8.9502      9.0230      9.1089    
  9.2008      9.2911      9.4114      9.5201      9.6118      9.6836      9.7359      9.7709      9.7907      9.7972    
  9.7907      9.7709      9.7359      9.6836      9.6118      9.5201      9.4114      9.2911      9.1639      9.0373    
  8.9217      8.8286      8.7682      8.7473      8.7682      8.8286      8.9217      9.0373      9.1639      9.2911    
  9.3705      9.5201      9.6503      9.7612      9.8513      9.9194      9.9651      9.9880      9.9880      9.9651    
  9.9194      9.8513      9.7612      9.6503      9.5201      9.3705      9.2035      9.0274      8.8564      8.7072    
  8.5966      8.5377      8.5377      8.5966      8.7072      8.8564      9.0274      9.2035      9.2188      9.4309    
  9.6118      9.7612      9.8843      9.9823      10.054      10.098      10.113      10.098      10.054      9.9823    
  9.8843      9.7612      9.6118      9.4309      9.2188      8.9840      8.7432      8.5193      8.3366      8.2170    
  8.1754      8.2170      8.3366      8.5193      8.7432      8.9840      8.9055      9.2081      9.4700      9.6836    
  9.8513      9.9823      10.083      10.151      10.186      10.186      10.151      10.083      9.9823      9.8513    
  9.6836      9.4700      9.2081      8.9055      8.5806      8.2617      7.9818      7.7734      7.6622      7.6622    
  7.7734      7.9818      8.2617      8.5806      8.3781      8.7994      9.1764      9.4903      9.7359      9.9194    
  10.054      10.151      10.210      10.230      10.210      10.151      10.054      9.9194      9.7359      9.4903    
  9.1764      8.7994      8.3781      7.9448      7.5415      7.2127      6.9974      6.9224      6.9974      7.2127    
  7.5416      7.9448      7.5930      8.1553      8.6804      9.1336      9.4974      9.7709      9.9651      10.098    
  10.186      10.230      10.230      10.186      10.098      9.9651      9.7709      9.4974      9.1336      8.6804    
  8.1553      7.5930      7.0429      6.5618      6.2045      6.0141      6.0141      6.2045      6.5618      7.0429    
  6.5284      7.2413      7.9393      8.5676      9.0915      9.4976      9.7907      9.9880      10.113      10.186    
  10.210      10.186      10.113      9.9880      9.7907      9.4976      9.0915      8.5676      7.9393      7.2413    
  6.5284      5.8688      5.3336      4.9846      4.8634      4.9846      5.3336      5.8688      5.1972      6.0504    
  6.9300      7.7587      8.4796      9.0611      9.4963      9.7972      9.9880      10.098      10.151      10.151    
  10.098      9.9880      9.7972      9.4963      9.0611      8.4796      7.7587      6.9300      6.0504      5.1972    
  4.4569      3.9105      3.6205      3.6205      3.9105      4.4569      3.6581      4.6161      5.6623      6.6974    
  7.6389      8.4315      9.0501      9.4963      9.7907      9.9651      10.054      10.083      10.054      9.9651    
  9.7907      9.4963      9.0501      8.4315      7.6389      6.6974      5.6623      4.6161      3.6581      2.8878    
  2.3888      2.2161      2.3888      2.8878      2.0163      3.0194      4.1888      5.4093      6.5731      7.5970    
  8.4315      9.0611      9.4976      9.7709      9.9194      9.9823      9.9823      9.9194      9.7709      9.4976    
  9.0611      8.4315      7.5970      6.5731      5.4093      4.1888      3.0194      2.0163      1.2833     0.89675    
 0.89675      1.2833     0.41079      1.3831      2.6075      3.9626      5.3214      6.5731      7.6389      8.4796    
  9.0915      9.4974      9.7359      9.8513      9.8843      9.8513      9.7359      9.4974      9.0915      8.4796    
  7.6389      6.5731      5.3214      3.9626      2.6075      1.3831     0.41079     -.21301     -.42773     -.21301    
 -1.0103     -.14618      1.0506      2.4653      3.9626      5.4093      6.6974      7.7587      8.5676      9.1336    
  9.4903      9.6836      9.7612      9.7612      9.6836      9.4903      9.1336      8.5676      7.7587      6.6974    
  5.4093      3.9626      2.4653      1.0506     -.14618     -1.0103     -1.4622     -1.4622     -2.1171     -1.4258    
 -.33738      1.0506      2.6075      4.1888      5.6623      6.9300      7.9393      8.6804      9.1764      9.4700    
  9.6118      9.6503      9.6118      9.4700      9.1764      8.6804      7.9393      6.9300      5.6623      4.1888    
  2.6075      1.0506     -.33738     -1.4258     -2.1171     -2.3537     -2.8160     -2.3408     -1.4258     -.14618    
  1.3831      3.0194      4.6161      6.0504      7.2413      8.1553      8.7994      9.2081      9.4309      9.5201    
  9.5201      9.4309      9.2081      8.7994      8.1553      7.2413      6.0504      4.6162      3.0194      1.3831    
 -.14618     -1.4258     -2.3408     -2.8160     -2.8379     -2.6025     -1.9130     -.82222     0.57667      2.1551    
  3.7674      5.2773      6.5820      7.6245      8.3924      8.9076      9.2132      9.3609      9.4008      9.3609    
  9.2132      8.9076      8.3924      7.6245      6.5820      5.2773      3.7674      2.1551     0.57667     -.82222    
 -1.9130     -2.6025     -2.6025     -2.6025     -2.1465     -1.2679     -.38093E-01  1.4332      3.0090      4.5484    
  5.9322      7.0819      7.9642      8.5854      8.9788      9.1925      9.2778      9.2778      9.1925      8.9788    
  8.5854      7.9642      7.0819      5.9322      4.5484      3.0090      1.4332     -.38093E-01 -1.2679     -2.1465    
 -1.9130     -2.1335     -1.9130     -1.2679     -.24978      1.0524      2.5176      4.0103      5.4050      6.6074    
  7.5657      8.2692      8.7389      9.0156      9.1483      9.1841      9.1483      9.0156      8.7389      8.2692    
  7.5657      6.6074      5.4050      4.0103      2.5176      1.0524     -.24978     -1.2679     -.82222     -1.2311    
 -1.2311     -.82222     -.38093E-01  1.0524      2.3475      3.7247      5.0611      6.2550      7.2407      7.9919    
  8.5160      8.8441      9.0198      9.0894      9.0894      9.0198      8.8441      8.5160      7.9919      7.2407    
  6.2550      5.0611      3.7247      2.3475      1.0524     -.38093E-01 0.57667     0.29531E-01 -.15836     0.29531E-01
 0.57667      1.4332      2.5176      3.7247      4.9416      6.0672      7.0280      7.7855      8.3343      8.6947    
  8.9029      9.0011      9.0288      9.0011      8.9029      8.6947      8.3343      7.7855      7.0280      6.0672    
  4.9416      3.7247      2.5176      1.4332      2.1551      1.5344      1.2082      1.2082      1.5344      2.1551    
  3.0090      4.0103      5.0611      6.0672      6.9540      7.6753      8.2154      8.5841      8.8089      8.9265    
  8.9746      8.9746      8.9265      8.8089      8.5841      8.2154      7.6753      6.9540      6.0672      5.0611    
  4.0103      3.0090      3.7674      3.1425      2.7393      2.6001      2.7393      3.1425      3.7674      4.5484    
  5.4050      6.2550      7.0280      7.6753      8.1740      8.5252      8.7480      8.8724      8.9321      8.9510    
  8.9321      8.8724      8.7480      8.5252      8.1740      7.6753      7.0280      6.2550      5.4050      4.5484    
  5.2773      4.7102      4.2929      4.0719      4.0719      4.2929      4.7102      5.2773      5.9322      6.6074    
  7.2407      7.7855      8.2154      8.5252      8.7269      8.8439      8.9052      8.9337      8.9337      8.9052    
  8.8439      8.7269      8.5252      8.2154      7.7855      7.2407      6.6074      5.9322      6.5820      6.1170    
  5.7391      5.4927      5.4071      5.4927      5.7391      6.1170      6.5820      7.0819      7.5657      7.9919    
  8.3343      8.5841      8.7480      8.8439      8.8960      8.9247      8.9342      8.9247      8.8960      8.8439    
  8.7480      8.5841      8.3343      7.9919      7.5657      7.0819      7.6245      7.2841      6.9824      6.7567    
  6.6361      6.6361      6.7567      6.9824      7.2841      7.6245      7.9642      8.2692      8.5160      8.6947    
  8.8089      8.8724      8.9052      8.9247      8.9343      8.9343      8.9247      8.9052      8.8724      8.8089    
  8.6947      8.5160      8.2692      7.9642      8.3924      8.1791      7.9714      7.7975      7.6819      7.6414    
  7.6819      7.7975      7.9714      8.1791      8.3924      8.5854      8.7389      8.8441      8.9029      8.9265    
  8.9321      8.9337      8.9342      8.9343      8.9342      8.9337      8.9321      8.9265      8.9029      8.8441    
  8.7389      8.5854      8.9076      8.8090      8.6970      8.5900      8.5062      8.4604      8.4604      8.5062    
  8.5900      8.6970      8.8090      8.9076      8.9788      9.0156      9.0198      9.0011      8.9746      8.9510    
  8.9337      8.9247      8.9247      8.9337      8.9510      8.9746      9.0011      9.0198      9.0156      8.9788    
  9.2132      9.2082      9.1820      9.1440      9.1057      9.0778      9.0677      9.0778      9.1057      9.1440    
  9.1820      9.2082      9.2132      9.1925      9.1483      9.0894      9.0288      8.9746      8.9321      8.9052    
  8.8960      8.9052      8.9321      8.9746      9.0288      9.0894      9.1483      9.1925      9.3609      9.4255    
  9.4687      9.4928      9.5031      9.5057      9.5055      9.5055      9.5057      9.5031      9.4928      9.4687    
  9.4255      9.3609      9.2778      9.1841      9.0894      9.0011      8.9265      8.8724      8.8439      8.8439    
  8.8724      8.9265      9.0011      9.0894      9.1841      9.2778      9.4008      9.5124      9.6070      9.6817    
  9.7365      9.7734      9.7945      9.8014      9.7945      9.7734      9.7365      9.6817      9.6070      9.5124    
  9.4008      9.2778      9.1483      9.0198      8.9029      8.8089      8.7480      8.7269      8.7480      8.8089    
  8.9029      9.0198      9.1483      9.2778      9.3609      9.5124      9.6447      9.7576      9.8495      9.9191    
  9.9659      9.9894      9.9894      9.9659      9.9191      9.8495      9.7576      9.6447      9.5124      9.3609    
  9.1925      9.0156      8.8441      8.6947      8.5841      8.5252      8.5252      8.5841      8.6947      8.8441    
  9.0156      9.1925      9.2132      9.4255      9.6070      9.7576      9.8820      9.9812      10.054      10.098    
  10.113      10.098      10.054      9.9812      9.8820      9.7576      9.6070      9.4255      9.2132      8.9788    
  8.7389      8.5160      8.3343      8.2154      8.1740      8.2154      8.3343      8.5160      8.7389      8.9788    
  8.9076      9.2082      9.4687      9.6817      9.8495      9.9812      10.082      10.151      10.186      10.186    
  10.151      10.082      9.9812      9.8495      9.6817      9.4687      9.2082      8.9076      8.5854      8.2692    
  7.9919      7.7855      7.6753      7.6753      7.7855      7.9919      8.2692      8.5854      8.3924      8.8090    
  9.1820      9.4928      9.7365      9.9191      10.054      10.151      10.210      10.230      10.210      10.151    
  10.054      9.9191      9.7365      9.4928      9.1820      8.8090      8.3924      7.9642      7.5657      7.2407    
  7.0280      6.9540      7.0280      7.2407      7.5657      7.9642      7.6245      8.1791      8.6970      9.1440    
  9.5031      9.7734      9.9659      10.098      10.186      10.230      10.230      10.186      10.098      9.9659    
  9.7734      9.5031      9.1440      8.6970      8.1791      7.6245      7.0819      6.6074      6.2550      6.0672    
  6.0672      6.2550      6.6074      7.0819      6.5820      7.2841      7.9714      8.5900      9.1057      9.5057    
  9.7945      9.9894      10.113      10.186      10.210      10.186      10.113      9.9894      9.7945      9.5057    
  9.1057      8.5900      7.9714      7.2841      6.5820      5.9322      5.4050      5.0611      4.9416      5.0611    
  5.4050      5.9322      5.2773      6.1170      6.9824      7.7975      8.5062      9.0778      9.5055      9.8014    
  9.9894      10.098      10.151      10.151      10.098      9.9894      9.8014      9.5055      9.0778      8.5062    
  7.7975      6.9824      6.1170      5.2773      4.5484      4.0103      3.7247      3.7247      4.0103      4.5484    
  3.7674      4.7102      5.7391      6.7567      7.6819      8.4604      9.0677      9.5055      9.7945      9.9659    
  10.054      10.082      10.054      9.9659      9.7945      9.5055      9.0677      8.4604      7.6819      6.7567    
  5.7391      4.7102      3.7674      3.0090      2.5176      2.3475      2.5176      3.0090      2.1551      3.1425    
  4.2929      5.4927      6.6361      7.6414      8.4604      9.0778      9.5057      9.7734      9.9191      9.9812    
  9.9812      9.9191      9.7734      9.5057      9.0778      8.4604      7.6414      6.6361      5.4927      4.2929    
  3.1425      2.1551      1.4332      1.0524      1.0524      1.4332     0.57667      1.5344      2.7393      4.0719    
  5.4071      6.6361      7.6819      8.5062      9.1057      9.5031      9.7365      9.8495      9.8820      9.8495    
  9.7365      9.5031      9.1057      8.5062      7.6819      6.6361      5.4071      4.0719      2.7393      1.5344    
 0.57667     -.38093E-01 -.24978     -.38093E-01 -.82222     0.29532E-01  1.2082      2.6001      4.0719      5.4927    
  6.7567      7.7975      8.5900      9.1440      9.4928      9.6817      9.7576      9.7576      9.6817      9.4928    
  9.1440      8.5900      7.7975      6.7567      5.4927      4.0719      2.6001      1.2082     0.29531E-01 -.82222    
 -1.2679     -1.2679     -1.9130     -1.2311     -.15836      1.2082      2.7393      4.2929      5.7391      6.9824    
  7.9714      8.6970      9.1820      9.4687      9.6070      9.6447      9.6070      9.4687      9.1820      8.6970    
  7.9714      6.9824      5.7391      4.2929      2.7393      1.2082     -.15836     -1.2311     -1.9130     -2.1465    
 -2.6025     -2.1335     -1.2311     0.29532E-01  1.5344      3.1425      4.7102      6.1170      7.2841      8.1791    
  8.8090      9.2082      9.4255      9.5124      9.5124      9.4255      9.2082      8.8090      8.1791      7.2841    
  6.1170      4.7102      3.1425      1.5344     0.29531E-01 -1.2311     -2.1335     -2.6025     -2.1999     -1.9739    
 -1.3131     -.27057      1.0619      2.5603      4.0857      5.5101      6.7375      7.7156      8.4337      8.9137    
  9.1970      9.3332      9.3701      9.3332      9.1970      8.9137      8.4337      7.7156      6.7375      5.5101    
  4.0857      2.5603      1.0619     -.27057     -1.3131     -1.9739     -1.9739     -1.9739     -1.5372     -.69753    
 0.47414      1.8711      3.3624      4.8146      6.1165      7.1950      8.0202      8.5989      8.9637      9.1608    
  9.2391      9.2391      9.1608      8.9637      8.5989      8.0202      7.1950      6.1165      4.8146      3.3624    
  1.8711     0.47414     -.69754     -1.5372     -1.3131     -1.5238     -1.3131     -.69754     0.27155      1.5072    
  2.8932      4.3009      5.6123      6.7397      7.6355      8.2907      8.7261      8.9811      9.1027      9.1358    
  9.1027      8.9811      8.7261      8.2907      7.6355      6.7397      5.6123      4.3009      2.8932      1.5072    
 0.27155     -.69754     -.27057     -.65958     -.65958     -.27057     0.47414      1.5072      2.7307      4.0280    
  5.2832      6.4015      7.3219      8.0207      8.5060      8.8081      8.9688      9.0325      9.0325      8.9688    
  8.8081      8.5060      8.0207      7.3219      6.4015      5.2832      4.0280      2.7307      1.5072     0.47414    
  1.0619     0.54408     0.36607     0.54408      1.0619      1.8711      2.8932      4.0280      5.1689      6.2212    
  7.1166      7.8199      8.3270      8.6580      8.8478      8.9371      8.9628      8.9371      8.8478      8.6580    
  8.3270      7.8199      7.1166      6.2212      5.1689      4.0280      2.8932      1.8711      2.5603      1.9760    
  1.6687      1.6687      1.9760      2.5603      3.3624      4.3009      5.2832      6.2212      7.0452      7.7128    
  8.2100      8.5472      8.7511      8.8572      8.9012      8.9012      8.8572      8.7511      8.5472      8.2100    
  7.7128      7.0452      6.2212      5.2832      4.3009      3.3624      4.0857      3.5013      3.1238      2.9933    
  3.1238      3.5013      4.0857      4.8146      5.6123      6.4015      7.1166      7.7128      8.1694      8.4883    
  8.6887      8.7995      8.8532      8.8704      8.8532      8.7995      8.6887      8.4883      8.1694      7.7128    
  7.1166      6.4015      5.6123      4.8146      5.5101      4.9838      4.5958      4.3901      4.3901      4.5958    
  4.9838      5.5101      6.1165      6.7397      7.3219      7.8199      8.2100      8.4883      8.6670      8.7693    
  8.8229      8.8482      8.8482      8.8229      8.7693      8.6670      8.4883      8.2100      7.8199      7.3219    
  6.7397      6.1165      6.7375      6.3104      5.9625      5.7352      5.6562      5.7352      5.9625      6.3104    
  6.7375      7.1950      7.6355      8.0207      8.3270      8.5472      8.6887      8.7693      8.8125      8.8367    
  8.8447      8.8367      8.8125      8.7693      8.6887      8.5472      8.3270      8.0207      7.6355      7.1950    
  7.7156      7.4082      7.1344      6.9290      6.8190      6.8190      6.9290      7.1344      7.4082      7.7156    
  8.0202      8.2907      8.5060      8.6580      8.7511      8.7995      8.8229      8.8367      8.8434      8.8434    
  8.8367      8.8229      8.7995      8.7511      8.6580      8.5060      8.2907      8.0202      8.4337      8.2477    
  8.0644      7.9097      7.8065      7.7703      7.8065      7.9097      8.0644      8.2477      8.4337      8.5989    
  8.7261      8.8081      8.8478      8.8572      8.8532      8.8482      8.8447      8.8434      8.8447      8.8482    
  8.8532      8.8572      8.8478      8.8081      8.7261      8.5989      8.9137      8.8366      8.7447      8.6547    
  8.5833      8.5439      8.5439      8.5833      8.6547      8.7447      8.8366      8.9137      8.9637      8.9811    
  8.9688      8.9371      8.9012      8.8704      8.8482      8.8367      8.8367      8.8482      8.8704      8.9012    
  8.9371      8.9688      8.9811      8.9637      9.1970      9.2083      9.1980      9.1741      9.1469      9.1261    
  9.1183      9.1261      9.1469      9.1741      9.1980      9.2083      9.1970      9.1608      9.1027      9.0325    
  8.9628      8.9012      8.8532      8.8229      8.8125      8.8229      8.8532      8.9012      8.9628      9.0325    
  9.1027      9.1608      9.3332      9.4097      9.4649      9.5001      9.5197      9.5289      9.5322      9.5322    
  9.5289      9.5197      9.5001      9.4649      9.4097      9.3332      9.2391      9.1358      9.0325      8.9371    
  8.8572      8.7995      8.7693      8.7693      8.7995      8.8572      8.9371      9.0325      9.1358      9.2391    
  9.3701      9.4901      9.5933      9.6762      9.7383      9.7808      9.8055      9.8136      9.8055      9.7808    
  9.7383      9.6762      9.5933      9.4901      9.3701      9.2391      9.1027      8.9688      8.8478      8.7511    
  8.6887      8.6670      8.6887      8.7511      8.8478      8.9688      9.1027      9.2391      9.3332      9.4901    
  9.6287      9.7475      9.8446      9.9185      9.9683      9.9934      9.9934      9.9683      9.9185      9.8446    
  9.7475      9.6287      9.4901      9.3332      9.1608      8.9811      8.8081      8.6580      8.5472      8.4883    
  8.4883      8.5472      8.6580      8.8081      8.9811      9.1608      9.1970      9.4097      9.5933      9.7475    
  9.8759      9.9782      10.053      10.099      10.115      10.099      10.053      9.9782      9.8759      9.7475    
  9.5933      9.4097      9.1970      8.9637      8.7261      8.5060      8.3270      8.2100      8.1694      8.2100    
  8.3270      8.5060      8.7261      8.9637      8.9137      9.2083      9.4649      9.6762      9.8446      9.9782    
  10.081      10.151      10.186      10.186      10.151      10.081      9.9782      9.8446      9.6762      9.4649    
  9.2083      8.9137      8.5989      8.2907      8.0207      7.8199      7.7128      7.7128      7.8199      8.0207    
  8.2907      8.5989      8.4337      8.8366      9.1980      9.5001      9.7383      9.9185      10.053      10.151    
  10.210      10.230      10.210      10.151      10.053      9.9185      9.7383      9.5001      9.1980      8.8366    
  8.4337      8.0202      7.6355      7.3219      7.1166      7.0452      7.1166      7.3219      7.6355      8.0202    
  7.7156      8.2477      8.7447      9.1741      9.5197      9.7808      9.9683      10.099      10.186      10.230    
  10.230      10.186      10.099      9.9683      9.7808      9.5197      9.1741      8.7447      8.2477      7.7156    
  7.1950      6.7397      6.4015      6.2212      6.2212      6.4015      6.7397      7.1950      6.7375      7.4082    
  8.0644      8.6547      9.1469      9.5289      9.8055      9.9934      10.115      10.186      10.210      10.186    
  10.115      9.9934      9.8055      9.5289      9.1469      8.6547      8.0644      7.4082      6.7375      6.1165    
  5.6123      5.2832      5.1689      5.2832      5.6123      6.1165      5.5101      6.3104      7.1344      7.9097    
  8.5833      9.1261      9.5322      9.8136      9.9934      10.099      10.151      10.151      10.099      9.9934    
  9.8136      9.5322      9.1261      8.5833      7.9097      7.1344      6.3104      5.5101      4.8146      4.3009    
  4.0280      4.0280      4.3009      4.8146      4.0857      4.9838      5.9625      6.9290      7.8065      8.5439    
  9.1183      9.5322      9.8055      9.9683      10.053      10.081      10.053      9.9683      9.8055      9.5322    
  9.1183      8.5439      7.8065      6.9290      5.9625      4.9838      4.0857      3.3624      2.8932      2.7307    
  2.8932      3.3624      2.5603      3.5013      4.5958      5.7352      6.8190      7.7703      8.5439      9.1261    
  9.5289      9.7808      9.9185      9.9782      9.9782      9.9185      9.7808      9.5289      9.1261      8.5439    
  7.7703      6.8190      5.7352      4.5958      3.5013      2.5603      1.8711      1.5072      1.5072      1.8711    
  1.0619      1.9760      3.1238      4.3901      5.6562      6.8190      7.8065      8.5833      9.1469      9.5197    
  9.7383      9.8446      9.8759      9.8446      9.7383      9.5197      9.1469      8.5833      7.8065      6.8190    
  5.6562      4.3901      3.1238      1.9760      1.0619     0.47414     0.27155     0.47414     -.27057     0.54408    
  1.6687      2.9933      4.3901      5.7352      6.9290      7.9097      8.6547      9.1741      9.5001      9.6762    
  9.7475      9.7475      9.6762      9.5001      9.1741      8.6547      7.9097      6.9290      5.7352      4.3901    
  2.9933      1.6687     0.54408     -.27057     -.69754     -.69753     -1.3131     -.65958     0.36607      1.6687    
  3.1238      4.5958      5.9625      7.1344      8.0644      8.7447      9.1980      9.4649      9.5933      9.6287    
  9.5933      9.4649      9.1980      8.7447      8.0644      7.1344      5.9625      4.5958      3.1238      1.6687    
 0.36607     -.65958     -1.3131     -1.5372     -1.9739     -1.5238     -.65958     0.54408      1.9760      3.5013    
  4.9838      6.3104      7.4082      8.2477      8.8366      9.2083      9.4097      9.4901      9.4901      9.4097    
  9.2083      8.8366      8.2477      7.4082      6.3104      4.9838      3.5013      1.9760     0.54408     -.65958    
 -1.5238     -1.9739     -1.1787     -.96886     -.35663     0.60536      1.8289      3.1978      4.5846      5.8736    
  6.9795      7.8566      8.4971      8.9223      9.1712      9.2900      9.3228      9.2900      9.1712      8.9223    
  8.4971      7.8566      6.9795      5.8736      4.5846      3.1978      1.8289     0.60536     -.35663     -.96886    
 -.96886     -.96886     -.56481     0.20953      1.2853      2.5616      3.9172      5.2312      6.4036      7.3704    
  8.1062      8.6188      8.9393      9.1108      9.1789      9.1789      9.1108      8.9393      8.6188      8.1062    
  7.3704      6.4036      5.2312      3.9172      2.5616      1.2853     0.20953     -.56481     -.35663     -.55082    
 -.35663     0.20953      1.0977      2.2251      3.4837      4.7560      5.9357      6.9452      7.7430      8.3228    
  8.7049      8.9265      9.0313      9.0605      9.0313      8.9265      8.7049      8.3228      7.7430      6.9452    
  5.9357      4.7560      3.4837      2.2251      1.0977     0.20953     0.60536     0.24928     0.24928     0.60536    
  1.2853      2.2251      3.3334      4.5034      5.6302      6.6293      7.4472      8.0641      8.4890      8.7506    