Si beta-tin                             
   2.00000000000000     
     0.993422    0.000000    0.000000
    -0.496711    0.860328    0.000000
     0.000000   -0.000000    1.654689
    S
     2
Direct
 -0.000000  0.000000  0.000000
  0.333333  0.666667  0.500000
 
   28   28   48
 -.30595738617E+01 -.28218072688E+01 -.21245128918E+01 -.10189380077E+01 0.40366362573E+00
 0.20157090206E+01 0.36707283091E+01 0.52299188204E+01 0.65866787567E+01 0.76797530423E+01
 0.84928468385E+01 0.90449239221E+01 0.93771459363E+01 0.95404331511E+01 0.95850158430E+01
 0.95404331341E+01 0.93771459128E+01 0.90449239085E+01 0.84928468497E+01 0.76797530846E+01
 0.65866788248E+01 0.52299188987E+01 0.36707283785E+01 0.20157090653E+01 0.40366363993E+00
 -.10189380182E+01 -.21245129129E+01 -.28218072844E+01 -.28218072844E+01 -.28218072922E+01
 -.23600677754E+01 -.14689917619E+01 -.21828383104E+00 0.12835348280E+01 0.28994764077E+01
 0.44866967345E+01 0.59228117345E+01 0.71250009513E+01 0.80560444981E+01 0.87187356998E+01
 0.91441796786E+01 0.93790461764E+01 0.94742838333E+01 0.94742838493E+01 0.93790462228E+01
 0.91441797510E+01 0.87187357916E+01 0.80560446017E+01 0.71250010589E+01 0.59228118393E+01
 0.44866968311E+01 0.28994764924E+01 0.12835348984E+01 -.21828377608E+00 -.14689917227E+01
 -.23600677520E+01 -.21245129129E+01 -.23483499503E+01 -.21245129537E+01 -.14689917950E+01
 -.43218997916E+00 0.89798593860E+00 0.24008264950E+01 0.39395770184E+01 0.53858257981E+01
 0.66416014425E+01 0.76510149381E+01 0.83997227335E+01 0.89060416061E+01 0.92089936224E+01
 0.93567913289E+01 0.93969857978E+01 0.93567913754E+01 0.92089937049E+01 0.89060417077E+01
 0.83997228371E+01 0.76510150321E+01 0.66416015242E+01 0.53858258727E+01 0.39395770945E+01
 0.24008265788E+01 0.89798602946E+00 -.43218989023E+00 -.14689917227E+01 -.10189380182E+01
 -.14358039343E+01 -.14358039643E+01 -.10189380993E+01 -.21828388467E+00 0.89798592257E+00
 0.22284197535E+01 0.36495928594E+01 0.50363089925E+01 0.62835428601E+01 0.73216475220E+01
 0.81206317094E+01 0.86850175476E+01 0.90437833101E+01 0.92393961300E+01 0.93179175258E+01
 0.93179175387E+01 0.92393961631E+01 0.90437833495E+01 0.86850175777E+01 0.81206317210E+01
 0.73216475176E+01 0.62835428535E+01 0.50363090031E+01 0.36495929030E+01 0.22284198344E+01
 0.89798602946E+00 -.21828377608E+00 0.40366363993E+00 -.15726263406E+00 -.34969589396E+00
 -.15726270117E+00 0.40366352998E+00 0.12835347850E+01 0.24008265020E+01 0.36495928893E+01
 0.49150249770E+01 0.60929953066E+01 0.71064451347E+01 0.79132759190E+01 0.85050839732E+01
 0.88997903973E+01 0.91319954580E+01 0.92435501538E+01 0.92746635516E+01 0.92435501511E+01
 0.91319954422E+01 0.88997903538E+01 0.85050838931E+01 0.79132758070E+01 0.71064450112E+01
 0.60929952028E+01 0.49150249233E+01 0.36495929030E+01 0.24008265788E+01 0.12835348984E+01
 0.20157090653E+01 0.13748256576E+01 0.10386014302E+01 0.10386013957E+01 0.13748255697E+01
 0.20157089644E+01 0.28994764275E+01 0.39395771043E+01 0.50363091008E+01 0.60929953721E+01
 0.70316188809E+01 0.78027190068E+01 0.83874260999E+01 0.87930639072E+01 0.90454084151E+01
 0.91802264276E+01 0.92353660921E+01 0.92353660934E+01 0.91802264227E+01 0.90454083820E+01
 0.87930638232E+01 0.83874259560E+01 0.78027188162E+01 0.70316186785E+01 0.60929952028E+01
 0.50363090031E+01 0.39395770945E+01 0.28994764924E+01 0.36707283785E+01 0.30199223594E+01
 0.26009287191E+01 0.24564070319E+01 0.26009286787E+01 0.30199223047E+01 0.36707283501E+01
 0.44866968658E+01 0.53858259861E+01 0.62835430321E+01 0.71064452166E+01 0.78027190000E+01
 0.83465003305E+01 0.87362414526E+01 0.89891486909E+01 0.91340604500E+01 0.92043440437E+01
 0.92262261306E+01 0.92043440790E+01 0.91340604955E+01 0.89891487077E+01 0.87362414064E+01
 0.83465002079E+01 0.78027188162E+01 0.71064450112E+01 0.62835428535E+01 0.53858258727E+01
 0.44866968311E+01 0.52299188987E+01 0.46326627772E+01 0.41945017086E+01 0.39628636612E+01
 0.39628636671E+01 0.41945017305E+01 0.46326628250E+01 0.52299189807E+01 0.59228119542E+01
 0.66416016569E+01 0.73216476411E+01 0.79132758905E+01 0.83874259770E+01 0.87362413599E+01
 0.89696423251E+01 0.91097297815E+01 0.91846154791E+01 0.92191433309E+01 0.92191433649E+01
 0.91846155689E+01 0.91097298950E+01 0.89696424222E+01 0.87362414064E+01 0.83874259560E+01
 0.79132758070E+01 0.73216475176E+01 0.66416015242E+01 0.59228118393E+01 0.65866788248E+01
 0.60894125839E+01 0.56871810978E+01 0.54256225617E+01 0.53349307776E+01 0.54256226434E+01
 0.56871812372E+01 0.60894127412E+01 0.65866789560E+01 0.71250011292E+01 0.76510150248E+01
 0.81206316399E+01 0.85050837587E+01 0.87930636646E+01 0.89891485534E+01 0.91097297668E+01
 0.91778617325E+01 0.92153647617E+01 0.92278402106E+01 0.92153648072E+01 0.91778618220E+01
 0.91097298950E+01 0.89891487077E+01 0.87930638232E+01 0.85050838931E+01 0.81206317210E+01
 0.76510150321E+01 0.71250010589E+01 0.76797530846E+01 0.73072211344E+01 0.69796407839E+01
 0.67359013660E+01 0.66059416648E+01 0.66059417335E+01 0.67359015438E+01 0.69796409974E+01
 0.73072212941E+01 0.76797531204E+01 0.80560444893E+01 0.83997226052E+01 0.86850172944E+01
 0.88997900972E+01 0.90454082094E+01 0.91340604240E+01 0.91846155741E+01 0.92153648409E+01
 0.92307291026E+01 0.92307290853E+01 0.92153648072E+01 0.91846155689E+01 0.91340604955E+01
 0.90454083820E+01 0.88997903538E+01 0.86850175777E+01 0.83997228371E+01 0.80560446017E+01
 0.84928468497E+01 0.82494715221E+01 0.80164559017E+01 0.78233211397E+01 0.76957969574E+01
 0.76512512807E+01 0.76957970780E+01 0.78233213195E+01 0.80164560452E+01 0.82494715419E+01
 0.84928467061E+01 0.87187355107E+01 0.89060413726E+01 0.90437830651E+01 0.91319952920E+01
 0.91802264345E+01 0.92043442144E+01 0.92191435382E+01 0.92278403276E+01 0.92307291026E+01
 0.92278402106E+01 0.92191433649E+01 0.92043440790E+01 0.91802264227E+01 0.91319954422E+01
 0.90437833495E+01 0.89060417077E+01 0.87187357916E+01 0.90449239085E+01 0.89198592774E+01
 0.87847383398E+01 0.86591629175E+01 0.85624898956E+01 0.85099795247E+01 0.85099795492E+01
 0.85624899496E+01 0.86591629531E+01 0.87847383051E+01 0.89198591452E+01 0.90449236943E+01
 0.91441795123E+01 0.92089935210E+01 0.92393961022E+01 0.92435502404E+01 0.92353663047E+01
 0.92262263878E+01 0.92191435382E+01 0.92153648409E+01 0.92153647617E+01 0.92191433309E+01
 0.92262261306E+01 0.92353660934E+01 0.92435501511E+01 0.92393961631E+01 0.92089937049E+01
 0.91441797510E+01 0.93771459128E+01 0.93503535455E+01 0.93044865577E+01 0.92500639292E+01
 0.91994595494E+01 0.91639189954E+01 0.91511613716E+01 0.91639189311E+01 0.91994594333E+01
 0.92500637842E+01 0.93044864136E+01 0.93503534343E+01 0.93771458621E+01 0.93790462503E+01
 0.93567914839E+01 0.93179177143E+01 0.92746637652E+01 0.92353663047E+01 0.92043442144E+01
 0.91846155741E+01 0.91778617325E+01 0.91846154791E+01 0.92043440437E+01 0.92353660921E+01
 0.92746635516E+01 0.93179175387E+01 0.93567913754E+01 0.93790462228E+01 0.95404331341E+01
 0.95882699009E+01 0.96161299842E+01 0.96270532974E+01 0.96269255203E+01 0.96222930272E+01
 0.96185034900E+01 0.96185034158E+01 0.96222928342E+01 0.96269252859E+01 0.96270531162E+01
 0.96161299314E+01 0.95882700043E+01 0.95404333660E+01 0.94742841409E+01 0.93969860682E+01
 0.93179177143E+01 0.92435502404E+01 0.91802264345E+01 0.91340604240E+01 0.91097297668E+01
 0.91097297815E+01 0.91340604500E+01 0.91802264276E+01 0.92435501538E+01 0.93179175258E+01
 0.93969857978E+01 0.94742838493E+01 0.95850158430E+01 0.96849462356E+01 0.97688183633E+01
 0.98341063030E+01 0.98813967806E+01 0.99128038388E+01 0.99305917036E+01 0.99363376303E+01
 0.99305915648E+01 0.99128036308E+01 0.98813966116E+01 0.98341062722E+01 0.97688185159E+01
 0.96849465418E+01 0.95850162092E+01 0.94742841409E+01 0.93567914839E+01 0.92393961022E+01
 0.91319952920E+01 0.90454082094E+01 0.89891485534E+01 0.89696423251E+01 0.89891486909E+01
 0.90454084151E+01 0.91319954580E+01 0.92393961300E+01 0.93567913289E+01 0.94742838333E+01
 0.95404331511E+01 0.96849462681E+01 0.98105941077E+01 0.99181615855E+01 0.10005930879E+02
 0.10072549353E+02 0.10117366808E+02 0.10139924572E+02 0.10139924538E+02 0.10117366730E+02
 0.10072549291E+02 0.10005930898E+02 0.99181617220E+01 0.98105943462E+01 0.96849465418E+01
 0.95404333660E+01 0.93790462503E+01 0.92089935210E+01 0.90437830651E+01 0.88997900972E+01
 0.87930636646E+01 0.87362413599E+01 0.87362414526E+01 0.87930639072E+01 0.88997903973E+01
 0.90437833101E+01 0.92089936224E+01 0.93790461764E+01 0.93771459363E+01 0.95882699875E+01
 0.97688184303E+01 0.99181616003E+01 0.10041317355E+02 0.10140041254E+02 0.10212713522E+02
 0.10257427773E+02 0.10272547353E+02 0.10257427810E+02 0.10212713595E+02 0.10140041360E+02
 0.10041317481E+02 0.99181617220E+01 0.97688185159E+01 0.95882700043E+01 0.93771458621E+01
 0.91441795123E+01 0.89060413726E+01 0.86850172944E+01 0.85050837587E+01 0.83874259770E+01
 0.83465003305E+01 0.83874260999E+01 0.85050839732E+01 0.86850175476E+01 0.89060416061E+01
 0.91441796786E+01 0.90449239221E+01 0.93503536575E+01 0.96161300988E+01 0.98341063432E+01
 0.10005930861E+02 0.10140041237E+02 0.10242955242E+02 0.10313407644E+02 0.10349320470E+02
 0.10349320519E+02 0.10313407772E+02 0.10242955399E+02 0.10140041360E+02 0.10005930898E+02
 0.98341062722E+01 0.96161299314E+01 0.93503534343E+01 0.90449236943E+01 0.87187355107E+01
 0.83997226052E+01 0.81206316399E+01 0.79132758905E+01 0.78027190000E+01 0.78027190068E+01
 0.79132759190E+01 0.81206317094E+01 0.83997227335E+01 0.87187356998E+01 0.84928468385E+01
 0.89198593803E+01 0.93044866887E+01 0.96270533525E+01 0.98813967462E+01 0.10072549302E+02
 0.10212713511E+02 0.10313407655E+02 0.10374999440E+02 0.10395765541E+02 0.10374999521E+02
 0.10313407772E+02 0.10212713595E+02 0.10072549291E+02 0.98813966116E+01 0.96270531162E+01
 0.93044864136E+01 0.89198591452E+01 0.84928467061E+01 0.80560444893E+01 0.76510150248E+01
 0.73216476411E+01 0.71064452166E+01 0.70316188809E+01 0.71064451347E+01 0.73216475220E+01
 0.76510149381E+01 0.80560444981E+01 0.76797530423E+01 0.82494715889E+01 0.87847384571E+01
 0.92500639873E+01 0.96269254761E+01 0.99128037598E+01 0.10117366782E+02 0.10257427803E+02
 0.10349320490E+02 0.10395765527E+02 0.10395765541E+02 0.10349320519E+02 0.10257427810E+02
 0.10117366730E+02 0.99128036308E+01 0.96269252859E+01 0.92500637842E+01 0.87847383051E+01
 0.82494715419E+01 0.76797531204E+01 0.71250011292E+01 0.66416016569E+01 0.62835430321E+01
 0.60929953721E+01 0.60929953066E+01 0.62835428601E+01 0.66416014425E+01 0.71250009513E+01
 0.65866787567E+01 0.73072211561E+01 0.80164559877E+01 0.86591629714E+01 0.91994595046E+01
 0.96222929282E+01 0.99305916548E+01 0.10139924607E+02 0.10272547397E+02 0.10349320490E+02
 0.10374999440E+02 0.10349320470E+02 0.10272547353E+02 0.10139924538E+02 0.99305915648E+01
 0.96222928342E+01 0.91994594333E+01 0.86591629531E+01 0.80164560452E+01 0.73072212941E+01
 0.65866789560E+01 0.59228119542E+01 0.53858259861E+01 0.50363091008E+01 0.49150249770E+01
 0.50363089925E+01 0.53858257981E+01 0.59228117345E+01 0.52299188204E+01 0.60894125717E+01
 0.69796408393E+01 0.78233211907E+01 0.85624898620E+01 0.91639188885E+01 0.96185034132E+01
 0.99363376552E+01 0.10139924607E+02 0.10257427803E+02 0.10313407655E+02 0.10313407644E+02
 0.10257427773E+02 0.10139924572E+02 0.99363376303E+01 0.96185034158E+01 0.91639189311E+01
 0.85624899496E+01 0.78233213195E+01 0.69796409974E+01 0.60894127412E+01 0.52299189807E+01
 0.44866968658E+01 0.39395771043E+01 0.36495928893E+01 0.36495928594E+01 0.39395770184E+01
 0.44866967345E+01 0.36707283091E+01 0.46326627559E+01 0.56871811390E+01 0.67359014230E+01
 0.76957969475E+01 0.85099794248E+01 0.91511612671E+01 0.96185034132E+01 0.99305916548E+01
 0.10117366782E+02 0.10212713511E+02 0.10242955242E+02 0.10212713522E+02 0.10117366808E+02
 0.99305917036E+01 0.96185034900E+01 0.91511613716E+01 0.85099795492E+01 0.76957970780E+01
 0.67359015438E+01 0.56871812372E+01 0.46326628250E+01 0.36707283501E+01 0.28994764275E+01
 0.24008265020E+01 0.22284197535E+01 0.24008264950E+01 0.28994764077E+01 0.20157090206E+01
 0.30199223558E+01 0.41945017589E+01 0.54256226370E+01 0.66059416888E+01 0.76512512025E+01
 0.85099794248E+01 0.91639188885E+01 0.96222929282E+01 0.99128037598E+01 0.10072549302E+02
 0.10140041237E+02 0.10140041254E+02 0.10072549353E+02 0.99128038388E+01 0.96222930272E+01
 0.91639189954E+01 0.85099795247E+01 0.76512512807E+01 0.66059417335E+01 0.54256226434E+01
 0.41945017305E+01 0.30199223047E+01 0.20157089644E+01 0.12835347850E+01 0.89798592257E+00
 0.89798593860E+00 0.12835348280E+01 0.40366362573E+00 0.13748256877E+01 0.26009287960E+01
 0.39628637635E+01 0.53349308399E+01 0.66059416888E+01 0.76957969475E+01 0.85624898620E+01
 0.91994595046E+01 0.96269254761E+01 0.98813967462E+01 0.10005930861E+02 0.10041317355E+02
 0.10005930879E+02 0.98813967806E+01 0.96269255203E+01 0.91994595494E+01 0.85624898956E+01
 0.76957969574E+01 0.66059416648E+01 0.53349307776E+01 0.39628636671E+01 0.26009286787E+01
 0.13748255697E+01 0.40366352998E+00 -.21828388467E+00 -.43218997916E+00 -.21828383104E+00
 -.10189380077E+01 -.15726257189E+00 0.10386015362E+01 0.24564071600E+01 0.39628637635E+01
 0.54256226370E+01 0.67359014230E+01 0.78233211907E+01 0.86591629714E+01 0.92500639873E+01
 0.96270533525E+01 0.98341063432E+01 0.99181616003E+01 0.99181615855E+01 0.98341063030E+01
 0.96270532974E+01 0.92500639292E+01 0.86591629175E+01 0.78233211397E+01 0.67359013660E+01
 0.54256225617E+01 0.39628636612E+01 0.24564070319E+01 0.10386013957E+01 -.15726270117E+00
 -.10189380993E+01 -.14689917950E+01 -.14689917619E+01 -.21245128918E+01 -.14358038589E+01
 -.34969577434E+00 0.10386015362E+01 0.26009287960E+01 0.41945017589E+01 0.56871811390E+01
 0.69796408393E+01 0.80164559877E+01 0.87847384571E+01 0.93044866887E+01 0.96161300988E+01
 0.97688184303E+01 0.98105941077E+01 0.97688183633E+01 0.96161299842E+01 0.93044865577E+01
 0.87847383398E+01 0.80164559017E+01 0.69796407839E+01 0.56871810978E+01 0.41945017086E+01
 0.26009287191E+01 0.10386014302E+01 -.34969589396E+00 -.14358039643E+01 -.21245129537E+01
 -.23600677754E+01 -.28218072688E+01 -.23483498891E+01 -.14358038589E+01 -.15726257189E+00
 0.13748256877E+01 0.30199223558E+01 0.46326627559E+01 0.60894125717E+01 0.73072211561E+01
 0.82494715889E+01 0.89198593803E+01 0.93503536575E+01 0.95882699875E+01 0.96849462681E+01
 0.96849462356E+01 0.95882699009E+01 0.93503535455E+01 0.89198592774E+01 0.82494715221E+01
 0.73072211344E+01 0.60894125839E+01 0.46326627772E+01 0.30199223594E+01 0.13748256576E+01
 -.15726263406E+00 -.14358039343E+01 -.23483499503E+01 -.28218072922E+01 -.28411376611E+01
 -.26066076040E+01 -.19191729280E+01 -.83024934283E+00 0.56933709214E+00 0.21534742977E+01
 0.37781225641E+01 0.53072883327E+01 0.66368356099E+01 0.77071419189E+01 0.85026050692E+01
 0.90421257142E+01 0.93663342187E+01 0.95254071597E+01 0.95687994618E+01 0.95254071434E+01
 0.93663341962E+01 0.90421257010E+01 0.85026050794E+01 0.77071419586E+01 0.66368356741E+01
 0.53072884067E+01 0.37781226297E+01 0.21534743401E+01 0.56933710565E+00 -.83024935274E+00
 -.19191729479E+01 -.26066076188E+01 -.26066076188E+01 -.26066076259E+01 -.21514887165E+01
 -.12738354396E+01 -.43237045803E-01 0.14327592804E+01 0.30191816501E+01 0.45758814140E+01
 0.59831614176E+01 0.71602570462E+01 0.80710856849E+01 0.87187215503E+01 0.91339476160E+01
 0.93627839448E+01 0.94554167398E+01 0.94554167554E+01 0.93627839902E+01 0.91339476868E+01
 0.87187216400E+01 0.80710857860E+01 0.71602571509E+01 0.59831615192E+01 0.45758815071E+01
 0.30191817310E+01 0.14327593470E+01 -.43236994374E-01 -.12738354033E+01 -.21514886949E+01
 -.19191729479E+01 -.21396365937E+01 -.19191729862E+01 -.12738354712E+01 -.25398609383E+00
 0.10531120213E+01 0.25283323078E+01 0.40373180998E+01 0.54543289137E+01 0.66836941687E+01
 0.76710328199E+01 0.84026376831E+01 0.88967657411E+01 0.91919451851E+01 0.93356919265E+01
 0.93748063484E+01 0.93356919719E+01 0.91919452658E+01 0.88967658408E+01 0.84026377852E+01
 0.76710329130E+01 0.66836942498E+01 0.54543289873E+01 0.40373181738E+01 0.25283323882E+01
 0.10531121074E+01 -.25398601007E+00 -.12738354033E+01 -.83024935274E+00 -.12402489420E+01
 -.12402489707E+01 -.83024943027E+00 -.43237098370E-01 0.10531120047E+01 0.23585921432E+01
 0.37518178688E+01 0.51100717618E+01 0.63306810722E+01 0.73457474184E+01 0.81262262037E+01
 0.86768589951E+01 0.90263319717E+01 0.92165347202E+01 0.92928430250E+01 0.92928430376E+01
 0.92165347526E+01 0.90263320106E+01 0.86768590254E+01 0.81262262167E+01 0.73457474163E+01
 0.63306810679E+01 0.51100717735E+01 0.37518179118E+01 0.23585922214E+01 0.10531121074E+01
 -.43236994374E-01 0.56933710565E+00 0.18567828731E-01 -.17044400456E+00 0.18567763349E-01
 0.56933699842E+00 0.14327592362E+01 0.25283323126E+01 0.37518178971E+01 0.49906036991E+01
 0.61428105733E+01 0.71332235022E+01 0.79209149451E+01 0.84979579057E+01 0.88822041324E+01
 0.91078363365E+01 0.92161129640E+01 0.92464702784E+01 0.92161129614E+01 0.91078363211E+01
 0.88822040903E+01 0.84979578284E+01 0.79209148372E+01 0.71332233835E+01 0.61428104739E+01
 0.49906036484E+01 0.37518179118E+01 0.25283323882E+01 0.14327593470E+01 0.21534743401E+01
 0.15253232899E+01 0.11956497324E+01 0.11956496984E+01 0.15253232031E+01 0.21534742401E+01
 0.30191816659E+01 0.40373181814E+01 0.51100718670E+01 0.61428106376E+01 0.70593301467E+01
 0.78114635813E+01 0.83810236911E+01 0.87754809519E+01 0.90203760028E+01 0.91510132552E+01
 0.92046401092E+01 0.92046401104E+01 0.91510132500E+01 0.90203759700E+01 0.87754808696E+01
 0.83810235507E+01 0.78114633958E+01 0.70593299502E+01 0.61428104739E+01 0.51100717735E+01
 0.40373181738E+01 0.30191817310E+01 0.37781226297E+01 0.31414709484E+01 0.27314154268E+01
 0.25899444954E+01 0.27314153866E+01 0.31414708938E+01 0.37781226004E+01 0.45758815393E+01
 0.54543290964E+01 0.63306812411E+01 0.71332235835E+01 0.78114635754E+01 0.83403575816E+01
 0.87186909095E+01 0.89636180387E+01 0.91036663602E+01 0.91717420265E+01 0.91930631133E+01
 0.91717420604E+01 0.91036664034E+01 0.89636180537E+01 0.87186908631E+01 0.83403574611E+01
 0.78114633958E+01 0.71332233835E+01 0.63306810679E+01 0.54543289873E+01 0.45758815071E+01
 0.53072884067E+01 0.47243107250E+01 0.42964114360E+01 0.40701279398E+01 0.40701279455E+01
 0.42964114573E+01 0.47243107716E+01 0.53072884865E+01 0.59831616311E+01 0.66836943791E+01
 0.73457475368E+01 0.79209149192E+01 0.83810235722E+01 0.87186908193E+01 0.89439503024E+01
 0.90787470842E+01 0.91508607773E+01 0.91843178409E+01 0.91843178736E+01 0.91508608637E+01
 0.90787471934E+01 0.89439503954E+01 0.87186908631E+01 0.83810235507E+01 0.79209148372E+01
 0.73457474163E+01 0.66836942498E+01 0.59831615192E+01 0.66368356741E+01 0.61528599027E+01
 0.57611028854E+01 0.55062376172E+01 0.54178461727E+01 0.55062376975E+01 0.57611030227E+01
 0.61528600576E+01 0.66368358035E+01 0.71602572207E+01 0.76710329067E+01 0.81262261383E+01
 0.84979576981E+01 0.87754807159E+01 0.89636179044E+01 0.90787470695E+01 0.91437200157E+01
 0.91796963259E+01 0.91916673809E+01 0.91796963696E+01 0.91437201020E+01 0.90787471934E+01
 0.89636180537E+01 0.87754808696E+01 0.84979578284E+01 0.81262262167E+01 0.76710329130E+01
 0.71602571509E+01 0.77071419586E+01 0.73461879981E+01 0.70283933295E+01 0.67917401735E+01
 0.66654990840E+01 0.66654991514E+01 0.67917403482E+01 0.70283935395E+01 0.73461881558E+01
 0.77071419953E+01 0.80710856778E+01 0.84026375601E+01 0.86768587498E+01 0.88822038404E+01
 0.90203758019E+01 0.91036663338E+01 0.91508608689E+01 0.91796964025E+01 0.91941049029E+01
 0.91941048861E+01 0.91796963696E+01 0.91508608637E+01 0.91036664034E+01 0.90203759700E+01
 0.88822040903E+01 0.86768590254E+01 0.84026377852E+01 0.80710857860E+01 0.85026050794E+01
 0.82687831033E+01 0.80442984042E+01 0.78579024065E+01 0.77346949003E+01 0.76916351534E+01
 0.77346950181E+01 0.78579025824E+01 0.80442985450E+01 0.82687831237E+01 0.85026049404E+01
 0.87187213672E+01 0.88967655146E+01 0.90263317333E+01 0.91078361743E+01 0.91510132606E+01
 0.91717421914E+01 0.91843180417E+01 0.91916674944E+01 0.91941049029E+01 0.91916673809E+01
 0.91843178736E+01 0.91717420604E+01 0.91510132500E+01 0.91078363211E+01 0.90263320106E+01
 0.88967658408E+01 0.87187216400E+01 0.90421257010E+01 0.89245949035E+01 0.87965084092E+01
 0.86768601979E+01 0.85844712600E+01 0.85342069402E+01 0.85342069637E+01 0.85844713117E+01
 0.86768602316E+01 0.87965083746E+01 0.89245947742E+01 0.90421254922E+01 0.91339474544E+01
 0.91919450867E+01 0.92165346929E+01 0.92161130475E+01 0.92046403148E+01 0.91930633623E+01
 0.91843180417E+01 0.91796964025E+01 0.91796963259E+01 0.91843178409E+01 0.91930631133E+01
 0.92046401104E+01 0.92161129614E+01 0.92165347526E+01 0.91919452658E+01 0.91339476868E+01
 0.93663341962E+01 0.93452494656E+01 0.93049155938E+01 0.92553947093E+01 0.92086366161E+01
 0.91755482949E+01 0.91636327476E+01 0.91755482309E+01 0.92086365007E+01 0.92553945655E+01
 0.93049154514E+01 0.93452493560E+01 0.93663341464E+01 0.93627840171E+01 0.93356920776E+01
 0.92928432082E+01 0.92464704854E+01 0.92046403148E+01 0.91717421914E+01 0.91508608689E+01
 0.91437200157E+01 0.91508607773E+01 0.91717420265E+01 0.92046401092E+01 0.92464702784E+01
 0.92928430376E+01 0.93356919719E+01 0.93627839902E+01 0.95254071434E+01 0.95773969448E+01
 0.96094198653E+01 0.96241839752E+01 0.96272559000E+01 0.96249146063E+01 0.96223189416E+01
 0.96223188686E+01 0.96249144164E+01 0.96272556692E+01 0.96241837964E+01 0.96094198123E+01
 0.95773970449E+01 0.95254073694E+01 0.94554170398E+01 0.93748066120E+01 0.92928432082E+01
 0.92161130475E+01 0.91510132606E+01 0.91036663338E+01 0.90787470695E+01 0.90787470842E+01
 0.91036663602E+01 0.91510132552E+01 0.92161129640E+01 0.92928430250E+01 0.93748063484E+01
 0.94554167554E+01 0.95687994618E+01 0.96716019097E+01 0.97584482853E+01 0.98265812847E+01
 0.98763551821E+01 0.99096839601E+01 0.99286837976E+01 0.99348434269E+01 0.99286836618E+01
 0.99096837565E+01 0.98763550167E+01 0.98265812541E+01 0.97584484338E+01 0.96716022083E+01
 0.95687998190E+01 0.94554170398E+01 0.93356920776E+01 0.92165346929E+01 0.91078361743E+01
 0.90203758019E+01 0.89636179044E+01 0.89439503024E+01 0.89636180387E+01 0.90203760028E+01
 0.91078363365E+01 0.92165347202E+01 0.93356919265E+01 0.94554167398E+01 0.95254071597E+01
 0.96716019411E+01 0.97992762039E+01 0.99088087304E+01 0.99983517670E+01 0.10066425597E+02
 0.10112270019E+02 0.10135357308E+02 0.10135357275E+02 0.10112269944E+02 0.10066425538E+02
 0.99983517867E+01 0.99088088644E+01 0.97992764371E+01 0.96716022083E+01 0.95254073694E+01
 0.93627840171E+01 0.91919450867E+01 0.90263317333E+01 0.88822038404E+01 0.87754807159E+01
 0.87186908193E+01 0.87186909095E+01 0.87754809519E+01 0.88822041324E+01 0.90263319717E+01
 0.91919451851E+01 0.93627839448E+01 0.93663342187E+01 0.95773970285E+01 0.97584483499E+01
 0.99088087446E+01 0.10033232455E+02 0.10133004948E+02 0.10206439035E+02 0.10251611278E+02
 0.10266884941E+02 0.10251611315E+02 0.10206439109E+02 0.10133005054E+02 0.10033232579E+02
 0.99088088644E+01 0.97584484338E+01 0.95773970449E+01 0.93663341464E+01 0.91339474544E+01
 0.88967655146E+01 0.86768587498E+01 0.84979576981E+01 0.83810235722E+01 0.83403575816E+01
 0.83810236911E+01 0.84979579057E+01 0.86768589951E+01 0.88967657411E+01 0.91339476160E+01
 0.90421257142E+01 0.93452495743E+01 0.96094199760E+01 0.98265813232E+01 0.99983517489E+01
 0.10133004932E+02 0.10236467499E+02 0.10307295123E+02 0.10343396637E+02 0.10343396686E+02
 0.10307295250E+02 0.10236467655E+02 0.10133005054E+02 0.99983517867E+01 0.98265812541E+01
 0.96094198123E+01 0.93452493560E+01 0.90421254922E+01 0.87187213672E+01 0.84026375601E+01
 0.81262261383E+01 0.79209149192E+01 0.78114635754E+01 0.78114635813E+01 0.79209149451E+01
 0.81262262037E+01 0.84026376831E+01 0.87187215503E+01 0.85026050692E+01 0.89245950042E+01
 0.93049157211E+01 0.96241840281E+01 0.98763551485E+01 0.10066425549E+02 0.10206439026E+02
 0.10307295135E+02 0.10368997425E+02 0.10389802270E+02 0.10368997505E+02 0.10307295250E+02
 0.10206439109E+02 0.10066425538E+02 0.98763550167E+01 0.96241837964E+01 0.93049154514E+01
 0.89245947742E+01 0.85026049404E+01 0.80710856778E+01 0.76710329067E+01 0.73457475368E+01
 0.71332235835E+01 0.70593301467E+01 0.71332235022E+01 0.73457474184E+01 0.76710328199E+01
 0.80710856849E+01 0.77071419189E+01 0.82687831701E+01 0.87965085242E+01 0.92553947654E+01
 0.96272558564E+01 0.99096838836E+01 0.10112269996E+02 0.10251611308E+02 0.10343396658E+02
 0.10389802255E+02 0.10389802270E+02 0.10343396686E+02 0.10251611315E+02 0.10112269944E+02
 0.99096837565E+01 0.96272556692E+01 0.92553945655E+01 0.87965083746E+01 0.82687831237E+01
 0.77071419953E+01 0.71602572207E+01 0.66836943791E+01 0.63306812411E+01 0.61428106376E+01
 0.61428105733E+01 0.63306810722E+01 0.66836941687E+01 0.71602570462E+01 0.66368356099E+01
 0.73461880220E+01 0.80442984897E+01 0.86768602503E+01 0.92086365714E+01 0.96249145095E+01
 0.99286837511E+01 0.10135357344E+02 0.10266884985E+02 0.10343396658E+02 0.10368997425E+02
 0.10343396637E+02 0.10266884941E+02 0.10135357275E+02 0.99286836618E+01 0.96249144164E+01
 0.92086365007E+01 0.86768602316E+01 0.80442985450E+01 0.73461881558E+01 0.66368358035E+01
 0.59831616311E+01 0.54543290964E+01 0.51100718670E+01 0.49906036991E+01 0.51100717618E+01
 0.54543289137E+01 0.59831614176E+01 0.53072883327E+01 0.61528598939E+01 0.70283933858E+01
 0.78579024563E+01 0.85844712256E+01 0.91755481892E+01 0.96223188667E+01 0.99348434527E+01
 0.10135357344E+02 0.10251611308E+02 0.10307295135E+02 0.10307295123E+02 0.10251611278E+02
 0.10135357308E+02 0.99348434269E+01 0.96223188686E+01 0.91755482309E+01 0.85844713117E+01
 0.78579025824E+01 0.70283935395E+01 0.61528600576E+01 0.53072884865E+01 0.45758815393E+01
 0.40373181814E+01 0.37518178971E+01 0.37518178688E+01 0.40373180998E+01 0.45758814140E+01
 0.37781225641E+01 0.47243107068E+01 0.57611029276E+01 0.67917402292E+01 0.77346948887E+01
 0.85342068402E+01 0.91636326444E+01 0.96223188667E+01 0.99286837511E+01 0.10112269996E+02
 0.10206439026E+02 0.10236467499E+02 0.10206439035E+02 0.10112270019E+02 0.99286837976E+01
 0.96223189416E+01 0.91636327476E+01 0.85342069637E+01 0.77346950181E+01 0.67917403482E+01
 0.57611030227E+01 0.47243107716E+01 0.37781226004E+01 0.30191816659E+01 0.25283323126E+01
 0.23585921432E+01 0.25283323078E+01 0.30191816501E+01 0.21534742977E+01 0.31414709459E+01
 0.42964114858E+01 0.55062376903E+01 0.66654991054E+01 0.76916350743E+01 0.85342068402E+01
 0.91755481892E+01 0.96249145095E+01 0.99096838836E+01 0.10066425549E+02 0.10133004932E+02
 0.10133004948E+02 0.10066425597E+02 0.99096839601E+01 0.96249146063E+01 0.91755482949E+01
 0.85342069402E+01 0.76916351534E+01 0.66654991514E+01 0.55062376975E+01 0.42964114573E+01
 0.31414708938E+01 0.21534742401E+01 0.14327592362E+01 0.10531120047E+01 0.10531120213E+01
 0.14327592804E+01 0.56933709214E+00 0.15253233184E+01 0.27314155007E+01 0.40701280385E+01
 0.54178462318E+01 0.66654991054E+01 0.77346948887E+01 0.85844712256E+01 0.92086365714E+01
 0.96272558564E+01 0.98763551485E+01 0.99983517489E+01 0.10033232455E+02 0.99983517670E+01
 0.98763551821E+01 0.96272559000E+01 0.92086366161E+01 0.85844712600E+01 0.77346949003E+01
 0.66654990840E+01 0.54178461727E+01 0.40701279455E+01 0.27314153866E+01 0.15253232031E+01
 0.56933699842E+00 -.43237098370E-01 -.25398609383E+00 -.43237045803E-01 -.83024934283E+00
 0.18567886883E-01 0.11956498329E+01 0.25899446185E+01 0.40701280385E+01 0.55062376903E+01
 0.67917402292E+01 0.78579024563E+01 0.86768602503E+01 0.92553947654E+01 0.96241840281E+01
 0.98265813232E+01 0.99088087446E+01 0.99088087304E+01 0.98265812847E+01 0.96241839752E+01
 0.92553947093E+01 0.86768601979E+01 0.78579024065E+01 0.67917401735E+01 0.55062376172E+01
 0.40701279398E+01 0.25899444954E+01 0.11956496984E+01 0.18567763349E-01 -.83024943027E+00
 -.12738354712E+01 -.12738354396E+01 -.19191729280E+01 -.12402488716E+01 -.17044389178E+00
 0.11956498329E+01 0.27314155007E+01 0.42964114858E+01 0.57611029276E+01 0.70283933858E+01
 0.80442984897E+01 0.87965085242E+01 0.93049157211E+01 0.96094199760E+01 0.97584483499E+01
 0.97992762039E+01 0.97584482853E+01 0.96094198653E+01 0.93049155938E+01 0.87965084092E+01
 0.80442984042E+01 0.70283933295E+01 0.57611028854E+01 0.42964114360E+01 0.27314154268E+01
 0.11956497324E+01 -.17044400456E+00 -.12402489707E+01 -.19191729862E+01 -.21514887165E+01
 -.26066076040E+01 -.21396365365E+01 -.12402488716E+01 0.18567886883E-01 0.15253233184E+01
 0.31414709459E+01 0.47243107068E+01 0.61528598939E+01 0.73461880220E+01 0.82687831701E+01
 0.89245950042E+01 0.93452495743E+01 0.95773970285E+01 0.96716019411E+01 0.96716019097E+01
 0.95773969448E+01 0.93452494656E+01 0.89245949035E+01 0.82687831033E+01 0.73461879981E+01
 0.61528599027E+01 0.47243107250E+01 0.31414709484E+01 0.15253232899E+01 0.18567828731E-01
 -.12402489420E+01 -.21396365937E+01 -.26066076259E+01 -.21976777349E+01 -.19730444797E+01
 -.13155897942E+01 -.27684606701E+00 0.10540403659E+01 0.25555678855E+01 0.40909077224E+01
 0.55322066224E+01 0.67823791678E+01 0.77864241342E+01 0.85306681255E+01 0.90337879868E+01
 0.93348548759E+01 0.94818740068E+01 0.95220043042E+01 0.94818739926E+01 0.93348548560E+01
 0.90337879746E+01 0.85306681330E+01 0.77864241668E+01 0.67823792214E+01 0.55322066846E+01
 0.40909077778E+01 0.25555679214E+01 0.10540403775E+01 -.27684607521E+00 -.13155898109E+01
 -.19730444922E+01 -.19730444922E+01 -.19730444976E+01 -.15380721026E+01 -.70097455717E+00
 0.46940442413E+00 0.18687349043E+01 0.33681389187E+01 0.48353534354E+01 0.61584118361E+01
 0.72624017735E+01 0.81144448210E+01 0.87183750036E+01 0.91040167069E+01 0.93154926878E+01
 0.94007621255E+01 0.94007621402E+01 0.93154927304E+01 0.91040167733E+01 0.87183750876E+01
 0.81144449151E+01 0.72624018703E+01 0.61584119288E+01 0.48353535188E+01 0.33681389893E+01
 0.18687349607E+01 0.46940446621E+00 -.70097452850E+00 -.15380720861E+01 -.13155898109E+01
 -.15258322859E+01 -.13155898424E+01 -.70097458474E+00 0.26809010653E+00 0.15065826421E+01