   2   2   0   0
  0.5656843E+01  0.2000000E-09  0.2000000E-09  0.3265980E-09  0.5000000E-15
  1.000000000000000E-004
  CAR 
 Si beta-tin                             
     48.43422608      0.53274791  301     27.46084926      1.00000000
      0.533  0.0000E+00  0.0000E+00
      0.692  0.0000E+00  0.0000E+00
      0.852  0.0000E+00  0.0000E+00
      1.012  0.0000E+00  0.0000E+00
      1.171  0.0000E+00  0.0000E+00
      1.331  0.0000E+00  0.0000E+00
      1.491  0.0000E+00  0.0000E+00
      1.650  0.0000E+00  0.0000E+00
      1.810  0.0000E+00  0.0000E+00
      1.970  0.0000E+00  0.0000E+00
      2.129  0.2575E-18  0.4112E-19
      2.289  0.3050E-11  0.4870E-12
      2.449  0.2550E-06  0.4071E-07
      2.608  0.1746E-03  0.2791E-04
      2.768  0.1667E-02  0.2942E-03
      2.928  0.4749E-03  0.3700E-03
      3.087  0.2469E-05  0.3704E-03
      3.247  0.9845E-04  0.3861E-03
      3.407  0.2381E-02  0.7662E-03
      3.567  0.2096E-02  0.1101E-02
      3.726  0.6368E-04  0.1111E-02
      3.886  0.5712E-05  0.1112E-02
      4.046  0.6654E-03  0.1218E-02
      4.205  0.1546E-02  0.1465E-02
      4.365  0.1027E-03  0.1481E-02
      4.525  0.5535E-04  0.1490E-02
      4.684  0.2290E-02  0.1856E-02
      4.844  0.3418E-02  0.2402E-02
      5.004  0.1169E-02  0.2588E-02
      5.163  0.5003E-04  0.2596E-02
      5.323  0.1927E-02  0.2904E-02
      5.483  0.5660E-02  0.3808E-02
      5.642  0.1632E-02  0.4068E-02
      5.802  0.3737E-04  0.4074E-02
      5.962  0.4106E-03  0.4140E-02
      6.121  0.1696E-02  0.4411E-02
      6.281  0.2109E-03  0.4444E-02
      6.441  0.3678E-04  0.4450E-02
      6.600  0.2034E-02  0.4775E-02
      6.760  0.4644E-02  0.5517E-02
      6.920  0.3653E-02  0.6100E-02
      7.079  0.1207E-02  0.6293E-02
      7.239  0.1025E-02  0.6456E-02
      7.399  0.4491E-02  0.7173E-02
      7.558  0.2708E-02  0.7606E-02
      7.718  0.1056E-02  0.7775E-02
      7.878  0.2012E-04  0.7778E-02
      8.037  0.4091E-08  0.7778E-02
      8.197  0.7293E-07  0.7778E-02
      8.357  0.1318E-03  0.7799E-02
      8.516  0.2979E-02  0.8275E-02
      8.676  0.4778E-02  0.9037E-02
      8.836  0.4682E-02  0.9785E-02
      8.995  0.1642E-02  0.1005E-01
      9.155  0.5364E-02  0.1090E-01
      9.315  0.3742E-02  0.1150E-01
      9.474  0.1857E-02  0.1180E-01
      9.634  0.2079E-02  0.1213E-01
      9.794  0.3490E-02  0.1269E-01
      9.953  0.1706E-02  0.1296E-01
     10.113  0.2475E-03  0.1300E-01
     10.273  0.2295E-02  0.1337E-01
     10.432  0.3184E-02  0.1387E-01
     10.592  0.4756E-02  0.1463E-01
     10.752  0.3297E-02  0.1516E-01
     10.911  0.1706E-02  0.1543E-01
     11.071  0.5064E-02  0.1624E-01
     11.231  0.2630E-02  0.1666E-01
     11.390  0.1917E-02  0.1697E-01
     11.550  0.3581E-02  0.1754E-01
     11.710  0.1446E-02  0.1777E-01
     11.869  0.1342E-03  0.1779E-01
     12.029  0.2688E-02  0.1822E-01
     12.189  0.4461E-02  0.1893E-01
     12.348  0.2823E-02  0.1938E-01
     12.508  0.3551E-02  0.1995E-01
     12.668  0.3083E-02  0.2044E-01
     12.827  0.5112E-02  0.2126E-01
     12.987  0.3938E-02  0.2189E-01
     13.147  0.3948E-02  0.2252E-01
     13.306  0.4542E-02  0.2324E-01
     13.466  0.5651E-03  0.2333E-01
     13.626  0.3427E-04  0.2334E-01
     13.785  0.2237E-02  0.2370E-01
     13.945  0.7333E-02  0.2487E-01
     14.105  0.3610E-02  0.2544E-01
     14.265  0.9732E-03  0.2560E-01
     14.424  0.5953E-02  0.2655E-01
     14.584  0.5263E-02  0.2739E-01
     14.744  0.2214E-02  0.2774E-01
     14.903  0.4018E-02  0.2838E-01
     15.063  0.4829E-02  0.2916E-01
     15.223  0.7359E-03  0.2927E-01
     15.382  0.3712E-02  0.2987E-01
     15.542  0.9421E-02  0.3137E-01
     15.702  0.8944E-02  0.3280E-01
     15.861  0.1292E-02  0.3300E-01
     16.021  0.4306E-02  0.3369E-01
     16.181  0.7061E-02  0.3482E-01
     16.340  0.2236E-02  0.3518E-01
     16.500  0.5726E-04  0.3519E-01
     16.660  0.6918E-07  0.3519E-01
     16.819  0.8019E-04  0.3520E-01
     16.979  0.2901E-02  0.3566E-01
     17.139  0.5973E-02  0.3661E-01
     17.298  0.3888E-02  0.3724E-01
     17.458  0.3330E-02  0.3777E-01
     17.618  0.4102E-02  0.3842E-01
     17.777  0.4809E-02  0.3919E-01
     17.937  0.4420E-02  0.3990E-01
     18.097  0.2921E-02  0.4036E-01
     18.256  0.5096E-04  0.4037E-01
     18.416  0.1617E-03  0.4040E-01
     18.576  0.2955E-02  0.4087E-01
     18.735  0.1659E-02  0.4113E-01
     18.895  0.2854E-02  0.4159E-01
     19.055  0.5937E-02  0.4254E-01
     19.214  0.4584E-02  0.4327E-01
     19.374  0.5264E-02  0.4411E-01
     19.534  0.2453E-02  0.4450E-01
     19.693  0.5243E-02  0.4534E-01
     19.853  0.8499E-02  0.4670E-01
     20.013  0.6197E-02  0.4768E-01
     20.172  0.8332E-02  0.4901E-01
     20.332  0.3784E-02  0.4962E-01
     20.492  0.1016E-03  0.4964E-01
     20.651  0.3233E-02  0.5015E-01
     20.811  0.8694E-02  0.5154E-01
     20.971  0.5731E-02  0.5245E-01
     21.130  0.2903E-02  0.5292E-01
     21.290  0.2929E-03  0.5297E-01
     21.450  0.2220E-02  0.5332E-01
     21.609  0.8933E-02  0.5475E-01
     21.769  0.3109E-02  0.5524E-01
     21.929  0.5074E-02  0.5605E-01
     22.088  0.5568E-02  0.5694E-01
     22.248  0.2986E-02  0.5742E-01
     22.408  0.3512E-02  0.5798E-01
     22.567  0.1305E-02  0.5819E-01
     22.727  0.2275E-02  0.5855E-01
     22.887  0.4849E-02  0.5933E-01
     23.046  0.6823E-02  0.6041E-01
     23.206  0.3353E-02  0.6095E-01
     23.366  0.2645E-02  0.6137E-01
     23.525  0.5992E-02  0.6233E-01
     23.685  0.4781E-02  0.6309E-01
     23.845  0.6756E-02  0.6417E-01
     24.004  0.3548E-02  0.6474E-01
     24.164  0.3608E-02  0.6531E-01
     24.324  0.2820E-02  0.6576E-01
     24.483  0.3122E-02  0.6626E-01
     24.643  0.4094E-03  0.6633E-01
     24.803  0.3115E-02  0.6683E-01
     24.963  0.2636E-02  0.6725E-01
     25.122  0.2556E-02  0.6765E-01
     25.282  0.6666E-02  0.6872E-01
     25.442  0.4349E-02  0.6941E-01
     25.601  0.3815E-02  0.7002E-01
     25.761  0.6054E-02  0.7099E-01
     25.921  0.1109E-01  0.7276E-01
     26.080  0.5729E-02  0.7367E-01
     26.240  0.2512E-03  0.7371E-01
     26.400  0.2959E-02  0.7419E-01
     26.559  0.5830E-02  0.7512E-01
     26.719  0.4546E-02  0.7584E-01
     26.879  0.7188E-02  0.7699E-01
     27.038  0.4964E-02  0.7778E-01
     27.198  0.5399E-02  0.7865E-01
     27.358  0.4234E-02  0.7932E-01
     27.517  0.5845E-02  0.8026E-01
     27.677  0.2109E-02  0.8059E-01
     27.837  0.1657E-02  0.8086E-01
     27.996  0.5866E-02  0.8179E-01
     28.156  0.7328E-02  0.8296E-01
     28.316  0.7703E-02  0.8419E-01
     28.475  0.1140E-01  0.8601E-01
     28.635  0.1455E-01  0.8834E-01
     28.795  0.5247E-02  0.8917E-01
     28.954  0.5277E-03  0.8926E-01
     29.114  0.1637E-05  0.8926E-01
     29.274  0.5058E-06  0.8926E-01
     29.433  0.2436E-03  0.8930E-01
     29.593  0.2246E-02  0.8966E-01
     29.753  0.3751E-02  0.9026E-01
     29.912  0.3425E-02  0.9080E-01
     30.072  0.4727E-02  0.9156E-01
     30.232  0.4774E-02  0.9232E-01
     30.391  0.4377E-02  0.9302E-01
     30.551  0.6615E-02  0.9407E-01
     30.711  0.5348E-02  0.9493E-01
     30.870  0.5488E-02  0.9580E-01
     31.030  0.4941E-02  0.9659E-01
     31.190  0.8999E-02  0.9803E-01
     31.349  0.2998E-02  0.9851E-01
     31.509  0.4780E-03  0.9859E-01
     31.669  0.8035E-02  0.9987E-01
     31.828  0.7524E-02  0.1011E+00
     31.988  0.5011E-02  0.1019E+00
     32.148  0.9787E-02  0.1034E+00
     32.307  0.1690E-02  0.1037E+00
     32.467  0.1962E-03  0.1037E+00
     32.627  0.2279E-02  0.1041E+00
     32.786  0.3933E-02  0.1047E+00
     32.946  0.3976E-02  0.1054E+00
     33.106  0.8230E-02  0.1067E+00
     33.265  0.7429E-02  0.1079E+00
     33.425  0.3933E-02  0.1085E+00
     33.585  0.3408E-02  0.1090E+00
     33.744  0.2868E-02  0.1095E+00
     33.904  0.4461E-02  0.1102E+00
     34.064  0.3911E-02  0.1108E+00
     34.223  0.1885E-02  0.1111E+00
     34.383  0.3168E-02  0.1116E+00
     34.543  0.2057E-02  0.1120E+00
     34.702  0.7977E-02  0.1132E+00
     34.862  0.9240E-02  0.1147E+00
     35.022  0.6053E-02  0.1157E+00
     35.181  0.1805E-02  0.1160E+00
     35.341  0.1745E-02  0.1162E+00
     35.501  0.3188E-03  0.1163E+00
     35.660  0.9854E-06  0.1163E+00
     35.820  0.7059E-04  0.1163E+00
     35.980  0.1536E-02  0.1166E+00
     36.140  0.5101E-02  0.1174E+00
     36.299  0.6843E-02  0.1185E+00
     36.459  0.3919E-02  0.1191E+00
     36.619  0.1127E-02  0.1193E+00
     36.778  0.3662E-02  0.1199E+00
     36.938  0.8694E-02  0.1212E+00
     37.098  0.2482E-02  0.1216E+00
     37.257  0.4411E-02  0.1223E+00
     37.417  0.1268E-01  0.1244E+00
     37.577  0.7674E-02  0.1256E+00
     37.736  0.9074E-02  0.1270E+00
     37.896  0.6698E-02  0.1281E+00
     38.056  0.1073E-01  0.1298E+00
     38.215  0.4877E-02  0.1306E+00
     38.375  0.5266E-02  0.1314E+00
     38.535  0.8036E-02  0.1327E+00
     38.694  0.3633E-02  0.1333E+00
     38.854  0.7199E-03  0.1334E+00
     39.014  0.1757E-02  0.1337E+00
     39.173  0.3040E-02  0.1342E+00
     39.333  0.8237E-02  0.1355E+00
     39.493  0.1704E-01  0.1382E+00
     39.652  0.1328E-01  0.1403E+00
     39.812  0.9408E-02  0.1418E+00
     39.972  0.6934E-02  0.1430E+00
     40.131  0.1009E-01  0.1446E+00
     40.291  0.1747E-02  0.1448E+00
     40.451  0.2955E-02  0.1453E+00
     40.610  0.1513E-02  0.1456E+00
     40.770  0.1682E-04  0.1456E+00
     40.930  0.2904E-03  0.1456E+00
     41.089  0.2860E-02  0.1461E+00
     41.249  0.6656E-02  0.1471E+00
     41.409  0.7973E-02  0.1484E+00
     41.568  0.2979E-02  0.1489E+00
     41.728  0.3564E-02  0.1494E+00
     41.888  0.8022E-02  0.1507E+00
     42.047  0.6377E-02  0.1517E+00
     42.207  0.2893E-02  0.1522E+00
     42.367  0.3675E-02  0.1528E+00
     42.526  0.4173E-02  0.1535E+00
     42.686  0.6315E-02  0.1545E+00
     42.846  0.2189E-02  0.1548E+00
     43.005  0.1345E-03  0.1548E+00
     43.165  0.1633E-02  0.1551E+00
     43.325  0.3881E-02  0.1557E+00
     43.484  0.7916E-02  0.1570E+00
     43.644  0.5513E-02  0.1579E+00
     43.804  0.3588E-02  0.1584E+00
     43.963  0.5518E-03  0.1585E+00
     44.123  0.1368E-05  0.1585E+00
     44.283  0.2881E-10  0.1585E+00
     44.442  0.3608E-12  0.1585E+00
     44.602  0.6331E-07  0.1585E+00
     44.762  0.8761E-04  0.1585E+00
     44.921  0.1548E-02  0.1588E+00
     45.081  0.2051E-02  0.1591E+00
     45.241  0.1954E-02  0.1594E+00
     45.400  0.1276E-02  0.1596E+00
     45.560  0.4100E-04  0.1596E+00
     45.720  0.1493E-07  0.1596E+00
     45.879  0.1094E-09  0.1596E+00
     46.039  0.2407E-05  0.1596E+00
     46.199  0.4749E-03  0.1597E+00
     46.358  0.1667E-02  0.1600E+00
     46.518  0.1746E-03  0.1600E+00
     46.678  0.2550E-06  0.1600E+00
     46.838  0.3050E-11  0.1600E+00
     46.997  0.2575E-18  0.1600E+00
     47.157  0.0000E+00  0.1600E+00
     47.317  0.0000E+00  0.1600E+00
     47.476  0.0000E+00  0.1600E+00
     47.636  0.0000E+00  0.1600E+00
     47.796  0.0000E+00  0.1600E+00
     47.955  0.0000E+00  0.1600E+00
     48.115  0.0000E+00  0.1600E+00
     48.275  0.0000E+00  0.1600E+00
     48.434  0.0000E+00  0.1600E+00
