    2    2  100    1
  0.5656843E+01  0.2000000E-09  0.2000000E-09  0.3265980E-09  0.5000000E-15
  1.000000000000000E-004
  CAR 
 Si beta-tin                             
      8     36      8
 
  0.8333333E-01  0.8333333E-01  0.8333333E-01  0.1851852E-01
    1        3.373505   1.000000
    2       13.244067   1.000000
    3       17.926702   1.000000
    4       34.933146   0.000000
    5       37.500195   0.000000
    6       43.122817   0.000000
    7       43.503393   0.000000
    8       44.887429   0.000000
 
  0.2500000E+00  0.8333333E-01  0.8333333E-01  0.3703704E-01
    1        6.611438   1.000000
    2       16.079990   1.000000
    3       20.141336   1.000000
    4       25.829703   1.000000
    5       31.651587   0.000000
    6       34.684705   0.000000
    7       39.357474   0.000000
    8       41.345731   0.000000
 
  0.4166667E+00  0.8333333E-01  0.8333333E-01  0.3703704E-01
    1       12.072422   1.000000
    2       15.635898   1.000000
    3       21.503799   1.000000
    4       24.764720   1.000000
    5       25.790894   1.000000
    6       28.450671   0.000000
    7       36.309149   0.000000
    8       39.439978   0.000000
 
 -0.4166667E+00  0.8333333E-01  0.8333333E-01  0.3703704E-01
    1        9.107485   1.000000
    2       17.922497   1.000000
    3       19.752371   1.000000
    4       24.132565   1.000000
    5       28.526745   0.000000
    6       30.994263   0.000000
    7       37.388522   0.000000
    8       40.065788   0.000000
 
 -0.2500000E+00  0.8333333E-01  0.8333333E-01  0.3703704E-01
    1        4.684337   1.000000
    2       14.390722   1.000000
    3       18.954816   1.000000
    4       30.254674   0.000000
    5       34.344852   0.000000
    6       39.325682   0.000000
    7       41.699630   0.000000
    8       43.497505   0.000000
 
 -0.8333333E-01  0.8333333E-01  0.8333333E-01  0.1851852E-01
    1        2.710088   1.000000
    2       12.667180   1.000000
    3       17.376129   1.000000
    4       38.348111   0.000000
    5       41.482331   0.000000
    6       42.389502   0.000000
    7       43.722014   0.000000
    8       46.256886   0.000000
 
  0.2500000E+00  0.2500000E+00  0.8333333E-01  0.1851852E-01
    1       10.921939   1.000000
    2       19.306228   1.000000
    3       20.956874   1.000000
    4       21.547250   1.000000
    5       27.452283   0.548211
    6       31.206181   0.000000
    7       31.930795   0.000000
    8       38.123382   0.000000
 
  0.4166667E+00  0.2500000E+00  0.8333333E-01  0.3703704E-01
    1       13.800000   1.000000
    2       17.261060   1.000000
    3       20.169549   1.000000
    4       23.555990   1.000000
    5       26.777299   1.000000
    6       28.659544   0.000000
    7       31.141429   0.000000
    8       36.825962   0.000000
 
 -0.4166667E+00  0.2500000E+00  0.8333333E-01  0.3703704E-01
    1        8.491336   1.000000
    2       17.694129   1.000000
    3       20.852371   1.000000
    4       23.806841   1.000000
    5       28.446745   0.000000
    6       32.706451   0.000000
    7       36.131673   0.000000
    8       39.356334   0.000000
 
 -0.2500000E+00  0.2500000E+00  0.8333333E-01  0.1851852E-01
    1        5.331951   1.000000
    2       14.958344   1.000000
    3       19.396509   1.000000
    4       27.969864   0.000000
    5       34.904531   0.000000
    6       37.612976   0.000000
    7       38.451986   0.000000
    8       45.251677   0.000000
 
  0.4166667E+00  0.4166667E+00  0.8333333E-01  0.1851852E-01
    1       13.919441   1.000000
    2       15.004414   1.000000
    3       22.781192   1.000000
    4       23.490515   1.000000
    5       25.196875   1.000000
    6       28.182767   0.000000
    7       35.020251   0.000000
    8       35.952710   0.000000
 
 -0.4166667E+00  0.4166667E+00  0.8333333E-01  0.1851852E-01
    1       10.319509   1.000000
    2       17.036589   1.000000
    3       19.966277   1.000000
    4       24.950811   1.000000
    5       26.660121   1.000000
    6       30.226936   0.000000
    7       36.870908   0.000000
    8       42.586577   0.000000
 
  0.8333333E-01  0.8333333E-01  0.2500000E+00  0.1851852E-01
    1        4.084791   1.000000
    2       10.205529   1.000000
    3       22.029263   1.000000
    4       35.264082   0.000000
    5       37.578681   0.000000
    6       37.954582   0.000000
    7       41.964290   0.000000
    8       43.459707   0.000000
 
  0.2500000E+00  0.8333333E-01  0.2500000E+00  0.3703704E-01
    1        7.295943   1.000000
    2       13.171223   1.000000
    3       23.396419   1.000000
    4       26.962487   1.000000
    5       30.046277   0.000000
    6       34.735295   0.000000
    7       38.426092   0.000000
    8       41.857860   0.000000
 
  0.4166667E+00  0.8333333E-01  0.2500000E+00  0.3703704E-01
    1       12.696702   1.000000
    2       15.974109   1.000000
    3       19.158267   1.000000
    4       22.246990   1.000000
    5       28.514330   0.000000
    6       31.617575   0.000000
    7       37.309765   0.000000
    8       37.972304   0.000000
 
 -0.4166667E+00  0.8333333E-01  0.2500000E+00  0.3703704E-01
    1        9.770457   1.000000
    2       15.372156   1.000000
    3       20.679650   1.000000
    4       25.922784   1.000000
    5       27.163494   0.999987
    6       32.974744   0.000000
    7       37.632728   0.000000
    8       39.582621   0.000000
 
 -0.2500000E+00  0.8333333E-01  0.2500000E+00  0.3703704E-01
    1        5.384618   1.000000
    2       11.407986   1.000000
    3       22.911370   1.000000
    4       30.809865   0.000000
    5       33.938928   0.000000
    6       36.780719   0.000000
    7       39.621900   0.000000
    8       42.661025   0.000000
 
 -0.8333333E-01  0.8333333E-01  0.2500000E+00  0.1851852E-01
    1        3.427054   1.000000
    2        9.597435   1.000000
    3       21.534883   1.000000
    4       37.114335   0.000000
    5       39.519602   0.000000
    6       41.858853   0.000000
    7       42.115817   0.000000
    8       45.065972   0.000000
 
  0.2500000E+00  0.2500000E+00  0.2500000E+00  0.1851852E-01
    1       11.568339   1.000000
    2       16.950916   1.000000
    3       21.483355   1.000000
    4       22.653048   1.000000
    5       27.325849   0.971881
    6       29.522348   0.000000
    7       33.097708   0.000000
    8       41.208658   0.000000
 
  0.4166667E+00  0.2500000E+00  0.2500000E+00  0.3703704E-01
    1       14.407327   1.000000
    2       17.574105   1.000000
    3       19.756578   1.000000
    4       21.862516   1.000000
    5       25.493055   1.000000
    6       28.254846   0.000000
    7       33.778969   0.000000
    8       39.432722   0.000000
 
 -0.4166667E+00  0.2500000E+00  0.2500000E+00  0.3703704E-01
    1        9.160205   1.000000
    2       14.871673   1.000000
    3       22.932669   1.000000
    4       25.167842   1.000000
    5       28.110294   0.000000
    6       32.010060   0.000000
    7       34.706670   0.000000
    8       42.353291   0.000000
 
 -0.2500000E+00  0.2500000E+00  0.2500000E+00  0.1851852E-01
    1        6.026914   1.000000
    2       12.001388   1.000000
    3       23.186070   1.000000
    4       28.727656   0.000000
    5       32.566192   0.000000
    6       37.726685   0.000000
    7       38.906017   0.000000
    8       43.334926   0.000000
 
  0.4166667E+00  0.4166667E+00  0.2500000E+00  0.1851852E-01
    1       14.504073   1.000000
    2       15.532951   1.000000
    3       20.772334   1.000000
    4       21.044893   1.000000
    5       26.390202   1.000000
    6       30.707913   0.000000
    7       34.594265   0.000000
    8       38.001302   0.000000
 
 -0.4166667E+00  0.4166667E+00  0.2500000E+00  0.1851852E-01
    1       10.969446   1.000000
    2       16.127263   1.000000
    3       18.976752   1.000000
    4       23.961669   1.000000
    5       28.295359   0.000000
    6       33.351156   0.000000
    7       37.309344   0.000000
    8       41.106753   0.000000
 
  0.8333333E-01  0.8333333E-01  0.4166667E+00  0.1851852E-01
    1        5.488997   1.000000
    2        7.549723   1.000000
    3       26.817669   1.000000
    4       32.029472   0.000000
    5       36.447111   0.000000
    6       37.265131   0.000000
    7       41.315232   0.000000
    8       42.018305   0.000000
 
  0.2500000E+00  0.8333333E-01  0.4166667E+00  0.3703704E-01
    1        8.646852   1.000000
    2       10.627163   1.000000
    3       25.943720   1.000000
    4       27.983728   0.000000
    5       29.774429   0.000000
    6       33.245702   0.000000
    7       37.769102   0.000000
    8       39.668808   0.000000
 
  0.4166667E+00  0.8333333E-01  0.4166667E+00  0.3703704E-01
    1       13.897977   1.000000
    2       15.430686   1.000000
    3       18.544198   1.000000
    4       20.017685   1.000000
    5       31.103823   0.000000
    6       32.966877   0.000000
    7       37.952967   0.000000
    8       39.758413   0.000000
 
 -0.4166667E+00  0.8333333E-01  0.4166667E+00  0.3703704E-01
    1       11.076209   1.000000
    2       12.977920   1.000000
    3       21.964471   1.000000
    4       23.753268   1.000000
    5       30.507189   0.000000
    6       33.148913   0.000000
    7       37.364018   0.000000
    8       39.965846   0.000000
 
 -0.2500000E+00  0.8333333E-01  0.4166667E+00  0.3703704E-01
    1        6.767170   1.000000
    2        8.795808   1.000000
    3       27.415635   0.738727
    4       31.686456   0.000000
    5       32.085454   0.000000
    6       33.549369   0.000000
    7       39.150884   0.000000
    8       40.419482   0.000000
 
 -0.8333333E-01  0.8333333E-01  0.4166667E+00  0.1851852E-01
    1        4.842350   1.000000
    2        6.919451   1.000000
    3       26.402323   1.000000
    4       31.751358   0.000000
    5       39.968353   0.000000
    6       41.013005   0.000000
    7       42.612804   0.000000
    8       43.718724   0.000000
 
  0.2500000E+00  0.2500000E+00  0.4166667E+00  0.1851852E-01
    1       12.838058   1.000000
    2       14.674847   1.000000
    3       22.395903   1.000000
    4       23.092114   1.000000
    5       26.720608   1.000000
    6       27.659526   0.002479
    7       36.910660   0.000000
    8       41.829444   0.000000
 
  0.4166667E+00  0.2500000E+00  0.4166667E+00  0.3703704E-01
    1       15.569391   1.000000
    2       17.035453   1.000000
    3       19.629418   1.000000
    4       20.681323   1.000000
    5       25.303550   1.000000
    6       26.478045   1.000000
    7       38.570718   0.000000
    8       43.330377   0.000000
 
 -0.4166667E+00  0.2500000E+00  0.4166667E+00  0.3703704E-01
    1       10.479064   1.000000
    2       12.407538   1.000000
    3       24.363986   1.000000
    4       25.696532   1.000000
    5       28.512104   0.000000
    6       30.503864   0.000000
    7       36.158223   0.000000
    8       40.058379   0.000000
 
 -0.2500000E+00  0.2500000E+00  0.4166667E+00  0.1851852E-01
    1        7.398878   1.000000
    2        9.411449   1.000000
    3       27.091703   1.000000
    4       29.982641   0.000000
    5       30.685646   0.000000
    6       34.098445   0.000000
    7       39.823921   0.000000
    8       41.215860   0.000000
 
  0.4166667E+00  0.4166667E+00  0.4166667E+00  0.1851852E-01
    1       15.559874   1.000000
    2       16.199355   1.000000
    3       18.843232   1.000000
    4       19.287021   1.000000
    5       27.884020   0.000000
    6       29.647088   0.000000
    7       38.350837   0.000000
    8       41.247585   0.000000
 
 -0.4166667E+00  0.4166667E+00  0.4166667E+00  0.1851852E-01
    1       12.243599   1.000000
    2       14.067021   1.000000
    3       19.883932   1.000000
    4       21.642064   1.000000
    5       32.100801   0.000000
    6       34.881844   0.000000
    7       38.186542   0.000000
    8       39.485211   0.000000
