 vasp.5.4.1 24Jun15 (build Jul 19 2016 16:50:41) complex                        
  
 executed on           IFC91_ompi date 2019.10.10  11:09:17
 running on    4 total cores
 distrk:  each k-point on    4 cores,    1 groups
 distr:  one band on NCORES_PER_BAND=   1 cores,    4 groups


--------------------------------------------------------------------------------------------------------


 INCAR:
 POTCAR:    PAW_PBE Si 05Jan2001                  
 POTCAR:    PAW_PBE Si 05Jan2001                  
   VRHFIN = Si: s2p2                                                            
   LEXCH  = PE                                                                  
   EATOM  =   103.0669 eV,    7.5752 Ry                                         
                                                                                
   TITEL  = PAW_PBE Si 05Jan2001                                                
   LULTRA =        F    use ultrasoft PP ?                                      
   IUNSCR =        1    unscreen: 0-lin 1-nonlin 2-no                           
   RPACOR =    1.500    partial core radius                                     
   POMASS =   28.085; ZVAL   =    4.000    mass and valenz                      
   RCORE  =    1.900    outmost cutoff radius                                   
   RWIGS  =    2.480; RWIGS  =    1.312    wigner-seitz radius (au A)           
   ENMAX  =  245.345; ENMIN  =  184.009 eV                                      
   ICORE  =        2    local potential                                         
   LCOR   =        T    correct aug charges                                     
   LPAW   =        T    paw PP                                                  
   EAUG   =  322.069                                                            
   DEXC   =    0.000                                                            
   RMAX   =    1.950    core radius for proj-oper                               
   RAUG   =    1.300    factor for augmentation sphere                          
   RDEP   =    1.993    radius for radial grids                                 
   RDEPT  =    1.837    core radius for aug-charge                              
                                                                                
   Atomic configuration                                                         
    6 entries                                                                   
     n  l   j            E        occ.                                          
     1  0  0.50     -1785.8828   2.0000                                         
     2  0  0.50      -139.4969   2.0000                                         
     2  1  1.50       -95.5546   6.0000                                         
     3  0  0.50       -10.8127   2.0000                                         
     3  1  0.50        -4.0811   2.0000                                         
     3  2  1.50        -4.0817   0.0000                                         
   Description                                                                  
     l       E           TYP  RCUT    TYP  RCUT                                 
     0    -10.8127223     23  1.900                                             
     0     -7.6451159     23  1.900                                             
     1     -4.0811372     23  1.900                                             
     1      2.4879257     23  1.900                                             
     2     -4.0817478      7  1.900                                             
  local pseudopotential read in
  partial core-charges read in
  partial kinetic energy density read in
  atomic valenz-charges read in
  non local Contribution for L=           0  read in
    real space projection operators read in
  non local Contribution for L=           0  read in
    real space projection operators read in
  non local Contribution for L=           1  read in
    real space projection operators read in
  non local Contribution for L=           1  read in
    real space projection operators read in
    PAW grid and wavefunctions read in
 
   number of l-projection  operators is LMAX  =           4
   number of lm-projection operators is LMMAX =           8
 
  PAW_PBE Si 05Jan2001                  :
 energy of atom  1       EATOM= -103.0669
 kinetic energy error for atom=    0.0009 (will be added to EATOM!!)
 
 
 POSCAR: Si HCP                                  
  positions in direct lattice
  No initial velocities read in
 exchange correlation table for  LEXCH =        8
   RHO(1)=    0.500       N(1)  =     2000
   RHO(2)=  100.500       N(2)  =     4000
 


--------------------------------------------------------------------------------------------------------


 ion  position               nearest neighbor table
   1  0.000  0.000  0.000-   2 2.00   2 2.00   2 2.00   2 2.00   2 2.00   2 2.00   2 2.83   2 2.83
                             2 2.83   2 2.83   2 2.83   2 2.83
   2  0.333  0.667  0.500-   1 2.00   1 2.00   1 2.00   1 2.00   1 2.00   1 2.00   1 2.83   1 2.83
                             1 2.83   1 2.83   1 2.83   1 2.83
 
  LATTYP: Found a hexagonal cell.
 ALAT       =     2.0000000000
 C/A-ratio  =     1.6329900000
  
  Lattice vectors:
  
 A1 = (   2.0000000000,   0.0000000000,   0.0000000000)
 A2 = (  -1.0000000000,   1.7320508076,   0.0000000000)
 A3 = (   0.0000000000,   0.0000000000,   3.2659800000)


Analysis of symmetry for initial positions (statically):
=====================================================================
 Subroutine PRICEL returns:
 Original cell was already a primitive cell.
 

 Routine SETGRP: Setting up the symmetry group for a 
 hexagonal supercell.


 Subroutine GETGRP returns: Found 24 space group operations
 (whereof 12 operations were pure point group operations)
 out of a pool of 24 trial point group operations.


The static configuration has the point symmetry D_3h.
 The point group associated with its full space group is D_6h.


Analysis of symmetry for dynamics (positions and initial velocities):
=====================================================================
 Subroutine PRICEL returns:
 Original cell was already a primitive cell.
 

 Routine SETGRP: Setting up the symmetry group for a 
 hexagonal supercell.


 Subroutine GETGRP returns: Found 24 space group operations
 (whereof 12 operations were pure point group operations)
 out of a pool of 24 trial point group operations.


The dynamic configuration has the point symmetry D_3h.
 The point group associated with its full space group is D_6h.


 Subroutine INISYM returns: Found 24 space group operations
 (whereof 12 operations are pure point group operations),
 and found     1 'primitive' translations

 
 
 KPOINTS: K-Points                                

Automatic generation of k-mesh.
Space group operators:
 irot       det(A)        alpha          n_x          n_y          n_z        tau_x        tau_y        tau_z
    1     1.000000     0.000000     1.000000     0.000000     0.000000     0.000000     0.000000     0.000000
    2    -1.000000    60.000000     0.000000     0.000000    -1.000000     0.000000     0.000000     0.000000
    3     1.000000   120.000000     0.000000     0.000000    -1.000000     0.000000     0.000000     0.000000
    4    -1.000000   179.999999     0.000000     0.000000     1.000000     0.000000     0.000000     0.000000
    5     1.000000   120.000000     0.000000     0.000000     1.000000     0.000000     0.000000     0.000000
    6    -1.000000    60.000000     0.000000     0.000000     1.000000     0.000000     0.000000     0.000000
    7    -1.000000   180.000000     1.000000     0.000000     0.000000     0.000000     0.000000     0.000000
    8     1.000000   180.000000     0.866025    -0.500000     0.000000     0.000000     0.000000     0.000000
    9    -1.000000   180.000000     0.500000    -0.866025     0.000000     0.000000     0.000000     0.000000
   10     1.000000   180.000000     0.000000     1.000000     0.000000     0.000000     0.000000     0.000000
   11    -1.000000   180.000000    -0.500000    -0.866025     0.000000     0.000000     0.000000     0.000000
   12     1.000000   180.000000     0.866025     0.500000     0.000000     0.000000     0.000000     0.000000
   13    -1.000000     0.000000     1.000000     0.000000     0.000000     0.333333     0.666667     0.500000
   14     1.000000    60.000000     0.000000     0.000000    -1.000000     0.333333     0.666667     0.500000
   15    -1.000000   120.000000     0.000000     0.000000    -1.000000     0.333333     0.666667     0.500000
   16     1.000000   179.999999     0.000000     0.000000     1.000000     0.333333     0.666667     0.500000
   17    -1.000000   120.000000     0.000000     0.000000     1.000000     0.333333     0.666667     0.500000
   18     1.000000    60.000000     0.000000     0.000000     1.000000     0.333333     0.666667     0.500000
   19     1.000000   180.000000     1.000000     0.000000     0.000000     0.333333     0.666667     0.500000
   20    -1.000000   180.000000     0.866025    -0.500000     0.000000     0.333333     0.666667     0.500000
   21     1.000000   180.000000     0.500000    -0.866025     0.000000     0.333333     0.666667     0.500000
   22    -1.000000   180.000000     0.000000     1.000000     0.000000     0.333333     0.666667     0.500000
   23     1.000000   180.000000    -0.500000    -0.866025     0.000000     0.333333     0.666667     0.500000
   24    -1.000000   180.000000     0.866025     0.500000     0.000000     0.333333     0.666667     0.500000
 
 Subroutine IBZKPT returns following result:
 ===========================================
 
 Found     36 irreducible k-points:
 
 Following reciprocal coordinates:
            Coordinates               Weight
  0.083333  0.083333  0.083333     96.000000
  0.250000  0.083333  0.083333    192.000000
  0.416667  0.083333  0.083333    192.000000
 -0.416667  0.083333  0.083333    192.000000
 -0.250000  0.083333  0.083333    192.000000
 -0.083333  0.083333  0.083333     96.000000
  0.250000  0.250000  0.083333     96.000000
  0.416667  0.250000  0.083333    192.000000
 -0.416667  0.250000  0.083333    192.000000
 -0.250000  0.250000  0.083333     96.000000
  0.416667  0.416667  0.083333     96.000000
 -0.416667  0.416667  0.083333     96.000000
  0.083333  0.083333  0.250000     96.000000
  0.250000  0.083333  0.250000    192.000000
  0.416667  0.083333  0.250000    192.000000
 -0.416667  0.083333  0.250000    192.000000
 -0.250000  0.083333  0.250000    192.000000
 -0.083333  0.083333  0.250000     96.000000
  0.250000  0.250000  0.250000     96.000000
  0.416667  0.250000  0.250000    192.000000
 -0.416667  0.250000  0.250000    192.000000
 -0.250000  0.250000  0.250000     96.000000
  0.416667  0.416667  0.250000     96.000000
 -0.416667  0.416667  0.250000     96.000000
  0.083333  0.083333  0.416667     96.000000
  0.250000  0.083333  0.416667    192.000000
  0.416667  0.083333  0.416667    192.000000
 -0.416667  0.083333  0.416667    192.000000
 -0.250000  0.083333  0.416667    192.000000
 -0.083333  0.083333  0.416667     96.000000
  0.250000  0.250000  0.416667     96.000000
  0.416667  0.250000  0.416667    192.000000
 -0.416667  0.250000  0.416667    192.000000
 -0.250000  0.250000  0.416667     96.000000
  0.416667  0.416667  0.416667     96.000000
 -0.416667  0.416667  0.416667     96.000000
 
 Following cartesian coordinates:
            Coordinates               Weight
  0.083333  0.144338  0.051031     96.000000
  0.250000  0.240563  0.051031    192.000000
  0.416667  0.336788  0.051031    192.000000
 -0.416667 -0.144338  0.051031    192.000000
 -0.250000 -0.048113  0.051031    192.000000
 -0.083333  0.048113  0.051031     96.000000
  0.250000  0.433013  0.051031     96.000000
  0.416667  0.529238  0.051031    192.000000
 -0.416667  0.048113  0.051031    192.000000
 -0.250000  0.144338  0.051031     96.000000
  0.416667  0.721688  0.051031     96.000000
 -0.416667  0.240563  0.051031     96.000000
  0.083333  0.144338  0.153093     96.000000
  0.250000  0.240563  0.153093    192.000000
  0.416667  0.336788  0.153093    192.000000
 -0.416667 -0.144338  0.153093    192.000000
 -0.250000 -0.048113  0.153093    192.000000
 -0.083333  0.048113  0.153093     96.000000
  0.250000  0.433013  0.153093     96.000000
  0.416667  0.529238  0.153093    192.000000
 -0.416667  0.048113  0.153093    192.000000
 -0.250000  0.144338  0.153093     96.000000
  0.416667  0.721688  0.153093     96.000000
 -0.416667  0.240563  0.153093     96.000000
  0.083333  0.144338  0.255156     96.000000
  0.250000  0.240563  0.255156    192.000000
  0.416667  0.336788  0.255156    192.000000
 -0.416667 -0.144338  0.255156    192.000000
 -0.250000 -0.048113  0.255156    192.000000
 -0.083333  0.048113  0.255156     96.000000
  0.250000  0.433013  0.255156     96.000000
  0.416667  0.529238  0.255156    192.000000
 -0.416667  0.048113  0.255156    192.000000
 -0.250000  0.144338  0.255156     96.000000
  0.416667  0.721688  0.255156     96.000000
 -0.416667  0.240563  0.255156     96.000000
 


--------------------------------------------------------------------------------------------------------




 Dimension of arrays:
   k-points           NKPTS =     36   k-points in BZ     NKDIM =     36   number of bands    NBANDS=      8
   number of dos      NEDOS =    301   number of ions     NIONS =      2
   non local maximal  LDIM  =      4   non local SUM 2l+1 LMDIM =      8
   total plane-waves  NPLWV =   4704
   max r-space proj   IRMAX =      1   max aug-charges    IRDMAX=  14099
   dimension x,y,z NGX =    14 NGY =   14 NGZ =   24
   dimension x,y,z NGXF=    28 NGYF=   28 NGZF=   48
   support grid    NGXF=    28 NGYF=   28 NGZF=   48
   ions per type =               2
 NGX,Y,Z   is equivalent  to a cutoff of  11.64, 11.64, 12.22 a.u.
 NGXF,Y,Z  is equivalent  to a cutoff of  23.27, 23.27, 24.43 a.u.


 I would recommend the setting:
   dimension x,y,z NGX =    14 NGY =   14 NGZ =   23
 SYSTEM =  Si beta-tin                             
 POSCAR =  Si HCP                                  

 Startparameter for this run:
   NWRITE =      2    write-flag & timer
   PREC   = accura    normal or accurate (medium, high low for compatibility)
   ISTART =      0    job   : 0-new  1-cont  2-samecut
   ICHARG =      2    charge: 1-file 2-atom 10-const
   ISPIN  =      1    spin polarized calculation?
   LNONCOLLINEAR =      F non collinear calculations
   LSORBIT =      F    spin-orbit coupling
   INIWAV =      1    electr: 0-lowe 1-rand  2-diag
   LASPH  =      F    aspherical Exc in radial PAW
   METAGGA=      F    non-selfconsistent MetaGGA calc.

 Electronic Relaxation 1
   ENCUT  =  450.0 eV  33.07 Ry    5.75 a.u.   3.46  3.46  5.65*2*pi/ulx,y,z
   ENINI  =  450.0     initial cutoff
   ENAUG  =  322.1 eV  augmentation charge cutoff
   NELM   =     60;   NELMIN=  2; NELMDL= -5     # of ELM steps 
   EDIFF  = 0.1E-04   stopping-criterion for ELM
   LREAL  =      F    real-space projection
   NLSPLINE    = F    spline interpolate recip. space projectors
   LCOMPAT=      F    compatible to vasp.4.4
   GGA_COMPAT  = T    GGA compatible to vasp.4.4-vasp.4.6
   LMAXPAW     = -100 max onsite density
   LMAXMIX     =    2 max onsite mixed and CHGCAR
   VOSKOWN=      0    Vosko Wilk Nusair interpolation
   ROPT   =    0.00000
 Ionic relaxation
   EDIFFG = -.1E-01   stopping-criterion for IOM
   NSW    =    100    number of steps for IOM
   NBLOCK =      1;   KBLOCK =    100    inner block; outer block 
   IBRION =      2    ionic relax: 0-MD 1-quasi-New 2-CG
   NFREE  =      1    steps in history (QN), initial steepest desc. (CG)
   ISIF   =      4    stress and relaxation
   IWAVPR =     11    prediction:  0-non 1-charg 2-wave 3-comb
   ISYM   =      2    0-nonsym 1-usesym 2-fastsym
   LCORR  =      T    Harris-Foulkes like correction to forces

   POTIM  = 0.5000    time-step for ionic-motion
   TEIN   =    0.0    initial temperature
   TEBEG  =    0.0;   TEEND  =   0.0 temperature during run
   SMASS  =  -3.00    Nose mass-parameter (am)
   estimated Nose-frequenzy (Omega)   =  0.10E-29 period in steps =****** mass=  -0.914E-28a.u.
   SCALEE = 1.0000    scale energy and forces
   NPACO  =    256;   APACO  = 16.0  distance and # of slots for P.C.
   PSTRESS=    0.0 pullay stress

  Mass of Ions in am
   POMASS =  28.09
  Ionic Valenz
   ZVAL   =   4.00
  Atomic Wigner-Seitz radii
   RWIGS  =  -1.00
  virtual crystal weights 
   VCA    =   1.00
   NELECT =       8.0000    total number of electrons
   NUPDOWN=      -1.0000    fix difference up-down

 DOS related values:
   EMIN   =  10.00;   EMAX   =-10.00  energy-range for DOS
   EFERMI =   0.00
   ISMEAR =     0;   SIGMA  =   0.10  broadening in eV -4-tet -1-fermi 0-gaus

 Electronic relaxation 2 (details)
   IALGO  =     38    algorithm
   LDIAG  =      T    sub-space diagonalisation (order eigenvalues)
   LSUBROT=      F    optimize rotation matrix (better conditioning)
   TURBO    =      0    0=normal 1=particle mesh
   IRESTART =      0    0=no restart 2=restart with 2 vectors
   NREBOOT  =      0    no. of reboots
   NMIN     =      0    reboot dimension
   EREF     =   0.00    reference energy to select bands
   IMIX   =      4    mixing-type and parameters
     AMIX     =   0.40;   BMIX     =  1.00
     AMIX_MAG =   1.60;   BMIX_MAG =  1.00
     AMIN     =   0.10
     WC   =   100.;   INIMIX=   1;  MIXPRE=   1;  MAXMIX= -45

 Intra band minimization:
   WEIMIN = 0.0010     energy-eigenvalue tresh-hold
   EBREAK =  0.31E-06  absolut break condition
   DEPER  =   0.30     relativ break condition  

   TIME   =   0.40     timestep for ELM

  volume/ion in A,a.u.               =       5.66        38.17
  Fermi-wavevector in a.u.,A,eV,Ry     =   1.458490  2.756146 28.942218  2.127193
  Thomas-Fermi vector in A             =   2.575168
 
 Write flags
   LWAVE  =      T    write WAVECAR
   LCHARG =      T    write CHGCAR
   LVTOT  =      F    write LOCPOT, total local potential
   LVHAR  =      F    write LOCPOT, Hartree potential only
   LELF   =      F    write electronic localiz. function (ELF)
   LORBIT =      0    0 simple, 1 ext, 2 COOP (PROOUT)


 Dipole corrections
   LMONO  =      F    monopole corrections only (constant potential shift)
   LDIPOL =      F    correct potential (dipole corrections)
   IDIPOL =      0    1-x, 2-y, 3-z, 4-all directions 
   EPSILON=  1.0000000 bulk dielectric constant

 Exchange correlation treatment:
   GGA     =    --    GGA type
   LEXCH   =     8    internal setting for exchange type
   VOSKOWN=      0    Vosko Wilk Nusair interpolation
   LHFCALC =     F    Hartree Fock is set to
   LHFONE  =     F    Hartree Fock one center treatment
   AEXX    =    0.0000 exact exchange contribution

 Linear response parameters
   LEPSILON=     F    determine dielectric tensor
   LRPA    =     F    only Hartree local field effects (RPA)
   LNABLA  =     F    use nabla operator in PAW spheres
   LVEL    =     F    velocity operator in full k-point grid
   LINTERFAST=   F  fast interpolation
   KINTER  =     0    interpolate to denser k-point grid
   CSHIFT  =0.1000    complex shift for real part using Kramers Kronig
   OMEGAMAX=  -1.0    maximum frequency
   DEG_THRESHOLD= 0.2000000E-02 threshold for treating states as degnerate
   RTIME   =    0.100 relaxation time in fs

 Orbital magnetization related:
   ORBITALMAG=     F  switch on orbital magnetization
   LCHIMAG   =     F  perturbation theory with respect to B field
   DQ        =  0.001000  dq finite difference perturbation B field



--------------------------------------------------------------------------------------------------------


 conjugate gradient relaxation of ions
 charge density and potential will be updated during run
 non-spin polarized calculation
 Variant of blocked Davidson
 Davidson routine will perform the subspace rotation
 perform sub-space diagonalisation
    after iterative eigenvector-optimisation
 modified Broyden-mixing scheme, WC =      100.0
 initial mixing is a Kerker type mixing with AMIX =  0.4000 and BMIX =      1.0000
 Hartree-type preconditioning will be used
 using additional bands            4
 reciprocal scheme for non local part
 use partial core corrections
 calculate Harris-corrections to forces 
   (improved forces if not selfconsistent)
 use gradient corrections 
 use of overlap-Matrix (Vanderbilt PP)
 Gauss-broadening in eV      SIGMA  =   0.10


--------------------------------------------------------------------------------------------------------


  energy-cutoff  :      450.00
  volume of cell :       11.31
      direct lattice vectors                 reciprocal lattice vectors
     2.000000000  0.000000000  0.000000000     0.500000000  0.288675135  0.000000000
    -1.000000000  1.732050808  0.000000000     0.000000000  0.577350269  0.000000000
     0.000000000  0.000000000  3.265980000     0.000000000  0.000000000  0.306186811

  length of vectors
     2.000000000  2.000000000  3.265980000     0.577350269  0.577350269  0.306186811


 
 k-points in units of 2pi/SCALE and weight: K-Points                                
   0.08333333  0.14433757  0.05103114       0.019
   0.25000000  0.24056261  0.05103114       0.037
   0.41666667  0.33678766  0.05103114       0.037
  -0.41666667 -0.14433757  0.05103114       0.037
  -0.25000000 -0.04811252  0.05103114       0.037
  -0.08333333  0.04811252  0.05103114       0.019
   0.25000000  0.43301270  0.05103114       0.019
   0.41666667  0.52923775  0.05103114       0.037
  -0.41666667  0.04811252  0.05103114       0.037
  -0.25000000  0.14433757  0.05103114       0.019
   0.41666667  0.72168784  0.05103114       0.019
  -0.41666667  0.24056261  0.05103114       0.019
   0.08333333  0.14433757  0.15309341       0.019
   0.25000000  0.24056261  0.15309341       0.037
   0.41666667  0.33678766  0.15309341       0.037
  -0.41666667 -0.14433757  0.15309341       0.037
  -0.25000000 -0.04811252  0.15309341       0.037
  -0.08333333  0.04811252  0.15309341       0.019
   0.25000000  0.43301270  0.15309341       0.019
   0.41666667  0.52923775  0.15309341       0.037
  -0.41666667  0.04811252  0.15309341       0.037
  -0.25000000  0.14433757  0.15309341       0.019
   0.41666667  0.72168784  0.15309341       0.019
  -0.41666667  0.24056261  0.15309341       0.019
   0.08333333  0.14433757  0.25515568       0.019
   0.25000000  0.24056261  0.25515568       0.037
   0.41666667  0.33678766  0.25515568       0.037
  -0.41666667 -0.14433757  0.25515568       0.037
  -0.25000000 -0.04811252  0.25515568       0.037
  -0.08333333  0.04811252  0.25515568       0.019
   0.25000000  0.43301270  0.25515568       0.019
   0.41666667  0.52923775  0.25515568       0.037
  -0.41666667  0.04811252  0.25515568       0.037
  -0.25000000  0.14433757  0.25515568       0.019
   0.41666667  0.72168784  0.25515568       0.019
  -0.41666667  0.24056261  0.25515568       0.019
 
 k-points in reciprocal lattice and weights: K-Points                                
   0.08333333  0.08333333  0.08333333       0.019
   0.25000000  0.08333333  0.08333333       0.037
   0.41666667  0.08333333  0.08333333       0.037
  -0.41666667  0.08333333  0.08333333       0.037
  -0.25000000  0.08333333  0.08333333       0.037
  -0.08333333  0.08333333  0.08333333       0.019
   0.25000000  0.25000000  0.08333333       0.019
   0.41666667  0.25000000  0.08333333       0.037
  -0.41666667  0.25000000  0.08333333       0.037
  -0.25000000  0.25000000  0.08333333       0.019
   0.41666667  0.41666667  0.08333333       0.019
  -0.41666667  0.41666667  0.08333333       0.019
   0.08333333  0.08333333  0.25000000       0.019
   0.25000000  0.08333333  0.25000000       0.037
   0.41666667  0.08333333  0.25000000       0.037
  -0.41666667  0.08333333  0.25000000       0.037
  -0.25000000  0.08333333  0.25000000       0.037
  -0.08333333  0.08333333  0.25000000       0.019
   0.25000000  0.25000000  0.25000000       0.019
   0.41666667  0.25000000  0.25000000       0.037
  -0.41666667  0.25000000  0.25000000       0.037
  -0.25000000  0.25000000  0.25000000       0.019
   0.41666667  0.41666667  0.25000000       0.019
  -0.41666667  0.41666667  0.25000000       0.019
   0.08333333  0.08333333  0.41666667       0.019
   0.25000000  0.08333333  0.41666667       0.037
   0.41666667  0.08333333  0.41666667       0.037
  -0.41666667  0.08333333  0.41666667       0.037
  -0.25000000  0.08333333  0.41666667       0.037
  -0.08333333  0.08333333  0.41666667       0.019
   0.25000000  0.25000000  0.41666667       0.019
   0.41666667  0.25000000  0.41666667       0.037
  -0.41666667  0.25000000  0.41666667       0.037
  -0.25000000  0.25000000  0.41666667       0.019
   0.41666667  0.41666667  0.41666667       0.019
  -0.41666667  0.41666667  0.41666667       0.019
 
 position of ions in fractional coordinates (direct lattice) 
   0.00000000  0.00000000  0.00000000
   0.33333333  0.66666667  0.50000000
 
 position of ions in cartesian coordinates  (Angst):
   0.00000000  0.00000000  0.00000000
  -0.00000000  1.15470054  1.63299000
 


--------------------------------------------------------------------------------------------------------


 k-point  1 :   0.0833 0.0833 0.0833  plane waves:     253
 k-point  2 :   0.2500 0.0833 0.0833  plane waves:     252
 k-point  3 :   0.4167 0.0833 0.0833  plane waves:     238
 k-point  4 :  -0.4167 0.0833 0.0833  plane waves:     246
 k-point  5 :  -0.2500 0.0833 0.0833  plane waves:     251
 k-point  6 :  -0.0833 0.0833 0.0833  plane waves:     249
 k-point  7 :   0.2500 0.2500 0.0833  plane waves:     241
 k-point  8 :   0.4167 0.2500 0.0833  plane waves:     239
 k-point  9 :  -0.4167 0.2500 0.0833  plane waves:     244
 k-point 10 :  -0.2500 0.2500 0.0833  plane waves:     252
 k-point 11 :   0.4167 0.4167 0.0833  plane waves:     242
 k-point 12 :  -0.4167 0.4167 0.0833  plane waves:     241
 k-point 13 :   0.0833 0.0833 0.2500  plane waves:     250
 k-point 14 :   0.2500 0.0833 0.2500  plane waves:     249
 k-point 15 :   0.4167 0.0833 0.2500  plane waves:     242
 k-point 16 :  -0.4167 0.0833 0.2500  plane waves:     242
 k-point 17 :  -0.2500 0.0833 0.2500  plane waves:     252
 k-point 18 :  -0.0833 0.0833 0.2500  plane waves:     253
 k-point 19 :   0.2500 0.2500 0.2500  plane waves:     241
 k-point 20 :   0.4167 0.2500 0.2500  plane waves:     241
 k-point 21 :  -0.4167 0.2500 0.2500  plane waves:     242
 k-point 22 :  -0.2500 0.2500 0.2500  plane waves:     252
 k-point 23 :   0.4167 0.4167 0.2500  plane waves:     243
 k-point 24 :  -0.4167 0.4167 0.2500  plane waves:     243
 k-point 25 :   0.0833 0.0833 0.4167  plane waves:     244
 k-point 26 :   0.2500 0.0833 0.4167  plane waves:     247
 k-point 27 :   0.4167 0.0833 0.4167  plane waves:     244
 k-point 28 :  -0.4167 0.0833 0.4167  plane waves:     245
 k-point 29 :  -0.2500 0.0833 0.4167  plane waves:     250
 k-point 30 :  -0.0833 0.0833 0.4167  plane waves:     248
 k-point 31 :   0.2500 0.2500 0.4167  plane waves:     244
 k-point 32 :   0.4167 0.2500 0.4167  plane waves:     241
 k-point 33 :  -0.4167 0.2500 0.4167  plane waves:     243
 k-point 34 :  -0.2500 0.2500 0.4167  plane waves:     249
 k-point 35 :   0.4167 0.4167 0.4167  plane waves:     241
 k-point 36 :  -0.4167 0.4167 0.4167  plane waves:     245

 maximum and minimum number of plane-waves per node :       253      238

 maximum number of plane-waves:       253
 maximum index in each direction: 
   IXMAX=    3   IYMAX=    3   IZMAX=    5
   IXMIN=   -3   IYMIN=   -3   IZMIN=   -6

 NGX is ok and might be reduce to  14
 NGY is ok and might be reduce to  14
 NGZ is ok and might be reduce to  24

 serial   3D FFT for wavefunctions
 parallel 3D FFT for charge:
    minimum data exchange during FFTs selected (reduces bandwidth)


 total amount of memory used by VASP on root node    31918. kBytes
========================================================================

   base      :      30000. kBytes
   nonl-proj :        598. kBytes
   fftplans  :        346. kBytes
   grid      :        655. kBytes
   one-center:          6. kBytes
   wavefun   :        313. kBytes
 
     INWAV:  cpu time    0.0000: real time    0.0000
 Broyden mixing: mesh for mixing (old mesh)
   NGX =  7   NGY =  7   NGZ = 11
  (NGX  = 28   NGY  = 28   NGZ  = 48)
  gives a total of    539 points

 initial charge density was supplied:
 charge density of overlapping atoms calculated
 number of electron       8.0000000 magnetization 
 keeping initial charge density in first step


--------------------------------------------------------------------------------------------------------


 Maximum index for augmentation-charges         3376 (set IRDMAX)


--------------------------------------------------------------------------------------------------------


 First call to EWALD:  gamma=   0.790
 Maximum number of real-space cells 3x 3x 2
 Maximum number of reciprocal cells 3x 3x 4

 FEWALD executed in parallel
    FEWALD:  cpu time    0.0020: real time    0.0010


----------------------------------------- Iteration    1(   1)  ---------------------------------------


    POTLOK:  cpu time    0.0230: real time    0.0164
    SETDIJ:  cpu time    0.0030: real time    0.0018
     EDDAV:  cpu time    1.1398: real time    0.8328
       DOS:  cpu time    0.0050: real time    0.0040
    --------------------------------------------
      LOOP:  cpu time    1.1758: real time    0.8572

 eigenvalue-minimisations  :   664
 total energy-change (2. order) : 0.1608986E+02  (-0.4184833E+03)
 number of electron       8.0000000 magnetization 
 augmentation part        8.0000000 magnetization 

 Free energy of the ion-electron system (eV)
  ---------------------------------------------------
  alpha Z        PSCENC =        11.90173708
  Ewald energy   TEWEN  =      -373.45684209
  -Hartree energ DENC   =        -0.58104602
  -exchange      EXHF   =         0.00000000
  -V(xc)+E(xc)   XCENC  =       -11.81561270
  PAW double counting   =       176.24759923     -141.06103558
  entropy T*S    EENTRO =        -0.00000099
  eigenvalues    EBANDS =       148.72312963
  atomic energy  EATOM  =       206.13192747
  Solvation  Ediel_sol  =         0.00000000
  ---------------------------------------------------
  free energy    TOTEN  =        16.08985603 eV

  energy without entropy =       16.08985702  energy(sigma->0) =       16.08985653


--------------------------------------------------------------------------------------------------------




----------------------------------------- Iteration    1(   2)  ---------------------------------------


     EDDAV:  cpu time    1.6328: real time    1.0289
       DOS:  cpu time    0.0030: real time    0.0011
    --------------------------------------------
      LOOP:  cpu time    1.6388: real time    1.0326

 eigenvalue-minimisations  :   880
 total energy-change (2. order) :-0.1134002E+02  (-0.1108776E+02)
 number of electron       8.0000000 magnetization 
 augmentation part        8.0000000 magnetization 

 Free energy of the ion-electron system (eV)
  ---------------------------------------------------
  alpha Z        PSCENC =        11.90173708
  Ewald energy   TEWEN  =      -373.45684209
  -Hartree energ DENC   =        -0.58104602
  -exchange      EXHF   =         0.00000000
  -V(xc)+E(xc)   XCENC  =       -11.81561270
  PAW double counting   =       176.24759923     -141.06103558
  entropy T*S    EENTRO =        -0.00325411
  eigenvalues    EBANDS =       137.38636605
  atomic energy  EATOM  =       206.13192747
  Solvation  Ediel_sol  =         0.00000000
  ---------------------------------------------------
  free energy    TOTEN  =         4.74983933 eV

  energy without entropy =        4.75309344  energy(sigma->0) =        4.75146639


--------------------------------------------------------------------------------------------------------




----------------------------------------- Iteration    1(   3)  ---------------------------------------


     EDDAV:  cpu time    1.6497: real time    1.0148
       DOS:  cpu time    0.0010: real time    0.0008
    --------------------------------------------
      LOOP:  cpu time    1.6537: real time    1.0180

 eigenvalue-minimisations  :   704
 total energy-change (2. order) :-0.4929699E-01  (-0.4925033E-01)
 number of electron       8.0000000 magnetization 
 augmentation part        8.0000000 magnetization 

 Free energy of the ion-electron system (eV)
  ---------------------------------------------------
  alpha Z        PSCENC =        11.90173708
  Ewald energy   TEWEN  =      -373.45684209
  -Hartree energ DENC   =        -0.58104602
  -exchange      EXHF   =         0.00000000
  -V(xc)+E(xc)   XCENC  =       -11.81561270
  PAW double counting   =       176.24759923     -141.06103558
  entropy T*S    EENTRO =        -0.00350091
  eigenvalues    EBANDS =       137.33731586
  atomic energy  EATOM  =       206.13192747
  Solvation  Ediel_sol  =         0.00000000
  ---------------------------------------------------
  free energy    TOTEN  =         4.70054234 eV

  energy without entropy =        4.70404325  energy(sigma->0) =        4.70229280


--------------------------------------------------------------------------------------------------------




----------------------------------------- Iteration    1(   4)  ---------------------------------------


     EDDAV:  cpu time    1.5268: real time    0.9868
       DOS:  cpu time    0.0020: real time    0.0010
    --------------------------------------------
      LOOP:  cpu time    1.5338: real time    0.9901

 eigenvalue-minimisations  :   904
 total energy-change (2. order) :-0.8314016E-04  (-0.8314141E-04)
 number of electron       8.0000000 magnetization 
 augmentation part        8.0000000 magnetization 

 Free energy of the ion-electron system (eV)
  ---------------------------------------------------
  alpha Z        PSCENC =        11.90173708
  Ewald energy   TEWEN  =      -373.45684209
  -Hartree energ DENC   =        -0.58104602
  -exchange      EXHF   =         0.00000000
  -V(xc)+E(xc)   XCENC  =       -11.81561270
  PAW double counting   =       176.24759923     -141.06103558
  entropy T*S    EENTRO =        -0.00350123
  eigenvalues    EBANDS =       137.33723304
  atomic energy  EATOM  =       206.13192747
  Solvation  Ediel_sol  =         0.00000000
  ---------------------------------------------------
  free energy    TOTEN  =         4.70045920 eV

  energy without entropy =        4.70396043  energy(sigma->0) =        4.70220981


--------------------------------------------------------------------------------------------------------




----------------------------------------- Iteration    1(   5)  ---------------------------------------


     EDDAV:  cpu time    1.8107: real time    1.1213
       DOS:  cpu time    0.0020: real time    0.0017
    CHARGE:  cpu time    0.0190: real time    0.0195
    MIXING:  cpu time    0.0020: real time    0.0016
    --------------------------------------------
      LOOP:  cpu time    1.8397: real time    1.1469

 eigenvalue-minimisations  :   688
 total energy-change (2. order) :-0.2580435E-08  (-0.1289934E-08)
 number of electron       8.0000000 magnetization 
 augmentation part       -0.5296059 magnetization 

 Broyden mixing:
  rms(total) = 0.21711E+01    rms(broyden)= 0.21711E+01
  rms(prec ) = 0.22550E+01
  weight for this iteration     100.00

 Free energy of the ion-electron system (eV)
  ---------------------------------------------------
  alpha Z        PSCENC =        11.90173708
  Ewald energy   TEWEN  =      -373.45684209
  -Hartree energ DENC   =        -0.58104602
  -exchange      EXHF   =         0.00000000
  -V(xc)+E(xc)   XCENC  =       -11.81561270
  PAW double counting   =       176.24759923     -141.06103558
  entropy T*S    EENTRO =        -0.00350123
  eigenvalues    EBANDS =       137.33723303
  atomic energy  EATOM  =       206.13192747
  Solvation  Ediel_sol  =         0.00000000
  ---------------------------------------------------
  free energy    TOTEN  =         4.70045920 eV

  energy without entropy =        4.70396043  energy(sigma->0) =        4.70220981


--------------------------------------------------------------------------------------------------------




----------------------------------------- Iteration    1(   6)  ---------------------------------------


    POTLOK:  cpu time    0.0160: real time    0.0162
    SETDIJ:  cpu time    0.0030: real time    0.0030
     EDDAV:  cpu time    1.1358: real time    0.7731
       DOS:  cpu time    0.0020: real time    0.0010
    CHARGE:  cpu time    0.0160: real time    0.0122
    MIXING:  cpu time    0.0030: real time    0.0019
    --------------------------------------------
      LOOP:  cpu time    1.1808: real time    0.8133

 eigenvalue-minimisations  :   680
 total energy-change (2. order) : 0.3683379E+00  (-0.1939818E-02)
 number of electron       8.0000000 magnetization 
 augmentation part       -0.5317005 magnetization 

 Broyden mixing:
  rms(total) = 0.12249E+01    rms(broyden)= 0.12249E+01
  rms(prec ) = 0.12794E+01
  weight for this iteration     100.00

 eigenvalues of (default mixing * dielectric matrix)
  average eigenvalue GAMMA=   2.2880
  2.2880

 Free energy of the ion-electron system (eV)
  ---------------------------------------------------
  alpha Z        PSCENC =        11.90173708
  Ewald energy   TEWEN  =      -373.45684209
  -Hartree energ DENC   =        -1.02286858
  -exchange      EXHF   =         0.00000000
  -V(xc)+E(xc)   XCENC  =       -11.41784327
  PAW double counting   =      2084.99236665    -2050.28949907
  entropy T*S    EENTRO =        -0.00328793
  eigenvalues    EBANDS =       138.23310680
  atomic energy  EATOM  =       206.13192747
  Solvation  Ediel_sol  =         0.00000000
  ---------------------------------------------------
  free energy    TOTEN  =         5.06879706 eV

  energy without entropy =        5.07208499  energy(sigma->0) =        5.07044103


--------------------------------------------------------------------------------------------------------




----------------------------------------- Iteration    1(   7)  ---------------------------------------


    POTLOK:  cpu time    0.0110: real time    0.0067
    SETDIJ:  cpu time    0.0030: real time    0.0018
     EDDAV:  cpu time    1.2948: real time    0.8641
       DOS:  cpu time    0.0010: real time    0.0006
    CHARGE:  cpu time    0.0090: real time    0.0051
    MIXING:  cpu time    0.0120: real time    0.0074
    --------------------------------------------
      LOOP:  cpu time    1.3398: real time    0.8939

 eigenvalue-minimisations  :   728
 total energy-change (2. order) : 0.2042949E+00  (-0.3837649E-02)
 number of electron       8.0000000 magnetization 
 augmentation part       -0.5358578 magnetization 

 Broyden mixing:
  rms(total) = 0.71784E-01    rms(broyden)= 0.71784E-01
  rms(prec ) = 0.81425E-01
  weight for this iteration     100.00

 eigenvalues of (default mixing * dielectric matrix)
  average eigenvalue GAMMA=   2.5770
  2.5770  2.5770

 Free energy of the ion-electron system (eV)
  ---------------------------------------------------
  alpha Z        PSCENC =        11.90173708
  Ewald energy   TEWEN  =      -373.45684209
  -Hartree energ DENC   =        -1.87165489
  -exchange      EXHF   =         0.00000000
  -V(xc)+E(xc)   XCENC  =       -10.80892475
  PAW double counting   =      8109.32705447    -8075.38717379
  entropy T*S    EENTRO =        -0.00294241
  eigenvalues    EBANDS =       139.43991085
  atomic energy  EATOM  =       206.13192747
  Solvation  Ediel_sol  =         0.00000000
  ---------------------------------------------------
  free energy    TOTEN  =         5.27309194 eV

  energy without entropy =        5.27603435  energy(sigma->0) =        5.27456314


--------------------------------------------------------------------------------------------------------




----------------------------------------- Iteration    1(   8)  ---------------------------------------


    POTLOK:  cpu time    0.0110: real time    0.0063
    SETDIJ:  cpu time    0.0020: real time    0.0017
     EDDAV:  cpu time    1.2388: real time    0.7968
       DOS:  cpu time    0.0010: real time    0.0008
    CHARGE:  cpu time    0.0150: real time    0.0093
    MIXING:  cpu time    0.0010: real time    0.0011
    --------------------------------------------
      LOOP:  cpu time    1.2728: real time    0.8185

 eigenvalue-minimisations  :   776
 total energy-change (2. order) : 0.1449908E-02  (-0.6877204E-04)
 number of electron       8.0000000 magnetization 
 augmentation part       -0.5363361 magnetization 

 Broyden mixing:
  rms(total) = 0.22347E-01    rms(broyden)= 0.22347E-01
  rms(prec ) = 0.24841E-01
  weight for this iteration     100.00

 eigenvalues of (default mixing * dielectric matrix)
  average eigenvalue GAMMA=   2.1010
  1.2622  2.7544  2.2865

 Free energy of the ion-electron system (eV)
  ---------------------------------------------------
  alpha Z        PSCENC =        11.90173708
  Ewald energy   TEWEN  =      -373.45684209
  -Hartree energ DENC   =        -1.94873677
  -exchange      EXHF   =         0.00000000
  -V(xc)+E(xc)   XCENC  =       -10.75429632
  PAW double counting   =      7840.55562815    -7806.65906009
  entropy T*S    EENTRO =        -0.00299171
  eigenvalues    EBANDS =       139.50717614
  atomic energy  EATOM  =       206.13192747
  Solvation  Ediel_sol  =         0.00000000
  ---------------------------------------------------
  free energy    TOTEN  =         5.27454185 eV

  energy without entropy =        5.27753355  energy(sigma->0) =        5.27603770


--------------------------------------------------------------------------------------------------------




----------------------------------------- Iteration    1(   9)  ---------------------------------------


    POTLOK:  cpu time    0.0260: real time    0.0168
    SETDIJ:  cpu time    0.0100: real time    0.0068
     EDDAV:  cpu time    0.8549: real time    0.5562
       DOS:  cpu time    0.0020: real time    0.0025
    CHARGE:  cpu time    0.0160: real time    0.0104
    MIXING:  cpu time    0.0010: real time    0.0006
    --------------------------------------------
      LOOP:  cpu time    0.9119: real time    0.5960

 eigenvalue-minimisations  :   744
 total energy-change (2. order) : 0.1158564E-03  (-0.3869402E-05)
 number of electron       8.0000000 magnetization 
 augmentation part       -0.5364783 magnetization 

 Broyden mixing:
  rms(total) = 0.17031E-02    rms(broyden)= 0.17031E-02
  rms(prec ) = 0.28084E-02
  weight for this iteration     100.00

 eigenvalues of (default mixing * dielectric matrix)
  average eigenvalue GAMMA=   1.9890
  0.9807  2.5504  2.4604  1.9645

 Free energy of the ion-electron system (eV)
  ---------------------------------------------------
  alpha Z        PSCENC =        11.90173708
  Ewald energy   TEWEN  =      -373.45684209
  -Hartree energ DENC   =        -1.97820697
  -exchange      EXHF   =         0.00000000
  -V(xc)+E(xc)   XCENC  =       -10.73540016
  PAW double counting   =      7990.89578474    -7957.02136439
  entropy T*S    EENTRO =        -0.00297808
  eigenvalues    EBANDS =       139.54000010
  atomic energy  EATOM  =       206.13192747
  Solvation  Ediel_sol  =         0.00000000
  ---------------------------------------------------
  free energy    TOTEN  =         5.27465770 eV

  energy without entropy =        5.27763578  energy(sigma->0) =        5.27614674


--------------------------------------------------------------------------------------------------------




----------------------------------------- Iteration    1(  10)  ---------------------------------------


    POTLOK:  cpu time    0.0190: real time    0.0130
    SETDIJ:  cpu time    0.0030: real time    0.0022
     EDDAV:  cpu time    0.8119: real time    0.5673
       DOS:  cpu time    0.0090: real time    0.0059
    --------------------------------------------
      LOOP:  cpu time    0.8469: real time    0.5909

 eigenvalue-minimisations  :   336
 total energy-change (2. order) : 0.2723245E-05  (-0.4985674E-06)
 number of electron       8.0000000 magnetization 
 augmentation part       -0.5364783 magnetization 

 Free energy of the ion-electron system (eV)
  ---------------------------------------------------
  alpha Z        PSCENC =        11.90173708
  Ewald energy   TEWEN  =      -373.45684209
  -Hartree energ DENC   =        -1.97844816
  -exchange      EXHF   =         0.00000000
  -V(xc)+E(xc)   XCENC  =       -10.73555163
  PAW double counting   =      7983.25728580    -7949.38283452
  entropy T*S    EENTRO =        -0.00296932
  eigenvalues    EBANDS =       139.54035580
  atomic energy  EATOM  =       206.13192747
  Solvation  Ediel_sol  =         0.00000000
  ---------------------------------------------------
  free energy    TOTEN  =         5.27466043 eV

  energy without entropy =        5.27762975  energy(sigma->0) =        5.27614509


--------------------------------------------------------------------------------------------------------




 average (electrostatic) potential at core
  the test charge radii are     0.9892
  (the norm of the test charge is              1.0000)
       1 -62.7092       2 -62.7092
 
 
 
 E-fermi :  27.6736     XC(G=0): -15.4724     alpha+bet :-42.3991


 k-point     1 :       0.0833    0.0833    0.0833
  band No.  band energies     occupation 
      1       3.3616      2.00000
      2      13.4814      2.00000
      3      18.2695      2.00000
      4      34.6004      0.00000
      5      37.1325      0.00000
      6      43.2066      0.00000
      7      43.4386      0.00000
      8      44.6788      0.00000

 k-point     2 :       0.2500    0.0833    0.0833
  band No.  band energies     occupation 
      1       6.5582      2.00000
      2      16.2626      2.00000
      3      20.3419      2.00000
      4      25.6571      2.00000
      5      31.5137      0.00000
      6      34.5565      0.00000
      7      39.1136      0.00000
      8      41.1274      0.00000

 k-point     3 :       0.4167    0.0833    0.0833
  band No.  band energies     occupation 
      1      11.9569      2.00000
      2      15.4859      2.00000
      3      21.6009      2.00000
      4      24.7681      2.00000
      5      25.9031      2.00000
      6      28.6414      0.00000
      7      36.0173      0.00000
      8      39.2261      0.00000

 k-point     4 :      -0.4167    0.0833    0.0833
  band No.  band energies     occupation 
      1       9.0241      2.00000
      2      17.9685      2.00000
      3      19.7395      2.00000
      4      24.2468      2.00000
      5      28.5199      0.00000
      6      30.9759      0.00000
      7      37.1273      0.00000
      8      39.8498      0.00000

 k-point     5 :      -0.2500    0.0833    0.0833
  band No.  band energies     occupation 
      1       4.6555      2.00000
      2      14.6073      2.00000
      3      19.2607      2.00000
      4      29.9652      0.00000
      5      34.0784      0.00000
      6      39.1466      0.00000
      7      41.4761      0.00000
      8      43.2400      0.00000

 k-point     6 :      -0.0833    0.0833    0.0833
  band No.  band energies     occupation 
      1       2.7069      2.00000
      2      12.9149      2.00000
      3      17.7343      2.00000
      4      38.0184      0.00000
      5      40.9968      0.00000
      6      42.2697      0.00000
      7      44.1784      0.00000
      8      45.8482      0.00000

 k-point     7 :       0.2500    0.2500    0.0833
  band No.  band energies     occupation 
      1      10.8179      2.00000
      2      19.3086      2.00000
      3      20.7561      2.00000
      4      21.5752      2.00000
      5      27.6541      1.21769
      6      31.1467      0.00000
      7      31.8897      0.00000
      8      38.1993      0.00000

 k-point     8 :       0.4167    0.2500    0.0833
  band No.  band energies     occupation 
      1      13.6673      2.00000
      2      17.0972      2.00000
      3      20.0095      2.00000
      4      23.6253      2.00000
      5      26.8553      2.00000
      6      28.8489      0.00000
      7      31.1424      0.00000
      8      36.9118      0.00000

 k-point     9 :      -0.4167    0.2500    0.0833
  band No.  band energies     occupation 
      1       8.4153      2.00000
      2      17.8330      2.00000
      3      20.9097      2.00000
      4      23.6640      2.00000
      5      28.4402      0.00000
      6      32.6257      0.00000
      7      35.9916      0.00000
      8      39.3449      0.00000

 k-point    10 :      -0.2500    0.2500    0.0833
  band No.  band energies     occupation 
      1       5.2948      2.00000
      2      15.1640      2.00000
      3      19.6732      2.00000
      4      27.7317      0.41155
      5      34.7904      0.00000
      6      37.5112      0.00000
      7      37.9443      0.00000
      8      44.6582      0.00000

 k-point    11 :       0.4167    0.4167    0.0833
  band No.  band energies     occupation 
      1      13.7917      2.00000
      2      14.8494      2.00000
      3      22.6814      2.00000
      4      23.5754      2.00000
      5      25.2119      2.00000
      6      28.4820      0.00000
      7      34.9054      0.00000
      8      35.9076      0.00000

 k-point    12 :      -0.4167    0.4167    0.0833
  band No.  band energies     occupation 
      1      10.2222      2.00000
      2      16.9051      2.00000
      3      20.0752      2.00000
      4      25.1309      2.00000
      5      26.6894      2.00000
      6      30.3415      0.00000
      7      36.3628      0.00000
      8      42.2512      0.00000

 k-point    13 :       0.0833    0.0833    0.2500
  band No.  band energies     occupation 
      1       4.0920      2.00000
      2      10.3695      2.00000
      3      22.4614      2.00000
      4      35.0229      0.00000
      5      37.2456      0.00000
      6      38.4679      0.00000
      7      41.6018      0.00000
      8      43.1574      0.00000

 k-point    14 :       0.2500    0.0833    0.2500
  band No.  band energies     occupation 
      1       7.2614      2.00000
      2      13.2865      2.00000
      3      23.4999      2.00000
      4      26.9540      2.00000
      5      29.9359      0.00000
      6      34.6105      0.00000
      7      38.2472      0.00000
      8      41.6397      0.00000

 k-point    15 :       0.4167    0.0833    0.2500
  band No.  band energies     occupation 
      1      12.5989      2.00000
      2      15.8625      2.00000
      3      19.1712      2.00000
      4      22.2269      2.00000
      5      28.5520      0.00000
      6      31.8651      0.00000
      7      37.0793      0.00000
      8      37.8191      0.00000

 k-point    16 :      -0.4167    0.0833    0.2500
  band No.  band energies     occupation 
      1       9.7052      2.00000
      2      15.4400      2.00000
      3      20.5378      2.00000
      4      25.8388      2.00000
      5      27.3916      1.99993
      6      32.9559      0.00000
      7      37.4123      0.00000
      8      39.4305      0.00000

 k-point    17 :      -0.2500    0.0833    0.2500
  band No.  band energies     occupation 
      1       5.3747      2.00000
      2      11.5526      2.00000
      3      23.2867      2.00000
      4      30.5487      0.00000
      5      33.7210      0.00000
      6      36.8734      0.00000
      7      39.4399      0.00000
      8      42.6392      0.00000

 k-point    18 :      -0.0833    0.0833    0.2500
  band No.  band energies     occupation 
      1       3.4431      2.00000
      2       9.7712      2.00000
      3      21.9871      2.00000
      4      37.5990      0.00000
      5      39.3956      0.00000
      6      41.3838      0.00000
      7      41.7790      0.00000
      8      44.6549      0.00000

 k-point    19 :       0.2500    0.2500    0.2500
  band No.  band energies     occupation 
      1      11.4821      2.00000
      2      16.9846      2.00000
      3      21.3002      2.00000
      4      22.5365      2.00000
      5      27.4060      1.99985
      6      29.4300      0.00000
      7      33.2570      0.00000
      8      41.3886      0.00000

 k-point    20 :       0.4167    0.2500    0.2500
  band No.  band energies     occupation 
      1      14.2919      2.00000
      2      17.4456      2.00000
      3      19.6628      2.00000
      4      21.8198      2.00000
      5      25.4530      2.00000
      6      28.2077      0.00000
      7      34.0905      0.00000
      8      39.6168      0.00000

 k-point    21 :      -0.4167    0.2500    0.2500
  band No.  band energies     occupation 
      1       9.1025      2.00000
      2      14.9561      2.00000
      3      22.8156      2.00000
      4      25.1008      2.00000
      5      28.1971      0.00000
      6      31.9486      0.00000
      7      34.5863      0.00000
      8      42.4041      0.00000

 k-point    22 :      -0.2500    0.2500    0.2500
  band No.  band energies     occupation 
      1       6.0086      2.00000
      2      12.1363      2.00000
      3      23.4908      2.00000
      4      28.5617      0.00000
      5      32.4239      0.00000
      6      37.9536      0.00000
      7      38.4099      0.00000
      8      42.6554      0.00000

 k-point    23 :       0.4167    0.4167    0.2500
  band No.  band energies     occupation 
      1      14.3941      2.00000
      2      15.3992      2.00000
      3      20.7983      2.00000
      4      20.9927      2.00000
      5      26.2848      2.00000
      6      30.8333      0.00000
      7      34.7131      0.00000
      8      38.0471      0.00000

 k-point    24 :      -0.4167    0.4167    0.2500
  band No.  band energies     occupation 
      1      10.8901      2.00000
      2      16.1317      2.00000
      3      18.8864      2.00000
      4      23.9250      2.00000
      5      28.5478      0.00000
      6      33.5165      0.00000
      7      36.8143      0.00000
      8      40.7272      0.00000

 k-point    25 :       0.0833    0.0833    0.4167
  band No.  band energies     occupation 
      1       5.5334      2.00000
      2       7.6474      2.00000
      3      27.3466      2.00000
      4      32.6412      0.00000
      5      36.1215      0.00000
      6      36.9635      0.00000
      7      40.9053      0.00000
      8      41.6429      0.00000

 k-point    26 :       0.2500    0.0833    0.4167
  band No.  band energies     occupation 
      1       8.6485      2.00000
      2      10.6800      2.00000
      3      25.8424      2.00000
      4      27.8365      0.02125
      5      30.0290      0.00000
      6      33.4307      0.00000
      7      37.5621      0.00000
      8      39.6485      0.00000

 k-point    27 :       0.4167    0.0833    0.4167
  band No.  band energies     occupation 
      1      13.8331      2.00000
      2      15.3934      2.00000
      3      18.4540      2.00000
      4      19.9496      2.00000
      5      31.0613      0.00000
      6      32.9807      0.00000
      7      38.0490      0.00000
      8      39.6269      0.00000

 k-point    28 :      -0.4167    0.0833    0.4167
  band No.  band energies     occupation 
      1      11.0460      2.00000
      2      12.9958      2.00000
      3      21.8225      2.00000
      4      23.6422      2.00000
      5      30.6548      0.00000
      6      33.1880      0.00000
      7      37.2971      0.00000
      8      39.9975      0.00000

 k-point    29 :      -0.2500    0.0833    0.4167
  band No.  band energies     occupation 
      1       6.7941      2.00000
      2       8.8753      2.00000
      3      27.8216      0.03628
      4      31.6704      0.00000
      5      32.0196      0.00000
      6      33.6517      0.00000
      7      38.8258      0.00000
      8      40.1945      0.00000

 k-point    30 :      -0.0833    0.0833    0.4167
  band No.  band energies     occupation 
      1       4.8958      2.00000
      2       7.0264      2.00000
      3      26.9624      2.00000
      4      32.4212      0.00000
      5      39.5910      0.00000
      6      40.6596      0.00000
      7      42.1574      0.00000
      8      43.2877      0.00000

 k-point    31 :       0.2500    0.2500    0.4167
  band No.  band energies     occupation 
      1      12.7857      2.00000
      2      14.6677      2.00000
      3      22.2431      2.00000
      4      22.9547      2.00000
      5      26.6492      2.00000
      6      27.5440      1.93315
      7      37.2905      0.00000
      8      42.3670      0.00000

 k-point    32 :       0.4167    0.2500    0.4167
  band No.  band energies     occupation 
      1      15.4853      2.00000
      2      16.9755      2.00000
      3      19.5193      2.00000
      4      20.5896      2.00000
      5      25.1804      2.00000
      6      26.3636      2.00000
      7      39.0303      0.00000
      8      43.6306      0.00000

 k-point    33 :      -0.4167    0.2500    0.4167
  band No.  band energies     occupation 
      1      10.4566      2.00000
      2      12.4345      2.00000
      3      24.2027      2.00000
      4      25.5401      2.00000
      5      28.5625      0.00000
      6      30.4559      0.00000
      7      36.3192      0.00000
      8      40.4658      0.00000

 k-point    34 :      -0.2500    0.2500    0.4167
  band No.  band energies     occupation 
      1       7.4172      2.00000
      2       9.4819      2.00000
      3      27.2408      2.00000
      4      29.9453      0.00000
      5      30.7177      0.00000
      6      34.5065      0.00000
      7      39.3511      0.00000
      8      40.7776      0.00000

 k-point    35 :       0.4167    0.4167    0.4167
  band No.  band energies     occupation 
      1      15.4819      2.00000
      2      16.1141      2.00000
      3      18.7889      2.00000
      4      19.2130      2.00000
      5      27.7435      0.32283
      6      29.5396      0.00000
      7      38.7717      0.00000
      8      41.3554      0.00000

 k-point    36 :      -0.4167    0.4167    0.4167
  band No.  band energies     occupation 
      1      12.1984      2.00000
      2      14.0658      2.00000
      3      19.7634      2.00000
      4      21.5568      2.00000
      5      32.3576      0.00000
      6      35.0882      0.00000
      7      37.7179      0.00000
      8      39.0561      0.00000


--------------------------------------------------------------------------------------------------------


 soft charge-density along one line, spin component           1
         0         1         2         3         4         5         6         7         8         9
 total charge-density along one line
 
 pseudopotential strength for first ion, spin component:           1
 16.181  22.559   0.000   0.000  -0.000   0.000   0.000  -0.000
 22.559  31.454   0.000   0.000  -0.000   0.000   0.000  -0.000
  0.000   0.000   3.905   0.000   0.000   7.256   0.000   0.000
  0.000   0.000   0.000   3.905   0.000   0.000   7.255   0.000
 -0.000  -0.000   0.000   0.000   3.905   0.000   0.000   7.256
  0.000   0.000   7.256   0.000   0.000  13.495   0.000   0.000
  0.000   0.000   0.000   7.255   0.000   0.000  13.493   0.000
 -0.000  -0.000   0.000   0.000   7.256   0.000   0.000  13.495
 total augmentation occupancy for first ion, spin component:           1
 23.931 -13.471   0.000   0.000   0.000   0.000   0.000   0.000
-13.471   7.838  -0.000   0.000   0.000  -0.000   0.000   0.000
  0.000   0.000   9.544   0.000   0.000  -3.123   0.000   0.000
  0.000   0.000   0.000   9.540  -0.000   0.000  -3.095   0.000
  0.000   0.000   0.000  -0.000   9.544   0.000   0.000  -3.123
 -0.000   0.000  -3.123   0.000   0.000   1.068   0.000   0.000
  0.000   0.000  -0.000  -3.095  -0.000   0.000   1.059   0.000
  0.000   0.000   0.000  -0.000  -3.123   0.000  -0.000   1.068


------------------------ aborting loop because EDIFF is reached ----------------------------------------


    CHARGE:  cpu time    0.0090: real time    0.0050
    FORLOC:  cpu time    0.0000: real time    0.0003
    FORNL :  cpu time    0.0260: real time    0.0160
    STRESS:  cpu time    0.1410: real time    0.0857
    FORCOR:  cpu time    0.0200: real time    0.0154
    FORHAR:  cpu time    0.0100: real time    0.0048
    MIXING:  cpu time    0.0040: real time    0.0046
    OFIELD:  cpu time    0.0000: real time    0.0000

  FORCE on cell =-STRESS in cart. coord.  units (eV):
  Direction    XX          YY          ZZ          XY          YZ          ZX
  --------------------------------------------------------------------------------------
  Alpha Z    11.90174    11.90174    11.90174
  Ewald    -124.57089  -124.57089  -124.31532    -0.00000     0.00000     0.00000
  Hartree     0.65524     0.65524     0.66825    -0.00000    -0.00000    -0.00000
  E(xc)     -35.27206   -35.27206   -35.31132     0.00000    -0.00000    -0.00000
  Local      -4.20852    -4.20853    -5.47131    -0.00001    -0.00000     0.00000
  n-local    96.40241   109.89808   103.54045    -4.42113     1.29521    -1.34939
  augment   -12.79521   -12.79520   -12.97305     0.00001     0.00000     0.00000
  Kinetic   130.06653    79.88769   107.35797    14.74416    -0.43602    -0.98576
  Fock        0.00000     0.00000     0.00000     0.00000     0.00000     0.00000
  -------------------------------------------------------------------------------------
  Total      43.83765    43.83765    45.39742     0.00000    -0.00000     0.00000
  in kB    6208.02905  6208.02905  6428.91444     0.00000    -0.00000     0.00000
  external pressure =     6281.66 kB  Pullay stress =        0.00 kB


 VOLUME and BASIS-vectors are now :
 -----------------------------------------------------------------------------
  energy-cutoff  :      450.00
  volume of cell :       11.31
      direct lattice vectors                 reciprocal lattice vectors
     2.000000000  0.000000000  0.000000000     0.500000000  0.288675135  0.000000000
    -1.000000000  1.732050808  0.000000000     0.000000000  0.577350269  0.000000000
     0.000000000  0.000000000  3.265980000     0.000000000  0.000000000  0.306186811

  length of vectors
     2.000000000  2.000000000  3.265980000     0.577350269  0.577350269  0.306186811


 FORCES acting on ions
    electron-ion (+dipol)            ewald-force                    non-local-force                 convergence-correction
 -----------------------------------------------------------------------------------------------
   -.838E-09 0.484E-09 -.718E-14   -.169E-12 0.120E-12 -.806E-14   0.000E+00 0.156E-16 0.000E+00   0.510E-09 -.294E-09 0.585E-15
   0.445E-07 -.257E-07 -.102E-12   0.170E-12 -.121E-12 0.806E-14   0.694E-17 -.208E-16 0.000E+00   -.510E-09 0.295E-09 0.477E-15
 -----------------------------------------------------------------------------------------------
   0.437E-07 -.252E-07 -.109E-12   0.112E-14 -.743E-15 0.000E+00   0.694E-17 -.520E-17 0.000E+00   -.550E-12 0.317E-12 0.106E-14
 
 
 POSITION                                       TOTAL-FORCE (eV/Angst)
 -----------------------------------------------------------------------------------
      0.00000      0.00000      0.00000        -0.000000      0.000000      0.000000
     -0.00000      1.15470      1.63299         0.000000      0.000000      0.000000
 -----------------------------------------------------------------------------------
    total drift:                                0.000000     -0.000000     -0.000000


--------------------------------------------------------------------------------------------------------



  FREE ENERGIE OF THE ION-ELECTRON SYSTEM (eV)
  ---------------------------------------------------
  free  energy   TOTEN  =         5.27466043 eV

  energy  without entropy=        5.27762975  energy(sigma->0) =        5.27614509
 


--------------------------------------------------------------------------------------------------------


    POTLOK:  cpu time    0.0380: real time    0.0247


--------------------------------------------------------------------------------------------------------




--------------------------------------------------------------------------------------------------------


    WAVPRE:  cpu time    0.0030: real time    0.0010
 FEWALD executed in parallel
    FEWALD:  cpu time    0.0070: real time    0.0049
    GENKIN:  cpu time    0.0070: real time    0.0043
    ORTHCH:  cpu time    0.1020: real time    0.0612
     LOOP+:  cpu time   13.9549: real time    9.1116


----------------------------------------- Iteration    2(   1)  ---------------------------------------


    POTLOK:  cpu time    0.0290: real time    0.0157
    SETDIJ:  cpu time    0.0030: real time    0.0018
     EDDAV:  cpu time    1.6697: real time    1.0962
       DOS:  cpu time    0.0020: real time    0.0009
    CHARGE:  cpu time    0.0150: real time    0.0112
    MIXING:  cpu time    0.0010: real time    0.0004
    --------------------------------------------
      LOOP:  cpu time    1.7217: real time    1.1274

 eigenvalue-minimisations  :   768
 total energy-change (2. order) :-0.5582996E-02  (-0.1017175E+00)
 number of electron       7.9999999 magnetization 
 augmentation part       -0.5370935 magnetization 

 Broyden mixing:
  rms(total) = 0.65097E-01    rms(broyden)= 0.65095E-01
  rms(prec ) = 0.15011E+00
  weight for this iteration     100.00

 Free energy of the ion-electron system (eV)
  ---------------------------------------------------
  alpha Z        PSCENC =        11.90173708
  Ewald energy   TEWEN  =      -373.38667517
  -Hartree energ DENC   =        -1.97803743
  -exchange      EXHF   =         0.00000000
  -V(xc)+E(xc)   XCENC  =       -10.73575182
  PAW double counting   =      7983.76191389    -7949.88774868
  entropy T*S    EENTRO =        -0.00212381
  eigenvalues    EBANDS =       139.46383317
  atomic energy  EATOM  =       206.13192747
  Solvation  Ediel_sol  =         0.00000000
  ---------------------------------------------------
  free energy    TOTEN  =         5.26907471 eV

  energy without entropy =        5.27119851  energy(sigma->0) =        5.27013661


--------------------------------------------------------------------------------------------------------




----------------------------------------- Iteration    2(   2)  ---------------------------------------


    POTLOK:  cpu time    0.0240: real time    0.0166
    SETDIJ:  cpu time    0.0020: real time    0.0018
     EDDAV:  cpu time    1.4388: real time    0.9223
       DOS:  cpu time    0.0010: real time    0.0010
    CHARGE:  cpu time    0.0200: real time    0.0124
    MIXING:  cpu time    0.0010: real time    0.0006
    --------------------------------------------
      LOOP:  cpu time    1.4908: real time    0.9567

 eigenvalue-minimisations  :   624
 total energy-change (2. order) : 0.6869543E-02  (-0.1109276E-02)
 number of electron       7.9999999 magnetization 
 augmentation part       -0.5367147 magnetization 

 Broyden mixing:
  rms(total) = 0.33478E-01    rms(broyden)= 0.33478E-01
  rms(prec ) = 0.77841E-01
  weight for this iteration     100.00

 eigenvalues of (default mixing * dielectric matrix)
  average eigenvalue GAMMA=   2.0350
  2.0350

 Free energy of the ion-electron system (eV)
  ---------------------------------------------------
  alpha Z        PSCENC =        11.90173708
  Ewald energy   TEWEN  =      -373.38667517
  -Hartree energ DENC   =        -1.97131891
  -exchange      EXHF   =         0.00000000
  -V(xc)+E(xc)   XCENC  =       -10.73615323
  PAW double counting   =      7989.19038367    -7955.32253735
  entropy T*S    EENTRO =        -0.00211282
  eigenvalues    EBANDS =       139.47069350
  atomic energy  EATOM  =       206.13192747
  Solvation  Ediel_sol  =         0.00000000
  ---------------------------------------------------
  free energy    TOTEN  =         5.27594425 eV

  energy without entropy =        5.27805707  energy(sigma->0) =        5.27700066


--------------------------------------------------------------------------------------------------------




----------------------------------------- Iteration    2(   3)  ---------------------------------------


    POTLOK:  cpu time    0.0110: real time    0.0061
    SETDIJ:  cpu time    0.0030: real time    0.0018
     EDDAV:  cpu time    0.9938: real time    0.6652
       DOS:  cpu time    0.0050: real time    0.0049
    CHARGE:  cpu time    0.0090: real time    0.0049
    MIXING:  cpu time    0.0020: real time    0.0007
    --------------------------------------------
      LOOP:  cpu time    1.0288: real time    0.6865

 eigenvalue-minimisations  :   728
 total energy-change (2. order) : 0.2680445E-02  (-0.6406693E-03)
 number of electron       7.9999999 magnetization 
 augmentation part       -0.5363066 magnetization 

 Broyden mixing:
  rms(total) = 0.22782E-02    rms(broyden)= 0.22776E-02
  rms(prec ) = 0.33914E-02
  weight for this iteration     100.00

 eigenvalues of (default mixing * dielectric matrix)
  average eigenvalue GAMMA=   1.5667
  1.0736  2.0598

 Free energy of the ion-electron system (eV)
  ---------------------------------------------------
  alpha Z        PSCENC =        11.90173708
  Ewald energy   TEWEN  =      -373.38667517
  -Hartree energ DENC   =        -1.97326312
  -exchange      EXHF   =         0.00000000
  -V(xc)+E(xc)   XCENC  =       -10.73539144
  PAW double counting   =      7996.62637674    -7962.76467910
  entropy T*S    EENTRO =        -0.00204531
  eigenvalues    EBANDS =       139.48063754
  atomic energy  EATOM  =       206.13192747
  Solvation  Ediel_sol  =         0.00000000
  ---------------------------------------------------
  free energy    TOTEN  =         5.27862469 eV

  energy without entropy =        5.28067001  energy(sigma->0) =        5.27964735


--------------------------------------------------------------------------------------------------------




----------------------------------------- Iteration    2(   4)  ---------------------------------------


    POTLOK:  cpu time    0.0120: real time    0.0063
    SETDIJ:  cpu time    0.0030: real time    0.0018
     EDDAV:  cpu time    1.2828: real time    0.8536
       DOS:  cpu time    0.0020: real time    0.0011
    CHARGE:  cpu time    0.0140: real time    0.0115
    MIXING:  cpu time    0.0020: real time    0.0008
    --------------------------------------------
      LOOP:  cpu time    1.3198: real time    0.8782

 eigenvalue-minimisations  :   632
 total energy-change (2. order) :-0.9295294E-05  (-0.1069211E-04)
 number of electron       7.9999999 magnetization 
 augmentation part       -0.5363137 magnetization 

 Broyden mixing:
  rms(total) = 0.19510E-02    rms(broyden)= 0.19510E-02
  rms(prec ) = 0.24464E-02
  weight for this iteration     100.00

 eigenvalues of (default mixing * dielectric matrix)
  average eigenvalue GAMMA=   1.5718
  2.1108  1.3022  1.3022

 Free energy of the ion-electron system (eV)
  ---------------------------------------------------
  alpha Z        PSCENC =        11.90173708
  Ewald energy   TEWEN  =      -373.38667517
  -Hartree energ DENC   =        -1.97402396
  -exchange      EXHF   =         0.00000000
  -V(xc)+E(xc)   XCENC  =       -10.73515445
  PAW double counting   =      8001.07757176    -7967.21557570
  entropy T*S    EENTRO =        -0.00204691
  eigenvalues    EBANDS =       139.48085528
  atomic energy  EATOM  =       206.13192747
  Solvation  Ediel_sol  =         0.00000000
  ---------------------------------------------------
  free energy    TOTEN  =         5.27861540 eV

  energy without entropy =        5.28066231  energy(sigma->0) =        5.27963885


--------------------------------------------------------------------------------------------------------




----------------------------------------- Iteration    2(   5)  ---------------------------------------


    POTLOK:  cpu time    0.0240: real time    0.0167
    SETDIJ:  cpu time    0.0040: real time    0.0037
     EDDAV:  cpu time    1.2538: real time    0.7868
       DOS:  cpu time    0.0020: real time    0.0008
    --------------------------------------------
      LOOP:  cpu time    1.2868: real time    0.8108

 eigenvalue-minimisations  :   424
 total energy-change (2. order) :-0.3211353E-06  (-0.2830076E-07)
 number of electron       7.9999999 magnetization 
 augmentation part       -0.5363137 magnetization 

 Free energy of the ion-electron system (eV)
  ---------------------------------------------------
  alpha Z        PSCENC =        11.90173708
  Ewald energy   TEWEN  =      -373.38667517
  -Hartree energ DENC   =        -1.97439724
  -exchange      EXHF   =         0.00000000
  -V(xc)+E(xc)   XCENC  =       -10.73504225
  PAW double counting   =      8002.62068066    -7968.75864165
  entropy T*S    EENTRO =        -0.00204657
  eigenvalues    EBANDS =       139.48107275
  atomic energy  EATOM  =       206.13192747
  Solvation  Ediel_sol  =         0.00000000
  ---------------------------------------------------
  free energy    TOTEN  =         5.27861508 eV

  energy without entropy =        5.28066165  energy(sigma->0) =        5.27963836


--------------------------------------------------------------------------------------------------------




 average (electrostatic) potential at core
  the test charge radii are     0.9892
  (the norm of the test charge is              1.0000)
       1 -62.7086       2 -62.7086
 
 
 
 E-fermi :  27.2645     XC(G=0): -15.4718     alpha+bet :-42.3991


 k-point     1 :       0.0833    0.0833    0.0833
  band No.  band energies     occupation 
      1       3.3847      2.00000
      2      13.0434      2.00000
      3      17.6193      2.00000
      4      35.2192      0.00000
      5      37.8238      0.00000
      6      42.6662      0.00000
      7      43.7637      0.00000
      8      45.1232      0.00000

 k-point     2 :       0.2500    0.0833    0.0833
  band No.  band energies     occupation 
      1       6.6597      2.00000
      2      15.9273      2.00000
      3      19.9503      2.00000
      4      25.9911      2.00000
      5      31.7707      0.00000
      6      34.8089      0.00000
      7      39.5744      0.00000
      8      41.5356      0.00000

 k-point     3 :       0.4167    0.0833    0.0833
  band No.  band energies     occupation 
      1      12.1758      2.00000
      2      15.7696      2.00000
      3      21.4292      2.00000
      4      24.7648      2.00000
      5      25.6786      2.00000
      6      28.2964      0.00000
      7      36.5671      0.00000
      8      39.6423      0.00000

 k-point     4 :      -0.4167    0.0833    0.0833
  band No.  band energies     occupation 
      1       9.1827      2.00000
      2      17.8694      2.00000
      3      19.7769      2.00000
      4      24.0299      2.00000
      5      28.5416      0.00000
      6      31.0161      0.00000
      7      37.6208      0.00000
      8      40.2668      0.00000

 k-point     5 :      -0.2500    0.0833    0.0833
  band No.  band energies     occupation 
      1       4.7108      2.00000
      2      14.2086      2.00000
      3      18.6787      2.00000
      4      30.5105      0.00000
      5      34.5774      0.00000
      6      39.4760      0.00000
      7      41.8890      0.00000
      8      43.6882      0.00000

 k-point     6 :      -0.0833    0.0833    0.0833
  band No.  band energies     occupation 
      1       2.7134      2.00000
      2      12.4573      2.00000
      3      17.0556      2.00000
      4      38.6008      0.00000
      5      41.9117      0.00000
      6      42.2378      0.00000
      7      43.5698      0.00000
      8      46.6058      0.00000

 k-point     7 :       0.2500    0.2500    0.0833
  band No.  band energies     occupation 
      1      11.0154      2.00000
      2      19.2939      2.00000
      3      21.1340      2.00000
      4      21.5349      2.00000
      5      27.2810      0.81516
      6      31.2763      0.00000
      7      31.9826      0.00000
      8      38.0532      0.00000

 k-point     8 :       0.4167    0.2500    0.0833
  band No.  band energies     occupation 
      1      13.9183      2.00000
      2      17.4065      2.00000
      3      20.3078      2.00000
      4      23.5087      2.00000
      5      26.7065      2.00000
      6      28.5051      0.00000
      7      31.1635      0.00000
      8      36.7442      0.00000

 k-point     9 :      -0.4167    0.2500    0.0833
  band No.  band energies     occupation 
      1       8.5600      2.00000
      2      17.5771      2.00000
      3      20.7832      2.00000
      4      23.9388      2.00000
      5      28.4660      0.00000
      6      32.7933      0.00000
      7      36.2692      0.00000
      8      39.3615      0.00000

 k-point    10 :      -0.2500    0.2500    0.0833
  band No.  band energies     occupation 
      1       5.3658      2.00000
      2      14.7858      2.00000
      3      19.1441      2.00000
      4      28.1851      0.00000
      5      35.0038      0.00000
      6      37.7086      0.00000
      7      38.9063      0.00000
      8      44.6529      0.00000

 k-point    11 :       0.4167    0.4167    0.0833
  band No.  band energies     occupation 
      1      14.0321      2.00000
      2      15.1445      2.00000
      3      22.8621      2.00000
      4      23.4249      2.00000
      5      25.2007      2.00000
      6      27.9203      0.00000
      7      35.1377      0.00000
      8      35.9889      0.00000

 k-point    12 :      -0.4167    0.4167    0.0833
  band No.  band energies     occupation 
      1      10.4070      2.00000
      2      17.1480      2.00000
      3      19.8858      2.00000
      4      24.7797      2.00000
      5      26.6488      2.00000
      6      30.1296      0.00000
      7      37.3276      0.00000
      8      42.9014      0.00000

 k-point    13 :       0.0833    0.0833    0.2500
  band No.  band energies     occupation 
      1       4.0794      2.00000
      2      10.0649      2.00000
      3      21.6471      2.00000
      4      35.3970      0.00000
      5      37.5469      0.00000
      6      37.8724      0.00000
      7      42.2894      0.00000
      8      43.7524      0.00000

 k-point    14 :       0.2500    0.0833    0.2500
  band No.  band energies     occupation 
      1       7.3280      2.00000
      2      13.0740      2.00000
      3      23.2675      2.00000
      4      26.9996      1.99982
      5      30.1513      0.00000
      6      34.8279      0.00000
      7      38.5719      0.00000
      8      42.0550      0.00000

 k-point    15 :       0.4167    0.0833    0.2500
  band No.  band energies     occupation 
      1      12.7847      2.00000
      2      16.0719      2.00000
      3      19.1561      2.00000
      4      22.2703      2.00000
      5      28.4610      0.00000
      6      31.4107      0.00000
      7      37.5147      0.00000
      8      38.1105      0.00000

 k-point    16 :      -0.4167    0.0833    0.2500
  band No.  band energies     occupation 
      1       9.8299      2.00000
      2      15.3154      2.00000
      3      20.8064      2.00000
      4      25.9992      2.00000
      5      26.9547      1.99999
      6      32.9958      0.00000
      7      37.8277      0.00000
      8      39.7091      0.00000

 k-point    17 :      -0.2500    0.0833    0.2500
  band No.  band energies     occupation 
      1       5.3946      2.00000
      2      11.2847      2.00000
      3      22.5750      2.00000
      4      31.0406      0.00000
      5      34.1313      0.00000
      6      36.6111      0.00000
      7      39.8042      0.00000
      8      42.7179      0.00000

[...]

 k-point     2 :       0.2500    0.0833    0.0833
  band No.  band energies     occupation 
      1       6.6114      2.00000
      2      16.0800      2.00000
      3      20.1413      2.00000
      4      25.8297      2.00000
      5      31.6516      0.00000
      6      34.6847      0.00000
      7      39.3575      0.00000
      8      41.3457      0.00000

 k-point     3 :       0.4167    0.0833    0.0833
  band No.  band energies     occupation 
      1      12.0724      2.00000
      2      15.6359      2.00000
      3      21.5038      2.00000
      4      24.7647      2.00000
      5      25.7909      2.00000
      6      28.4507      0.00000
      7      36.3091      0.00000
      8      39.4400      0.00000

 k-point     4 :      -0.4167    0.0833    0.0833
  band No.  band energies     occupation 
      1       9.1075      2.00000
      2      17.9225      2.00000
      3      19.7524      2.00000
      4      24.1326      2.00000
      5      28.5267      0.00000
      6      30.9943      0.00000
      7      37.3885      0.00000
      8      40.0658      0.00000

 k-point     5 :      -0.2500    0.0833    0.0833
  band No.  band energies     occupation 
      1       4.6843      2.00000
      2      14.3907      2.00000
      3      18.9548      2.00000
      4      30.2547      0.00000
      5      34.3449      0.00000
      6      39.3257      0.00000
      7      41.6996      0.00000
      8      43.4975      0.00000

 k-point     6 :      -0.0833    0.0833    0.0833
  band No.  band energies     occupation 
      1       2.7101      2.00000
      2      12.6672      2.00000
      3      17.3761      2.00000
      4      38.3481      0.00000
      5      41.4823      0.00000
      6      42.3895      0.00000
      7      43.7220      0.00000
      8      46.2569      0.00000

 k-point     7 :       0.2500    0.2500    0.0833
  band No.  band energies     occupation 
      1      10.9219      2.00000
      2      19.3062      2.00000
      3      20.9569      2.00000
      4      21.5472      2.00000
      5      27.4523      1.09642
      6      31.2062      0.00000
      7      31.9308      0.00000
      8      38.1234      0.00000

 k-point     8 :       0.4167    0.2500    0.0833
  band No.  band energies     occupation 
      1      13.8000      2.00000
      2      17.2611      2.00000
      3      20.1695      2.00000
      4      23.5560      2.00000
      5      26.7773      2.00000
      6      28.6595      0.00000
      7      31.1414      0.00000
      8      36.8260      0.00000

 k-point     9 :      -0.4167    0.2500    0.0833
  band No.  band energies     occupation 
      1       8.4913      2.00000
      2      17.6941      2.00000
      3      20.8524      2.00000
      4      23.8068      2.00000
      5      28.4467      0.00000
      6      32.7065      0.00000
      7      36.1317      0.00000
      8      39.3563      0.00000

 k-point    10 :      -0.2500    0.2500    0.0833
  band No.  band energies     occupation 
      1       5.3320      2.00000
      2      14.9583      2.00000
      3      19.3965      2.00000
      4      27.9699      0.00000
      5      34.9045      0.00000
      6      37.6130      0.00000
      7      38.4520      0.00000
      8      45.2517      0.00000

 k-point    11 :       0.4167    0.4167    0.0833
  band No.  band energies     occupation 
      1      13.9194      2.00000
      2      15.0044      2.00000
      3      22.7812      2.00000
      4      23.4905      2.00000
      5      25.1969      2.00000
      6      28.1828      0.00000
      7      35.0203      0.00000
      8      35.9527      0.00000

 k-point    12 :      -0.4167    0.4167    0.0833
  band No.  band energies     occupation 
      1      10.3195      2.00000
      2      17.0366      2.00000
      3      19.9663      2.00000
      4      24.9508      2.00000
      5      26.6601      2.00000
      6      30.2269      0.00000
      7      36.8709      0.00000
      8      42.5866      0.00000

 k-point    13 :       0.0833    0.0833    0.2500
  band No.  band energies     occupation 
      1       4.0848      2.00000
      2      10.2055      2.00000
      3      22.0293      2.00000
      4      35.2641      0.00000
      5      37.5787      0.00000
      6      37.9546      0.00000
      7      41.9643      0.00000
      8      43.4597      0.00000

 k-point    14 :       0.2500    0.0833    0.2500
  band No.  band energies     occupation 
      1       7.2959      2.00000
      2      13.1712      2.00000
      3      23.3964      2.00000
      4      26.9625      2.00000
      5      30.0463      0.00000
      6      34.7353      0.00000
      7      38.4261      0.00000
      8      41.8579      0.00000

 k-point    15 :       0.4167    0.0833    0.2500
  band No.  band energies     occupation 
      1      12.6967      2.00000
      2      15.9741      2.00000
      3      19.1583      2.00000
      4      22.2470      2.00000
      5      28.5143      0.00000
      6      31.6176      0.00000
      7      37.3098      0.00000
      8      37.9723      0.00000

 k-point    16 :      -0.4167    0.0833    0.2500
  band No.  band energies     occupation 
      1       9.7705      2.00000
      2      15.3722      2.00000
      3      20.6797      2.00000
      4      25.9228      2.00000
      5      27.1635      1.99997
      6      32.9747      0.00000
      7      37.6327      0.00000
      8      39.5826      0.00000

 k-point    17 :      -0.2500    0.0833    0.2500
  band No.  band energies     occupation 
      1       5.3846      2.00000
      2      11.4080      2.00000
      3      22.9114      2.00000
      4      30.8099      0.00000
      5      33.9389      0.00000
      6      36.7807      0.00000
      7      39.6219      0.00000
      8      42.6610      0.00000

 k-point    18 :      -0.0833    0.0833    0.2500
  band No.  band energies     occupation 
      1       3.4271      2.00000
      2       9.5974      2.00000
      3      21.5349      2.00000
      4      37.1143      0.00000
      5      39.5196      0.00000
      6      41.8589      0.00000
      7      42.1158      0.00000
      8      45.0660      0.00000

 k-point    19 :       0.2500    0.2500    0.2500
  band No.  band energies     occupation 
      1      11.5683      2.00000
      2      16.9509      2.00000
      3      21.4834      2.00000
      4      22.6530      2.00000
      5      27.3258      1.94376
      6      29.5223      0.00000
      7      33.0977      0.00000
      8      41.2087      0.00000

 k-point    20 :       0.4167    0.2500    0.2500
  band No.  band energies     occupation 
      1      14.4073      2.00000
      2      17.5741      2.00000
      3      19.7566      2.00000
      4      21.8625      2.00000
      5      25.4931      2.00000
      6      28.2548      0.00000
      7      33.7790      0.00000
      8      39.4327      0.00000

 k-point    21 :      -0.4167    0.2500    0.2500
  band No.  band energies     occupation 
      1       9.1602      2.00000
      2      14.8717      2.00000
      3      22.9327      2.00000
      4      25.1678      2.00000
      5      28.1103      0.00000
      6      32.0101      0.00000
      7      34.7067      0.00000
      8      42.3533      0.00000

 k-point    22 :      -0.2500    0.2500    0.2500
  band No.  band energies     occupation 
      1       6.0269      2.00000
      2      12.0014      2.00000
      3      23.1861      2.00000
      4      28.7277      0.00000
      5      32.5662      0.00000
      6      37.7267      0.00000
      7      38.9060      0.00000
      8      43.3349      0.00000

 k-point    23 :       0.4167    0.4167    0.2500
  band No.  band energies     occupation 
      1      14.5041      2.00000
      2      15.5330      2.00000
      3      20.7723      2.00000
      4      21.0449      2.00000
      5      26.3902      2.00000
      6      30.7079      0.00000
      7      34.5943      0.00000
      8      38.0013      0.00000

 k-point    24 :      -0.4167    0.4167    0.2500
  band No.  band energies     occupation 
      1      10.9694      2.00000
      2      16.1273      2.00000
      3      18.9768      2.00000
      4      23.9617      2.00000
      5      28.2954      0.00000
      6      33.3512      0.00000
      7      37.3093      0.00000
      8      41.1068      0.00000

 k-point    25 :       0.0833    0.0833    0.4167
  band No.  band energies     occupation 
      1       5.4890      2.00000
      2       7.5497      2.00000
      3      26.8177      2.00000
      4      32.0295      0.00000
      5      36.4471      0.00000
      6      37.2651      0.00000
      7      41.3152      0.00000
      8      42.0183      0.00000

 k-point    26 :       0.2500    0.0833    0.4167
  band No.  band energies     occupation 
      1       8.6469      2.00000
      2      10.6272      2.00000
      3      25.9437      2.00000
      4      27.9837      0.00000
      5      29.7744      0.00000
      6      33.2457      0.00000
      7      37.7691      0.00000
      8      39.6688      0.00000

 k-point    27 :       0.4167    0.0833    0.4167
  band No.  band energies     occupation 
      1      13.8980      2.00000
      2      15.4307      2.00000
      3      18.5442      2.00000
      4      20.0177      2.00000
      5      31.1038      0.00000
      6      32.9669      0.00000
      7      37.9530      0.00000
      8      39.7584      0.00000

 k-point    28 :      -0.4167    0.0833    0.4167
  band No.  band energies     occupation 
      1      11.0762      2.00000
      2      12.9779      2.00000
      3      21.9645      2.00000
      4      23.7533      2.00000
      5      30.5072      0.00000
      6      33.1489      0.00000
      7      37.3640      0.00000
      8      39.9658      0.00000

 k-point    29 :      -0.2500    0.0833    0.4167
  band No.  band energies     occupation 
      1       6.7672      2.00000
      2       8.7958      2.00000
      3      27.4156      1.47745
      4      31.6865      0.00000
      5      32.0855      0.00000
      6      33.5494      0.00000
      7      39.1509      0.00000
      8      40.4195      0.00000

 k-point    30 :      -0.0833    0.0833    0.4167
  band No.  band energies     occupation 
      1       4.8423      2.00000
      2       6.9195      2.00000
      3      26.4023      2.00000
      4      31.7514      0.00000
      5      39.9684      0.00000
      6      41.0130      0.00000
      7      42.6128      0.00000
      8      43.7187      0.00000

 k-point    31 :       0.2500    0.2500    0.4167
  band No.  band energies     occupation 
      1      12.8381      2.00000
      2      14.6748      2.00000
      3      22.3959      2.00000
      4      23.0921      2.00000
      5      26.7206      2.00000
      6      27.6595      0.00496
      7      36.9107      0.00000
      8      41.8294      0.00000

 k-point    32 :       0.4167    0.2500    0.4167
  band No.  band energies     occupation 
      1      15.5694      2.00000
      2      17.0355      2.00000
      3      19.6294      2.00000
      4      20.6813      2.00000
      5      25.3035      2.00000
      6      26.4780      2.00000
      7      38.5707      0.00000
      8      43.3304      0.00000

 k-point    33 :      -0.4167    0.2500    0.4167
  band No.  band energies     occupation 
      1      10.4791      2.00000
      2      12.4075      2.00000
      3      24.3640      2.00000
      4      25.6965      2.00000
      5      28.5121      0.00000
      6      30.5039      0.00000
      7      36.1582      0.00000
      8      40.0584      0.00000

 k-point    34 :      -0.2500    0.2500    0.4167
  band No.  band energies     occupation 
      1       7.3989      2.00000
      2       9.4114      2.00000
      3      27.0917      2.00000
      4      29.9826      0.00000
      5      30.6856      0.00000
      6      34.0984      0.00000
      7      39.8239      0.00000
      8      41.2159      0.00000

 k-point    35 :       0.4167    0.4167    0.4167
  band No.  band energies     occupation 
      1      15.5599      2.00000
      2      16.1994      2.00000
      3      18.8432      2.00000
      4      19.2870      2.00000
      5      27.8840      0.00000
      6      29.6471      0.00000
      7      38.3508      0.00000
      8      41.2476      0.00000

 k-point    36 :      -0.4167    0.4167    0.4167
  band No.  band energies     occupation 
      1      12.2436      2.00000
      2      14.0670      2.00000
      3      19.8839      2.00000
      4      21.6421      2.00000
      5      32.1008      0.00000
      6      34.8818      0.00000
      7      38.1865      0.00000
      8      39.4852      0.00000


--------------------------------------------------------------------------------------------------------


 soft charge-density along one line, spin component           1
         0         1         2         3         4         5         6         7         8         9
 total charge-density along one line
 
 pseudopotential strength for first ion, spin component:           1
 16.182  22.560   0.000   0.000  -0.000   0.000   0.000  -0.000
 22.560  31.456   0.000   0.000  -0.000   0.000   0.000  -0.000
  0.000   0.000   3.906   0.000   0.000   7.258   0.000   0.000
  0.000   0.000   0.000   3.904   0.000   0.000   7.254   0.000
 -0.000  -0.000   0.000   0.000   3.906   0.000   0.000   7.258
  0.000   0.000   7.258   0.000   0.000  13.498   0.000   0.000
  0.000   0.000   0.000   7.254   0.000   0.000  13.491   0.000
 -0.000  -0.000   0.000   0.000   7.258   0.000   0.000  13.498
 total augmentation occupancy for first ion, spin component:           1
 23.925 -13.456   0.000   0.000   0.000  -0.000   0.000   0.000
-13.456   7.815   0.000   0.000   0.000   0.000   0.000   0.000
 -0.000  -0.000   9.609   0.000   0.000  -3.140   0.000   0.000
  0.000   0.000   0.000   9.440  -0.000   0.000  -3.062   0.000
  0.000   0.000   0.000   0.000   9.609  -0.000  -0.000  -3.140
 -0.000  -0.000  -3.140   0.000   0.000   1.072   0.000   0.000
  0.000   0.000  -0.000  -3.062   0.000   0.000   1.049   0.000
  0.000   0.000   0.000  -0.000  -3.140   0.000   0.000   1.072


------------------------ aborting loop because EDIFF is reached ----------------------------------------


    CHARGE:  cpu time    0.0170: real time    0.0102
    FORLOC:  cpu time    0.0010: real time    0.0003
    FORNL :  cpu time    0.0230: real time    0.0133
    STRESS:  cpu time    0.1700: real time    0.0990
    FORCOR:  cpu time    0.0320: real time    0.0174
    FORHAR:  cpu time    0.0060: real time    0.0026
    MIXING:  cpu time    0.0010: real time    0.0008
    OFIELD:  cpu time    0.0000: real time    0.0000

  FORCE on cell =-STRESS in cart. coord.  units (eV):
  Direction    XX          YY          ZZ          XY          YZ          ZX
  --------------------------------------------------------------------------------------
  Alpha Z    11.90174    11.90174    11.90174
  Ewald    -123.49062  -123.49062  -126.45808    -0.00000     0.00000     0.00000
  Hartree     0.60494     0.60494     0.76694    -0.00000    -0.00000    -0.00000
  E(xc)     -35.31973   -35.31973   -35.22165     0.00000    -0.00000    -0.00000
  Local      -5.17737    -5.17738    -3.57107    -0.00001    -0.00000     0.00000
  n-local    97.34540   110.65524   101.71237    -4.57235     1.42787    -1.10854
  augment   -12.77927   -12.77926   -12.90361     0.00001     0.00000     0.00000
  Kinetic   130.33627    78.87722   108.12397    15.41436    -0.47566    -2.15697
  Fock        0.00000     0.00000     0.00000     0.00000     0.00000     0.00000
  -------------------------------------------------------------------------------------
  Total      44.34674    44.34674    44.35062     0.00000     0.00000     0.00000
  in kB    6280.12339  6280.12339  6280.67179     0.00000     0.00000     0.00000
  external pressure =     6280.31 kB  Pullay stress =        0.00 kB


 VOLUME and BASIS-vectors are now :
 -----------------------------------------------------------------------------
  energy-cutoff  :      450.00
  volume of cell :       11.31
      direct lattice vectors                 reciprocal lattice vectors
     1.986843224  0.000000000  0.000000000     0.503310975  0.290586727  0.000000000
    -0.993421612  1.720656705  0.000000000     0.000000000  0.581173454  0.000000000
     0.000000000 -0.000000000  3.309377525     0.000000000  0.000000000  0.302171630

  length of vectors
     1.986843224  1.986843224  3.309377525     0.581173454  0.581173454  0.302171630


 FORCES acting on ions
    electron-ion (+dipol)            ewald-force                    non-local-force                 convergence-correction
 -----------------------------------------------------------------------------------------------
   -.141E-08 0.816E-09 -.838E-14   -.145E-12 0.160E-12 -.766E-14   0.598E-16 0.520E-17 0.000E+00   0.118E-09 -.681E-10 -.705E-16
   0.110E-07 -.636E-08 -.100E-12   0.144E-12 -.161E-12 0.766E-14   -.373E-16 0.608E-17 0.000E+00   -.118E-09 0.683E-10 0.174E-15
 -----------------------------------------------------------------------------------------------
   0.961E-08 -.555E-08 -.109E-12   -.108E-14 -.128E-14 0.000E+00   0.226E-16 0.113E-16 0.000E+00   -.305E-12 0.176E-12 0.104E-15
 
 
 POSITION                                       TOTAL-FORCE (eV/Angst)
 -----------------------------------------------------------------------------------
     -0.00000      0.00000      0.00000        -0.000000      0.000000      0.000000
     -0.00000      1.14710      1.65469         0.000000     -0.000000      0.000000
 -----------------------------------------------------------------------------------
    total drift:                                0.000000     -0.000000     -0.000000


--------------------------------------------------------------------------------------------------------



  FREE ENERGIE OF THE ION-ELECTRON SYSTEM (eV)
  ---------------------------------------------------
  free  energy   TOTEN  =         5.26242757 eV

  energy  without entropy=        5.26535731  energy(sigma->0) =        5.26389244
 
 d Force = 0.0000000E+00[ 0.000E+00, 0.000E+00]  d Energy = 0.3141185E-05-0.314E-05
 d Force = 0.0000000E+00[ 0.000E+00, 0.000E+00]  d Ewald  =-0.4500972E-03 0.450E-03


--------------------------------------------------------------------------------------------------------


    POTLOK:  cpu time    0.0360: real time    0.0179


--------------------------------------------------------------------------------------------------------




--------------------------------------------------------------------------------------------------------


  
 reached required accuracy - stopping structural energy minimisation
 writing wavefunctions
     LOOP+:  cpu time    2.0967: real time    1.2796
    4ORBIT:  cpu time    0.0000: real time    0.0000

 total amount of memory used by VASP on root node    31918. kBytes
========================================================================

   base      :      30000. kBytes
   nonl-proj :        598. kBytes
   fftplans  :        346. kBytes
   grid      :        655. kBytes
   one-center:          6. kBytes
   wavefun   :        313. kBytes
 
  
  
 General timing and accounting informations for this job:
 ========================================================
  
                  Total CPU time used (sec):       30.888
                            User time (sec):       28.348
                          System time (sec):        2.541
                         Elapsed time (sec):       21.301
  
                   Maximum memory used (kb):       32864.
                   Average memory used (kb):           0.
  
                          Minor page faults:        28902
                          Major page faults:          141
                 Voluntary context switches:         1213
