 running on    4 total cores
 distrk:  each k-point on    4 cores,    1 groups
 distr:  one band on    1 cores,    4 groups
 using from now: INCAR     
 vasp.5.4.1 24Jun15 (build Jul 19 2016 16:50:41) complex                        
  
 POSCAR found :  1 types and       2 ions
 LDA part: xc-table for Pade appr. of Perdew
 POSCAR, INCAR and KPOINTS ok, starting setup
 FFT: planning ...
 WAVECAR not read
 entering main loop
       N       E                     dE             d eps       ncg     rms          rms(c)
DAV:   1     0.160898560324E+02    0.16090E+02   -0.41848E+03   664   0.776E+02
DAV:   2     0.474983933121E+01   -0.11340E+02   -0.11088E+02   880   0.885E+01
DAV:   3     0.470054234018E+01   -0.49297E-01   -0.49250E-01   704   0.679E+00
DAV:   4     0.470045920003E+01   -0.83140E-04   -0.83141E-04   904   0.151E-01
DAV:   5     0.470045919745E+01   -0.25804E-08   -0.12899E-08   688   0.673E-04    0.217E+01
DAV:   6     0.506879706184E+01    0.36834E+00   -0.19398E-02   680   0.131E+00    0.122E+01
DAV:   7     0.527309193775E+01    0.20429E+00   -0.38376E-02   728   0.186E+00    0.718E-01
DAV:   8     0.527454184595E+01    0.14499E-02   -0.68772E-04   776   0.240E-01    0.223E-01
DAV:   9     0.527465770236E+01    0.11586E-03   -0.38694E-05   744   0.594E-02    0.170E-02
DAV:  10     0.527466042561E+01    0.27232E-05   -0.49857E-06   336   0.168E-02
   1 F= 0.52746604E+01 E0= 0.52761451E+01  d E =0.527466E+01
 curvature:   0.00 expect dE= 0.000E+00 dE for cont linesearch  0.000E+00
 trial: gam= 0.00000 g(F)=  0.157E-53 g(S)=  0.391E-01 ort = 0.000E+00 (trialstep = 0.100E+01)
 search vector abs. value=  0.391E-01
 bond charge predicted
       N       E                     dE             d eps       ncg     rms          rms(c)
DAV:   1     0.526907470614E+01   -0.55830E-02   -0.10172E+00   768   0.659E+00    0.651E-01
DAV:   2     0.527594424886E+01    0.68695E-02   -0.11093E-02   624   0.959E-01    0.335E-01
DAV:   3     0.527862469428E+01    0.26804E-02   -0.64067E-03   728   0.550E-01    0.228E-02
DAV:   4     0.527861539898E+01   -0.92953E-05   -0.10692E-04   632   0.116E-01    0.195E-02
DAV:   5     0.527861507785E+01   -0.32114E-06   -0.28301E-07   424   0.480E-03
   2 F= 0.52786151E+01 E0= 0.52796384E+01  d E =0.395465E-02
 trial-energy change:    0.003955  1 .order    0.016833   -0.039123    0.072790
 step:   0.5219(harm=  0.3496)  dis= 0.00000  next Energy=     5.262621 (dE=-0.120E-01)
 bond charge predicted
       N       E                     dE             d eps       ncg     rms          rms(c)
DAV:   1     0.526072900162E+01   -0.17886E-01   -0.23960E-01   784   0.320E+00    0.287E-01
DAV:   2     0.526194850820E+01    0.12195E-02   -0.21920E-03   616   0.440E-01    0.146E-01
DAV:   3     0.526243210428E+01    0.48360E-03   -0.10758E-03   728   0.227E-01    0.125E-02
DAV:   4     0.526243071118E+01   -0.13931E-05   -0.18971E-05   520   0.486E-02
   3 F= 0.52624307E+01 E0= 0.52638992E+01  d E =-.122297E-01
 curvature:  -0.16 expect dE=-0.371E-05 dE for cont linesearch -0.371E-05
 ZBRENT: interpolating
 opt :   0.5280  next Energy=     5.262428 (dE=-0.122E-01)
 bond charge predicted
       N       E                     dE             d eps       ncg     rms          rms(c)
DAV:   1     0.526242737289E+01   -0.47314E-05   -0.40048E-05   752   0.417E-02    0.377E-03
DAV:   2     0.526242756999E+01    0.19710E-06   -0.38661E-07   296   0.585E-03
   4 F= 0.52624276E+01 E0= 0.52638924E+01  d E =-.122329E-01
 curvature:  -0.13 expect dE=-0.306E-07 dE for cont linesearch -0.306E-07
 trial: gam=-0.00248 g(F)=  0.115E-50 g(S)=  0.241E-06 ort = 0.971E-04 (trialstep = 0.906E+00)
 search vector abs. value=  0.101E-09
 reached required accuracy - stopping structural energy minimisation
 writing wavefunctions
