<?xml version="1.0" encoding="ISO-8859-1"?>
<modeling>
 <generator>
  <i name="program" type="string">vasp </i>
  <i name="version" type="string">5.4.1  </i>
  <i name="subversion" type="string">24Jun15 (build Jul 19 2016 16:50:41) complex                          parallel </i>
  <i name="platform" type="string">IFC91_ompi </i>
  <i name="date" type="string">2019 10 10 </i>
  <i name="time" type="string">11:09:17 </i>
 </generator>
 <incar>
  <i type="string" name="SYSTEM"> Si beta-tin</i>
  <i type="string" name="PREC">accurate</i>
  <i type="int" name="IBRION">     2</i>
  <i name="EDIFF">      0.00001000</i>
  <i name="EDIFFG">     -0.01000000</i>
  <i type="int" name="NSW">   100</i>
  <i type="int" name="ISIF">     4</i>
  <i name="ENMAX">    450.00000000</i>
  <i type="int" name="ISMEAR">     0</i>
  <i name="SIGMA">      0.10000000</i>
  <v type="int" name="KPOINT_BSE">    -1     0     0     0</v>
 </incar>
 <kpoints>
  <generation param="Monkhorst-Pack">
   <v type="int" name="divisions">       6        6        6 </v>
   <v name="usershift">      0.00000000       0.00000000       0.00000000 </v>
   <v name="genvec1">      0.16666667       0.00000000       0.00000000 </v>
   <v name="genvec2">      0.00000000       0.16666667       0.00000000 </v>
   <v name="genvec3">      0.00000000       0.00000000       0.16666667 </v>
   <v name="shift">      0.50000000       0.50000000       0.50000000 </v>
  </generation>
  <varray name="kpointlist" >
   <v>       0.08333333       0.08333333       0.08333333 </v>
   <v>       0.25000000       0.08333333       0.08333333 </v>
   <v>       0.41666667       0.08333333       0.08333333 </v>
   <v>      -0.41666667       0.08333333       0.08333333 </v>
   <v>      -0.25000000       0.08333333       0.08333333 </v>
   <v>      -0.08333333       0.08333333       0.08333333 </v>
   <v>       0.25000000       0.25000000       0.08333333 </v>
   <v>       0.41666667       0.25000000       0.08333333 </v>
   <v>      -0.41666667       0.25000000       0.08333333 </v>
   <v>      -0.25000000       0.25000000       0.08333333 </v>
   <v>       0.41666667       0.41666667       0.08333333 </v>
   <v>      -0.41666667       0.41666667       0.08333333 </v>
   <v>       0.08333333       0.08333333       0.25000000 </v>
   <v>       0.25000000       0.08333333       0.25000000 </v>
   <v>       0.41666667       0.08333333       0.25000000 </v>
   <v>      -0.41666667       0.08333333       0.25000000 </v>
   <v>      -0.25000000       0.08333333       0.25000000 </v>
   <v>      -0.08333333       0.08333333       0.25000000 </v>
   <v>       0.25000000       0.25000000       0.25000000 </v>
   <v>       0.41666667       0.25000000       0.25000000 </v>
   <v>      -0.41666667       0.25000000       0.25000000 </v>
   <v>      -0.25000000       0.25000000       0.25000000 </v>
   <v>       0.41666667       0.41666667       0.25000000 </v>
   <v>      -0.41666667       0.41666667       0.25000000 </v>
   <v>       0.08333333       0.08333333       0.41666667 </v>
   <v>       0.25000000       0.08333333       0.41666667 </v>
   <v>       0.41666667       0.08333333       0.41666667 </v>
   <v>      -0.41666667       0.08333333       0.41666667 </v>
   <v>      -0.25000000       0.08333333       0.41666667 </v>
   <v>      -0.08333333       0.08333333       0.41666667 </v>
   <v>       0.25000000       0.25000000       0.41666667 </v>
   <v>       0.41666667       0.25000000       0.41666667 </v>
   <v>      -0.41666667       0.25000000       0.41666667 </v>
   <v>      -0.25000000       0.25000000       0.41666667 </v>
   <v>       0.41666667       0.41666667       0.41666667 </v>
   <v>      -0.41666667       0.41666667       0.41666667 </v>
  </varray>
  <varray name="weights" >
   <v>       0.01851852 </v>
   <v>       0.03703704 </v>
   <v>       0.03703704 </v>
   <v>       0.03703704 </v>
   <v>       0.03703704 </v>
   <v>       0.01851852 </v>
   <v>       0.01851852 </v>
   <v>       0.03703704 </v>
   <v>       0.03703704 </v>
   <v>       0.01851852 </v>
   <v>       0.01851852 </v>
   <v>       0.01851852 </v>
   <v>       0.01851852 </v>
   <v>       0.03703704 </v>
   <v>       0.03703704 </v>
   <v>       0.03703704 </v>
   <v>       0.03703704 </v>
   <v>       0.01851852 </v>
   <v>       0.01851852 </v>
   <v>       0.03703704 </v>
   <v>       0.03703704 </v>
   <v>       0.01851852 </v>
   <v>       0.01851852 </v>
   <v>       0.01851852 </v>
   <v>       0.01851852 </v>
   <v>       0.03703704 </v>
   <v>       0.03703704 </v>
   <v>       0.03703704 </v>
   <v>       0.03703704 </v>
   <v>       0.01851852 </v>
   <v>       0.01851852 </v>
   <v>       0.03703704 </v>
   <v>       0.03703704 </v>
   <v>       0.01851852 </v>
   <v>       0.01851852 </v>
   <v>       0.01851852 </v>
  </varray>
 </kpoints>
 <parameters>
  <separator name="general" >
   <i type="string" name="SYSTEM">Si beta-tin</i>
   <i type="logical" name="LCOMPAT"> F  </i>
  </separator>
  <separator name="electronic" >
   <i type="string" name="PREC">accura</i>
   <i name="ENMAX">    450.00000000</i>
   <i name="ENAUG">    322.06900000</i>
   <i name="EDIFF">      0.00001000</i>
   <i type="int" name="IALGO">    38</i>
   <i type="int" name="IWAVPR">    11</i>
   <i type="int" name="NBANDS">     8</i>
   <i name="NELECT">      8.00000000</i>
   <i type="int" name="TURBO">     0</i>
   <i type="int" name="IRESTART">     0</i>
   <i type="int" name="NREBOOT">     0</i>
   <i type="int" name="NMIN">     0</i>
   <i name="EREF">      0.00000000</i>
   <separator name="electronic smearing" >
    <i type="int" name="ISMEAR">     0</i>
    <i name="SIGMA">      0.10000000</i>
    <i name="KSPACING">      0.50000000</i>
    <i type="logical" name="KGAMMA"> T  </i>
   </separator>
   <separator name="electronic projectors" >
    <i type="logical" name="LREAL"> F  </i>
    <v name="ROPT">      0.00000000</v>
    <i type="int" name="LMAXPAW">  -100</i>
    <i type="int" name="LMAXMIX">     2</i>
    <i type="logical" name="NLSPLINE"> F  </i>
   </separator>
   <separator name="electronic startup" >
    <i type="int" name="ISTART">     0</i>
    <i type="int" name="ICHARG">     2</i>
    <i type="int" name="INIWAV">     1</i>
   </separator>
   <separator name="electronic spin" >
    <i type="int" name="ISPIN">     1</i>
    <i type="logical" name="LNONCOLLINEAR"> F  </i>
    <v name="MAGMOM">      1.00000000      1.00000000</v>
    <i name="NUPDOWN">     -1.00000000</i>
    <i type="logical" name="LSORBIT"> F  </i>
    <v name="SAXIS">      0.00000000      0.00000000      1.00000000</v>
    <i type="logical" name="LSPIRAL"> F  </i>
    <v name="QSPIRAL">      0.00000000      0.00000000      0.00000000</v>
    <i type="logical" name="LZEROZ"> F  </i>
   </separator>
   <separator name="electronic exchange-correlation" >
    <i type="logical" name="LASPH"> F  </i>
    <i type="logical" name="LMETAGGA"> F  </i>
   </separator>
   <separator name="electronic convergence" >
    <i type="int" name="NELM">    60</i>
    <i type="int" name="NELMDL">    -5</i>
    <i type="int" name="NELMIN">     2</i>
    <i name="ENINI">    450.00000000</i>
    <separator name="electronic convergence detail" >
     <i type="logical" name="LDIAG"> T  </i>
     <i type="logical" name="LSUBROT"> F  </i>
     <i name="WEIMIN">      0.00100000</i>
     <i name="EBREAK">      0.00000031</i>
     <i name="DEPER">      0.30000000</i>
     <i type="int" name="NRMM">     4</i>
     <i name="TIME">      0.40000000</i>
    </separator>
   </separator>
   <separator name="electronic mixer" >
    <i name="AMIX">      0.40000000</i>
    <i name="BMIX">      1.00000000</i>
    <i name="AMIN">      0.10000000</i>
    <i name="AMIX_MAG">      1.60000000</i>
    <i name="BMIX_MAG">      1.00000000</i>
    <separator name="electronic mixer details" >
     <i type="int" name="IMIX">     4</i>
     <i type="logical" name="MIXFIRST"> F  </i>
     <i type="int" name="MAXMIX">   -45</i>
     <i name="WC">    100.00000000</i>
     <i type="int" name="INIMIX">     1</i>
     <i type="int" name="MIXPRE">     1</i>
     <i type="int" name="MREMOVE">     5</i>
    </separator>
   </separator>
   <separator name="electronic dipolcorrection" >
    <i type="logical" name="LDIPOL"> F  </i>
    <i type="logical" name="LMONO"> F  </i>
    <i type="int" name="IDIPOL">     0</i>
    <i name="EPSILON">      1.00000000</i>
    <v name="DIPOL">   -100.00000000   -100.00000000   -100.00000000</v>
    <i name="EFIELD">      0.00000000</i>
   </separator>
  </separator>
  <separator name="grids" >
   <i type="int" name="NGX">    14</i>
   <i type="int" name="NGY">    14</i>
   <i type="int" name="NGZ">    24</i>
   <i type="int" name="NGXF">    28</i>
   <i type="int" name="NGYF">    28</i>
   <i type="int" name="NGZF">    48</i>
   <i type="logical" name="ADDGRID"> F  </i>
  </separator>
  <separator name="ionic" >
   <i type="int" name="NSW">   100</i>
   <i type="int" name="IBRION">     2</i>
   <i type="int" name="ISIF">     4</i>
   <i name="PSTRESS">      0.00000000</i>
   <i name="EDIFFG">     -0.01000000</i>
   <i type="int" name="NFREE">     1</i>
   <i name="POTIM">      0.50000000</i>
   <i name="SMASS">     -3.00000000</i>
   <i name="SCALEE">      1.00000000</i>
  </separator>
  <separator name="ionic md" >
   <i name="TEBEG">      0.00010000</i>
   <i name="TEEND">      0.00010000</i>
   <i type="int" name="NBLOCK">     1</i>
   <i type="int" name="KBLOCK">   100</i>
   <i type="int" name="NPACO">   256</i>
   <i name="APACO">     16.00000000</i>
  </separator>
  <separator name="symmetry" >
   <i type="int" name="ISYM">     2</i>
   <i name="SYMPREC">      0.00001000</i>
  </separator>
  <separator name="dos" >
   <i type="logical" name="LORBIT"> F  </i>
   <v name="RWIGS">     -1.00000000</v>
   <i type="int" name="NEDOS">   301</i>
   <i name="EMIN">     10.00000000</i>
   <i name="EMAX">    -10.00000000</i>
   <i name="EFERMI">      0.00000000</i>
  </separator>
  <separator name="writing" >
   <i type="int" name="NWRITE">     2</i>
   <i type="logical" name="LWAVE"> T  </i>
   <i type="logical" name="LCHARG"> T  </i>
   <i type="logical" name="LPARD"> F  </i>
   <i type="logical" name="LVTOT"> F  </i>
   <i type="logical" name="LVHAR"> F  </i>
   <i type="logical" name="LELF"> F  </i>
   <i type="logical" name="LOPTICS"> F  </i>
   <v name="STM">      0.00000000      0.00000000      0.00000000      0.00000000      0.00000000      0.00000000      0.00000000</v>
  </separator>
  <separator name="performance" >
   <i type="int" name="NPAR">     4</i>
   <i type="int" name="NSIM">     4</i>
   <i type="int" name="NBLK">    -1</i>
   <i type="logical" name="LPLANE"> T  </i>
   <i type="logical" name="LSCALAPACK"> F  </i>
   <i type="logical" name="LSCAAWARE"> F  </i>
   <i type="logical" name="LSCALU"> F  </i>
   <i type="logical" name="LASYNC"> F  </i>
   <i type="logical" name="LORBITALREAL"> F  </i>
  </separator>
  <separator name="miscellaneous" >
   <i type="int" name="IDIOT">     3</i>
   <i type="logical" name="LMUSIC"> F  </i>
   <v name="POMASS">     28.08500000</v>
   <v name="DARWINR">      0.00000000</v>
   <v name="DARWINV">      1.00000000</v>
   <i type="logical" name="LCORR"> T  </i>
  </separator>
  <i type="logical" name="GGA_COMPAT"> T  </i>
  <i type="logical" name="LBERRY"> F  </i>
  <i type="int" name="ICORELEVEL">     0</i>
  <i type="logical" name="LDAU"> F  </i>
  <i type="int" name="I_CONSTRAINED_M">     0</i>
  <separator name="electronic exchange-correlation" >
   <i type="string" name="GGA">--</i>
   <i type="int" name="VOSKOWN">     0</i>
   <i type="logical" name="LHFCALC"> F  </i>
   <i type="string" name="PRECFOCK"></i>
   <i type="logical" name="LSYMGRAD"> F  </i>
   <i type="logical" name="LHFONE"> F  </i>
   <i type="logical" name="LRHFCALC"> F  </i>
   <i type="logical" name="LTHOMAS"> F  </i>
   <i type="logical" name="LMODELHF"> F  </i>
   <i name="ENCUT4O">     -1.00000000</i>
   <i type="int" name="EXXOEP">     0</i>
   <i type="int" name="FOURORBIT">     0</i>
   <i name="AEXX">      0.00000000</i>
   <i name="HFALPHA">      0.00000000</i>
   <i name="MCALPHA">      0.00000000</i>
   <i name="ALDAX">      1.00000000</i>
   <i name="AGGAX">      1.00000000</i>
   <i name="ALDAC">      1.00000000</i>
   <i name="AGGAC">      1.00000000</i>
   <i type="int" name="NKREDX">     1</i>
   <i type="int" name="NKREDY">     1</i>
   <i type="int" name="NKREDZ">     1</i>
   <i type="logical" name="SHIFTRED"> F  </i>
   <i type="logical" name="ODDONLY"> F  </i>
   <i type="logical" name="EVENONLY"> F  </i>
   <i type="int" name="LMAXFOCK">     0</i>
   <i type="int" name="NMAXFOCKAE">     0</i>
   <i type="logical" name="LFOCKAEDFT"> F  </i>
   <i name="HFSCREEN">      0.00000000</i>
   <i name="HFSCREENC">      0.00000000</i>
   <i type="int" name="NBANDSGWLOW">     0</i>
  </separator>
  <separator name="vdW DFT" >
   <i type="logical" name="LUSE_VDW"> F  </i>
   <i name="Zab_VDW">     -0.84910000</i>
   <i name="PARAM1">      0.12340000</i>
   <i name="PARAM2">      1.00000000</i>
   <i name="PARAM3">      0.00000000</i>
  </separator>
  <separator name="model GW" >
   <i type="int" name="MODEL_GW">     0</i>
   <i name="MODEL_EPS0">      3.39410598</i>
   <i name="MODEL_ALPHA">      1.00000000</i>
  </separator>
  <separator name="linear response parameters" >
   <i type="logical" name="LEPSILON"> F  </i>
   <i type="logical" name="LRPA"> F  </i>
   <i type="logical" name="LNABLA"> F  </i>
   <i type="logical" name="LVEL"> F  </i>
   <i type="int" name="KINTER">     0</i>
   <i name="CSHIFT">      0.10000000</i>
   <i name="OMEGAMAX">     -1.00000000</i>
   <i name="DEG_THRESHOLD">      0.00200000</i>
  </separator>
  <separator name="orbital magnetization" >
   <i type="logical" name="NUCIND"> F  </i>
   <v name="MAGPOS">      0.00000000      0.00000000      0.00000000</v>
   <i type="logical" name="LNICSALL"> T  </i>
   <i type="logical" name="ORBITALMAG"> F  </i>
   <i type="logical" name="LMAGBLOCH"> F  </i>
   <i type="logical" name="LCHIMAG"> F  </i>
   <i type="logical" name="LGAUGE"> T  </i>
   <i type="int" name="MAGATOM">     0</i>
   <v name="MAGDIPOL">      0.00000000      0.00000000      0.00000000</v>
   <v name="AVECCONST">      0.00000000      0.00000000      0.00000000</v>
  </separator>
  <separator name="response functions" >
   <i type="logical" name="LADDER"> F  </i>
   <i type="logical" name="LFXC"> F  </i>
   <i type="logical" name="LHARTREE"> T  </i>
   <i type="int" name="IBSE">     0</i>
   <v type="int" name="KPOINT">    -1     0     0     0</v>
   <i type="logical" name="LTCTE"> F  </i>
   <i type="logical" name="LTETE"> F  </i>
   <i type="logical" name="LTRIPLET"> F  </i>
   <i type="logical" name="LFXCEPS"> F  </i>
   <i type="logical" name="LFXHEG"> F  </i>
   <i type="int" name="NATURALO">     0</i>
   <i type="logical" name="L2ORDER"> F  </i>
   <i type="logical" name="LUSEW"> F  </i>
   <i name="ENCUTGW">     -2.00000000</i>
   <i name="ENCUTGWSOFT">     -2.00000000</i>
   <i name="ENCUTLF">     -1.00000000</i>
   <i type="int" name="LMAXMP2">    -1</i>
   <i name="SCISSOR">      0.00000000</i>
   <i type="int" name="NOMEGA">     0</i>
   <i type="int" name="NOMEGAR">     0</i>
   <i type="int" name="NBANDSGW">    -1</i>
   <i type="int" name="NBANDSO">    -1</i>
   <i type="int" name="NBANDSV">    -1</i>
   <i type="int" name="NELM">     1</i>
   <i type="int" name="NELMHF">     1</i>
   <i type="int" name="DIM">     3</i>
   <i type="int" name="ANTIRES">     0</i>
   <i name="OMEGAMAX">    -30.00000000</i>
   <i name="OMEGAMIN">    -30.00000000</i>
   <i name="OMEGATL">   -200.00000000</i>
   <i type="int" name="OMEGAGRID">     0</i>
   <i name="CSHIFT">     -0.10000000</i>
   <i type="logical" name="SELFENERGY"> F  </i>
   <i type="logical" name="LSPECTRAL"> F  </i>
   <i type="logical" name="LSPECTRALGW"> F  </i>
   <i type="logical" name="LSINGLES"> F  </i>
   <i type="logical" name="LFERMIGW"> F  </i>
   <i type="logical" name="ODDONLYGW"> F  </i>
   <i type="logical" name="EVENONLYGW"> F  </i>
   <i type="int" name="NKREDLFX">     1</i>
   <i type="int" name="NKREDLFY">     1</i>
   <i type="int" name="NKREDLFZ">     1</i>
   <i type="int" name="MAXMEM">  1800</i>
   <i type="int" name="TELESCOPE">     0</i>
   <i type="int" name="TAUPAR">     1</i>
   <i type="int" name="OMEGAPAR">    -1</i>
   <i name="LAMBDA">      1.00000000</i>
  </separator>
  <separator name="External order field" >
   <i name="OFIELD_KAPPA">      0.00000000</i>
   <v name="OFIELD_K">      0.00000000      0.00000000      0.00000000</v>
   <i name="OFIELD_Q6_NEAR">      0.00000000</i>
   <i name="OFIELD_Q6_FAR">      0.00000000</i>
   <i name="OFIELD_A">      0.00000000</i>
  </separator>
 </parameters>
 <atominfo>
  <atoms>       2 </atoms>
  <types>       1 </types>
  <array name="atoms" >
   <dimension dim="1">ion</dimension>
   <field type="string">element</field>
   <field type="int">atomtype</field>
   <set>
    <rc><c> S</c><c>   1</c></rc>
    <rc><c> S</c><c>   1</c></rc>
   </set>
  </array>
  <array name="atomtypes" >
   <dimension dim="1">type</dimension>
   <field type="int">atomspertype</field>
   <field type="string">element</field>
   <field>mass</field>
   <field>valence</field>
   <field type="string">pseudopotential</field>
   <set>
    <rc><c>   2</c><c> S</c><c>     28.08500000</c><c>      4.00000000</c><c>  PAW_PBE Si 05Jan2001                  </c></rc>
   </set>
  </array>
 </atominfo>
 <structure name="initialpos" >
  <crystal>
   <varray name="basis" >
    <v>       2.00000000       0.00000000       0.00000000 </v>
    <v>      -1.00000000       1.73205081       0.00000000 </v>
    <v>       0.00000000       0.00000000       3.26598000 </v>
   </varray>
   <i name="volume">     11.31368659 </i>
   <varray name="rec_basis" >
    <v>       0.50000000       0.28867513       0.00000000 </v>
    <v>       0.00000000       0.57735027       0.00000000 </v>
    <v>       0.00000000       0.00000000       0.30618681 </v>
   </varray>
  </crystal>
  <varray name="positions" >
   <v>       0.00000000       0.00000000       0.00000000 </v>
   <v>       0.33333333       0.66666667       0.50000000 </v>
  </varray>
 </structure>
 <calculation>
  <scstep>
   <time name="dav">    1.14    0.83</time>
   <time name="total">    1.18    0.86</time>
   <energy>
    <i name="alphaZ">     11.90173708 </i>
    <i name="ewald">   -373.45684209 </i>
    <i name="hartreedc">     -0.58104602 </i>
    <i name="XCdc">    -11.81561270 </i>
    <i name="pawpsdc">    176.24759923 </i>
    <i name="pawaedc">   -141.06103558 </i>
    <i name="eentropy">     -0.00000099 </i>
    <i name="bandstr">    148.72312963 </i>
    <i name="atom">    206.13192747 </i>
    <i name="e_fr_energy">     16.08985603 </i>
    <i name="e_wo_entrp">     16.08985702 </i>
    <i name="e_0_energy">     16.08985653 </i>
   </energy>
  </scstep>
  <scstep>
   <time name="dav">    1.63    1.03</time>
   <time name="total">    1.64    1.03</time>
   <energy>
    <i name="e_fr_energy">      4.74983933 </i>
    <i name="e_wo_entrp">      4.75309344 </i>
    <i name="e_0_energy">      4.75146639 </i>
   </energy>
  </scstep>
  <scstep>
   <time name="dav">    1.65    1.01</time>
   <time name="total">    1.65    1.02</time>
   <energy>
    <i name="e_fr_energy">      4.70054234 </i>
    <i name="e_wo_entrp">      4.70404325 </i>
    <i name="e_0_energy">      4.70229280 </i>
   </energy>
  </scstep>
  <scstep>
   <time name="dav">    1.53    0.99</time>
   <time name="total">    1.53    0.99</time>
   <energy>
    <i name="e_fr_energy">      4.70045920 </i>
    <i name="e_wo_entrp">      4.70396043 </i>
    <i name="e_0_energy">      4.70220981 </i>
   </energy>
  </scstep>
  <scstep>
   <time name="dav">    1.81    1.12</time>
   <time name="total">    1.84    1.15</time>
   <energy>
    <i name="e_fr_energy">      4.70045920 </i>
    <i name="e_wo_entrp">      4.70396043 </i>
    <i name="e_0_energy">      4.70220981 </i>
   </energy>
  </scstep>
  <scstep>
   <time name="dav">    1.14    0.77</time>
   <time name="total">    1.18    0.81</time>
   <energy>
    <i name="e_fr_energy">      5.06879706 </i>
    <i name="e_wo_entrp">      5.07208499 </i>
    <i name="e_0_energy">      5.07044103 </i>
   </energy>
  </scstep>
  <scstep>
   <time name="dav">    1.29    0.86</time>
   <time name="total">    1.34    0.89</time>
   <energy>
    <i name="e_fr_energy">      5.27309194 </i>
    <i name="e_wo_entrp">      5.27603435 </i>
    <i name="e_0_energy">      5.27456314 </i>
   </energy>
  </scstep>
  <scstep>
   <time name="dav">    1.24    0.80</time>
   <time name="total">    1.27    0.82</time>
   <energy>
    <i name="e_fr_energy">      5.27454185 </i>
    <i name="e_wo_entrp">      5.27753355 </i>
    <i name="e_0_energy">      5.27603770 </i>
   </energy>
  </scstep>
  <scstep>
   <time name="dav">    0.85    0.56</time>
   <time name="total">    0.91    0.60</time>
   <energy>
    <i name="e_fr_energy">      5.27465770 </i>
    <i name="e_wo_entrp">      5.27763578 </i>
    <i name="e_0_energy">      5.27614674 </i>
   </energy>
  </scstep>
  <scstep>
   <time name="dav">    0.81    0.57</time>
   <time name="total">    0.85    0.59</time>
   <energy>
    <i name="alphaZ">     11.90173708 </i>
    <i name="ewald">   -373.45684209 </i>
    <i name="hartreedc">     -1.97844816 </i>
    <i name="XCdc">    -10.73555163 </i>
    <i name="pawpsdc">   7983.25728580 </i>
    <i name="pawaedc">  -7949.38283452 </i>
    <i name="eentropy">     -0.00296932 </i>
    <i name="bandstr">    139.54035580 </i>
    <i name="atom">    206.13192747 </i>
    <i name="e_fr_energy">      5.27466043 </i>
    <i name="e_wo_entrp">      5.27762975 </i>
    <i name="e_0_energy">      5.27614509 </i>
   </energy>
  </scstep>
  <structure>
   <crystal>
    <varray name="basis" >
     <v>       2.00000000       0.00000000       0.00000000 </v>
     <v>      -1.00000000       1.73205081       0.00000000 </v>
     <v>       0.00000000       0.00000000       3.26598000 </v>
    </varray>
    <i name="volume">     11.31368659 </i>
    <varray name="rec_basis" >
     <v>       0.50000000       0.28867513       0.00000000 </v>
     <v>       0.00000000       0.57735027       0.00000000 </v>
     <v>       0.00000000       0.00000000       0.30618681 </v>
    </varray>
   </crystal>
   <varray name="positions" >
    <v>       0.00000000       0.00000000       0.00000000 </v>
    <v>       0.33333333       0.66666667       0.50000000 </v>
   </varray>
  </structure>
  <varray name="forces" >
   <v>      -0.00000000       0.00000000       0.00000000 </v>
   <v>       0.00000000       0.00000000       0.00000000 </v>
  </varray>
  <varray name="stress" >
   <v>    6208.02905125       0.00000000       0.00000000 </v>
   <v>       0.00000000    6208.02905125       0.00000000 </v>
   <v>       0.00000000      -0.00000000    6428.91444433 </v>
  </varray>
  <energy>
   <i name="e_fr_energy">      5.27466043 </i>
   <i name="e_wo_entrp">      5.27614509 </i>
   <i name="e_0_energy">     -0.00296932 </i>
  </energy>
  <time name="totalsc">   13.95    9.11</time>
 </calculation>
 <calculation>
  <scstep>
   <time name="dav">    1.67    1.10</time>
   <time name="total">    1.72    1.13</time>
   <energy>
    <i name="alphaZ">     11.90173708 </i>
    <i name="ewald">   -373.38667517 </i>
    <i name="hartreedc">     -1.97803743 </i>
    <i name="XCdc">    -10.73575182 </i>
    <i name="pawpsdc">   7983.76191389 </i>
    <i name="pawaedc">  -7949.88774868 </i>
    <i name="eentropy">     -0.00212381 </i>
    <i name="bandstr">    139.46383317 </i>
    <i name="atom">    206.13192747 </i>
    <i name="e_fr_energy">      5.26907471 </i>
    <i name="e_wo_entrp">      5.27119851 </i>
    <i name="e_0_energy">      5.27013661 </i>
   </energy>
  </scstep>
  <scstep>
   <time name="dav">    1.44    0.92</time>
   <time name="total">    1.49    0.96</time>
   <energy>
    <i name="e_fr_energy">      5.27594425 </i>
    <i name="e_wo_entrp">      5.27805707 </i>
    <i name="e_0_energy">      5.27700066 </i>
   </energy>
  </scstep>
  <scstep>
   <time name="dav">    0.99    0.67</time>
   <time name="total">    1.03    0.69</time>
   <energy>
    <i name="e_fr_energy">      5.27862469 </i>
    <i name="e_wo_entrp">      5.28067001 </i>
    <i name="e_0_energy">      5.27964735 </i>
   </energy>
  </scstep>
  <scstep>
   <time name="dav">    1.28    0.85</time>
   <time name="total">    1.32    0.88</time>
   <energy>
    <i name="e_fr_energy">      5.27861540 </i>
    <i name="e_wo_entrp">      5.28066231 </i>
    <i name="e_0_energy">      5.27963885 </i>
   </energy>
  </scstep>
  <scstep>
   <time name="dav">    1.25    0.79</time>
   <time name="total">    1.29    0.81</time>
   <energy>
    <i name="alphaZ">     11.90173708 </i>
    <i name="ewald">   -373.38667517 </i>
    <i name="hartreedc">     -1.97439724 </i>
    <i name="XCdc">    -10.73504225 </i>
    <i name="pawpsdc">   8002.62068066 </i>
    <i name="pawaedc">  -7968.75864165 </i>
    <i name="eentropy">     -0.00204657 </i>
    <i name="bandstr">    139.48107275 </i>
    <i name="atom">    206.13192747 </i>
    <i name="e_fr_energy">      5.27861508 </i>
    <i name="e_wo_entrp">      5.28066165 </i>
    <i name="e_0_energy">      5.27963836 </i>
   </energy>
  </scstep>
  <structure>
   <crystal>
    <varray name="basis" >
     <v>       1.97522564       0.00000000       0.00000000 </v>
     <v>      -0.98761282       1.71059558       0.00000000 </v>
     <v>       0.00000000      -0.00000000       3.34842121 </v>
    </varray>
    <i name="volume">     11.31368659 </i>
    <varray name="rec_basis" >
     <v>       0.50627127       0.29229586       0.00000000 </v>
     <v>       0.00000000       0.58459171       0.00000000 </v>
     <v>       0.00000000       0.00000000       0.29864821 </v>
    </varray>
   </crystal>
   <varray name="positions" >
    <v>      -0.00000000       0.00000000       0.00000000 </v>
    <v>       0.33333333       0.66666667       0.50000000 </v>
   </varray>
  </structure>
  <varray name="forces" >
   <v>       0.00000000      -0.00000000       0.00000000 </v>
   <v>      -0.00000000       0.00000000       0.00000000 </v>
  </varray>
  <varray name="stress" >
   <v>    6434.29421714      -0.00000000      -0.00000000 </v>
   <v>       0.00000000    6434.29421714      -0.00000000 </v>
   <v>       0.00000000       0.00000000    6023.32743854 </v>
  </varray>
  <energy>
   <i name="e_fr_energy">      5.27861508 </i>
   <i name="e_wo_entrp">      5.27963836 </i>
   <i name="e_0_energy">     -0.00204657 </i>
  </energy>
  <time name="totalsc">    7.27    4.72</time>
 </calculation>
 <calculation>
  <scstep>
   <time name="dav">    1.57    0.97</time>
   <time name="total">    1.61    1.00</time>
   <energy>
    <i name="alphaZ">     11.90173708 </i>
    <i name="ewald">   -373.43965145 </i>
    <i name="hartreedc">     -1.97789421 </i>
    <i name="XCdc">    -10.73422710 </i>
    <i name="pawpsdc">   8004.76976680 </i>
    <i name="pawaedc">  -7970.90757610 </i>
    <i name="eentropy">     -0.00283546 </i>
    <i name="bandstr">    139.51948197 </i>
    <i name="atom">    206.13192747 </i>
    <i name="e_fr_energy">      5.26072900 </i>
    <i name="e_wo_entrp">      5.26356446 </i>
    <i name="e_0_energy">      5.26214673 </i>
   </energy>
  </scstep>
  <scstep>
   <time name="dav">    1.59    0.97</time>
   <time name="total">    1.63    1.00</time>
   <energy>
    <i name="e_fr_energy">      5.26194851 </i>
    <i name="e_wo_entrp">      5.26483611 </i>
    <i name="e_0_energy">      5.26339231 </i>
   </energy>
  </scstep>
  <scstep>
   <time name="dav">    1.65    1.02</time>
   <time name="total">    1.70    1.05</time>
   <energy>
    <i name="e_fr_energy">      5.26243210 </i>
    <i name="e_wo_entrp">      5.26537017 </i>
    <i name="e_0_energy">      5.26390114 </i>
   </energy>
  </scstep>
  <scstep>
   <time name="dav">    1.36    0.81</time>
   <time name="total">    1.38    0.83</time>
   <energy>
    <i name="alphaZ">     11.90173708 </i>
    <i name="ewald">   -373.43965145 </i>
    <i name="hartreedc">     -1.97716801 </i>
    <i name="XCdc">    -10.73400796 </i>
    <i name="pawpsdc">   7995.57894296 </i>
    <i name="pawaedc">  -7961.70985331 </i>
    <i name="eentropy">     -0.00293693 </i>
    <i name="bandstr">    139.51344086 </i>
    <i name="atom">    206.13192747 </i>
    <i name="e_fr_energy">      5.26243071 </i>
    <i name="e_wo_entrp">      5.26536764 </i>
    <i name="e_0_energy">      5.26389918 </i>
   </energy>
  </scstep>
  <structure>
   <crystal>
    <varray name="basis" >
     <v>       1.98699489       0.00000000       0.00000000 </v>
     <v>      -0.99349745       1.72078806       0.00000000 </v>
     <v>       0.00000000      -0.00000000       3.30887232 </v>
    </varray>
    <i name="volume">     11.31368659 </i>
    <varray name="rec_basis" >
     <v>       0.50327256       0.29056455       0.00000000 </v>
     <v>       0.00000000       0.58112909       0.00000000 </v>
     <v>       0.00000000       0.00000000       0.30221777 </v>
    </varray>
   </crystal>
   <varray name="positions" >
    <v>      -0.00000000       0.00000000       0.00000000 </v>
    <v>       0.33333333       0.66666667       0.50000000 </v>
   </varray>
  </structure>
  <varray name="forces" >
   <v>      -0.00000000       0.00000000       0.00000000 </v>
   <v>       0.00000000      -0.00000000       0.00000000 </v>
  </varray>
  <varray name="stress" >
   <v>    6278.42705763       0.00000000      -0.00000000 </v>
   <v>       0.00000000    6278.42705763       0.00000000 </v>
   <v>       0.00000000      -0.00000000    6283.76111265 </v>
  </varray>
  <energy>
   <i name="e_fr_energy">      5.26243071 </i>
   <i name="e_wo_entrp">      5.26389918 </i>
   <i name="e_0_energy">     -0.00293693 </i>
  </energy>
  <time name="totalsc">    6.83    4.38</time>
 </calculation>
 <calculation>
  <scstep>
   <time name="dav">    1.21    0.75</time>
   <time name="total">    1.25    0.77</time>
   <energy>
    <i name="alphaZ">     11.90173708 </i>
    <i name="ewald">   -373.43920135 </i>
    <i name="hartreedc">     -1.97682879 </i>
    <i name="XCdc">    -10.73407178 </i>
    <i name="pawpsdc">   7993.71960156 </i>
    <i name="pawaedc">  -7959.85054701 </i>
    <i name="eentropy">     -0.00293046 </i>
    <i name="bandstr">    139.51274065 </i>
    <i name="atom">    206.13192747 </i>
    <i name="e_fr_energy">      5.26242737 </i>
    <i name="e_wo_entrp">      5.26535783 </i>
    <i name="e_0_energy">      5.26389260 </i>
   </energy>
  </scstep>
  <scstep>
   <time name="dav">    0.45    0.29</time>
   <time name="total">    0.48    0.31</time>
   <energy>
    <i name="alphaZ">     11.90173708 </i>
    <i name="ewald">   -373.43920135 </i>
    <i name="hartreedc">     -1.97682049 </i>
    <i name="XCdc">    -10.73407348 </i>
    <i name="pawpsdc">   7993.55619984 </i>
    <i name="pawaedc">  -7959.68718327 </i>
    <i name="eentropy">     -0.00292974 </i>
    <i name="bandstr">    139.51277152 </i>
    <i name="atom">    206.13192747 </i>
    <i name="e_fr_energy">      5.26242757 </i>
    <i name="e_wo_entrp">      5.26535731 </i>
    <i name="e_0_energy">      5.26389244 </i>
   </energy>
  </scstep>
  <structure>
   <crystal>
    <varray name="basis" >
     <v>       1.98684322       0.00000000       0.00000000 </v>
     <v>      -0.99342161       1.72065671       0.00000000 </v>
     <v>       0.00000000      -0.00000000       3.30937752 </v>
    </varray>
    <i name="volume">     11.31368659 </i>
    <varray name="rec_basis" >
     <v>       0.50331097       0.29058673       0.00000000 </v>
     <v>       0.00000000       0.58117345       0.00000000 </v>
     <v>       0.00000000       0.00000000       0.30217163 </v>
    </varray>
   </crystal>
   <varray name="positions" >
    <v>      -0.00000000       0.00000000       0.00000000 </v>
    <v>       0.33333333       0.66666667       0.50000000 </v>
   </varray>
  </structure>
  <varray name="forces" >
   <v>      -0.00000000       0.00000000       0.00000000 </v>
   <v>       0.00000000      -0.00000000       0.00000000 </v>
  </varray>
  <varray name="stress" >
   <v>    6280.12338893       0.00000000       0.00000000 </v>
   <v>       0.00000000    6280.12338893      -0.00000000 </v>
   <v>       0.00000000       0.00000000    6280.67179133 </v>
  </varray>
  <energy>
   <i name="e_fr_energy">      5.26242757 </i>
   <i name="e_wo_entrp">      5.26389244 </i>
   <i name="e_0_energy">     -0.00292974 </i>
  </energy>
  <time name="totalsc">    2.10    1.28</time>
  <eigenvalues>
   <array>
    <dimension dim="1">band</dimension>
    <dimension dim="2">kpoint</dimension>
    <dimension dim="3">spin</dimension>
    <field>eigene</field>
    <field>occ</field>
    <set>
     <set comment="spin 1">
      <set comment="kpoint 1">
       <r>    3.3735    1.0000 </r>
       <r>   13.2441    1.0000 </r>
       <r>   17.9267    1.0000 </r>
       <r>   34.9331    0.0000 </r>
       <r>   37.5002    0.0000 </r>
       <r>   43.1228    0.0000 </r>
       <r>   43.5034    0.0000 </r>
       <r>   44.8874    0.0000 </r>
      </set>
      <set comment="kpoint 2">
       <r>    6.6114    1.0000 </r>
       <r>   16.0800    1.0000 </r>
       <r>   20.1413    1.0000 </r>
       <r>   25.8297    1.0000 </r>
       <r>   31.6516    0.0000 </r>
       <r>   34.6847    0.0000 </r>
       <r>   39.3575    0.0000 </r>
       <r>   41.3457    0.0000 </r>
      </set>
      <set comment="kpoint 3">
       <r>   12.0724    1.0000 </r>
       <r>   15.6359    1.0000 </r>
       <r>   21.5038    1.0000 </r>
       <r>   24.7647    1.0000 </r>
       <r>   25.7909    1.0000 </r>
       <r>   28.4507    0.0000 </r>
       <r>   36.3091    0.0000 </r>
       <r>   39.4400    0.0000 </r>
      </set>
      <set comment="kpoint 4">
       <r>    9.1075    1.0000 </r>
       <r>   17.9225    1.0000 </r>
       <r>   19.7524    1.0000 </r>
       <r>   24.1326    1.0000 </r>
       <r>   28.5267    0.0000 </r>
       <r>   30.9943    0.0000 </r>
       <r>   37.3885    0.0000 </r>
       <r>   40.0658    0.0000 </r>
      </set>
      <set comment="kpoint 5">
       <r>    4.6843    1.0000 </r>
       <r>   14.3907    1.0000 </r>
       <r>   18.9548    1.0000 </r>
       <r>   30.2547    0.0000 </r>
       <r>   34.3449    0.0000 </r>
       <r>   39.3257    0.0000 </r>
       <r>   41.6996    0.0000 </r>
       <r>   43.4975    0.0000 </r>
      </set>
      <set comment="kpoint 6">
       <r>    2.7101    1.0000 </r>
       <r>   12.6672    1.0000 </r>
       <r>   17.3761    1.0000 </r>
       <r>   38.3481    0.0000 </r>
       <r>   41.4823    0.0000 </r>
       <r>   42.3895    0.0000 </r>
       <r>   43.7220    0.0000 </r>
       <r>   46.2569    0.0000 </r>
      </set>
      <set comment="kpoint 7">
       <r>   10.9219    1.0000 </r>
       <r>   19.3062    1.0000 </r>
       <r>   20.9569    1.0000 </r>
       <r>   21.5472    1.0000 </r>
       <r>   27.4523    0.5482 </r>
       <r>   31.2062    0.0000 </r>
       <r>   31.9308    0.0000 </r>
       <r>   38.1234    0.0000 </r>
      </set>
      <set comment="kpoint 8">
       <r>   13.8000    1.0000 </r>
       <r>   17.2611    1.0000 </r>
       <r>   20.1695    1.0000 </r>
       <r>   23.5560    1.0000 </r>
       <r>   26.7773    1.0000 </r>
       <r>   28.6595    0.0000 </r>
       <r>   31.1414    0.0000 </r>
       <r>   36.8260    0.0000 </r>
      </set>
      <set comment="kpoint 9">
       <r>    8.4913    1.0000 </r>
       <r>   17.6941    1.0000 </r>
       <r>   20.8524    1.0000 </r>
       <r>   23.8068    1.0000 </r>
       <r>   28.4467    0.0000 </r>
       <r>   32.7065    0.0000 </r>
       <r>   36.1317    0.0000 </r>
       <r>   39.3563    0.0000 </r>
      </set>
      <set comment="kpoint 10">
       <r>    5.3320    1.0000 </r>
       <r>   14.9583    1.0000 </r>
       <r>   19.3965    1.0000 </r>
       <r>   27.9699    0.0000 </r>
       <r>   34.9045    0.0000 </r>
       <r>   37.6130    0.0000 </r>
       <r>   38.4520    0.0000 </r>
       <r>   45.2517    0.0000 </r>
      </set>
      <set comment="kpoint 11">
       <r>   13.9194    1.0000 </r>
       <r>   15.0044    1.0000 </r>
       <r>   22.7812    1.0000 </r>
       <r>   23.4905    1.0000 </r>
       <r>   25.1969    1.0000 </r>
       <r>   28.1828    0.0000 </r>
       <r>   35.0203    0.0000 </r>
       <r>   35.9527    0.0000 </r>
      </set>
      <set comment="kpoint 12">
       <r>   10.3195    1.0000 </r>
       <r>   17.0366    1.0000 </r>
       <r>   19.9663    1.0000 </r>
       <r>   24.9508    1.0000 </r>
       <r>   26.6601    1.0000 </r>
       <r>   30.2269    0.0000 </r>
       <r>   36.8709    0.0000 </r>
       <r>   42.5866    0.0000 </r>
      </set>
      <set comment="kpoint 13">
       <r>    4.0848    1.0000 </r>
       <r>   10.2055    1.0000 </r>
       <r>   22.0293    1.0000 </r>
       <r>   35.2641    0.0000 </r>
       <r>   37.5787    0.0000 </r>
       <r>   37.9546    0.0000 </r>
       <r>   41.9643    0.0000 </r>
       <r>   43.4597    0.0000 </r>
      </set>
      <set comment="kpoint 14">
       <r>    7.2959    1.0000 </r>
       <r>   13.1712    1.0000 </r>
       <r>   23.3964    1.0000 </r>
       <r>   26.9625    1.0000 </r>
       <r>   30.0463    0.0000 </r>
       <r>   34.7353    0.0000 </r>
       <r>   38.4261    0.0000 </r>
       <r>   41.8579    0.0000 </r>
      </set>
      <set comment="kpoint 15">
       <r>   12.6967    1.0000 </r>
       <r>   15.9741    1.0000 </r>
       <r>   19.1583    1.0000 </r>
       <r>   22.2470    1.0000 </r>
       <r>   28.5143    0.0000 </r>
       <r>   31.6176    0.0000 </r>
       <r>   37.3098    0.0000 </r>
       <r>   37.9723    0.0000 </r>
      </set>
      <set comment="kpoint 16">
       <r>    9.7705    1.0000 </r>
       <r>   15.3722    1.0000 </r>
       <r>   20.6797    1.0000 </r>
       <r>   25.9228    1.0000 </r>
       <r>   27.1635    1.0000 </r>
       <r>   32.9747    0.0000 </r>
       <r>   37.6327    0.0000 </r>
       <r>   39.5826    0.0000 </r>
      </set>
      <set comment="kpoint 17">
       <r>    5.3846    1.0000 </r>
       <r>   11.4080    1.0000 </r>
       <r>   22.9114    1.0000 </r>
       <r>   30.8099    0.0000 </r>
       <r>   33.9389    0.0000 </r>
       <r>   36.7807    0.0000 </r>
       <r>   39.6219    0.0000 </r>
       <r>   42.6610    0.0000 </r>
      </set>
      <set comment="kpoint 18">
       <r>    3.4271    1.0000 </r>
       <r>    9.5974    1.0000 </r>
       <r>   21.5349    1.0000 </r>
       <r>   37.1143    0.0000 </r>
       <r>   39.5196    0.0000 </r>
       <r>   41.8589    0.0000 </r>
       <r>   42.1158    0.0000 </r>
       <r>   45.0660    0.0000 </r>
      </set>
      <set comment="kpoint 19">
       <r>   11.5683    1.0000 </r>
       <r>   16.9509    1.0000 </r>
       <r>   21.4834    1.0000 </r>
       <r>   22.6530    1.0000 </r>
       <r>   27.3258    0.9719 </r>
       <r>   29.5223    0.0000 </r>
       <r>   33.0977    0.0000 </r>
       <r>   41.2087    0.0000 </r>
      </set>
      <set comment="kpoint 20">
       <r>   14.4073    1.0000 </r>
       <r>   17.5741    1.0000 </r>
       <r>   19.7566    1.0000 </r>
       <r>   21.8625    1.0000 </r>
       <r>   25.4931    1.0000 </r>
       <r>   28.2548    0.0000 </r>
       <r>   33.7790    0.0000 </r>
       <r>   39.4327    0.0000 </r>
      </set>
      <set comment="kpoint 21">
       <r>    9.1602    1.0000 </r>
       <r>   14.8717    1.0000 </r>
       <r>   22.9327    1.0000 </r>
       <r>   25.1678    1.0000 </r>
       <r>   28.1103    0.0000 </r>
       <r>   32.0101    0.0000 </r>
       <r>   34.7067    0.0000 </r>
       <r>   42.3533    0.0000 </r>
      </set>
      <set comment="kpoint 22">
       <r>    6.0269    1.0000 </r>
       <r>   12.0014    1.0000 </r>
       <r>   23.1861    1.0000 </r>
       <r>   28.7277    0.0000 </r>
       <r>   32.5662    0.0000 </r>
       <r>   37.7267    0.0000 </r>
       <r>   38.9060    0.0000 </r>
       <r>   43.3349    0.0000 </r>
      </set>
      <set comment="kpoint 23">
       <r>   14.5041    1.0000 </r>
       <r>   15.5330    1.0000 </r>
       <r>   20.7723    1.0000 </r>
       <r>   21.0449    1.0000 </r>
       <r>   26.3902    1.0000 </r>
       <r>   30.7079    0.0000 </r>
       <r>   34.5943    0.0000 </r>
       <r>   38.0013    0.0000 </r>
      </set>
      <set comment="kpoint 24">
       <r>   10.9694    1.0000 </r>
       <r>   16.1273    1.0000 </r>
       <r>   18.9768    1.0000 </r>
       <r>   23.9617    1.0000 </r>
       <r>   28.2954    0.0000 </r>
       <r>   33.3512    0.0000 </r>
       <r>   37.3093    0.0000 </r>
       <r>   41.1068    0.0000 </r>
      </set>
      <set comment="kpoint 25">
       <r>    5.4890    1.0000 </r>
       <r>    7.5497    1.0000 </r>
       <r>   26.8177    1.0000 </r>
       <r>   32.0295    0.0000 </r>
       <r>   36.4471    0.0000 </r>
       <r>   37.2651    0.0000 </r>
       <r>   41.3152    0.0000 </r>
       <r>   42.0183    0.0000 </r>
      </set>
      <set comment="kpoint 26">
       <r>    8.6469    1.0000 </r>
       <r>   10.6272    1.0000 </r>
       <r>   25.9437    1.0000 </r>
       <r>   27.9837    0.0000 </r>
       <r>   29.7744    0.0000 </r>
       <r>   33.2457    0.0000 </r>
       <r>   37.7691    0.0000 </r>
       <r>   39.6688    0.0000 </r>
      </set>
      <set comment="kpoint 27">
       <r>   13.8980    1.0000 </r>
       <r>   15.4307    1.0000 </r>
       <r>   18.5442    1.0000 </r>
       <r>   20.0177    1.0000 </r>
       <r>   31.1038    0.0000 </r>
       <r>   32.9669    0.0000 </r>
       <r>   37.9530    0.0000 </r>
       <r>   39.7584    0.0000 </r>
      </set>
      <set comment="kpoint 28">
       <r>   11.0762    1.0000 </r>
       <r>   12.9779    1.0000 </r>
       <r>   21.9645    1.0000 </r>
       <r>   23.7533    1.0000 </r>
       <r>   30.5072    0.0000 </r>
       <r>   33.1489    0.0000 </r>
       <r>   37.3640    0.0000 </r>
       <r>   39.9658    0.0000 </r>
      </set>
      <set comment="kpoint 29">
       <r>    6.7672    1.0000 </r>
       <r>    8.7958    1.0000 </r>
       <r>   27.4156    0.7387 </r>
       <r>   31.6865    0.0000 </r>
       <r>   32.0855    0.0000 </r>
       <r>   33.5494    0.0000 </r>
       <r>   39.1509    0.0000 </r>
       <r>   40.4195    0.0000 </r>
      </set>
      <set comment="kpoint 30">
       <r>    4.8423    1.0000 </r>
       <r>    6.9195    1.0000 </r>
       <r>   26.4023    1.0000 </r>
       <r>   31.7514    0.0000 </r>
       <r>   39.9684    0.0000 </r>
       <r>   41.0130    0.0000 </r>
       <r>   42.6128    0.0000 </r>
       <r>   43.7187    0.0000 </r>
      </set>
      <set comment="kpoint 31">
       <r>   12.8381    1.0000 </r>
       <r>   14.6748    1.0000 </r>
       <r>   22.3959    1.0000 </r>
       <r>   23.0921    1.0000 </r>
       <r>   26.7206    1.0000 </r>
       <r>   27.6595    0.0025 </r>
       <r>   36.9107    0.0000 </r>
       <r>   41.8294    0.0000 </r>
      </set>
      <set comment="kpoint 32">
       <r>   15.5694    1.0000 </r>
       <r>   17.0355    1.0000 </r>
       <r>   19.6294    1.0000 </r>
       <r>   20.6813    1.0000 </r>
       <r>   25.3035    1.0000 </r>
       <r>   26.4780    1.0000 </r>
       <r>   38.5707    0.0000 </r>
       <r>   43.3304    0.0000 </r>
      </set>
      <set comment="kpoint 33">
       <r>   10.4791    1.0000 </r>
       <r>   12.4075    1.0000 </r>
       <r>   24.3640    1.0000 </r>
       <r>   25.6965    1.0000 </r>
       <r>   28.5121    0.0000 </r>
       <r>   30.5039    0.0000 </r>
       <r>   36.1582    0.0000 </r>
       <r>   40.0584    0.0000 </r>
      </set>
      <set comment="kpoint 34">
       <r>    7.3989    1.0000 </r>
       <r>    9.4114    1.0000 </r>
       <r>   27.0917    1.0000 </r>
       <r>   29.9826    0.0000 </r>
       <r>   30.6856    0.0000 </r>
       <r>   34.0984    0.0000 </r>
       <r>   39.8239    0.0000 </r>
       <r>   41.2159    0.0000 </r>
      </set>
      <set comment="kpoint 35">
       <r>   15.5599    1.0000 </r>
       <r>   16.1994    1.0000 </r>
       <r>   18.8432    1.0000 </r>
       <r>   19.2870    1.0000 </r>
       <r>   27.8840    0.0000 </r>
       <r>   29.6471    0.0000 </r>
       <r>   38.3508    0.0000 </r>
       <r>   41.2476    0.0000 </r>
      </set>
      <set comment="kpoint 36">
       <r>   12.2436    1.0000 </r>
       <r>   14.0670    1.0000 </r>
       <r>   19.8839    1.0000 </r>
       <r>   21.6421    1.0000 </r>
       <r>   32.1008    0.0000 </r>
       <r>   34.8818    0.0000 </r>
       <r>   38.1865    0.0000 </r>
       <r>   39.4852    0.0000 </r>
      </set>
     </set>
    </set>
   </array>
  </eigenvalues>
  <separator name="orbital magnetization" >
   <v name="MAGDIPOLOUT">      0.00000000      0.00000000      0.00000000</v>
  </separator>
  <dos>
   <i name="efermi">     27.46084926 </i>
   <total>
    <array>
     <dimension dim="1">gridpoints</dimension>
     <dimension dim="2">spin</dimension>
     <field>energy</field>
     <field>total</field>
     <field>integrated</field>
     <set>
      <set comment="spin 1">
       <r>     0.5327     0.0000     0.0000 </r>
       <r>     0.6924     0.0000     0.0000 </r>
       <r>     0.8521     0.0000     0.0000 </r>
       <r>     1.0118     0.0000     0.0000 </r>
       <r>     1.1714     0.0000     0.0000 </r>
       <r>     1.3311     0.0000     0.0000 </r>
       <r>     1.4908     0.0000     0.0000 </r>
       <r>     1.6504     0.0000     0.0000 </r>
       <r>     1.8101     0.0000     0.0000 </r>
       <r>     1.9698     0.0000     0.0000 </r>
       <r>     2.1295     0.0000     0.0000 </r>
       <r>     2.2891     0.0000     0.0000 </r>
       <r>     2.4488     0.0000     0.0000 </r>
       <r>     2.6085     0.0175     0.0028 </r>
       <r>     2.7682     0.1667     0.0294 </r>
       <r>     2.9278     0.0475     0.0370 </r>
       <r>     3.0875     0.0002     0.0370 </r>
       <r>     3.2472     0.0098     0.0386 </r>
       <r>     3.4068     0.2381     0.0766 </r>
       <r>     3.5665     0.2096     0.1101 </r>
       <r>     3.7262     0.0064     0.1111 </r>
       <r>     3.8859     0.0006     0.1112 </r>
       <r>     4.0455     0.0665     0.1218 </r>
       <r>     4.2052     0.1546     0.1465 </r>
       <r>     4.3649     0.0103     0.1481 </r>
       <r>     4.5245     0.0055     0.1490 </r>
       <r>     4.6842     0.2290     0.1856 </r>
       <r>     4.8439     0.3418     0.2402 </r>
       <r>     5.0036     0.1169     0.2588 </r>
       <r>     5.1632     0.0050     0.2596 </r>
       <r>     5.3229     0.1927     0.2904 </r>
       <r>     5.4826     0.5660     0.3808 </r>
       <r>     5.6422     0.1632     0.4068 </r>
       <r>     5.8019     0.0037     0.4074 </r>
       <r>     5.9616     0.0411     0.4140 </r>
       <r>     6.1213     0.1696     0.4411 </r>
       <r>     6.2809     0.0211     0.4444 </r>
       <r>     6.4406     0.0037     0.4450 </r>
       <r>     6.6003     0.2034     0.4775 </r>
       <r>     6.7599     0.4644     0.5517 </r>
       <r>     6.9196     0.3653     0.6100 </r>
       <r>     7.0793     0.1207     0.6293 </r>
       <r>     7.2390     0.1025     0.6456 </r>
       <r>     7.3986     0.4491     0.7173 </r>
       <r>     7.5583     0.2708     0.7606 </r>
       <r>     7.7180     0.1056     0.7775 </r>
       <r>     7.8776     0.0020     0.7778 </r>
       <r>     8.0373     0.0000     0.7778 </r>
       <r>     8.1970     0.0000     0.7778 </r>
       <r>     8.3567     0.0132     0.7799 </r>
       <r>     8.5163     0.2979     0.8275 </r>
       <r>     8.6760     0.4778     0.9037 </r>
       <r>     8.8357     0.4682     0.9785 </r>
       <r>     8.9953     0.1642     1.0047 </r>
       <r>     9.1550     0.5364     1.0904 </r>
       <r>     9.3147     0.3742     1.1501 </r>
       <r>     9.4744     0.1857     1.1798 </r>
       <r>     9.6340     0.2079     1.2130 </r>
       <r>     9.7937     0.3490     1.2687 </r>
       <r>     9.9534     0.1706     1.2959 </r>
       <r>    10.1130     0.0248     1.2999 </r>
       <r>    10.2727     0.2295     1.3365 </r>
       <r>    10.4324     0.3184     1.3874 </r>
       <r>    10.5921     0.4756     1.4633 </r>
       <r>    10.7517     0.3297     1.5160 </r>
       <r>    10.9114     0.1706     1.5432 </r>
       <r>    11.0711     0.5064     1.6240 </r>
       <r>    11.2307     0.2630     1.6660 </r>
       <r>    11.3904     0.1917     1.6967 </r>
       <r>    11.5501     0.3581     1.7538 </r>
       <r>    11.7098     0.1446     1.7769 </r>
       <r>    11.8694     0.0134     1.7791 </r>
       <r>    12.0291     0.2688     1.8220 </r>
       <r>    12.1888     0.4461     1.8932 </r>
       <r>    12.3484     0.2823     1.9383 </r>
       <r>    12.5081     0.3551     1.9950 </r>
       <r>    12.6678     0.3083     2.0442 </r>
       <r>    12.8275     0.5112     2.1258 </r>
       <r>    12.9871     0.3938     2.1887 </r>
       <r>    13.1468     0.3948     2.2518 </r>
       <r>    13.3065     0.4542     2.3243 </r>
       <r>    13.4661     0.0565     2.3333 </r>
       <r>    13.6258     0.0034     2.3338 </r>
       <r>    13.7855     0.2237     2.3696 </r>
       <r>    13.9452     0.7333     2.4867 </r>
       <r>    14.1048     0.3610     2.5443 </r>
       <r>    14.2645     0.0973     2.5598 </r>
       <r>    14.4242     0.5953     2.6549 </r>
       <r>    14.5838     0.5263     2.7389 </r>
       <r>    14.7435     0.2214     2.7743 </r>
       <r>    14.9032     0.4018     2.8384 </r>
       <r>    15.0629     0.4829     2.9155 </r>
       <r>    15.2225     0.0736     2.9273 </r>
       <r>    15.3822     0.3712     2.9866 </r>
       <r>    15.5419     0.9421     3.1370 </r>
       <r>    15.7015     0.8944     3.2798 </r>
       <r>    15.8612     0.1292     3.3004 </r>
       <r>    16.0209     0.4306     3.3692 </r>
       <r>    16.1806     0.7061     3.4819 </r>
       <r>    16.3402     0.2236     3.5176 </r>
       <r>    16.4999     0.0057     3.5185 </r>
       <r>    16.6596     0.0000     3.5185 </r>
       <r>    16.8193     0.0080     3.5198 </r>
       <r>    16.9789     0.2901     3.5661 </r>
       <r>    17.1386     0.5973     3.6615 </r>
       <r>    17.2983     0.3888     3.7236 </r>
       <r>    17.4579     0.3330     3.7767 </r>
       <r>    17.6176     0.4102     3.8422 </r>
       <r>    17.7773     0.4809     3.9190 </r>
       <r>    17.9370     0.4420     3.9896 </r>
       <r>    18.0966     0.2921     4.0362 </r>
       <r>    18.2563     0.0051     4.0370 </r>
       <r>    18.4160     0.0162     4.0396 </r>
       <r>    18.5756     0.2955     4.0868 </r>
       <r>    18.7353     0.1659     4.1133 </r>
       <r>    18.8950     0.2854     4.1589 </r>
       <r>    19.0547     0.5937     4.2537 </r>
       <r>    19.2143     0.4584     4.3269 </r>
       <r>    19.3740     0.5264     4.4109 </r>
       <r>    19.5337     0.2453     4.4501 </r>
       <r>    19.6933     0.5243     4.5338 </r>
       <r>    19.8530     0.8499     4.6695 </r>
       <r>    20.0127     0.6197     4.7685 </r>
       <r>    20.1724     0.8332     4.9015 </r>
       <r>    20.3320     0.3784     4.9619 </r>
       <r>    20.4917     0.0102     4.9635 </r>
       <r>    20.6514     0.3233     5.0152 </r>
       <r>    20.8110     0.8694     5.1540 </r>
       <r>    20.9707     0.5731     5.2455 </r>
       <r>    21.1304     0.2903     5.2918 </r>
       <r>    21.2901     0.0293     5.2965 </r>
       <r>    21.4497     0.2220     5.3320 </r>
       <r>    21.6094     0.8933     5.4746 </r>
       <r>    21.7691     0.3109     5.5242 </r>
       <r>    21.9287     0.5074     5.6053 </r>
       <r>    22.0884     0.5568     5.6942 </r>
       <r>    22.2481     0.2986     5.7418 </r>
       <r>    22.4078     0.3512     5.7979 </r>
       <r>    22.5674     0.1305     5.8188 </r>
       <r>    22.7271     0.2275     5.8551 </r>
       <r>    22.8868     0.4849     5.9325 </r>
       <r>    23.0464     0.6823     6.0415 </r>
       <r>    23.2061     0.3353     6.0950 </r>
       <r>    23.3658     0.2645     6.1372 </r>
       <r>    23.5255     0.5992     6.2329 </r>
       <r>    23.6851     0.4781     6.3092 </r>
       <r>    23.8448     0.6756     6.4171 </r>
       <r>    24.0045     0.3548     6.4738 </r>
       <r>    24.1641     0.3608     6.5314 </r>
       <r>    24.3238     0.2820     6.5764 </r>
       <r>    24.4835     0.3122     6.6263 </r>
       <r>    24.6432     0.0409     6.6328 </r>
       <r>    24.8028     0.3115     6.6825 </r>
       <r>    24.9625     0.2636     6.7246 </r>
       <r>    25.1222     0.2556     6.7654 </r>
       <r>    25.2818     0.6666     6.8719 </r>
       <r>    25.4415     0.4349     6.9413 </r>
       <r>    25.6012     0.3815     7.0022 </r>
       <r>    25.7609     0.6054     7.0989 </r>
       <r>    25.9205     1.1088     7.2759 </r>
       <r>    26.0802     0.5729     7.3674 </r>
       <r>    26.2399     0.0251     7.3714 </r>
       <r>    26.3995     0.2959     7.4187 </r>
       <r>    26.5592     0.5830     7.5118 </r>
       <r>    26.7189     0.4546     7.5843 </r>
       <r>    26.8786     0.7188     7.6991 </r>
       <r>    27.0382     0.4964     7.7784 </r>
       <r>    27.1979     0.5399     7.8646 </r>
       <r>    27.3576     0.4234     7.9322 </r>
       <r>    27.5172     0.5845     8.0255 </r>
       <r>    27.6769     0.2109     8.0592 </r>
       <r>    27.8366     0.1657     8.0856 </r>
       <r>    27.9963     0.5866     8.1793 </r>
       <r>    28.1559     0.7328     8.2963 </r>
       <r>    28.3156     0.7703     8.4193 </r>
       <r>    28.4753     1.1403     8.6014 </r>
       <r>    28.6349     1.4549     8.8337 </r>
       <r>    28.7946     0.5247     8.9175 </r>
       <r>    28.9543     0.0528     8.9259 </r>
       <r>    29.1140     0.0002     8.9259 </r>
       <r>    29.2736     0.0001     8.9259 </r>
       <r>    29.4333     0.0244     8.9298 </r>
       <r>    29.5930     0.2246     8.9657 </r>
       <r>    29.7526     0.3751     9.0256 </r>
       <r>    29.9123     0.3425     9.0803 </r>
       <r>    30.0720     0.4727     9.1557 </r>
       <r>    30.2317     0.4774     9.2320 </r>
       <r>    30.3913     0.4377     9.3018 </r>
       <r>    30.5510     0.6615     9.4075 </r>
       <r>    30.7107     0.5348     9.4929 </r>
       <r>    30.8704     0.5488     9.5805 </r>
       <r>    31.0300     0.4941     9.6594 </r>
       <r>    31.1897     0.8999     9.8031 </r>
       <r>    31.3494     0.2998     9.8509 </r>
       <r>    31.5090     0.0478     9.8586 </r>
       <r>    31.6687     0.8035     9.9868 </r>
       <r>    31.8284     0.7524    10.1070 </r>
       <r>    31.9881     0.5011    10.1870 </r>
       <r>    32.1477     0.9787    10.3433 </r>
       <r>    32.3074     0.1690    10.3702 </r>
       <r>    32.4671     0.0196    10.3734 </r>
       <r>    32.6267     0.2279    10.4098 </r>
       <r>    32.7864     0.3933    10.4726 </r>
       <r>    32.9461     0.3976    10.5361 </r>
       <r>    33.1058     0.8230    10.6675 </r>
       <r>    33.2654     0.7429    10.7861 </r>
       <r>    33.4251     0.3933    10.8489 </r>
       <r>    33.5848     0.3408    10.9033 </r>
       <r>    33.7444     0.2868    10.9491 </r>
       <r>    33.9041     0.4461    11.0203 </r>
       <r>    34.0638     0.3911    11.0828 </r>
       <r>    34.2235     0.1885    11.1129 </r>
       <r>    34.3831     0.3168    11.1634 </r>
       <r>    34.5428     0.2057    11.1963 </r>
       <r>    34.7025     0.7977    11.3237 </r>
       <r>    34.8621     0.9240    11.4712 </r>
       <r>    35.0218     0.6053    11.5678 </r>
       <r>    35.1815     0.1805    11.5967 </r>
       <r>    35.3412     0.1745    11.6245 </r>
       <r>    35.5008     0.0319    11.6296 </r>
       <r>    35.6605     0.0001    11.6296 </r>
       <r>    35.8202     0.0071    11.6308 </r>
       <r>    35.9798     0.1536    11.6553 </r>
       <r>    36.1395     0.5101    11.7367 </r>
       <r>    36.2992     0.6843    11.8460 </r>
       <r>    36.4589     0.3919    11.9086 </r>
       <r>    36.6185     0.1127    11.9266 </r>
       <r>    36.7782     0.3662    11.9851 </r>
       <r>    36.9379     0.8694    12.1239 </r>
       <r>    37.0975     0.2482    12.1635 </r>
       <r>    37.2572     0.4411    12.2339 </r>
       <r>    37.4169     1.2680    12.4364 </r>
       <r>    37.5766     0.7674    12.5589 </r>
       <r>    37.7362     0.9074    12.7038 </r>
       <r>    37.8959     0.6698    12.8107 </r>
       <r>    38.0556     1.0733    12.9821 </r>
       <r>    38.2152     0.4877    13.0600 </r>
       <r>    38.3749     0.5266    13.1441 </r>
       <r>    38.5346     0.8036    13.2724 </r>
       <r>    38.6943     0.3633    13.3304 </r>
       <r>    38.8539     0.0720    13.3419 </r>
       <r>    39.0136     0.1757    13.3699 </r>
       <r>    39.1733     0.3040    13.4185 </r>
       <r>    39.3329     0.8237    13.5500 </r>
       <r>    39.4926     1.7037    13.8220 </r>
       <r>    39.6523     1.3281    14.0341 </r>
       <r>    39.8120     0.9408    14.1843 </r>
       <r>    39.9716     0.6934    14.2950 </r>
       <r>    40.1313     1.0085    14.4561 </r>
       <r>    40.2910     0.1747    14.4840 </r>
       <r>    40.4506     0.2955    14.5311 </r>
       <r>    40.6103     0.1513    14.5553 </r>
       <r>    40.7700     0.0017    14.5556 </r>
       <r>    40.9297     0.0290    14.5602 </r>
       <r>    41.0893     0.2860    14.6059 </r>
       <r>    41.2490     0.6656    14.7121 </r>
       <r>    41.4087     0.7973    14.8395 </r>
       <r>    41.5683     0.2979    14.8870 </r>
       <r>    41.7280     0.3564    14.9439 </r>
       <r>    41.8877     0.8022    15.0720 </r>
       <r>    42.0474     0.6377    15.1738 </r>
       <r>    42.2070     0.2893    15.2200 </r>
       <r>    42.3667     0.3675    15.2787 </r>
       <r>    42.5264     0.4173    15.3453 </r>
       <r>    42.6860     0.6315    15.4462 </r>
       <r>    42.8457     0.2189    15.4811 </r>
       <r>    43.0054     0.0134    15.4833 </r>
       <r>    43.1651     0.1633    15.5094 </r>
       <r>    43.3247     0.3881    15.5713 </r>
       <r>    43.4844     0.7916    15.6977 </r>
       <r>    43.6441     0.5513    15.7857 </r>
       <r>    43.8037     0.3588    15.8430 </r>
       <r>    43.9634     0.0552    15.8518 </r>
       <r>    44.1231     0.0001    15.8519 </r>
       <r>    44.2828     0.0000    15.8519 </r>
       <r>    44.4424     0.0000    15.8519 </r>
       <r>    44.6021     0.0000    15.8519 </r>
       <r>    44.7618     0.0088    15.8533 </r>
       <r>    44.9215     0.1548    15.8780 </r>
       <r>    45.0811     0.2051    15.9107 </r>
       <r>    45.2408     0.1954    15.9419 </r>
       <r>    45.4005     0.1276    15.9623 </r>
       <r>    45.5601     0.0041    15.9630 </r>
       <r>    45.7198     0.0000    15.9630 </r>
       <r>    45.8795     0.0000    15.9630 </r>
       <r>    46.0392     0.0002    15.9630 </r>
       <r>    46.1988     0.0475    15.9706 </r>
       <r>    46.3585     0.1667    15.9972 </r>
       <r>    46.5182     0.0175    16.0000 </r>
       <r>    46.6778     0.0000    16.0000 </r>
       <r>    46.8375     0.0000    16.0000 </r>
       <r>    46.9972     0.0000    16.0000 </r>
       <r>    47.1569     0.0000    16.0000 </r>
       <r>    47.3165     0.0000    16.0000 </r>
       <r>    47.4762     0.0000    16.0000 </r>
       <r>    47.6359     0.0000    16.0000 </r>
       <r>    47.7955     0.0000    16.0000 </r>
       <r>    47.9552     0.0000    16.0000 </r>
       <r>    48.1149     0.0000    16.0000 </r>
       <r>    48.2746     0.0000    16.0000 </r>
       <r>    48.4342     0.0000    16.0000 </r>
      </set>
     </set>
    </array>
   </total>
  </dos>
 </calculation>
 <structure name="finalpos" >
  <crystal>
   <varray name="basis" >
    <v>       1.98684322       0.00000000       0.00000000 </v>
    <v>      -0.99342161       1.72065671       0.00000000 </v>
    <v>       0.00000000      -0.00000000       3.30937752 </v>
   </varray>
   <i name="volume">     11.31368659 </i>
   <varray name="rec_basis" >
    <v>       0.50331097       0.29058673       0.00000000 </v>
    <v>       0.00000000       0.58117345       0.00000000 </v>
    <v>       0.00000000       0.00000000       0.30217163 </v>
   </varray>
  </crystal>
  <varray name="positions" >
   <v>      -0.00000000       0.00000000       0.00000000 </v>
   <v>       0.33333333       0.66666667       0.50000000 </v>
  </varray>
 </structure>
</modeling>
