Fe BCC                                  
   2.50000000000000     
    -0.500000    0.500000    0.500000
     0.500000   -0.500000    0.500000
     0.500000    0.500000   -0.500000
   Fe
     1
Direct
  0.000000  0.000000  0.000000
 
   28   28   28
  65.672      64.129      59.731      53.104      45.107      36.637      28.473      21.196      15.179      10.602    
  7.4752      5.6413      4.7929      4.5206      4.4538      4.5206      4.7929      5.6413      7.4752      10.602    
  15.179      21.196      28.473      36.637      45.107      53.104      59.731      64.129      64.129      63.620    
  60.191      54.340      46.853      38.617      30.448      22.985      16.662      11.716      8.2096      6.0395    
  4.9451      4.5464      4.4349      4.4575      4.6287      5.2126      6.6285      9.2234      13.208      18.630    
  25.371      33.129      41.403      49.486      56.524      61.641      59.731      60.191      57.835      53.010    
  46.385      38.784      31.012      23.738      17.434      12.386      8.7030      6.3296      5.0550      4.5392    
  4.3806      4.3590      4.4676      4.8215      5.8035      7.7857      11.028      15.638      21.561      28.570    
  36.252      43.997      51.033      56.524      53.104      54.340      53.010      49.314      43.778      37.119    
  30.090      23.346      17.379      12.504      8.8646      6.4485      5.0911      4.4980      4.2970      4.2349    
  4.3009      4.5063      5.1064      6.4769      8.9161      12.590      17.509      23.523      30.305      37.352    
  43.997      49.486      45.107      46.853      46.385      43.778      39.411      33.873      27.826      21.879    
  16.513      12.052      8.6639      6.3658      5.0345      4.4208      4.1926      4.0972      4.1219      4.2621    
  4.5910      5.4299      7.0978      9.8108      13.646      18.525      24.212      30.305      36.252      41.403    
  36.637      38.617      38.784      37.119      33.873      29.500      24.551      19.563      14.980      11.113    
  8.1384      6.0931      4.8862      4.3101      4.0760      3.9570      3.9452      4.0455      4.2464      4.6986    
  5.7104      7.5331      10.303      14.018      18.525      23.523      28.570      33.129      28.473      30.448    
  31.012      30.090      27.826      24.551      20.702      16.726      13.011      9.8402      7.3807      5.6795    
  4.6683      4.1753      3.9543      3.8230      3.7835      3.8451      4.0007      4.2507      4.7874      5.8725    
  7.6892      10.303      13.646      17.509      21.561      25.371      21.196      22.985      23.738      23.346    
  21.879      19.563      16.726      13.723      10.874      8.4221      6.5144      5.1970      4.4166      4.0304    
  3.8330      3.7004      3.6440      3.6735      3.7887      3.9787      4.2592      4.8216      5.8725      7.5331    
  9.8108      12.590      15.638      18.630      15.179      16.662      17.434      17.379      16.513      14.980    
  13.011      10.874      8.8195      7.0429      5.6644      4.7215      4.1693      3.8885      3.7157      3.5915    
  3.5294      3.5367      3.6159      3.7644      3.9723      4.2592      4.7874      5.7104      7.0978      8.9161    
  11.028      13.208      10.602      11.716      12.386      12.504      12.052      11.113      9.8402      8.4221    
  7.0429      5.8493      4.9313      4.3138      3.9556      3.7555      3.6055      3.4972      3.4392      3.4355    
  3.4882      3.5984      3.7644      3.9787      4.2507      4.6986      5.4299      6.4769      7.7857      9.2234    
  7.4752      8.2096      8.7030      8.8646      8.6639      8.1384      7.3807      6.5144      5.6644      4.9313    
  4.3752      4.0066      3.7853      3.6305      3.5058      3.4185      3.3723      3.3681      3.4062      3.4882    
  3.6159      3.7887      4.0007      4.2464      4.5910      5.1064      5.8035      6.6285      5.6413      6.0395    
  6.3296      6.4485      6.3658      6.0931      5.6795      5.1970      4.7215      4.3138      4.0066      3.7968    
  3.6450      3.5180      3.4208      3.3575      3.3285      3.3325      3.3681      3.4355      3.5367      3.6735    
  3.8451      4.0455      4.2621      4.5063      4.8215      5.2126      4.7929      4.9451      5.0550      5.0911    
  5.0345      4.8862      4.6683      4.4166      4.1693      3.9556      3.7853      3.6450      3.5225      3.4242    
  3.3551      3.3172      3.3092      3.3285      3.3723      3.4392      3.5294      3.6440      3.7835      3.9452    
  4.1219      4.3009      4.4676      4.6287      4.5206      4.5464      4.5392      4.4980      4.4208      4.3101    
  4.1753      4.0304      3.8885      3.7555      3.6305      3.5180      3.4242      3.3548      3.3135      3.3014    
  3.3172      3.3575      3.4185      3.4972      3.5915      3.7004      3.8230      3.9570      4.0972      4.2349    
  4.3590      4.4575      4.4538      4.4349      4.3806      4.2970      4.1926      4.0760      3.9543      3.8330    
  3.7157      3.6055      3.5058      3.4208      3.3551      3.3135      3.2992      3.3135      3.3551      3.4208    
  3.5058      3.6055      3.7157      3.8330      3.9543      4.0760      4.1926      4.2970      4.3806      4.4349    
  4.5206      4.4575      4.3590      4.2349      4.0972      3.9570      3.8230      3.7004      3.5915      3.4972    
  3.4185      3.3575      3.3172      3.3014      3.3135      3.3548      3.4242      3.5180      3.6305      3.7555    
  3.8885      4.0304      4.1753      4.3101      4.4208      4.4980      4.5392      4.5464      4.7929      4.6287    
  4.4676      4.3009      4.1219      3.9452      3.7835      3.6440      3.5294      3.4392      3.3723      3.3285    
  3.3092      3.3172      3.3551      3.4242      3.5225      3.6450      3.7853      3.9556      4.1693      4.4166    
  4.6683      4.8862      5.0345      5.0911      5.0550      4.9451      5.6413      5.2126      4.8215      4.5063    
  4.2621      4.0455      3.8451      3.6735      3.5367      3.4355      3.3681      3.3325      3.3285      3.3575    
  3.4208      3.5180      3.6450      3.7968      4.0066      4.3138      4.7215      5.1970      5.6795      6.0931    
  6.3658      6.4485      6.3296      6.0395      7.4752      6.6285      5.8035      5.1064      4.5910      4.2464    
  4.0007      3.7887      3.6159      3.4882      3.4062      3.3681      3.3723      3.4185      3.5058      3.6305    
  3.7853      4.0066      4.3752      4.9313      5.6644      6.5144      7.3807      8.1384      8.6639      8.8646    
  8.7030      8.2096      10.602      9.2234      7.7857      6.4769      5.4299      4.6986      4.2507      3.9787    
  3.7644      3.5984      3.4882      3.4355      3.4392      3.4972      3.6055      3.7555      3.9556      4.3138    
  4.9313      5.8493      7.0429      8.4221      9.8402      11.113      12.052      12.504      12.386      11.716    
  15.179      13.208      11.028      8.9161      7.0978      5.7104      4.7874      4.2592      3.9723      3.7644    
  3.6159      3.5367      3.5294      3.5915      3.7157      3.8885      4.1693      4.7215      5.6644      7.0429    
  8.8195      10.874      13.011      14.980      16.513      17.379      17.434      16.662      21.196      18.630    
  15.638      12.590      9.8108      7.5331      5.8725      4.8216      4.2592      3.9787      3.7887      3.6735    
  3.6440      3.7004      3.8330      4.0304      4.4166      5.1970      6.5144      8.4221      10.874      13.723    
  16.726      19.563      21.879      23.346      23.738      22.985      28.473      25.371      21.561      17.509    
  13.646      10.303      7.6892      5.8725      4.7874      4.2507      4.0007      3.8451      3.7835      3.8230    
  3.9543      4.1753      4.6683      5.6795      7.3807      9.8402      13.011      16.726      20.702      24.551    
  27.826      30.090      31.012      30.448      36.637      33.129      28.570      23.523      18.525      14.018    
  10.303      7.5331      5.7104      4.6986      4.2464      4.0455      3.9452      3.9570      4.0760      4.3101    
  4.8862      6.0931      8.1384      11.113      14.980      19.563      24.551      29.500      33.873      37.119    
  38.784      38.617      45.107      41.403      36.252      30.305      24.212      18.525      13.646      9.8108    
  7.0978      5.4299      4.5910      4.2621      4.1219      4.0972      4.1926      4.4208      5.0345      6.3658    
  8.6639      12.052      16.513      21.879      27.826      33.873      39.411      43.778      46.385      46.853    
  53.104      49.486      43.997      37.352      30.305      23.523      17.509      12.590      8.9161      6.4769    
  5.1064      4.5063      4.3009      4.2349      4.2970      4.4980      5.0911      6.4485      8.8646      12.504    
  17.379      23.346      30.090      37.119      43.778      49.314      53.010      54.340      59.731      56.524    
  51.033      43.997      36.252      28.570      21.561      15.638      11.028      7.7857      5.8035      4.8215    
  4.4676      4.3590      4.3806      4.5392      5.0550      6.3296      8.7030      12.386      17.434      23.738    
  31.012      38.784      46.385      53.010      57.835      60.191      64.129      61.641      56.524      49.486    
  41.403      33.129      25.371      18.630      13.208      9.2234      6.6285      5.2126      4.6287      4.4575    
  4.4349      4.5464      4.9451      6.0395      8.2096      11.716      16.662      22.985      30.448      38.617    
  46.853      54.340      60.191      63.620      64.129      63.620      60.191      54.340      46.853      38.617    
  30.448      22.985      16.662      11.716      8.2096      6.0395      4.9451      4.5464      4.4349      4.4575    
  4.6287      5.2126      6.6285      9.2234      13.208      18.630      25.371      33.129      41.403      49.486    
  56.524      61.641      63.620      64.129      61.641      56.524      49.486      41.403      33.129      25.371    
  18.630      13.208      9.2234      6.6285      5.2126      4.6287      4.4575      4.4349      4.5464      4.9451    
  6.0395      8.2096      11.716      16.662      22.985      30.448      38.617      46.853      54.340      60.191    
  60.191      61.641      60.191      56.057      49.826      42.307      34.344      26.676      19.855      14.233    
  9.9832      7.1058      5.4413      4.6861      4.4422      4.3761      4.4422      4.6861      5.4413      7.1058    
  9.9832      14.233      19.855      26.676      34.344      42.307      49.826      56.057      54.340      56.524    
  56.057      53.010      47.825      41.198      33.918      26.712      20.153      14.632      10.359      7.3790    
  5.5801      4.7050      4.3919      4.2871      4.3097      4.4610      4.9197      6.0708      8.2491      11.667    
  16.386      22.303      29.147      36.460      43.608      49.826      46.853      49.486      49.826      47.825    
  43.778      38.246      31.921      25.480      19.487      14.343      10.285      7.3920      5.5914      4.6717    
  4.3137      4.1769      4.1582      4.2625      4.5201      5.2231      6.7185      9.2629      12.978      17.831    
  23.630      30.015      36.460      42.307      38.617      41.403      42.307      41.198      38.246      33.873    
  28.650      23.174      17.967      13.420      9.7780      7.1395      5.4639      4.5804      4.2139      4.0553    
  4.0016      4.0653      4.2349      4.6164      5.5262      7.2480      9.9575      13.692      18.339      23.630    
  29.147      34.344      30.448      33.129      34.344      33.918      31.921      28.650      24.551      20.124    
  15.826      12.015      8.9269      6.6673      5.2169      4.4386      4.0990      3.9308      3.8517      3.8779    
  4.0069      4.2301      4.7159      5.7488      7.5445      10.204      13.692      17.831      22.303      26.676    
  22.985      25.371      26.676      26.712      25.480      23.174      20.124      16.726      13.361      10.340    
  7.8717      6.0591      4.8939      4.2651      3.9765      3.8096      3.7162      3.7127      3.8023      3.9753    
  4.2376      4.7784      5.8303      7.5445      9.9575      12.978      16.386      19.855      16.662      18.630    
  19.855      20.153      19.487      17.967      15.826      13.361      10.874      8.6172      6.7679      5.4134    
  4.5493      4.0839      3.8528      3.6954      3.5989      3.5761      3.6318      3.7639      3.9621      4.2424    
  4.7784      5.7488      7.2480      9.2629      11.667      14.233      11.716      13.208      14.233      14.632    
  14.343      13.420      12.015      10.340      8.6172      7.0429      5.7547      4.8205      4.2335      3.9156    
  3.7313      3.5906      3.5007      3.4697      3.5010      3.5960      3.7525      3.9621      4.2376      4.7159    
  5.5262      6.7185      8.2491      9.9832      8.2096      9.2234      9.9832      10.359      10.285      9.7780    
  8.9269      7.8717      6.7679      5.7547      4.9313      4.3435      3.9788      3.7690      3.6157      3.4971    
  3.4213      3.3918      3.4102      3.4778      3.5960      3.7639      3.9753      4.2301      4.6164      5.2231    
  6.0708      7.1058      6.0395      6.6285      7.1058      7.3790      7.3920      7.1395      6.6673      6.0591    
  5.4134      4.8205      4.3435      4.0066      3.7908      3.6374      3.5109      3.4175      3.3608      3.3410    
  3.3575      3.4102      3.5010      3.6318      3.8023      4.0069      4.2349      4.5201      4.9197      5.4413    
  4.9451      5.2126      5.4413      5.5801      5.5914      5.4639      5.2169      4.8939      4.5493      4.2335    
  3.9788      3.7908      3.6450      3.5201      3.4221      3.3554      3.3209      3.3169      3.3410      3.3918    
  3.4697      3.5761      3.7127      3.8779      4.0653      4.2625      4.4610      4.6861      4.5464      4.6287    
  4.6861      4.7050      4.6717      4.5804      4.4386      4.2651      4.0839      3.9156      3.7690      3.6374    
  3.5201      3.4242      3.3549      3.3151      3.3045      3.3209      3.3608      3.4213      3.5007      3.5989    
  3.7162      3.8517      4.0016      4.1582      4.3097      4.4422      4.4349      4.4575      4.4422      4.3919    
  4.3137      4.2139      4.0990      3.9765      3.8528      3.7313      3.6157      3.5109      3.4221      3.3549    
  3.3135      3.3003      3.3151      3.3554      3.4175      3.4971      3.5906      3.6954      3.8096      3.9308    
  4.0553      4.1769      4.2871      4.3761      4.4575      4.4349      4.3761      4.2871      4.1769      4.0553    
  3.9308      3.8096      3.6954      3.5906      3.4971      3.4175      3.3554      3.3151      3.3003      3.3135    
  3.3549      3.4221      3.5109      3.6157      3.7313      3.8528      3.9765      4.0990      4.2139      4.3137    
  4.3919      4.4422      4.6287      4.5464      4.4422      4.3097      4.1582      4.0016      3.8517      3.7162    
  3.5989      3.5007      3.4213      3.3608      3.3209      3.3045      3.3151      3.3549      3.4242      3.5201    
  3.6374      3.7690      3.9156      4.0839      4.2651      4.4386      4.5804      4.6717      4.7050      4.6861    
  5.2126      4.9451      4.6861      4.4610      4.2625      4.0653      3.8779      3.7127      3.5761      3.4697    
  3.3918      3.3410      3.3169      3.3209      3.3554      3.4221      3.5201      3.6450      3.7908      3.9788    
  4.2335      4.5493      4.8939      5.2169      5.4639      5.5914      5.5801      5.4413      6.6285      6.0395    
  5.4413      4.9197      4.5201      4.2349      4.0069      3.8023      3.6318      3.5010      3.4102      3.3575    
  3.3410      3.3608      3.4175      3.5109      3.6374      3.7908      4.0066      4.3435      4.8205      5.4134    
  6.0591      6.6673      7.1395      7.3920      7.3790      7.1058      9.2234      8.2096      7.1058      6.0708    
  5.2231      4.6164      4.2301      3.9753      3.7639      3.5960      3.4778      3.4102      3.3918      3.4213    
  3.4971      3.6157      3.7690      3.9788      4.3435      4.9313      5.7547      6.7679      7.8717      8.9269    
  9.7780      10.285      10.359      9.9832      13.208      11.716      9.9832      8.2491      6.7185      5.5262    
  4.7159      4.2376      3.9621      3.7525      3.5960      3.5010      3.4697      3.5007      3.5906      3.7313    
  3.9156      4.2335      4.8205      5.7547      7.0429      8.6172      10.340      12.015      13.420      14.343    
  14.632      14.233      18.630      16.662      14.233      11.667      9.2629      7.2480      5.7488      4.7784    
  4.2424      3.9621      3.7639      3.6318      3.5761      3.5989      3.6954      3.8528      4.0839      4.5493    
  5.4134      6.7679      8.6172      10.874      13.361      15.826      17.967      19.487      20.153      19.855    
  25.371      22.985      19.855      16.386      12.978      9.9575      7.5445      5.8303      4.7784      4.2376    
  3.9753      3.8023      3.7127      3.7162      3.8096      3.9765      4.2651      4.8939      6.0591      7.8717    
  10.340      13.361      16.726      20.124      23.174      25.480      26.712      26.676      33.129      30.448    
  26.676      22.303      17.831      13.692      10.204      7.5445      5.7488      4.7159      4.2301      4.0069    
  3.8779      3.8517      3.9308      4.0990      4.4386      5.2169      6.6673      8.9269      12.015      15.826    
  20.124      24.551      28.650      31.921      33.918      34.344      41.403      38.617      34.344      29.147    
  23.630      18.339      13.692      9.9575      7.2480      5.5262      4.6164      4.2349      4.0653      4.0016    
  4.0553      4.2139      4.5804      5.4639      7.1395      9.7780      13.420      17.967      23.174      28.650    
  33.873      38.246      41.198      42.307      49.486      46.853      42.307      36.460      30.015      23.630    
  17.831      12.978      9.2629      6.7185      5.2231      4.5201      4.2625      4.1582      4.1769      4.3137    
  4.6717      5.5914      7.3920      10.285      14.343      19.487      25.480      31.921      38.246      43.778    
  47.825      49.826      56.524      54.340      49.826      43.608      36.460      29.147      22.303      16.386    
  11.667      8.2491      6.0708      4.9197      4.4610      4.3097      4.2871      4.3919      4.7050      5.5801    
  7.3790      10.359      14.632      20.153      26.712      33.918      41.198      47.825      53.010      56.057    
  61.641      60.191      56.057      49.826      42.307      34.344      26.676      19.855      14.233      9.9832    
  7.1058      5.4413      4.6861      4.4422      4.3761      4.4422      4.6861      5.4413      7.1058      9.9832    
  14.233      19.855      26.676      34.344      42.307      49.826      56.057      60.191      59.731      60.191    
  57.835      53.010      46.385      38.784      31.012      23.738      17.434      12.386      8.7030      6.3296    
  5.0550      4.5392      4.3806      4.3590      4.4676      4.8215      5.8035      7.7857      11.028      15.638    
  21.561      28.570      36.252      43.997      51.033      56.524      60.191      61.641      60.191      56.057    
  49.826      42.307      34.344      26.676      19.855      14.233      9.9832      7.1058      5.4413      4.6861    
  4.4422      4.3761      4.4422      4.6861      5.4413      7.1058      9.9832      14.233      19.855      26.676    
  34.344      42.307      49.826      56.057      57.835      60.191      59.731      56.524      51.033      43.997    
  36.252      28.570      21.561      15.638      11.028      7.7857      5.8035      4.8215      4.4676      4.3590    
  4.3806      4.5392      5.0550      6.3296      8.7030      12.386      17.434      23.738      31.012      38.784    
  46.385      53.010      53.010      56.057      56.524      54.340      49.826      43.608      36.460      29.147    
  22.303      16.386      11.667      8.2491      6.0708      4.9197      4.4610      4.3097      4.2871      4.3919    
  4.7050      5.5801      7.3790      10.359      14.632      20.153      26.712      33.918      41.198      47.825    
  46.385      49.826      51.033      49.826      46.385      41.198      34.941      28.324      21.973      16.363    
  11.796      8.4093      6.1841      4.9527      4.4229      4.2337      4.1708      4.2337      4.4229      4.9527    
  6.1841      8.4093      11.796      16.363      21.973      28.324      34.941      41.198      38.784      42.307    
  43.997      43.608      41.198      37.119      31.921      26.231      20.629      15.579      11.395      8.2356    
  6.1142      4.9027      4.3523      4.1383      4.0425      4.0644      4.1989      4.4923      5.2374      6.7442    
  9.2271      12.768      17.303      22.613      28.324      33.918      31.012      34.344      36.252      36.460    
  34.941      31.921      27.826      23.174      18.477      14.164      10.535      7.7598      5.8700      4.7702    
  4.2518      4.0312      3.9125      3.8985      3.9934      4.1827      4.5829      5.4860      7.1381      9.6779    
  13.112      17.303      21.973      26.712      23.738      26.676      28.570      29.147      28.324      26.231    
  23.174      19.563      15.826      12.333      9.3601      7.0671      5.4960      4.5747      4.1295      3.9187    
  3.7883      3.7474      3.8043      3.9522      4.1837      4.6589      5.6303      7.2796      9.6779      12.768    
  16.363      20.153      17.434      19.855      21.561      22.303      21.973      20.629      18.477      15.826    
  13.011      10.340      8.0462      6.2720      5.0583      4.3482      3.9975      3.8058      3.6745      3.6176    
  3.6433      3.7515      3.9323      4.1894      4.6883      5.6303      7.1381      9.2271      11.796      14.632    
  12.386      14.233      15.638      16.386      16.363      15.579      14.164      12.333      10.340      8.4221    
  6.7679      5.4917      4.6268      4.1253      3.8665      3.6960      3.5733      3.5112      3.5158      3.5890    
  3.7288      3.9265      4.1894      4.6589      5.4860      6.7442      8.4093      10.359      8.7030      9.9832    
  11.028      11.667      11.796      11.395      10.535      9.3601      8.0462      6.7679      5.6644      4.8205    
  4.2574      3.9313      3.7406      3.5922      3.4854      3.4277      3.4220      3.4700      3.5726      3.7288    
  3.9323      4.1837      4.5829      5.2374      6.1841      7.3790      6.3296      7.1058      7.7857      8.2491    
  8.4093      8.2356      7.7598      7.0671      6.2720      5.4917      4.8205      4.3138      3.9788      3.7733    
  3.6207      3.4978      3.4119      3.3659      3.3599      3.3942      3.4700      3.5890      3.7515      3.9522    
  4.1827      4.4923      4.9527      5.5801      5.0550      5.4413      5.8035      6.0708      6.1841      6.1142    
  5.8700      5.4960      5.0583      4.6268      4.2574      3.9788      3.7853      3.6374      3.5125      3.4171    
  3.3548      3.3257      3.3278      3.3599      3.4220      3.5158      3.6433      3.8043      3.9934      4.1989    
  4.4229      4.7050      4.5392      4.6861      4.8215      4.9197      4.9527      4.9027      4.7702      4.5747    
  4.3482      4.1253      3.9313      3.7733      3.6374      3.5180      3.4221      3.3547      3.3172      3.3085    
  3.3257      3.3659      3.4277      3.5112      3.6176      3.7474      3.8985      4.0644      4.2337      4.3919    
  4.3806      4.4422      4.4676      4.4610      4.4229      4.3523      4.2518      4.1295      3.9975      3.8665    
  3.7406      3.6207      3.5125      3.4221      3.3551      3.3151      3.3029      3.3172      3.3548      3.4119    
  3.4854      3.5733      3.6745      3.7883      3.9125      4.0425      4.1708      4.2871      4.3590      4.3761    
  4.3590      4.3097      4.2337      4.1383      4.0312      3.9187      3.8058      3.6960      3.5922      3.4978    
  3.4171      3.3547      3.3151      3.3014      3.3151      3.3547      3.4171      3.4978      3.5922      3.6960    
  3.8058      3.9187      4.0312      4.1383      4.2337      4.3097      4.4676      4.4422      4.3806      4.2871    
  4.1708      4.0425      3.9125      3.7883      3.6745      3.5733      3.4854      3.4119      3.3548      3.3172    
  3.3029      3.3151      3.3551      3.4221      3.5125      3.6207      3.7406      3.8665      3.9975      4.1295    
  4.2518      4.3523      4.4229      4.4610      4.8215      4.6861      4.5392      4.3919      4.2337      4.0644    
  3.8985      3.7474      3.6176      3.5112      3.4277      3.3659      3.3257      3.3085      3.3172      3.3547    
  3.4221      3.5180      3.6374      3.7733      3.9313      4.1253      4.3482      4.5747      4.7702      4.9027    
  4.9527      4.9197      5.8035      5.4413      5.0550      4.7050      4.4229      4.1989      3.9934      3.8043    
  3.6433      3.5158      3.4220      3.3599      3.3278      3.3257      3.3548      3.4171      3.5125      3.6374    
  3.7853      3.9788      4.2574      4.6268      5.0583      5.4960      5.8700      6.1142      6.1841      6.0708    
  7.7857      7.1058      6.3296      5.5801      4.9527      4.4923      4.1827      3.9522      3.7515      3.5890    
  3.4700      3.3942      3.3599      3.3659      3.4119      3.4978      3.6207      3.7733      3.9788      4.3138    
  4.8205      5.4917      6.2720      7.0671      7.7598      8.2356      8.4093      8.2491      11.028      9.9832    
  8.7030      7.3790      6.1841      5.2374      4.5829      4.1837      3.9323      3.7288      3.5726      3.4700    
  3.4220      3.4277      3.4854      3.5922      3.7406      3.9313      4.2574      4.8205      5.6644      6.7679    
  8.0462      9.3601      10.535      11.395      11.796      11.667      15.638      14.233      12.386      10.359    
  8.4093      6.7442      5.4860      4.6589      4.1894      3.9265      3.7288      3.5890      3.5158      3.5112    
  3.5733      3.6960      3.8665      4.1253      4.6268      5.4917      6.7679      8.4221      10.340      12.333    
  14.164      15.579      16.363      16.386      21.561      19.855      17.434      14.632      11.796      9.2271    
  7.1381      5.6303      4.6883      4.1894      3.9323      3.7515      3.6433      3.6176      3.6745      3.8058    
  3.9975      4.3482      5.0583      6.2720      8.0462      10.340      13.011      15.826      18.477      20.629    
  21.973      22.303      28.570      26.676      23.738      20.153      16.363      12.768      9.6779      7.2796    
  5.6303      4.6589      4.1837      3.9522      3.8043      3.7474      3.7883      3.9187      4.1295      4.5747    
  5.4960      7.0671      9.3601      12.333      15.826      19.563      23.174      26.231      28.324      29.147    
  36.252      34.344      31.012      26.712      21.973      17.303      13.112      9.6779      7.1381      5.4860    
  4.5829      4.1827      3.9934      3.8985      3.9125      4.0312      4.2518      4.7702      5.8700      7.7598    
  10.535      14.164      18.477      23.174      27.826      31.921      34.941      36.460      43.997      42.307    
  38.784      33.918      28.324      22.613      17.303      12.768      9.2271      6.7442      5.2374      4.4923    
  4.1989      4.0644      4.0425      4.1383      4.3523      4.9027      6.1142      8.2356      11.395      15.579    
  20.629      26.231      31.921      37.119      41.198      43.608      51.033      49.826      46.385      41.198    
  34.941      28.324      21.973      16.363      11.796      8.4093      6.1841      4.9527      4.4229      4.2337    
  4.1708      4.2337      4.4229      4.9527      6.1841      8.4093      11.796      16.363      21.973      28.324    
  34.941      41.198      46.385      49.826      56.524      56.057      53.010      47.825      41.198      33.918    
  26.712      20.153      14.632      10.359      7.3790      5.5801      4.7050      4.3919      4.2871      4.3097    
  4.4610      4.9197      6.0708      8.2491      11.667      16.386      22.303      29.147      36.460      43.608    
  49.826      54.340      53.104      54.340      53.010      49.314      43.778      37.119      30.090      23.346    
  17.379      12.504      8.8646      6.4485      5.0911      4.4980      4.2970      4.2349      4.3009      4.5063    
  5.1064      6.4769      8.9161      12.590      17.509      23.523      30.305      37.352      43.997      49.486    
  54.340      56.524      56.057      53.010      47.825      41.198      33.918      26.712      20.153      14.632    
  10.359      7.3790      5.5801      4.7050      4.3919      4.2871      4.3097      4.4610      4.9197      6.0708    
  8.2491      11.667      16.386      22.303      29.147      36.460      43.608      49.826      53.010      56.057    
  56.524      54.340      49.826      43.608      36.460      29.147      22.303      16.386      11.667      8.2491    
  6.0708      4.9197      4.4610      4.3097      4.2871      4.3919      4.7050      5.5801      7.3790      10.359    
  14.632      20.153      26.712      33.918      41.198      47.825      49.314      53.010      54.340      53.104    
  49.486      43.997      37.352      30.305      23.523      17.509      12.590      8.9161      6.4769      5.1064    