Fe BCC                                  
   2.50000000000000     
    -0.500000    0.500000    0.500000
     0.500000   -0.500000    0.500000
     0.500000    0.500000   -0.500000
   Fe
     1
Direct
  0.000000  0.000000  0.000000
 
   28   28   28
 0.65671712439E+02 0.64129176009E+02 0.59731431302E+02 0.53104458871E+02 0.45107282203E+02
 0.36637091515E+02 0.28473046271E+02 0.21196353514E+02 0.15178695555E+02 0.10601969667E+02
 0.74751968755E+01 0.56412998829E+01 0.47929102850E+01 0.45206433363E+01 0.44538022110E+01
 0.45206433363E+01 0.47929102850E+01 0.56412998829E+01 0.74751968755E+01 0.10601969667E+02
 0.15178695555E+02 0.21196353514E+02 0.28473046271E+02 0.36637091515E+02 0.45107282203E+02
 0.53104458871E+02 0.59731431302E+02 0.64129176009E+02 0.64129176009E+02 0.63620429475E+02
 0.60191309788E+02 0.54339805358E+02 0.46852621868E+02 0.38616715791E+02 0.30447704351E+02
 0.22985240313E+02 0.16661885971E+02 0.11715762039E+02 0.82095988138E+01 0.60394594953E+01
 0.49451045844E+01 0.45463842013E+01 0.44349291339E+01 0.44575295433E+01 0.46286684737E+01
 0.52125593796E+01 0.66285436879E+01 0.92233667979E+01 0.13207574885E+02 0.18630075632E+02
 0.25370897728E+02 0.33129079298E+02 0.41402556527E+02 0.49485798172E+02 0.56523634834E+02
 0.61641333228E+02 0.59731431302E+02 0.60191309788E+02 0.57835074854E+02 0.53010047611E+02
 0.46385027150E+02 0.38783770504E+02 0.31012429426E+02 0.23737501776E+02 0.17434152873E+02
 0.12386252631E+02 0.87030455195E+01 0.63296115193E+01 0.50549564371E+01 0.45392448364E+01
 0.43806067318E+01 0.43589798104E+01 0.44676489009E+01 0.48215074935E+01 0.58035088065E+01
 0.77856741536E+01 0.11027609181E+02 0.15637740461E+02 0.21560916884E+02 0.28570324146E+02
 0.36252108042E+02 0.43997043745E+02 0.51032791596E+02 0.56523634834E+02 0.53104458871E+02
 0.54339805358E+02 0.53010047611E+02 0.49314128672E+02 0.43777729283E+02 0.37119128906E+02
 0.30089748060E+02 0.23345610567E+02 0.17379011054E+02 0.12503629125E+02 0.88645503665E+01
 0.64484851530E+01 0.50911286992E+01 0.44980338689E+01 0.42970461630E+01 0.42348876348E+01
 0.43009125484E+01 0.45063135701E+01 0.51063923140E+01 0.64769319624E+01 0.89160632359E+01
 0.12589845159E+02 0.17509428245E+02 0.23522738904E+02 0.30305077371E+02 0.37351794983E+02
 0.43997043745E+02 0.49485798172E+02 0.45107282203E+02 0.46852621868E+02 0.46385027150E+02
 0.43777729283E+02 0.39410847014E+02 0.33873112429E+02 0.27825751207E+02 0.21878760101E+02
 0.16513142583E+02 0.12052485307E+02 0.86639435588E+01 0.63658499462E+01 0.50344856073E+01
 0.44207500547E+01 0.41926496867E+01 0.40971534298E+01 0.41218763825E+01 0.42620641671E+01
 0.45909810087E+01 0.54299345917E+01 0.70977994976E+01 0.98107819975E+01 0.13645684931E+02
 0.18525375517E+02 0.24212254739E+02 0.30305077371E+02 0.36252108042E+02 0.41402556527E+02
 0.36637091515E+02 0.38616715791E+02 0.38783770504E+02 0.37119128906E+02 0.33873112429E+02
 0.29500298252E+02 0.24551430447E+02 0.19563306479E+02 0.14979673677E+02 0.11113383731E+02
 0.81383922357E+01 0.60931475363E+01 0.48862185955E+01 0.43100734365E+01 0.40759997190E+01
 0.39570118292E+01 0.39452259456E+01 0.40455422110E+01 0.42464303816E+01 0.46985594028E+01
 0.57104170885E+01 0.75330529420E+01 0.10303309186E+02 0.14018178098E+02 0.18525375517E+02
 0.23522738904E+02 0.28570324146E+02 0.33129079298E+02 0.28473046271E+02 0.30447704351E+02
 0.31012429426E+02 0.30089748060E+02 0.27825751207E+02 0.24551430447E+02 0.20702197468E+02
 0.16726231723E+02 0.13010808557E+02 0.98402107449E+01 0.73807245740E+01 0.56794667105E+01
 0.46682949035E+01 0.41753473804E+01 0.39543390096E+01 0.38230298034E+01 0.37834712723E+01
 0.38451331236E+01 0.40007165898E+01 0.42507354998E+01 0.47874097320E+01 0.58725227820E+01
 0.76892067662E+01 0.10303309186E+02 0.13645684931E+02 0.17509428245E+02 0.21560916884E+02
 0.25370897728E+02 0.21196353514E+02 0.22985240313E+02 0.23737501776E+02 0.23345610567E+02
 0.21878760101E+02 0.19563306479E+02 0.16726231723E+02 0.13723065873E+02 0.10873966648E+02
 0.84220837147E+01 0.65144491865E+01 0.51969954685E+01 0.44165510135E+01 0.40304323845E+01
 0.38329865778E+01 0.37003891268E+01 0.36439824595E+01 0.36734881864E+01 0.37887114972E+01
 0.39787100010E+01 0.42592164473E+01 0.48216329677E+01 0.58725227820E+01 0.75330529420E+01
 0.98107819975E+01 0.12589845159E+02 0.15637740461E+02 0.18630075632E+02 0.15178695555E+02
 0.16661885971E+02 0.17434152873E+02 0.17379011054E+02 0.16513142583E+02 0.14979673677E+02
 0.13010808557E+02 0.10873966648E+02 0.88195034370E+01 0.70428976490E+01 0.56643829614E+01
 0.47214875960E+01 0.41693308846E+01 0.38884620192E+01 0.37156831380E+01 0.35914628131E+01
 0.35293546492E+01 0.35367116255E+01 0.36158712409E+01 0.37643760325E+01 0.39722875026E+01
 0.42592164473E+01 0.47874097320E+01 0.57104170885E+01 0.70977994976E+01 0.89160632359E+01
 0.11027609181E+02 0.13207574885E+02 0.10601969667E+02 0.11715762039E+02 0.12386252631E+02
 0.12503629125E+02 0.12052485307E+02 0.11113383731E+02 0.98402107449E+01 0.84220837147E+01
 0.70428976490E+01 0.58493053759E+01 0.49313284241E+01 0.43138221521E+01 0.39555531026E+01
 0.37555179550E+01 0.36055036527E+01 0.34971857602E+01 0.34391930171E+01 0.34355234582E+01
 0.34882231787E+01 0.35983518178E+01 0.37643760325E+01 0.39787100010E+01 0.42507354998E+01
 0.46985594028E+01 0.54299345917E+01 0.64769319624E+01 0.77856741536E+01 0.92233667979E+01
 0.74751968755E+01 0.82095988138E+01 0.87030455195E+01 0.88645503665E+01 0.86639435588E+01
 0.81383922357E+01 0.73807245740E+01 0.65144491865E+01 0.56643829614E+01 0.49313284241E+01
 0.43751950336E+01 0.40065943068E+01 0.37852610240E+01 0.36305221813E+01 0.35058094564E+01
 0.34185254475E+01 0.33723235801E+01 0.33680515731E+01 0.34062032585E+01 0.34882231787E+01
 0.36158712409E+01 0.37887114972E+01 0.40007165898E+01 0.42464303816E+01 0.45909810087E+01
 0.51063923140E+01 0.58035088065E+01 0.66285436879E+01 0.56412998829E+01 0.60394594953E+01
 0.63296115193E+01 0.64484851530E+01 0.63658499462E+01 0.60931475363E+01 0.56794667105E+01
 0.51969954685E+01 0.47214875960E+01 0.43138221521E+01 0.40065943068E+01 0.37967830382E+01
 0.36449515146E+01 0.35179610893E+01 0.34207580795E+01 0.33574644146E+01 0.33285210175E+01
 0.33324739580E+01 0.33680515731E+01 0.34355234582E+01 0.35367116255E+01 0.36734881864E+01
 0.38451331236E+01 0.40455422110E+01 0.42620641671E+01 0.45063135701E+01 0.48215074935E+01
 0.52125593796E+01 0.47929102850E+01 0.49451045844E+01 0.50549564371E+01 0.50911286992E+01
 0.50344856073E+01 0.48862185955E+01 0.46682949035E+01 0.44165510135E+01 0.41693308846E+01
 0.39555531026E+01 0.37852610240E+01 0.36449515146E+01 0.35224773000E+01 0.34241615285E+01
 0.33551209494E+01 0.33171833476E+01 0.33092312933E+01 0.33285210175E+01 0.33723235801E+01
 0.34391930171E+01 0.35293546492E+01 0.36439824595E+01 0.37834712723E+01 0.39452259456E+01
 0.41218763825E+01 0.43009125484E+01 0.44676489009E+01 0.46286684737E+01 0.45206433363E+01
 0.45463842013E+01 0.45392448364E+01 0.44980338689E+01 0.44207500547E+01 0.43100734365E+01
 0.41753473804E+01 0.40304323845E+01 0.38884620192E+01 0.37555179550E+01 0.36305221813E+01
 0.35179610893E+01 0.34241615285E+01 0.33547580709E+01 0.33134864331E+01 0.33014499494E+01
 0.33171833476E+01 0.33574644146E+01 0.34185254475E+01 0.34971857602E+01 0.35914628131E+01
 0.37003891268E+01 0.38230298034E+01 0.39570118292E+01 0.40971534298E+01 0.42348876348E+01
 0.43589798104E+01 0.44575295433E+01 0.44538022110E+01 0.44349291339E+01 0.43806067318E+01
 0.42970461630E+01 0.41926496867E+01 0.40759997190E+01 0.39543390096E+01 0.38329865778E+01
 0.37156831380E+01 0.36055036527E+01 0.35058094564E+01 0.34207580795E+01 0.33551209494E+01
 0.33134864331E+01 0.32991993630E+01 0.33134864331E+01 0.33551209494E+01 0.34207580795E+01
 0.35058094564E+01 0.36055036527E+01 0.37156831380E+01 0.38329865778E+01 0.39543390096E+01
 0.40759997190E+01 0.41926496867E+01 0.42970461630E+01 0.43806067318E+01 0.44349291339E+01
 0.45206433363E+01 0.44575295433E+01 0.43589798104E+01 0.42348876348E+01 0.40971534298E+01
 0.39570118292E+01 0.38230298034E+01 0.37003891268E+01 0.35914628131E+01 0.34971857602E+01
 0.34185254475E+01 0.33574644146E+01 0.33171833476E+01 0.33014499494E+01 0.33134864331E+01
 0.33547580709E+01 0.34241615285E+01 0.35179610893E+01 0.36305221813E+01 0.37555179550E+01
 0.38884620192E+01 0.40304323845E+01 0.41753473804E+01 0.43100734365E+01 0.44207500547E+01
 0.44980338689E+01 0.45392448364E+01 0.45463842013E+01 0.47929102850E+01 0.46286684737E+01
 0.44676489009E+01 0.43009125484E+01 0.41218763825E+01 0.39452259456E+01 0.37834712723E+01
 0.36439824595E+01 0.35293546492E+01 0.34391930171E+01 0.33723235801E+01 0.33285210175E+01
 0.33092312933E+01 0.33171833476E+01 0.33551209494E+01 0.34241615285E+01 0.35224773000E+01
 0.36449515146E+01 0.37852610240E+01 0.39555531026E+01 0.41693308846E+01 0.44165510135E+01
 0.46682949035E+01 0.48862185955E+01 0.50344856073E+01 0.50911286992E+01 0.50549564371E+01
 0.49451045844E+01 0.56412998829E+01 0.52125593796E+01 0.48215074935E+01 0.45063135701E+01
 0.42620641671E+01 0.40455422110E+01 0.38451331236E+01 0.36734881864E+01 0.35367116255E+01
 0.34355234582E+01 0.33680515731E+01 0.33324739580E+01 0.33285210175E+01 0.33574644146E+01
 0.34207580795E+01 0.35179610893E+01 0.36449515146E+01 0.37967830382E+01 0.40065943068E+01
 0.43138221521E+01 0.47214875960E+01 0.51969954685E+01 0.56794667105E+01 0.60931475363E+01
 0.63658499462E+01 0.64484851530E+01 0.63296115193E+01 0.60394594953E+01 0.74751968755E+01
 0.66285436879E+01 0.58035088065E+01 0.51063923140E+01 0.45909810087E+01 0.42464303816E+01
 0.40007165898E+01 0.37887114972E+01 0.36158712409E+01 0.34882231787E+01 0.34062032585E+01
 0.33680515731E+01 0.33723235801E+01 0.34185254475E+01 0.35058094564E+01 0.36305221813E+01
 0.37852610240E+01 0.40065943068E+01 0.43751950336E+01 0.49313284241E+01 0.56643829614E+01
 0.65144491865E+01 0.73807245740E+01 0.81383922357E+01 0.86639435588E+01 0.88645503665E+01
 0.87030455195E+01 0.82095988138E+01 0.10601969667E+02 0.92233667979E+01 0.77856741536E+01
 0.64769319624E+01 0.54299345917E+01 0.46985594028E+01 0.42507354998E+01 0.39787100010E+01
 0.37643760325E+01 0.35983518178E+01 0.34882231787E+01 0.34355234582E+01 0.34391930171E+01
 0.34971857602E+01 0.36055036527E+01 0.37555179550E+01 0.39555531026E+01 0.43138221521E+01
 0.49313284241E+01 0.58493053759E+01 0.70428976490E+01 0.84220837147E+01 0.98402107449E+01
 0.11113383731E+02 0.12052485307E+02 0.12503629125E+02 0.12386252631E+02 0.11715762039E+02
 0.15178695555E+02 0.13207574885E+02 0.11027609181E+02 0.89160632359E+01 0.70977994976E+01
 0.57104170885E+01 0.47874097320E+01 0.42592164473E+01 0.39722875026E+01 0.37643760325E+01
 0.36158712409E+01 0.35367116255E+01 0.35293546492E+01 0.35914628131E+01 0.37156831380E+01
 0.38884620192E+01 0.41693308846E+01 0.47214875960E+01 0.56643829614E+01 0.70428976490E+01
 0.88195034370E+01 0.10873966648E+02 0.13010808557E+02 0.14979673677E+02 0.16513142583E+02
 0.17379011054E+02 0.17434152873E+02 0.16661885971E+02 0.21196353514E+02 0.18630075632E+02
 0.15637740461E+02 0.12589845159E+02 0.98107819975E+01 0.75330529420E+01 0.58725227820E+01
 0.48216329677E+01 0.42592164473E+01 0.39787100010E+01 0.37887114972E+01 0.36734881864E+01
 0.36439824595E+01 0.37003891268E+01 0.38329865778E+01 0.40304323845E+01 0.44165510135E+01
 0.51969954685E+01 0.65144491865E+01 0.84220837147E+01 0.10873966648E+02 0.13723065873E+02
 0.16726231723E+02 0.19563306479E+02 0.21878760101E+02 0.23345610567E+02 0.23737501776E+02
 0.22985240313E+02 0.28473046271E+02 0.25370897728E+02 0.21560916884E+02 0.17509428245E+02
 0.13645684931E+02 0.10303309186E+02 0.76892067662E+01 0.58725227820E+01 0.47874097320E+01
 0.42507354998E+01 0.40007165898E+01 0.38451331236E+01 0.37834712723E+01 0.38230298034E+01
 0.39543390096E+01 0.41753473804E+01 0.46682949035E+01 0.56794667105E+01 0.73807245740E+01
 0.98402107449E+01 0.13010808557E+02 0.16726231723E+02 0.20702197468E+02 0.24551430447E+02
 0.27825751207E+02 0.30089748060E+02 0.31012429426E+02 0.30447704351E+02 0.36637091515E+02
 0.33129079298E+02 0.28570324146E+02 0.23522738904E+02 0.18525375517E+02 0.14018178098E+02
 0.10303309186E+02 0.75330529420E+01 0.57104170885E+01 0.46985594028E+01 0.42464303816E+01
 0.40455422110E+01 0.39452259456E+01 0.39570118292E+01 0.40759997190E+01 0.43100734365E+01
 0.48862185955E+01 0.60931475363E+01 0.81383922357E+01 0.11113383731E+02 0.14979673677E+02
 0.19563306479E+02 0.24551430447E+02 0.29500298252E+02 0.33873112429E+02 0.37119128906E+02
 0.38783770504E+02 0.38616715791E+02 0.45107282203E+02 0.41402556527E+02 0.36252108042E+02
 0.30305077371E+02 0.24212254739E+02 0.18525375517E+02 0.13645684931E+02 0.98107819975E+01
 0.70977994976E+01 0.54299345917E+01 0.45909810087E+01 0.42620641671E+01 0.41218763825E+01
 0.40971534298E+01 0.41926496867E+01 0.44207500547E+01 0.50344856073E+01 0.63658499462E+01
 0.86639435588E+01 0.12052485307E+02 0.16513142583E+02 0.21878760101E+02 0.27825751207E+02
 0.33873112429E+02 0.39410847014E+02 0.43777729283E+02 0.46385027150E+02 0.46852621868E+02
 0.53104458871E+02 0.49485798172E+02 0.43997043745E+02 0.37351794983E+02 0.30305077371E+02
 0.23522738904E+02 0.17509428245E+02 0.12589845159E+02 0.89160632359E+01 0.64769319624E+01
 0.51063923140E+01 0.45063135701E+01 0.43009125484E+01 0.42348876348E+01 0.42970461630E+01
 0.44980338689E+01 0.50911286992E+01 0.64484851530E+01 0.88645503665E+01 0.12503629125E+02
 0.17379011054E+02 0.23345610567E+02 0.30089748060E+02 0.37119128906E+02 0.43777729283E+02
 0.49314128672E+02 0.53010047611E+02 0.54339805358E+02 0.59731431302E+02 0.56523634834E+02
 0.51032791596E+02 0.43997043745E+02 0.36252108042E+02 0.28570324146E+02 0.21560916884E+02
 0.15637740461E+02 0.11027609181E+02 0.77856741536E+01 0.58035088065E+01 0.48215074935E+01
 0.44676489009E+01 0.43589798104E+01 0.43806067318E+01 0.45392448364E+01 0.50549564371E+01
 0.63296115193E+01 0.87030455195E+01 0.12386252631E+02 0.17434152873E+02 0.23737501776E+02
 0.31012429426E+02 0.38783770504E+02 0.46385027150E+02 0.53010047611E+02 0.57835074854E+02
 0.60191309788E+02 0.64129176009E+02 0.61641333228E+02 0.56523634834E+02 0.49485798172E+02
 0.41402556527E+02 0.33129079298E+02 0.25370897728E+02 0.18630075632E+02 0.13207574885E+02
 0.92233667979E+01 0.66285436879E+01 0.52125593796E+01 0.46286684737E+01 0.44575295433E+01
 0.44349291339E+01 0.45463842013E+01 0.49451045844E+01 0.60394594953E+01 0.82095988138E+01
 0.11715762039E+02 0.16661885971E+02 0.22985240313E+02 0.30447704351E+02 0.38616715791E+02
 0.46852621868E+02 0.54339805358E+02 0.60191309788E+02 0.63620429475E+02 0.64129176009E+02
 0.63620429475E+02 0.60191309788E+02 0.54339805358E+02 0.46852621868E+02 0.38616715791E+02
 0.30447704351E+02 0.22985240313E+02 0.16661885971E+02 0.11715762039E+02 0.82095988138E+01
 0.60394594953E+01 0.49451045844E+01 0.45463842013E+01 0.44349291339E+01 0.44575295433E+01
 0.46286684737E+01 0.52125593796E+01 0.66285436879E+01 0.92233667979E+01 0.13207574885E+02
 0.18630075632E+02 0.25370897728E+02 0.33129079298E+02 0.41402556527E+02 0.49485798172E+02
 0.56523634834E+02 0.61641333228E+02 0.63620429475E+02 0.64129175932E+02 0.61641333079E+02
 0.56523634623E+02 0.49485797914E+02 0.41402556241E+02 0.33129079006E+02 0.25370897456E+02
 0.18630075400E+02 0.13207574707E+02 0.92233666779E+01 0.66285436187E+01 0.52125593474E+01
 0.46286684627E+01 0.44575295414E+01 0.44349291373E+01 0.45463842157E+01 0.49451046230E+01
 0.60394595739E+01 0.82095989448E+01 0.11715762226E+02 0.16661886207E+02 0.22985240580E+02
 0.30447704625E+02 0.38616716045E+02 0.46852622079E+02 0.54339805508E+02 0.60191309866E+02
 0.60191309788E+02 0.61641333079E+02 0.60191309656E+02 0.56056953989E+02 0.49826097514E+02
 0.42306575163E+02 0.34344201298E+02 0.26676185688E+02 0.19854729002E+02 0.14233494914E+02
 0.99832075244E+01 0.71057857284E+01 0.54413286253E+01 0.46860501604E+01 0.44421657132E+01
 0.43760843631E+01 0.44421657197E+01 0.46860501889E+01 0.54413287015E+01 0.71057858789E+01
 0.99832077671E+01 0.14233495251E+02 0.19854729418E+02 0.26676186150E+02 0.34344201767E+02
 0.42306575595E+02 0.49826097871E+02 0.56056954243E+02 0.54339805358E+02 0.56523634623E+02
 0.56056953989E+02 0.53010047467E+02 0.47824833213E+02 0.41198373584E+02 0.33918209320E+02
 0.26711870670E+02 0.20153372808E+02 0.14632065930E+02 0.10358822422E+02 0.73790393195E+01
 0.55801367485E+01 0.47050327476E+01 0.43919375952E+01 0.42870807415E+01 0.43096848268E+01
 0.44610052728E+01 0.49197399058E+01 0.60707706989E+01 0.82490828426E+01 0.11667354249E+02
 0.16385975903E+02 0.22303331188E+02 0.29146787417E+02 0.36460189241E+02 0.43607807201E+02
 0.49826097794E+02 0.46852621868E+02 0.49485797914E+02 0.49826097514E+02 0.47824833213E+02
 0.43777729177E+02 0.38246395192E+02 0.31921383659E+02 0.25480425137E+02 0.19486779742E+02
 0.14342982728E+02 0.10285238038E+02 0.73920343978E+01 0.55913639459E+01 0.46716789563E+01
 0.43137396067E+01 0.41769134590E+01 0.41582230242E+01 0.42624956840E+01 0.45200923244E+01
 0.52230755587E+01 0.67185362773E+01 0.92629122328E+01 0.12977590947E+02 0.17830836387E+02
 0.23630237357E+02 0.30015485665E+02 0.36460189170E+02 0.42306575449E+02 0.38616715791E+02
 0.41402556241E+02 0.42306575163E+02 0.41198373584E+02 0.38246395192E+02 0.33873112405E+02
 0.28649959690E+02 0.23173787488E+02 0.17966658805E+02 0.13420028872E+02 0.97779740898E+01
 0.71394536014E+01 0.54638898870E+01 0.45804471725E+01 0.42138891634E+01 0.40553286894E+01
 0.40016442108E+01 0.40653043905E+01 0.42348951836E+01 0.46164320833E+01 0.55262117153E+01
 0.72479695678E+01 0.99575410325E+01 0.13692277558E+02 0.18339097375E+02 0.23630237299E+02
 0.29146787290E+02 0.34344201569E+02 0.30447704351E+02 0.33129079006E+02 0.34344201298E+02
 0.33918209320E+02 0.31921383659E+02 0.28649959690E+02 0.24551430513E+02 0.20124021673E+02
 0.15825656127E+02 0.12015084498E+02 0.89269045130E+01 0.66672872362E+01 0.52169004921E+01
 0.44386480294E+01 0.40990000306E+01 0.39308368074E+01 0.38516952160E+01 0.38778766030E+01
 0.40068950300E+01 0.42300724996E+01 0.47159143590E+01 0.57487766421E+01 0.75445108544E+01
 0.10204118763E+02 0.13692277519E+02 0.17830836292E+02 0.22303331027E+02 0.26676185924E+02
 0.22985240313E+02 0.25370897456E+02 0.26676185688E+02 0.26711870670E+02 0.25480425137E+02
 0.23173787488E+02 0.20124021673E+02 0.16726231844E+02 0.13361284623E+02 0.10339556219E+02
 0.78716820086E+01 0.60590605505E+01 0.48938542093E+01 0.42651121037E+01 0.39765319770E+01
 0.38095985740E+01 0.37162126159E+01 0.37126750379E+01 0.38022711511E+01 0.39753139920E+01
 0.42376346225E+01 0.47784122325E+01 0.58303302434E+01 0.75445108360E+01 0.99575409779E+01
 0.12977590839E+02 0.16385975733E+02 0.19854729189E+02 0.16661885971E+02 0.18630075400E+02
 0.19854729002E+02 0.20153372808E+02 0.19486779742E+02 0.17966658805E+02 0.15825656127E+02
 0.13361284623E+02 0.10873966764E+02 0.86172317559E+01 0.67679004574E+01 0.54134095017E+01
 0.45493345884E+01 0.40839079011E+01 0.38528277942E+01 0.36954158018E+01 0.35989421469E+01
 0.35761396635E+01 0.36317678353E+01 0.37639116526E+01 0.39621218030E+01 0.42423806288E+01
 0.47784122276E+01 0.57487766214E+01 0.72479695158E+01 0.92629121337E+01 0.11667354094E+02
 0.14233495045E+02 0.11715762039E+02 0.13207574707E+02 0.14233494914E+02 0.14632065930E+02
 0.14342982728E+02 0.13420028872E+02 0.12015084498E+02 0.10339556219E+02 0.86172317559E+01
 0.70428977128E+01 0.57547393109E+01 0.48205351636E+01 0.42335440375E+01 0.39156132582E+01
 0.37312903605E+01 0.35905817803E+01 0.35007163211E+01 0.34696516408E+01 0.35010106763E+01
 0.35959706219E+01 0.37524870408E+01 0.39621218026E+01 0.42376346199E+01 0.47159143461E+01
 0.55262116785E+01 0.67185362020E+01 0.82490827206E+01 0.99832076027E+01 0.82095988138E+01
 0.92233666779E+01 0.99832075244E+01 0.10358822422E+02 0.10285238038E+02 0.97779740898E+01
 0.89269045130E+01 0.78716820086E+01 0.67679004574E+01 0.57547393109E+01 0.49313284266E+01
 0.43434797913E+01 0.39788476014E+01 0.37689652137E+01 0.36157293114E+01 0.34970667745E+01
 0.34212534111E+01 0.33918384605E+01 0.34102473513E+01 0.34778334307E+01 0.35959706194E+01
 0.37639116517E+01 0.39753139937E+01 0.42300724981E+01 0.46164320669E+01 0.52230755140E+01
 0.60707706179E+01 0.71057857646E+01 0.60394594953E+01 0.66285436187E+01 0.71057857284E+01
 0.73790393195E+01 0.73920343978E+01 0.71394536014E+01 0.66672872362E+01 0.60590605505E+01
 0.54134095017E+01 0.48205351636E+01 0.43434797913E+01 0.40065942739E+01 0.37907831572E+01
 0.36373719184E+01 0.35108739536E+01 0.34174796734E+01 0.33607760761E+01 0.33410261571E+01
 0.33574681704E+01 0.34102473458E+01 0.35010106695E+01 0.36317678330E+01 0.38022711557E+01
 0.40068950380E+01 0.42348951854E+01 0.45200923082E+01 0.49197398637E+01 0.54413286348E+01
 0.49451045844E+01 0.52125593474E+01 0.54413286253E+01 0.55801367485E+01 0.55913639459E+01
 0.54638898870E+01 0.52169004921E+01 0.48938542093E+01 0.45493345884E+01 0.42335440375E+01
 0.39788476014E+01 0.37907831572E+01 0.36449514795E+01 0.35201403489E+01 0.34221218987E+01
 0.33554125250E+01 0.33208926230E+01 0.33168951021E+01 0.33410261525E+01 0.33918384512E+01
 0.34696516313E+01 0.35761396596E+01 0.37126750432E+01 0.38778766154E+01 0.40653044029E+01
 0.42624956868E+01 0.44610052592E+01 0.46860501587E+01 0.45463842013E+01 0.46286684627E+01
 0.46860501604E+01 0.47050327476E+01 0.46716789563E+01 0.45804471725E+01 0.44386480294E+01
 0.42651121037E+01 0.40839079011E+01 0.39156132582E+01 0.37689652137E+01 0.36373719184E+01
 0.35201403489E+01 0.34241615084E+01 0.33548764895E+01 0.33150565272E+01 0.33045338101E+01
 0.33208926239E+01 0.33607760735E+01 0.34212534045E+01 0.35007163136E+01 0.35989421431E+01
 0.37162126189E+01 0.38516952255E+01 0.40016442227E+01 0.41582230326E+01 0.43096848268E+01
 0.44421657103E+01 0.44349291339E+01 0.44575295414E+01 0.44421657132E+01 0.43919375952E+01
 0.43137396067E+01 0.42138891634E+01 0.40990000306E+01 0.39765319770E+01 0.38528277942E+01
 0.37312903605E+01 0.36157293114E+01 0.35108739536E+01 0.34221218987E+01 0.33548764895E+01
 0.33134864274E+01 0.33002708521E+01 0.33150565347E+01 0.33554125354E+01 0.34174796822E+01
 0.34970667790E+01 0.35905817802E+01 0.36954157989E+01 0.38095985706E+01 0.39308368054E+01
 0.40553286891E+01 0.41769134593E+01 0.42870807409E+01 0.43760843608E+01 0.44575295433E+01
 0.44349291373E+01 0.43760843631E+01 0.42870807415E+01 0.41769134590E+01 0.40553286894E+01
 0.39308368074E+01 0.38095985740E+01 0.36954158018E+01 0.35905817803E+01 0.34970667745E+01
 0.34174796734E+01 0.33554125250E+01 0.33150565272E+01 0.33002708521E+01 0.33134864378E+01
 0.33548765101E+01 0.34221219257E+01 0.35108739806E+01 0.36157293315E+01 0.37312903687E+01
 0.38528277888E+01 0.39765319602E+01 0.40990000075E+01 0.42138891403E+01 0.43137395887E+01
 0.43919375849E+01 0.44421657103E+01 0.46286684737E+01 0.45463842157E+01 0.44421657197E+01
 0.43096848268E+01 0.41582230242E+01 0.40016442108E+01 0.38516952160E+01 0.37162126159E+01
 0.35989421469E+01 0.35007163211E+01 0.34212534111E+01 0.33607760761E+01 0.33208926230E+01
 0.33045338101E+01 0.33150565347E+01 0.33548765101E+01 0.34241615433E+01 0.35201403935E+01
 0.36373719628E+01 0.37689652457E+01 0.39156132676E+01 0.40839078838E+01 0.42651120632E+01
 0.44386479759E+01 0.45804471195E+01 0.46716789159E+01 0.47050327267E+01 0.46860501587E+01
 0.52125593796E+01 0.49451046230E+01 0.46860501889E+01 0.44610052728E+01 0.42624956840E+01
 0.40653043905E+01 0.38778766030E+01 0.37126750379E+01 0.35761396635E+01 0.34696516408E+01
 0.33918384605E+01 0.33410261571E+01 0.33168951021E+01 0.33208926239E+01 0.33554125354E+01
 0.34221219257E+01 0.35201403935E+01 0.36449515347E+01 0.37907832085E+01 0.39788476315E+01
 0.42335440329E+01 0.45493345447E+01 0.48938541334E+01 0.52169004011E+01 0.54638898024E+01
 0.55913638863E+01 0.55801367242E+01 0.54413286348E+01 0.66285436879E+01 0.60394595739E+01
 0.54413287015E+01 0.49197399058E+01 0.45200923244E+01 0.42348951836E+01 0.40068950300E+01
 0.38022711511E+01 0.36317678353E+01 0.35010106763E+01 0.34102473513E+01 0.33574681704E+01
 0.33410261525E+01 0.33607760735E+01 0.34174796822E+01 0.35108739806E+01 0.36373719628E+01
 0.37907832085E+01 0.40065943135E+01 0.43434797992E+01 0.48205351255E+01 0.54134094159E+01
 0.60590604300E+01 0.66672871058E+01 0.71394534900E+01 0.73920343295E+01 0.73790393055E+01
 0.71057857646E+01 0.92233667979E+01 0.82095989448E+01 0.71057858789E+01 0.60707706989E+01
 0.52230755587E+01 0.46164320833E+01 0.42300724996E+01 0.39753139920E+01 0.37639116526E+01
 0.35959706219E+01 0.34778334307E+01 0.34102473458E+01 0.33918384512E+01 0.34212534045E+01
 0.34970667790E+01 0.36157293315E+01 0.37689652457E+01 0.39788476315E+01 0.43434797992E+01
 0.49313283922E+01 0.57547392230E+01 0.67679003200E+01 0.78716818422E+01 0.89269043496E+01
 0.97779739641E+01 0.10285237976E+02 0.10358822435E+02 0.99832076027E+01 0.13207574885E+02
 0.11715762226E+02 0.99832077671E+01 0.82490828426E+01 0.67185362773E+01 0.55262117153E+01
 0.47159143590E+01 0.42376346225E+01 0.39621218030E+01 0.37524870408E+01 0.35959706194E+01
 0.35010106695E+01 0.34696516313E+01 0.35007163136E+01 0.35905817802E+01 0.37312903687E+01
 0.39156132676E+01 0.42335440329E+01 0.48205351255E+01 0.57547392230E+01 0.70428975702E+01
 0.86172315701E+01 0.10339556017E+02 0.12015084318E+02 0.13420028751E+02 0.14342982691E+02
 0.14632065985E+02 0.14233495045E+02 0.18630075632E+02 0.16661886207E+02 0.14233495251E+02
 0.11667354249E+02 0.92629122328E+01 0.72479695678E+01 0.57487766421E+01 0.47784122325E+01
 0.42423806288E+01 0.39621218026E+01 0.37639116517E+01 0.36317678330E+01 0.35761396596E+01
 0.35989421431E+01 0.36954157989E+01 0.38528277888E+01 0.40839078838E+01 0.45493345447E+01
 0.54134094159E+01 0.67679003200E+01 0.86172315701E+01 0.10873966548E+02 0.13361284410E+02
 0.15825655957E+02 0.17966658712E+02 0.19486779749E+02 0.20153372915E+02 0.19854729189E+02
 0.25370897728E+02 0.22985240580E+02 0.19854729418E+02 0.16385975903E+02 0.12977590947E+02
 0.99575410325E+01 0.75445108544E+01 0.58303302434E+01 0.47784122276E+01 0.42376346199E+01
 0.39753139937E+01 0.38022711557E+01 0.37126750432E+01 0.37162126189E+01 0.38095985706E+01
 0.39765319602E+01 0.42651120632E+01 0.48938541334E+01 0.60590604300E+01 0.78716818422E+01
 0.10339556017E+02 0.13361284410E+02 0.16726231655E+02 0.20124021543E+02 0.23173787448E+02
 0.25480425201E+02 0.26711870833E+02 0.26676185924E+02 0.33129079298E+02 0.30447704625E+02
 0.26676186150E+02 0.22303331188E+02 0.17830836387E+02 0.13692277558E+02 0.10204118763E+02
 0.75445108360E+01 0.57487766214E+01 0.47159143461E+01 0.42300724981E+01 0.40068950380E+01
 0.38778766154E+01 0.38516952255E+01 0.39308368054E+01 0.40990000075E+01 0.44386479759E+01
 0.52169004011E+01 0.66672871058E+01 0.89269043496E+01 0.12015084318E+02 0.15825655957E+02
 0.20124021543E+02 0.24551430454E+02 0.28649959722E+02 0.31921383788E+02 0.33918209534E+02
 0.34344201569E+02 0.41402556527E+02 0.38616716045E+02 0.34344201767E+02 0.29146787417E+02
 0.23630237357E+02 0.18339097375E+02 0.13692277519E+02 0.99575409779E+01 0.72479695158E+01
 0.55262116785E+01 0.46164320669E+01 0.42348951854E+01 0.40653044029E+01 0.40016442227E+01
 0.40553286891E+01 0.42138891403E+01 0.45804471195E+01 0.54638898024E+01 0.71394534900E+01
 0.97779739641E+01 0.13420028751E+02 0.17966658712E+02 0.23173787448E+02 0.28649959722E+02
 0.33873112518E+02 0.38246395383E+02 0.41198373837E+02 0.42306575449E+02 0.49485798172E+02
 0.46852622079E+02 0.42306575595E+02 0.36460189241E+02 0.30015485665E+02 0.23630237299E+02
 0.17830836292E+02 0.12977590839E+02 0.92629121337E+01 0.67185362020E+01 0.52230755140E+01
 0.45200923082E+01 0.42624956868E+01 0.41582230326E+01 0.41769134593E+01 0.43137395887E+01
 0.46716789159E+01 0.55913638863E+01 0.73920343295E+01 0.10285237976E+02 0.14342982691E+02
 0.19486779749E+02 0.25480425201E+02 0.31921383788E+02 0.38246395383E+02 0.43777729420E+02
 0.47824833488E+02 0.49826097794E+02 0.56523634834E+02 0.54339805508E+02 0.49826097871E+02
 0.43607807201E+02 0.36460189170E+02 0.29146787290E+02 0.22303331027E+02 0.16385975733E+02
 0.11667354094E+02 0.82490827206E+01 0.60707706179E+01 0.49197398637E+01 0.44610052592E+01
 0.43096848268E+01 0.42870807409E+01 0.43919375849E+01 0.47050327267E+01 0.55801367242E+01
 0.73790393055E+01 0.10358822435E+02 0.14632065985E+02 0.20153372915E+02 0.26711870833E+02
 0.33918209534E+02 0.41198373837E+02 0.47824833488E+02 0.53010047742E+02 0.56056954243E+02
 0.61641333228E+02 0.60191309866E+02 0.56056954243E+02 0.49826097794E+02 0.42306575449E+02
 0.34344201569E+02 0.26676185924E+02 0.19854729189E+02 0.14233495045E+02 0.99832076027E+01
 0.71057857646E+01 0.54413286348E+01 0.46860501587E+01 0.44421657103E+01 0.43760843608E+01
 0.44421657103E+01 0.46860501587E+01 0.54413286348E+01 0.71057857646E+01 0.99832076027E+01
 0.14233495045E+02 0.19854729189E+02 0.26676185924E+02 0.34344201569E+02 0.42306575449E+02
 0.49826097794E+02 0.56056954243E+02 0.60191309866E+02 0.59731431302E+02 0.60191309788E+02
 0.57835074854E+02 0.53010047611E+02 0.46385027150E+02 0.38783770504E+02 0.31012429426E+02
 0.23737501776E+02 0.17434152873E+02 0.12386252631E+02 0.87030455195E+01 0.63296115193E+01
 0.50549564371E+01 0.45392448364E+01 0.43806067318E+01 0.43589798104E+01 0.44676489009E+01
 0.48215074935E+01 0.58035088065E+01 0.77856741536E+01 0.11027609181E+02 0.15637740461E+02
 0.21560916884E+02 0.28570324146E+02 0.36252108042E+02 0.43997043745E+02 0.51032791596E+02
 0.56523634834E+02 0.60191309788E+02 0.61641333079E+02 0.60191309656E+02 0.56056953989E+02
 0.49826097514E+02 0.42306575163E+02 0.34344201298E+02 0.26676185688E+02 0.19854729002E+02
 0.14233494914E+02 0.99832075244E+01 0.71057857284E+01 0.54413286253E+01 0.46860501604E+01
 0.44421657132E+01 0.43760843631E+01 0.44421657197E+01 0.46860501889E+01 0.54413287015E+01
 0.71057858789E+01 0.99832077671E+01 0.14233495251E+02 0.19854729418E+02 0.26676186150E+02
 0.34344201767E+02 0.42306575595E+02 0.49826097871E+02 0.56056954243E+02 0.57835074854E+02
 0.60191309656E+02 0.59731431048E+02 0.56523634476E+02 0.51032791161E+02 0.43997043267E+02