   1   1   1   0
  0.7812500E+01  0.2165064E-09  0.2165064E-09  0.2165064E-09  0.5000000E-15
  1.000000000000000E-004
  CAR 
 Fe BCC                                  
     61.98248217     -2.71466392  301     10.54649126      1.00000000
     -2.715  0.0000E+00  0.0000E+00  0.0000E+00  0.0000E+00
     -2.499  0.0000E+00  0.0000E+00  0.0000E+00  0.0000E+00
     -2.283  0.0000E+00  0.0000E+00  0.0000E+00  0.0000E+00
     -2.068  0.0000E+00  0.0000E+00  0.0000E+00  0.0000E+00
     -1.852  0.0000E+00  0.0000E+00  0.0000E+00  0.0000E+00
     -1.636  0.0000E+00  0.0000E+00  0.0000E+00  0.0000E+00
     -1.421  0.0000E+00  0.0000E+00  0.0000E+00  0.0000E+00
     -1.205  0.0000E+00  0.0000E+00  0.0000E+00  0.0000E+00
     -0.989  0.0000E+00  0.0000E+00  0.0000E+00  0.0000E+00
     -0.774  0.0000E+00  0.0000E+00  0.0000E+00  0.0000E+00
     -0.558  0.0000E+00  0.0000E+00  0.0000E+00  0.0000E+00
     -0.342  0.0000E+00  0.0000E+00  0.0000E+00  0.0000E+00
     -0.127  0.0000E+00  0.0000E+00  0.0000E+00  0.0000E+00
      0.089  0.0000E+00  0.0000E+00  0.0000E+00  0.0000E+00
      0.305  0.9150E-02  0.0000E+00  0.1296E-02  0.0000E+00
      0.520  0.1386E-01  0.7216E-02  0.3788E-02  0.6545E-03
      0.736  0.1796E-01  0.1202E-01  0.7230E-02  0.2740E-02
      0.952  0.2146E-01  0.1622E-01  0.1149E-01  0.5796E-02
      1.167  0.2657E-01  0.1980E-01  0.1658E-01  0.9692E-02
      1.383  0.3253E-01  0.2341E-01  0.2297E-01  0.1431E-01
      1.598  0.3749E-01  0.2942E-01  0.3054E-01  0.2002E-01
      1.814  0.4006E-01  0.3440E-01  0.3900E-01  0.2692E-01
      2.030  0.4619E-01  0.3836E-01  0.4829E-01  0.3479E-01
      2.245  0.5313E-01  0.4089E-01  0.5898E-01  0.4320E-01
      2.461  0.6088E-01  0.4635E-01  0.7126E-01  0.5259E-01
      2.677  0.6946E-01  0.5239E-01  0.8530E-01  0.6323E-01
      2.892  0.7885E-01  0.5903E-01  0.1013E+00  0.7524E-01
      3.108  0.1070E+00  0.6625E-01  0.1205E+00  0.8873E-01
      3.324  0.2978E+00  0.7407E-01  0.1564E+00  0.1039E+00
      3.539  0.4514E+00  0.9545E-01  0.2450E+00  0.1219E+00
      3.755  0.5077E+00  0.1223E+00  0.3469E+00  0.1453E+00
      3.971  0.6204E+00  0.1983E+00  0.4659E+00  0.1774E+00
      4.186  0.7954E+00  0.3842E+00  0.6209E+00  0.2467E+00
      4.402  0.7133E+00  0.4205E+00  0.7875E+00  0.3330E+00
      4.618  0.5235E+00  0.4797E+00  0.9248E+00  0.4293E+00
      4.833  0.3540E+00  0.6395E+00  0.1019E+01  0.5458E+00
      5.049  0.2411E+00  0.7173E+00  0.1083E+01  0.7097E+00
      5.265  0.2538E+00  0.5925E+00  0.1134E+01  0.8537E+00
      5.480  0.9869E+00  0.4190E+00  0.1258E+01  0.9636E+00
      5.696  0.1008E+01  0.2841E+00  0.1485E+01  0.1037E+01
      5.912  0.7553E+00  0.1788E+00  0.1675E+01  0.1086E+01
      6.127  0.3784E+00  0.2324E+00  0.1804E+01  0.1131E+01
      6.343  0.3509E+00  0.9323E+00  0.1880E+01  0.1276E+01
      6.559  0.4526E+00  0.9352E+00  0.1965E+01  0.1488E+01
      6.774  0.6189E+00  0.6962E+00  0.2080E+01  0.1665E+01
      6.990  0.8813E+00  0.5025E+00  0.2239E+01  0.1791E+01
      7.206  0.1166E+01  0.4203E+00  0.2475E+01  0.1885E+01
      7.421  0.4907E+00  0.4746E+00  0.2663E+01  0.1982E+01
      7.637  0.2977E+00  0.6273E+00  0.2739E+01  0.2099E+01
      7.853  0.2566E+00  0.8845E+00  0.2799E+01  0.2259E+01
      8.068  0.2347E+00  0.1068E+01  0.2851E+01  0.2487E+01
      8.284  0.2313E+00  0.5790E+00  0.2901E+01  0.2673E+01
      8.500  0.2577E+00  0.2704E+00  0.2952E+01  0.2752E+01
      8.715  0.3383E+00  0.2263E+00  0.3023E+01  0.2805E+01
      8.931  0.4120E+00  0.2088E+00  0.3101E+01  0.2852E+01
      9.146  0.6331E+00  0.2004E+00  0.3212E+01  0.2896E+01
      9.362  0.8382E+00  0.2013E+00  0.3372E+01  0.2939E+01
      9.578  0.1096E+01  0.2743E+00  0.3584E+01  0.2987E+01
      9.793  0.1189E+01  0.2881E+00  0.3828E+01  0.3047E+01
     10.009  0.8790E+00  0.3394E+00  0.4052E+01  0.3113E+01
     10.225  0.1389E+01  0.5016E+00  0.4264E+01  0.3202E+01
     10.440  0.7669E+00  0.6598E+00  0.4520E+01  0.3328E+01
     10.656  0.6213E+00  0.8706E+00  0.4669E+01  0.3493E+01
     10.872  0.5190E+00  0.1029E+01  0.4789E+01  0.3700E+01
     11.087  0.4955E+00  0.8680E+00  0.4898E+01  0.3906E+01
     11.303  0.5331E+00  0.8699E+00  0.5010E+01  0.4094E+01
     11.519  0.6613E+00  0.8273E+00  0.5146E+01  0.4283E+01
     11.734  0.2026E+00  0.9611E+00  0.5220E+01  0.4556E+01
     11.950  0.1042E+00  0.6718E+00  0.5252E+01  0.4729E+01
     12.166  0.1164E+00  0.5762E+00  0.5277E+01  0.4861E+01
     12.381  0.1195E+00  0.5885E+00  0.5302E+01  0.4987E+01
     12.597  0.1216E+00  0.7190E+00  0.5328E+01  0.5130E+01
     12.813  0.1199E+00  0.2397E+00  0.5354E+01  0.5217E+01
     13.028  0.1164E+00  0.1183E+00  0.5380E+01  0.5249E+01
     13.244  0.1118E+00  0.1353E+00  0.5404E+01  0.5278E+01
     13.460  0.1105E+00  0.1347E+00  0.5428E+01  0.5307E+01
     13.675  0.1104E+00  0.1338E+00  0.5452E+01  0.5336E+01
     13.891  0.1105E+00  0.1289E+00  0.5476E+01  0.5364E+01
     14.107  0.1108E+00  0.1239E+00  0.5500E+01  0.5392E+01
     14.322  0.1113E+00  0.1190E+00  0.5524E+01  0.5418E+01
     14.538  0.1114E+00  0.1183E+00  0.5548E+01  0.5443E+01
     14.754  0.1107E+00  0.1180E+00  0.5572E+01  0.5469E+01
     14.969  0.1093E+00  0.1180E+00  0.5595E+01  0.5494E+01
     15.185  0.1071E+00  0.1184E+00  0.5619E+01  0.5520E+01
     15.401  0.1116E+00  0.1181E+00  0.5643E+01  0.5545E+01
     15.616  0.1022E+00  0.1171E+00  0.5666E+01  0.5571E+01
     15.832  0.1019E+00  0.1151E+00  0.5688E+01  0.5596E+01
     16.048  0.1042E+00  0.1122E+00  0.5710E+01  0.5620E+01
     16.263  0.9930E-01  0.1145E+00  0.5733E+01  0.5646E+01
     16.479  0.9517E-01  0.1058E+00  0.5754E+01  0.5669E+01
     16.694  0.9191E-01  0.1062E+00  0.5774E+01  0.5692E+01
     16.910  0.8863E-01  0.1083E+00  0.5794E+01  0.5715E+01
     17.126  0.8535E-01  0.1008E+00  0.5813E+01  0.5739E+01
     17.341  0.8205E-01  0.9735E-01  0.5831E+01  0.5760E+01
     17.557  0.7876E-01  0.9388E-01  0.5848E+01  0.5781E+01
     17.773  0.7402E-01  0.9040E-01  0.5864E+01  0.5800E+01
     17.988  0.6901E-01  0.8693E-01  0.5880E+01  0.5820E+01
     18.204  0.6403E-01  0.8345E-01  0.5894E+01  0.5838E+01
     18.420  0.6743E-01  0.7996E-01  0.5908E+01  0.5856E+01
     18.635  0.6190E-01  0.7462E-01  0.5922E+01  0.5872E+01
     18.851  0.5334E-01  0.6931E-01  0.5935E+01  0.5888E+01
     19.067  0.3820E-01  0.7162E-01  0.5944E+01  0.5903E+01
     19.282  0.3514E-01  0.6611E-01  0.5952E+01  0.5917E+01
     19.498  0.3225E-01  0.5814E-01  0.5959E+01  0.5931E+01
     19.714  0.2672E-01  0.4090E-01  0.5967E+01  0.5942E+01
     19.929  0.2113E-01  0.3754E-01  0.5972E+01  0.5950E+01
     20.145  0.1703E-01  0.3438E-01  0.5976E+01  0.5958E+01
     20.361  0.1441E-01  0.2930E-01  0.5979E+01  0.5966E+01
     20.576  0.1324E-01  0.2316E-01  0.5982E+01  0.5972E+01
     20.792  0.1329E-01  0.1851E-01  0.5985E+01  0.5976E+01
     21.008  0.1451E-01  0.1533E-01  0.5988E+01  0.5980E+01
     21.223  0.1690E-01  0.1364E-01  0.5992E+01  0.5983E+01
     21.439  0.2045E-01  0.1326E-01  0.5996E+01  0.5986E+01
     21.655  0.2770E-01  0.1405E-01  0.6002E+01  0.5989E+01
     21.870  0.3214E-01  0.1602E-01  0.6008E+01  0.5992E+01
     22.086  0.3708E-01  0.2137E-01  0.6015E+01  0.5997E+01
     22.302  0.8456E-01  0.2446E-01  0.6028E+01  0.6002E+01
     22.517  0.1570E+00  0.2832E-01  0.6055E+01  0.6007E+01
     22.733  0.2046E+00  0.3292E-01  0.6094E+01  0.6014E+01
     22.949  0.2493E+00  0.4075E-01  0.6143E+01  0.6022E+01
     23.164  0.2640E+00  0.1386E+00  0.6201E+01  0.6045E+01
     23.380  0.1848E+00  0.1903E+00  0.6250E+01  0.6080E+01
     23.596  0.1729E+00  0.2393E+00  0.6288E+01  0.6126E+01
     23.811  0.1672E+00  0.2902E+00  0.6325E+01  0.6183E+01
     24.027  0.1609E+00  0.1986E+00  0.6360E+01  0.6240E+01
     24.242  0.1622E+00  0.1817E+00  0.6395E+01  0.6281E+01
     24.458  0.1655E+00  0.1753E+00  0.6430E+01  0.6320E+01
     24.674  0.1302E+00  0.1768E+00  0.6467E+01  0.6357E+01
     24.889  0.1301E+00  0.1825E+00  0.6495E+01  0.6397E+01
     25.105  0.1354E+00  0.1396E+00  0.6523E+01  0.6436E+01
     25.321  0.1461E+00  0.1357E+00  0.6553E+01  0.6466E+01
     25.536  0.1656E+00  0.1372E+00  0.6589E+01  0.6495E+01
     25.752  0.1674E+00  0.1443E+00  0.6625E+01  0.6525E+01
     25.968  0.1716E+00  0.1629E+00  0.6661E+01  0.6558E+01
     26.183  0.1765E+00  0.1725E+00  0.6699E+01  0.6596E+01
     26.399  0.1795E+00  0.1744E+00  0.6737E+01  0.6633E+01
     26.615  0.1821E+00  0.1787E+00  0.6776E+01  0.6671E+01
     26.830  0.1842E+00  0.1829E+00  0.6816E+01  0.6711E+01
     27.046  0.1849E+00  0.1860E+00  0.6856E+01  0.6750E+01
     27.262  0.1842E+00  0.1881E+00  0.6896E+01  0.6791E+01
     27.477  0.1919E+00  0.1894E+00  0.6936E+01  0.6831E+01
     27.693  0.1647E+00  0.1893E+00  0.6973E+01  0.6872E+01
     27.909  0.1624E+00  0.1945E+00  0.7008E+01  0.6913E+01
     28.124  0.1607E+00  0.1696E+00  0.7043E+01  0.6953E+01
     28.340  0.1654E+00  0.1671E+00  0.7080E+01  0.6989E+01
     28.556  0.1653E+00  0.1649E+00  0.7115E+01  0.7025E+01
     28.771  0.1652E+00  0.1692E+00  0.7151E+01  0.7062E+01
     28.987  0.1653E+00  0.1691E+00  0.7187E+01  0.7099E+01
     29.203  0.1721E+00  0.1692E+00  0.7223E+01  0.7135E+01
     29.418  0.1696E+00  0.1693E+00  0.7259E+01  0.7172E+01
     29.634  0.1661E+00  0.1701E+00  0.7296E+01  0.7208E+01
     29.850  0.1642E+00  0.1775E+00  0.7331E+01  0.7245E+01
     30.065  0.1636E+00  0.1724E+00  0.7367E+01  0.7283E+01
     30.281  0.1639E+00  0.1695E+00  0.7402E+01  0.7320E+01
     30.497  0.1643E+00  0.1684E+00  0.7437E+01  0.7356E+01
     30.712  0.1646E+00  0.1692E+00  0.7473E+01  0.7393E+01
     30.928  0.1655E+00  0.1699E+00  0.7508E+01  0.7429E+01
     31.144  0.1733E+00  0.1706E+00  0.7545E+01  0.7466E+01
     31.359  0.1772E+00  0.1721E+00  0.7583E+01  0.7503E+01
     31.575  0.1819E+00  0.1723E+00  0.7622E+01  0.7540E+01
     31.790  0.1864E+00  0.1724E+00  0.7662E+01  0.7577E+01
     32.006  0.1959E+00  0.1791E+00  0.7703E+01  0.7616E+01
     32.222  0.1893E+00  0.1785E+00  0.7744E+01  0.7655E+01
     32.437  0.1855E+00  0.1803E+00  0.7784E+01  0.7693E+01
     32.653  0.1881E+00  0.1782E+00  0.7825E+01  0.7732E+01
     32.869  0.1940E+00  0.1796E+00  0.7866E+01  0.7771E+01
     33.084  0.2008E+00  0.1891E+00  0.7908E+01  0.7811E+01
     33.300  0.2013E+00  0.1960E+00  0.7952E+01  0.7852E+01
     33.516  0.2001E+00  0.2043E+00  0.7995E+01  0.7896E+01
     33.731  0.1980E+00  0.2058E+00  0.8037E+01  0.7940E+01
     33.947  0.1960E+00  0.2051E+00  0.8080E+01  0.7984E+01
     34.163  0.1928E+00  0.2012E+00  0.8122E+01  0.8028E+01
     34.378  0.1969E+00  0.1984E+00  0.8164E+01  0.8071E+01
     34.594  0.2011E+00  0.1967E+00  0.8207E+01  0.8113E+01
     34.810  0.2060E+00  0.2010E+00  0.8251E+01  0.8156E+01
     35.025  0.2123E+00  0.2053E+00  0.8296E+01  0.8200E+01
     35.241  0.2193E+00  0.2102E+00  0.8342E+01  0.8245E+01
     35.457  0.2233E+00  0.2161E+00  0.8390E+01  0.8291E+01
     35.672  0.2318E+00  0.2223E+00  0.8439E+01  0.8338E+01
     35.888  0.2419E+00  0.2347E+00  0.8490E+01  0.8387E+01
     36.104  0.2528E+00  0.2361E+00  0.8544E+01  0.8438E+01
     36.319  0.2946E+00  0.2458E+00  0.8603E+01  0.8490E+01
     36.535  0.2386E+00  0.2565E+00  0.8657E+01  0.8544E+01
     36.751  0.2295E+00  0.2861E+00  0.8708E+01  0.8604E+01
     36.966  0.2187E+00  0.2431E+00  0.8756E+01  0.8659E+01
     37.182  0.1969E+00  0.2333E+00  0.8801E+01  0.8711E+01
     37.398  0.1813E+00  0.2227E+00  0.8842E+01  0.8760E+01
     37.613  0.1589E+00  0.1970E+00  0.8880E+01  0.8804E+01
     37.829  0.1449E+00  0.1761E+00  0.8912E+01  0.8846E+01
     38.045  0.1356E+00  0.1586E+00  0.8942E+01  0.8882E+01
     38.260  0.1309E+00  0.1452E+00  0.8971E+01  0.8914E+01
     38.476  0.1295E+00  0.1356E+00  0.8999E+01  0.8945E+01
     38.692  0.1304E+00  0.1317E+00  0.9027E+01  0.8973E+01
     38.907  0.1395E+00  0.1314E+00  0.9056E+01  0.9002E+01
     39.123  0.2477E+00  0.1335E+00  0.9090E+01  0.9030E+01
     39.338  0.1885E+00  0.1350E+00  0.9136E+01  0.9060E+01
     39.554  0.1646E+00  0.2028E+00  0.9174E+01  0.9105E+01
     39.770  0.1267E+00  0.1779E+00  0.9207E+01  0.9146E+01
     39.985  0.9405E-01  0.1552E+00  0.9230E+01  0.9182E+01
     40.201  0.8026E-01  0.1288E+00  0.9249E+01  0.9213E+01
     40.417  0.8475E-01  0.7642E-01  0.9266E+01  0.9233E+01
     40.632  0.8931E-01  0.8080E-01  0.9285E+01  0.9250E+01
     40.848  0.9394E-01  0.8526E-01  0.9305E+01  0.9268E+01
     41.064  0.9910E-01  0.8979E-01  0.9326E+01  0.9287E+01
     41.279  0.1139E+00  0.9440E-01  0.9348E+01  0.9307E+01
     41.495  0.1850E+00  0.1004E+00  0.9382E+01  0.9328E+01
     41.711  0.2349E+00  0.1244E+00  0.9427E+01  0.9351E+01
     41.926  0.2756E+00  0.1950E+00  0.9483E+01  0.9390E+01
     42.142  0.4166E+00  0.2382E+00  0.9559E+01  0.9436E+01
     42.358  0.2026E+00  0.2848E+00  0.9614E+01  0.9492E+01
     42.573  0.1801E+00  0.3616E+00  0.9655E+01  0.9564E+01
     42.789  0.1605E+00  0.2031E+00  0.9692E+01  0.9622E+01
     43.005  0.1437E+00  0.1807E+00  0.9724E+01  0.9664E+01
     43.220  0.1305E+00  0.1608E+00  0.9754E+01  0.9700E+01
     43.436  0.1184E+00  0.1434E+00  0.9781E+01  0.9733E+01
     43.652  0.1069E+00  0.1287E+00  0.9805E+01  0.9762E+01
     43.867  0.1011E+00  0.1152E+00  0.9827E+01  0.9789E+01
     44.083  0.1011E+00  0.1025E+00  0.9849E+01  0.9812E+01
     44.299  0.1014E+00  0.9893E-01  0.9871E+01  0.9834E+01
     44.514  0.1038E+00  0.9731E-01  0.9893E+01  0.9855E+01
     44.730  0.1412E+00  0.9778E-01  0.9922E+01  0.9876E+01
     44.946  0.1336E+00  0.1205E+00  0.9952E+01  0.9898E+01
     45.161  0.1207E+00  0.1302E+00  0.9979E+01  0.9926E+01
     45.377  0.1201E+00  0.1278E+00  0.1000E+02  0.9954E+01
     45.593  0.1866E+00  0.1236E+00  0.1004E+02  0.9982E+01
     45.808  0.2457E+00  0.1227E+00  0.1008E+02  0.1001E+02
     46.024  0.2684E+00  0.1869E+00  0.1014E+02  0.1004E+02
     46.240  0.2725E+00  0.2403E+00  0.1020E+02  0.1009E+02
     46.455  0.2795E+00  0.2630E+00  0.1026E+02  0.1014E+02
     46.671  0.2792E+00  0.2704E+00  0.1032E+02  0.1020E+02
     46.886  0.2696E+00  0.2764E+00  0.1038E+02  0.1026E+02
     47.102  0.2577E+00  0.2792E+00  0.1043E+02  0.1032E+02
     47.318  0.2435E+00  0.2712E+00  0.1049E+02  0.1038E+02
     47.533  0.2271E+00  0.2598E+00  0.1054E+02  0.1043E+02
     47.749  0.2287E+00  0.2459E+00  0.1059E+02  0.1049E+02
     47.965  0.2276E+00  0.2298E+00  0.1064E+02  0.1054E+02
     48.180  0.2273E+00  0.2297E+00  0.1069E+02  0.1059E+02
     48.396  0.2259E+00  0.2291E+00  0.1074E+02  0.1064E+02
     48.612  0.2234E+00  0.2296E+00  0.1078E+02  0.1069E+02
     48.827  0.2198E+00  0.2284E+00  0.1083E+02  0.1074E+02
     49.043  0.2131E+00  0.2254E+00  0.1088E+02  0.1079E+02
     49.259  0.2057E+00  0.2211E+00  0.1092E+02  0.1084E+02
     49.474  0.2243E+00  0.2126E+00  0.1097E+02  0.1088E+02
     49.690  0.2141E+00  0.2056E+00  0.1102E+02  0.1093E+02
     49.906  0.1989E+00  0.2240E+00  0.1106E+02  0.1097E+02
     50.121  0.1977E+00  0.2148E+00  0.1110E+02  0.1102E+02
     50.337  0.1980E+00  0.1979E+00  0.1115E+02  0.1107E+02
     50.553  0.1880E+00  0.1965E+00  0.1119E+02  0.1111E+02
     50.768  0.1977E+00  0.1782E+00  0.1123E+02  0.1115E+02
     50.984  0.2158E+00  0.1839E+00  0.1128E+02  0.1119E+02
     51.200  0.2110E+00  0.1923E+00  0.1132E+02  0.1123E+02
     51.415  0.2202E+00  0.2053E+00  0.1137E+02  0.1128E+02
     51.631  0.2232E+00  0.2058E+00  0.1142E+02  0.1132E+02
     51.847  0.2229E+00  0.2109E+00  0.1146E+02  0.1137E+02
     52.062  0.2067E+00  0.2182E+00  0.1151E+02  0.1141E+02
     52.278  0.1910E+00  0.2195E+00  0.1155E+02  0.1146E+02
     52.494  0.1826E+00  0.2099E+00  0.1159E+02  0.1151E+02
     52.709  0.1759E+00  0.1963E+00  0.1163E+02  0.1155E+02
     52.925  0.1677E+00  0.1845E+00  0.1167E+02  0.1159E+02
     53.141  0.1697E+00  0.1771E+00  0.1171E+02  0.1163E+02
     53.356  0.1599E+00  0.1687E+00  0.1174E+02  0.1167E+02
     53.572  0.1492E+00  0.1706E+00  0.1178E+02  0.1170E+02
     53.788  0.1407E+00  0.1606E+00  0.1181E+02  0.1174E+02
     54.003  0.1232E+00  0.1498E+00  0.1184E+02  0.1177E+02
     54.219  0.1073E+00  0.1398E+00  0.1186E+02  0.1180E+02
     54.434  0.8105E-01  0.1219E+00  0.1188E+02  0.1183E+02
     54.650  0.7208E-01  0.1048E+00  0.1190E+02  0.1186E+02
     54.866  0.6464E-01  0.8218E-01  0.1191E+02  0.1188E+02
     55.081  0.5249E-01  0.7357E-01  0.1192E+02  0.1189E+02
     55.297  0.4825E-01  0.6603E-01  0.1194E+02  0.1191E+02
     55.513  0.4422E-01  0.5957E-01  0.1195E+02  0.1192E+02
     55.728  0.3621E-01  0.4896E-01  0.1195E+02  0.1193E+02
     55.944  0.3299E-01  0.4042E-01  0.1196E+02  0.1195E+02
     56.160  0.2995E-01  0.3693E-01  0.1197E+02  0.1195E+02
     56.375  0.2708E-01  0.3361E-01  0.1197E+02  0.1196E+02
     56.591  0.2438E-01  0.3048E-01  0.1198E+02  0.1197E+02
     56.807  0.2184E-01  0.2752E-01  0.1199E+02  0.1197E+02
     57.022  0.1948E-01  0.2475E-01  0.1199E+02  0.1198E+02
     57.238  0.1372E-01  0.2216E-01  0.1199E+02  0.1199E+02
     57.454  0.7641E-02  0.1770E-01  0.1200E+02  0.1199E+02
     57.669  0.4745E-02  0.1104E-01  0.1200E+02  0.1199E+02
     57.885  0.2536E-02  0.7846E-02  0.1200E+02  0.1200E+02
     58.101  0.1013E-02  0.5193E-02  0.1200E+02  0.1200E+02
     58.316  0.1768E-03  0.3086E-02  0.1200E+02  0.1200E+02
     58.532  0.0000E+00  0.1524E-02  0.1200E+02  0.1200E+02
     58.748  0.0000E+00  0.5071E-03  0.1200E+02  0.1200E+02
     58.963  0.0000E+00  0.3606E-04  0.1200E+02  0.1200E+02
     59.179  0.0000E+00  0.0000E+00  0.1200E+02  0.1200E+02
     59.395  0.0000E+00  0.0000E+00  0.1200E+02  0.1200E+02
     59.610  0.0000E+00  0.0000E+00  0.1200E+02  0.1200E+02
     59.826  0.0000E+00  0.0000E+00  0.1200E+02  0.1200E+02
     60.042  0.0000E+00  0.0000E+00  0.1200E+02  0.1200E+02
     60.257  0.0000E+00  0.0000E+00  0.1200E+02  0.1200E+02
     60.473  0.0000E+00  0.0000E+00  0.1200E+02  0.1200E+02
     60.689  0.0000E+00  0.0000E+00  0.1200E+02  0.1200E+02
     60.904  0.0000E+00  0.0000E+00  0.1200E+02  0.1200E+02
     61.120  0.0000E+00  0.0000E+00  0.1200E+02  0.1200E+02
     61.336  0.0000E+00  0.0000E+00  0.1200E+02  0.1200E+02
     61.551  0.0000E+00  0.0000E+00  0.1200E+02  0.1200E+02
     61.767  0.0000E+00  0.0000E+00  0.1200E+02  0.1200E+02
     61.982  0.0000E+00  0.0000E+00  0.1200E+02  0.1200E+02
     61.98248217     -2.71466392  301     10.54649126      1.00000000
     -2.715  0.0000E+00  0.0000E+00  0.0000E+00  0.0000E+00  0.0000E+00  0.0000E+00  0.0000E+00  0.0000E+00  0.0000E+00  0.0000E+00  0.0000E+00  0.0000E+00  0.0000E+00  0.0000E+00  0.0000E+00  0.0000E+00  0.0000E+00  0.0000E+00
     -2.499  0.0000E+00  0.0000E+00  0.0000E+00  0.0000E+00  0.0000E+00  0.0000E+00  0.0000E+00  0.0000E+00  0.0000E+00  0.0000E+00  0.0000E+00  0.0000E+00  0.0000E+00  0.0000E+00  0.0000E+00  0.0000E+00  0.0000E+00  0.0000E+00
     -2.283  0.0000E+00  0.0000E+00  0.0000E+00  0.0000E+00  0.0000E+00  0.0000E+00  0.0000E+00  0.0000E+00  0.0000E+00  0.0000E+00  0.0000E+00  0.0000E+00  0.0000E+00  0.0000E+00  0.0000E+00  0.0000E+00  0.0000E+00  0.0000E+00
     -2.068  0.0000E+00  0.0000E+00  0.0000E+00  0.0000E+00  0.0000E+00  0.0000E+00  0.0000E+00  0.0000E+00  0.0000E+00  0.0000E+00  0.0000E+00  0.0000E+00  0.0000E+00  0.0000E+00  0.0000E+00  0.0000E+00  0.0000E+00  0.0000E+00
     -1.852  0.0000E+00  0.0000E+00  0.0000E+00  0.0000E+00  0.0000E+00  0.0000E+00  0.0000E+00  0.0000E+00  0.0000E+00  0.0000E+00  0.0000E+00  0.0000E+00  0.0000E+00  0.0000E+00  0.0000E+00  0.0000E+00  0.0000E+00  0.0000E+00
     -1.636  0.0000E+00  0.0000E+00  0.0000E+00  0.0000E+00  0.0000E+00  0.0000E+00  0.0000E+00  0.0000E+00  0.0000E+00  0.0000E+00  0.0000E+00  0.0000E+00  0.0000E+00  0.0000E+00  0.0000E+00  0.0000E+00  0.0000E+00  0.0000E+00
     -1.421  0.0000E+00  0.0000E+00  0.0000E+00  0.0000E+00  0.0000E+00  0.0000E+00  0.0000E+00  0.0000E+00  0.0000E+00  0.0000E+00  0.0000E+00  0.0000E+00  0.0000E+00  0.0000E+00  0.0000E+00  0.0000E+00  0.0000E+00  0.0000E+00
     -1.205  0.0000E+00  0.0000E+00  0.0000E+00  0.0000E+00  0.0000E+00  0.0000E+00  0.0000E+00  0.0000E+00  0.0000E+00  0.0000E+00  0.0000E+00  0.0000E+00  0.0000E+00  0.0000E+00  0.0000E+00  0.0000E+00  0.0000E+00  0.0000E+00
     -0.989  0.0000E+00  0.0000E+00  0.0000E+00  0.0000E+00  0.0000E+00  0.0000E+00  0.0000E+00  0.0000E+00  0.0000E+00  0.0000E+00  0.0000E+00  0.0000E+00  0.0000E+00  0.0000E+00  0.0000E+00  0.0000E+00  0.0000E+00  0.0000E+00
     -0.774  0.0000E+00  0.0000E+00  0.0000E+00  0.0000E+00  0.0000E+00  0.0000E+00  0.0000E+00  0.0000E+00  0.0000E+00  0.0000E+00  0.0000E+00  0.0000E+00  0.0000E+00  0.0000E+00  0.0000E+00  0.0000E+00  0.0000E+00  0.0000E+00
     -0.558  0.0000E+00  0.0000E+00  0.0000E+00  0.0000E+00  0.0000E+00  0.0000E+00  0.0000E+00  0.0000E+00  0.0000E+00  0.0000E+00  0.0000E+00  0.0000E+00  0.0000E+00  0.0000E+00  0.0000E+00  0.0000E+00  0.0000E+00  0.0000E+00
     -0.342  0.0000E+00  0.0000E+00  0.0000E+00  0.0000E+00  0.0000E+00  0.0000E+00  0.0000E+00  0.0000E+00  0.0000E+00  0.0000E+00  0.0000E+00  0.0000E+00  0.0000E+00  0.0000E+00  0.0000E+00  0.0000E+00  0.0000E+00  0.0000E+00
     -0.127  0.0000E+00  0.0000E+00  0.0000E+00  0.0000E+00  0.0000E+00  0.0000E+00  0.0000E+00  0.0000E+00  0.0000E+00  0.0000E+00  0.0000E+00  0.0000E+00  0.0000E+00  0.0000E+00  0.0000E+00  0.0000E+00  0.0000E+00  0.0000E+00
      0.089  0.0000E+00  0.0000E+00  0.0000E+00  0.0000E+00  0.0000E+00  0.0000E+00  0.0000E+00  0.0000E+00  0.0000E+00  0.0000E+00  0.0000E+00  0.0000E+00  0.0000E+00  0.0000E+00  0.0000E+00  0.0000E+00  0.0000E+00  0.0000E+00
      0.305  0.9826E-02  0.0000E+00  0.1176E-03  0.0000E+00  0.8113E-04  0.0000E+00  0.5232E-03  0.0000E+00  0.4080E-04  0.0000E+00  0.9880E-05  0.0000E+00  0.1386E-04  0.0000E+00  0.9371E-05  0.0000E+00  0.1408E-04  0.0000E+00
      0.520  0.1457E-01  0.7894E-02  0.2516E-03  0.7012E-04  0.1615E-03  0.4871E-04  0.9149E-03  0.3901E-03  0.9752E-04  0.2076E-04  0.2707E-04  0.5027E-05  0.3403E-04  0.7247E-05  0.1990E-04  0.5027E-05  0.3417E-04  0.8413E-05
      0.736  0.1852E-01  0.1284E-01  0.3891E-03  0.2015E-03  0.2287E-03  0.1327E-03  0.1352E-02  0.7589E-03  0.1687E-03  0.6486E-04  0.5202E-04  0.1740E-04  0.6202E-04  0.2166E-04  0.3049E-04  0.1433E-04  0.6515E-04  0.2216E-04
      0.952  0.2169E-01  0.1700E-01  0.5300E-03  0.3362E-03  0.2826E-03  0.2038E-03  0.1834E-02  0.1171E-02  0.2542E-03  0.1209E-03  0.8473E-04  0.3582E-04  0.9784E-04  0.4241E-04  0.4113E-04  0.2356E-04  0.1070E-03  0.4479E-04
      1.167  0.2623E-01  0.2038E-01  0.7644E-03  0.4744E-03  0.3948E-03  0.2620E-03  0.2519E-02  0.1625E-02  0.3858E-03  0.1888E-03  0.1630E-03  0.6028E-04  0.1533E-03  0.6951E-04  0.6188E-04  0.3272E-04  0.1720E-03  0.7631E-04
      1.383  0.3125E-01  0.2360E-01  0.1081E-02  0.6410E-03  0.5854E-03  0.3261E-03  0.3295E-02  0.2170E-02  0.5783E-03  0.2755E-03  0.3326E-03  0.9793E-04  0.2391E-03  0.1052E-03  0.1077E-03  0.4376E-04  0.2707E-03  0.1191E-03
      1.598  0.3490E-01  0.2895E-01  0.1410E-02  0.9451E-03  0.8078E-03  0.4997E-03  0.4013E-02  0.2940E-02  0.8128E-03  0.4211E-03  0.5789E-03  0.2090E-03  0.3496E-03  0.1656E-03  0.1757E-03  0.7485E-04  0.3973E-03  0.1899E-03
      1.814  0.3500E-01  0.3295E-01  0.1745E-02  0.1261E-02  0.1101E-02  0.7042E-03  0.4814E-02  0.3650E-02  0.1138E-02  0.5983E-03  0.9909E-03  0.3789E-03  0.5421E-03  0.2434E-03  0.3105E-03  0.1233E-03  0.6779E-03  0.2812E-03
      2.030  0.3861E-01  0.3560E-01  0.2075E-02  0.1589E-02  0.1356E-02  0.9395E-03  0.5808E-02  0.4300E-02  0.1773E-02  0.8071E-03  0.1332E-02  0.6077E-03  0.9134E-03  0.3387E-03  0.4587E-03  0.1891E-03  0.9526E-03  0.3931E-03
      2.245  0.4252E-01  0.3566E-01  0.2424E-02  0.1898E-02  0.1629E-02  0.1227E-02  0.6939E-02  0.5153E-02  0.2567E-02  0.1190E-02  0.1743E-02  0.9353E-03  0.1389E-02  0.5619E-03  0.6495E-03  0.3198E-03  0.1284E-02  0.6599E-03
      2.461  0.4674E-01  0.3892E-01  0.2791E-02  0.2216E-02  0.1920E-02  0.1477E-02  0.8206E-02  0.6111E-02  0.3519E-02  0.1732E-02  0.2224E-02  0.1215E-02  0.1968E-02  0.8613E-03  0.8830E-03  0.4508E-03  0.1671E-02  0.8905E-03
      2.677  0.5126E-01  0.4240E-01  0.3176E-02  0.2549E-02  0.2227E-02  0.1740E-02  0.9609E-02  0.7182E-02  0.4630E-02  0.2383E-02  0.2775E-02  0.1543E-02  0.2652E-02  0.1228E-02  0.1159E-02  0.6119E-03  0.2114E-02  0.1160E-02
      2.892  0.5609E-01  0.4611E-01  0.3580E-02  0.2897E-02  0.2552E-02  0.2017E-02  0.1115E-01  0.8367E-02  0.5900E-02  0.3143E-02  0.3395E-02  0.1917E-02  0.3440E-02  0.1661E-02  0.1478E-02  0.8030E-03  0.2614E-02  0.1469E-02
      3.108  0.6864E-01  0.5005E-01  0.4974E-02  0.3259E-02  0.3878E-02  0.2308E-02  0.1428E-01  0.9666E-02  0.1000E-01  0.4013E-02  0.7013E-02  0.2339E-02  0.6142E-02  0.2162E-02  0.2718E-02  0.1024E-02  0.4062E-02  0.1817E-02
      3.324  0.1086E+00  0.5421E-01  0.7459E-02  0.3636E-02  0.6061E-02  0.2613E-02  0.2400E-01  0.1108E-01  0.5448E-01  0.4991E-02  0.2629E-01  0.2807E-02  0.6168E-01  0.2730E-02  0.4822E-02  0.1276E-02  0.3354E-01  0.2204E-02
      3.539  0.1320E+00  0.6350E-01  0.8836E-02  0.4795E-02  0.7804E-02  0.3781E-02  0.3622E-01  0.1381E-01  0.8345E-01  0.7991E-02  0.5524E-01  0.5572E-02  0.1036E+00  0.4660E-02  0.8353E-02  0.2299E-02  0.5586E-01  0.3304E-02
      3.755  0.1251E+00  0.7318E-01  0.9055E-02  0.5856E-02  0.8373E-02  0.4928E-02  0.4211E-01  0.1747E-01  0.8992E-01  0.1266E-01  0.5672E-01  0.9207E-02  0.1339E+00  0.7926E-02  0.1202E-01  0.3512E-02  0.7102E-01  0.5054E-02
      3.971  0.1276E+00  0.9573E-01  0.1051E-01  0.7079E-02  0.9819E-02  0.5846E-02  0.5305E-01  0.2580E-01  0.1089E+00  0.3339E-01  0.6520E-01  0.1951E-01  0.1910E+00  0.2184E-01  0.1688E-01  0.5082E-02  0.8231E-01  0.9874E-02
      4.186  0.1377E+00  0.1239E+00  0.1226E-01  0.8234E-02  0.1184E-01  0.7801E-02  0.7801E-01  0.3465E-01  0.1363E+00  0.7433E-01  0.7444E-01  0.5198E-01  0.2598E+00  0.7590E-01  0.2892E-01  0.7226E-02  0.1094E+00  0.4088E-01
      4.402  0.1045E+00  0.1177E+00  0.1161E-01  0.8184E-02  0.1069E-01  0.8458E-02  0.7236E-01  0.3922E-01  0.1093E+00  0.7889E-01  0.8543E-01  0.5112E-01  0.1999E+00  0.9638E-01  0.4149E-01  0.9827E-02  0.1242E+00  0.5186E-01
      4.618  0.5868E-01  0.1154E+00  0.9791E-02  0.8687E-02  0.6918E-02  0.9166E-02  0.4750E-01  0.4489E-01  0.7458E-01  0.8545E-01  0.9331E-01  0.5847E-01  0.1130E+00  0.1216E+00  0.4997E-01  0.1279E-01  0.1023E+00  0.6675E-01
      4.833  0.2962E-01  0.1216E+00  0.8528E-02  0.1069E-01  0.4463E-02  0.1136E-01  0.2598E-01  0.6070E-01  0.4480E-01  0.1168E+00  0.8132E-01  0.6660E-01  0.5850E-01  0.1993E+00  0.4217E-01  0.1896E-01  0.7931E-01  0.8512E-01
      5.049  0.1241E-01  0.1102E+00  0.8099E-02  0.1173E-01  0.2717E-02  0.1221E-01  0.1810E-01  0.7734E-01  0.1892E-01  0.1125E+00  0.5553E-01  0.7808E-01  0.3797E-01  0.2249E+00  0.2643E-01  0.3190E-01  0.7251E-01  0.1124E+00
      5.265  0.5017E-02  0.7353E-01  0.1207E-01  0.1013E-01  0.4651E-02  0.9829E-02  0.1668E-01  0.6192E-01  0.1289E-01  0.9234E-01  0.4546E-01  0.8319E-01  0.5041E-01  0.1625E+00  0.3031E-01  0.3837E-01  0.8548E-01  0.1036E+00
      5.480  0.1734E-02  0.4430E-01  0.4073E-01  0.8408E-02  0.3446E-01  0.7194E-02  0.2456E-01  0.3818E-01  0.2482E+00  0.6557E-01  0.1148E+00  0.8131E-01  0.9779E-01  0.8522E-01  0.3544E+00  0.3859E-01  0.1259E+00  0.8036E-01
      5.696  0.3134E-02  0.2201E-01  0.3562E-01  0.7286E-02  0.2584E-01  0.4694E-02  0.2223E-01  0.2273E-01  0.1668E+00  0.3938E-01  0.1861E+00  0.6540E-01  0.1018E+00  0.4543E-01  0.3858E+00  0.2899E-01  0.1319E+00  0.6720E-01
      5.912  0.3862E-02  0.6758E-02  0.2564E-01  0.6762E-02  0.1379E-01  0.2730E-02  0.1933E-01  0.1582E-01  0.8902E-01  0.1303E-01  0.1476E+00  0.4052E-01  0.8728E-01  0.2963E-01  0.2762E+00  0.1002E-01  0.1249E+00  0.6305E-01
      6.127  0.1613E-02  0.2951E-02  0.8534E-02  0.1292E-01  0.4310E-02  0.5565E-02  0.4636E-02  0.1676E-01  0.6763E-01  0.1639E-01  0.6016E-01  0.3538E-01  0.5513E-01  0.4758E-01  0.1460E+00  0.2253E-01  0.4353E-01  0.8235E-01
      6.343  0.8199E-02  0.1552E-02  0.1488E-01  0.4892E-01  0.1776E-01  0.2340E-01  0.7978E-02  0.2926E-01  0.8544E-01  0.1864E+00  0.5765E-01  0.1279E+00  0.3735E-01  0.8536E-01  0.1095E+00  0.3617E+00  0.2839E-01  0.1282E+00
      6.559  0.1369E-01  0.2620E-02  0.2818E-01  0.4113E-01  0.3219E-01  0.1926E-01  0.1857E-01  0.2566E-01  0.1076E+00  0.1353E+00  0.8938E-01  0.1797E+00  0.3404E-01  0.9055E-01  0.1100E+00  0.3704E+00  0.4281E-01  0.1265E+00
      6.774  0.1984E-01  0.3259E-02  0.4044E-01  0.2858E-01  0.4199E-01  0.1136E-01  0.2969E-01  0.2074E-01  0.1430E+00  0.7929E-01  0.1443E+00  0.1380E+00  0.3928E-01  0.7831E-01  0.1272E+00  0.2601E+00  0.6470E-01  0.1126E+00
      6.990  0.2805E-01  0.6714E-02  0.5549E-01  0.2067E-01  0.4866E-01  0.1668E-01  0.5002E-01  0.1161E-01  0.2097E+00  0.9139E-01  0.2115E+00  0.8007E-01  0.4714E-01  0.6441E-01  0.1777E+00  0.1717E+00  0.9530E-01  0.6390E-01
      7.206  0.3458E-01  0.9112E-02  0.7390E-01  0.2256E-01  0.5231E-01  0.2903E-01  0.6635E-01  0.1033E-01  0.3018E+00  0.1087E+00  0.2376E+00  0.6591E-01  0.5588E-01  0.4030E-01  0.2635E+00  0.1284E+00  0.1306E+00  0.3020E-01
      7.421  0.1831E-01  0.1238E-01  0.4148E-01  0.3239E-01  0.3196E-01  0.4183E-01  0.2843E-01  0.1908E-01  0.9131E-01  0.1221E+00  0.9703E-01  0.9190E-01  0.2031E-01  0.2975E-01  0.1207E+00  0.1197E+00  0.6243E-01  0.3549E-01
      7.637  0.1153E-01  0.1747E-01  0.3028E-01  0.4482E-01  0.2306E-01  0.4957E-01  0.1838E-01  0.3179E-01  0.4388E-01  0.1553E+00  0.6202E-01  0.1467E+00  0.1156E-01  0.3287E-01  0.6457E-01  0.1328E+00  0.4546E-01  0.5427E-01
      7.853  0.8568E-02  0.2488E-01  0.2514E-01  0.6250E-01  0.1850E-01  0.5529E-01  0.1484E-01  0.5498E-01  0.3630E-01  0.2129E+00  0.5666E-01  0.2219E+00  0.1016E-01  0.3980E-01  0.5819E-01  0.1816E+00  0.3858E-01  0.8157E-01
      8.068  0.6358E-02  0.2883E-01  0.2118E-01  0.7815E-01  0.1539E-01  0.5026E-01  0.1195E-01  0.6825E-01  0.3493E-01  0.2803E+00  0.5420E-01  0.2313E+00  0.1049E-01  0.4459E-01  0.5544E-01  0.2351E+00  0.3320E-01  0.1060E+00