    1    1    1    2
  0.7812500E+01  0.2165064E-09  0.2165064E-09  0.2165064E-09  0.5000000E-15
  1.000000000000000E-004
  CAR 
 Fe BCC                                  
      8     26     12
 
  0.6250000E-01  0.6250000E-01  0.6250000E-01  0.1562500E-01
    1        1.046573      1.347668   1.000000   1.000000
    2        6.969650      7.893003   1.000000   1.000000
    3        6.969650      7.893003   1.000000   1.000000
    4        8.436037      9.407328   1.000000   1.051962
    5        9.659698     11.009452   1.000000  -0.043221
    6        9.659698     11.009452   1.022714   0.000000
    7       36.248519     36.611383   0.000000   0.000000
    8       36.248519     36.611383   0.000000   0.000000
    9       40.188044     40.353654   0.000000   0.000000
   10       44.797934     45.360547   0.000000   0.000000
   11       48.706074     49.057874   0.000000   0.000000
   12       48.706074     49.057874   0.000000   0.000000
 
  0.1875000E+00  0.6250000E-01  0.6250000E-01  0.4687500E-01
    1        2.967718      3.337516   1.000000   1.000000
    2        6.215482      7.097455   1.000000   1.000000
    3        6.638234      7.498789   1.000000   1.000000
    4        9.533172     10.825489   1.000000   0.317898
    5        9.919973     11.246190   1.012762  -0.028161
    6       10.251206     11.292832   0.616411   0.000000
    7       31.090473     31.629921   0.000000   0.000000
    8       33.851846     34.254767   0.000000   0.000000
    9       39.747628     40.260925   0.000000   0.000000
   10       41.488025     41.733106   0.000000   0.000000
   11       49.392520     49.743443   0.000000   0.000000
   12       49.553772     50.062964   0.000000   0.000000
 
  0.3125000E+00  0.6250000E-01  0.6250000E-01  0.4687500E-01
    1        3.657402      4.299394   1.000000   1.000000
    2        5.589722      6.436778   1.000000   1.000000
    3        8.095820      8.716190   1.000000   1.000000
    4        9.807524     11.077702   1.000000  -0.026375
    5       10.139622     11.541872   0.877157  -0.000741
    6       12.544528     13.501594  -0.047913   0.000000
    7       25.380015     26.056588   0.000000   0.000000
    8       31.668429     32.040187   0.000000   0.000000
    9       36.456293     36.923036   0.000000   0.000000
   10       41.950558     42.319625   0.000000   0.000000
   11       48.807497     49.306742   0.000000   0.000000
   12       53.171154     53.504687   0.000000   0.000000
 
  0.4375000E+00  0.6250000E-01  0.6250000E-01  0.2343750E-01
    1        3.462367      4.174105   1.000000   1.000000
    2        5.353516      6.187823   1.000000   1.000000
    3        9.566997     10.177671   1.000000   1.000000
    4        9.949209     11.226391   1.000000  -0.016437
    5       10.234581     11.651646   0.654426   0.000000
    6       14.127730     14.950904  -0.000076   0.000000
    7       22.177720     22.969524   0.000000   0.000000
    8       30.801326     31.151638   0.000000   0.000000
    9       35.203146     35.643037   0.000000   0.000000
   10       42.018383     42.430278   0.000000   0.000000
   11       48.950241     49.474346   0.000000   0.000000
   12       52.245462     52.524794   0.000000   0.000000
 
 -0.6250000E-01  0.6250000E-01  0.6250000E-01  0.1171875E-01
    1        0.226115      0.519712   1.000000   1.000000
    2        7.355972      8.296632   1.000000   1.000000
    3        7.355973      8.296632   1.000000   1.000000
    4        7.515348      8.466387   1.000000   1.002996
    5        9.502674     10.845921   1.000000   0.056292
    6        9.914227     11.294610   1.009126   0.000000
    7       37.524085     37.787895   0.000000   0.000000
    8       39.160453     39.367016   0.000000   0.000000
    9       39.160453     39.367016   0.000000   0.000000
   10       45.203970     45.603375   0.000000   0.000000
   11       49.752266     50.214794   0.000000   0.000000
   12       49.752429     50.330298   0.000000   0.000000
 
  0.1875000E+00  0.1875000E+00  0.6250000E-01  0.4687500E-01
    1        4.516655      5.063895   1.000000   1.000000
    2        5.737585      6.589069   1.000000   1.000000
    3        6.231294      6.973385   1.000000   1.000000
    4        9.691333     10.986026   1.000000   0.002275
    5       10.194236     11.571937   1.001619  -0.000880
    6       12.916317     13.867428  -0.069309   0.000000
    7       28.119760     28.717076   0.000000   0.000000
    8       29.468568     29.968199   0.000000   0.000000
    9       35.062453     35.526124   0.000000   0.000000
   10       43.934981     44.173485   0.000000   0.000000
   11       49.973747     50.344815   0.000000   0.000000
   12       52.999438     53.413548   0.000000   0.000000
 
  0.3125000E+00  0.1875000E+00  0.6250000E-01  0.9375000E-01
    1        4.488640      5.216443   1.000000   1.000000
    2        5.463999      6.278142   1.000000   1.000000
    3        7.345479      8.052710   1.000000   1.000000
    4        9.968332     11.266208   1.000000  -0.016775
    5       10.360863     11.723980   0.843665   0.000000
    6       16.136969     16.947314  -0.000125   0.000000
    7       23.298944     23.997191   0.000000   0.000000
    8       27.501109     28.012253   0.000000   0.000000
    9       33.098154     33.537579   0.000000   0.000000
   10       44.992240     45.295811   0.000000   0.000000
   11       50.452505     50.758624   0.000000   0.000000
   12       54.300694     54.772628   0.000000   0.000000
 
 -0.1875000E+00  0.1875000E+00  0.6250000E-01  0.4687500E-01
    1        1.772941      2.090856   1.000000   1.000000
    2        6.849079      7.761030   1.000000   1.000000
    3        7.204041      8.125182   1.000000   1.000000
    4        8.612075      9.594591   1.000000   1.066800
    5        9.013325     10.279228   1.003184   0.554735
    6       10.120461     11.506164   0.953093   0.000000
    7       33.884922     34.352227   0.000000   0.000000
    8       37.128078     37.439861   0.000000   0.000000
    9       39.078600     39.426978   0.000000   0.000000
   10       44.514395     44.868850   0.000000   0.000000
   11       46.031275     46.540013   0.000000   0.000000
   12       47.566765     48.049600   0.000000   0.000000
 
  0.3125000E+00  0.3125000E+00  0.6250000E-01  0.1562500E-01
    1        4.882071      5.647557   1.000000   1.000000
    2        6.205253      6.978587   1.000000   1.000000
    3        6.205253      6.978587   1.000000   1.000000
    4       10.235518     11.558629   1.000000  -0.001389
    5       10.235518     11.558629   0.952193   0.000000
    6       20.490665     21.205502   0.000000   0.000000
    7       20.490665     21.205503   0.000000   0.000000
    8       24.562432     25.135343   0.000000   0.000000
    9       32.451611     32.903606   0.000000   0.000000
   10       47.865908     48.153032   0.000000   0.000000
   11       47.865908     48.153032   0.000000   0.000000
   12       58.471047     59.041703   0.000000   0.000000
 
 -0.3125000E+00  0.3125000E+00  0.6250000E-01  0.4687500E-01
    1        3.353131      3.866352   1.000000   1.000000
    2        6.119499      6.994532   1.000000   1.000000
    3        7.438172      8.217318   1.000000   1.000000
    4        9.385159     10.562322   1.000000   0.501620
    5       10.434594     11.479779   0.787431  -0.020361
    6       10.456510     11.800567   0.278255   0.000000
    7       28.196148     28.820385   0.000000   0.000000
    8       34.119699     34.434656   0.000000   0.000000
    9       37.999466     38.470673   0.000000   0.000000
   10       43.066738     43.516638   0.000000   0.000000
   11       45.620585     46.071173   0.000000   0.000000
   12       48.442825     48.834239   0.000000   0.000000
 
 -0.1875000E+00  0.3125000E+00  0.6250000E-01  0.4687500E-01
    1        3.447593      3.858180   1.000000   1.000000
    2        6.434847      7.369888   1.000000   1.000000
    3        6.854693      7.712761   1.000000   1.000000
    4        8.747466      9.918644   1.000000   1.049258
    5        9.997254     11.054441   1.023658   0.008268
    6       10.765422     12.062201   0.165432   0.000000
    7       31.005245     31.585532   0.000000   0.000000
    8       32.758354     33.205315   0.000000   0.000000
    9       39.309230     39.674105   0.000000   0.000000
   10       41.271310     41.696783   0.000000   0.000000
   11       45.337108     45.743376   0.000000   0.000000
   12       50.733794     51.169973   0.000000   0.000000
 
 -0.4375000E+00  0.4375000E+00  0.6250000E-01  0.4687500E-01
    1        3.316520      4.017782   1.000000   1.000000
    2        5.636243      6.488891   1.000000   1.000000
    3        8.767426      9.658242   1.000000   1.000000
    4        9.748084     10.967662   1.000000   0.000113
    5       11.931038     12.887172  -0.181485   0.000000
    6       11.986455     13.039462  -0.006260   0.000000
    7       23.137184     23.899485   0.000000   0.000000
    8       32.290784     32.582318   0.000000   0.000000
    9       36.251397     36.706550   0.000000   0.000000
   10       42.145219     42.615614   0.000000   0.000000
   11       46.589388     47.105114   0.000000   0.000000
   12       49.452068     49.780173   0.000000   0.000000
 
 -0.3125000E+00  0.4375000E+00  0.6250000E-01  0.9375000E-01
    1        4.163043      4.837350   1.000000   1.000000
    2        5.925727      6.798188   1.000000   1.000000
    3        7.057394      7.874302   1.000000   1.000000
    4        9.312000     10.463208   1.000000   0.511358
    5       10.783035     11.991269   0.219148  -0.002108
    6       13.280975     14.238821  -0.018761   0.000000
    7       25.740216     26.411084   0.000000   0.000000
    8       29.952712     30.442972   0.000000   0.000000
    9       37.477999     37.857293   0.000000   0.000000
   10       41.434061     41.857624   0.000000   0.000000
   11       45.632342     46.024470   0.000000   0.000000
   12       51.909927     52.380539   0.000000   0.000000
 
 -0.4375000E+00 -0.4375000E+00  0.6250000E-01  0.4687500E-01
    1        3.947684      4.702027   1.000000   1.000000
    2        5.888446      6.740650   1.000000   1.000000
    3        7.353247      8.233462   1.000000   1.000000
    4        9.538931     10.723361   1.000000   0.104080
    5       11.327420     12.472019  -0.098228   0.000000
    6       15.628690     16.424799  -0.000024   0.000000
    7       22.168526     22.942737   0.000000   0.000000
    8       29.066953     29.551983   0.000000   0.000000
    9       36.334795     36.696506   0.000000   0.000000
   10       42.259232     42.734003   0.000000   0.000000
   11       45.820991     46.146305   0.000000   0.000000
   12       51.291691     51.794285   0.000000   0.000000
 
 -0.3125000E+00 -0.4375000E+00  0.6250000E-01  0.4687500E-01
    1        5.086333      5.852186   1.000000   1.000000
    2        5.455589      6.327030   1.000000   1.000000
    3        6.422501      7.275757   1.000000   1.000000
    4        9.852428     11.003208   0.999951  -0.016511
    5       10.700239     11.874653   0.126406   0.000000
    6       17.572786     18.379169   0.000000   0.000000
    7       23.044512     23.769418   0.000000   0.000000
    8       25.363237     25.909769   0.000000   0.000000
    9       38.645399     39.055666   0.000000   0.000000
   10       40.950262     41.328395   0.000000   0.000000
   11       43.823703     44.199957   0.000000   0.000000
   12       55.003374     55.627484   0.000000   0.000000
 
  0.1875000E+00  0.1875000E+00  0.1875000E+00  0.1562500E-01
    1        5.456838      6.251699   1.000000   1.000000
    2        5.456838      6.251699   1.000000   1.000000
    3        6.127017      6.715789   1.000000   1.000000
    4       10.169351     11.556394   1.000000  -0.000694
    5       10.169351     11.556394   1.006969   0.000000
    6       16.292039     17.125932  -0.000355   0.000000
    7       26.141450     26.730079   0.000000   0.000000
    8       26.141450     26.730079   0.000000   0.000000
    9       29.597033     30.045421   0.000000   0.000000
   10       49.177584     49.346743   0.000000   0.000000
   11       53.994664     54.321696   0.000000   0.000000
   12       53.994664     54.321696   0.000000   0.000000
 
  0.3125000E+00  0.1875000E+00  0.1875000E+00  0.2343750E-01
    1        5.365353      6.104273   1.000000   1.000000
    2        5.406139      6.179401   1.000000   1.000000
    3        6.637176      7.349325   1.000000   1.000000
    4       10.236314     11.623551   1.000000   0.000000
    5       10.287910     11.710386   0.998107   0.000000
    6       19.538943     20.236821   0.000000   0.000000
    7       22.294493     22.976923   0.000000   0.000000
    8       25.441649     26.023083   0.000000   0.000000
    9       28.214983     28.662098   0.000000   0.000000
   10       51.062455     51.287115   0.000000   0.000000
   11       55.516301     55.815240   0.000000   0.000000
   12       57.057173     57.429451   0.000000   0.000000
 
 -0.1875000E+00  0.1875000E+00  0.1875000E+00  0.1171875E-01
    1        3.058059      3.423218   1.000000   1.000000
    2        7.468883      8.513683   1.000000   1.000000
    3        7.595650      8.513683   1.000000   1.000000
    4        7.595650      8.638930   1.000000   1.013137
    5        8.615063      9.601391   1.027196   0.950971
    6       10.834277     12.191017   0.135399   0.000000
    7       33.411453     33.946106   0.000000   0.000000
    8       36.477542     36.943772   0.000000   0.000000
    9       36.477542     36.943772   0.000000   0.000000
   10       38.210355     38.552387   0.000000   0.000000
   11       49.574361     49.979686   0.000000   0.000000
   12       49.574362     49.979686   0.000000   0.000000
 
 -0.3125000E+00  0.3125000E+00  0.1875000E+00  0.4687500E-01
    1        4.304282      4.878960   1.000000   1.000000
    2        6.103447      7.096262   1.000000   1.000000
    3        7.328255      8.231984   1.000000   1.000000
    4        8.555515      9.556835   1.000000   1.067922
    5       10.207155     11.242530   0.797039   0.000008
    6       12.152417     13.288552  -0.030036   0.000000
    7       29.160424     29.780341   0.000000   0.000000
    8       33.525531     34.001583   0.000000   0.000000
    9       33.643872     34.142092   0.000000   0.000000
   10       38.912120     39.309372   0.000000   0.000000
   11       48.863486     49.300345   0.000000   0.000000
   12       51.058717     51.506736   0.000000   0.000000
 
 -0.4375000E+00  0.4375000E+00  0.1875000E+00  0.4687500E-01
    1        4.096491      4.894363   1.000000   1.000000
    2        6.117990      7.022378   1.000000   1.000000
    3        6.966636      7.854254   1.000000   1.000000
    4        8.987669     10.055999   1.002087   1.045429
    5       11.775853     12.877500  -0.058272   0.000000
    6       15.243407     16.062031  -0.000187   0.000000
    7       23.522629     24.235778   0.000000   0.000000
    8       31.592325     32.064174   0.000000   0.000000
    9       32.438499     32.930160   0.000000   0.000000
   10       41.323926     41.712710   0.000000   0.000000
   11       47.782569     48.227062   0.000000   0.000000
   12       49.253332     49.777221   0.000000   0.000000
 
 -0.3125000E+00  0.4375000E+00  0.1875000E+00  0.4687500E-01
    1        4.811408      5.573246   1.000000   1.000000
    2        4.972762      5.928740   1.000000   1.000000
    3        7.475661      8.386129   1.000784   1.003511
    4        9.255918     10.261098   1.006710   0.868102
    5       11.011972     12.098597   0.006177  -0.001787
    6       15.312315     16.168081  -0.000134   0.000000
    7       26.561673     27.239809   0.000000   0.000000
    8       27.615583     28.127105   0.000000   0.000000
    9       35.447680     35.964632   0.000000   0.000000
   10       37.612650     38.015168   0.000000   0.000000
   11       47.549596     48.011830   0.000000   0.000000
   12       52.382857     52.950918   0.000000   0.000000
 
 -0.4375000E+00 -0.4375000E+00  0.1875000E+00  0.4687500E-01
    1        4.427425      5.314110   1.000000   1.000000
    2        5.123248      6.027583   1.000000   1.000000
    3        7.133082      8.005941   1.001773   1.008777
    4        9.835783     10.871875   0.999347   0.037432
    5       11.423114     12.515863  -0.007314   0.000000
    6       18.920390     19.648863   0.000000   0.000000
    7       22.329919     23.033754   0.000000   0.000000
    8       26.263425     26.802721   0.000000   0.000000
    9       35.473311     35.966520   0.000000   0.000000
   10       38.899853     39.337852   0.000000   0.000000
   11       45.401771     45.882209   0.000000   0.000000
   12       51.305383     51.850775   0.000000   0.000000
 
 -0.3125000E+00  0.3125000E+00  0.3125000E+00  0.1171875E-01
    1        4.501065      5.259010   1.000000   1.000000
    2        4.835179      5.830847   1.000000   1.000000
    3        8.959986      9.902009   1.001867   0.990556
    4        8.959986      9.902009   1.012998   1.026102
    5       10.262475     11.307175   0.467374   0.000163
    6       14.489330     15.360685   0.000000   0.000000
    7       29.916135     30.407327   0.000000   0.000000
    8       29.916135     30.407327   0.000000   0.000000
    9       31.567766     32.310032   0.000000   0.000000
   10       34.560543     35.001086   0.000000   0.000000
   11       50.655513     51.244176   0.000000   0.000000
   12       54.438032     54.850754   0.000000   0.000000
 
 -0.4375000E+00  0.4375000E+00  0.3125000E+00  0.4687500E-01
    1        3.914594      4.826484   1.000000   1.000000
    2        4.190606      5.086742   1.000000   1.000000
    3        9.202710     10.163828   1.009472   0.921131
    4        9.728828     10.704635   0.996304   0.217717
    5       11.562351     12.655093  -0.017423   0.000000
    6       18.335129     19.004838   0.000000   0.000000
    7       24.480766     25.059302   0.000000   0.000000
    8       27.416594     27.864217   0.000000   0.000000
    9       32.061660     32.752875   0.000000   0.000000
   10       35.385520     35.911307   0.000000   0.000000
   11       46.034247     46.614278   0.000000   0.000000
   12       53.644008     54.059837   0.000000   0.000000
 
 -0.4375000E+00 -0.4375000E+00  0.3125000E+00  0.1562500E-01
    1        3.652863      4.560462   1.000000   1.000000
    2        3.652863      4.560462   1.000000   1.000000
    3        9.394371     10.348456   1.017013   0.781998
    4       11.262559     12.329659   0.296555  -0.086925
    5       11.262560     12.329659  -0.000414   0.000000
    6       22.436097     23.005977   0.000000   0.000000
    7       22.436097     23.005977   0.000000   0.000000
    8       24.156365     24.620160   0.000000   0.000000
    9       33.621727     34.255968   0.000000   0.000000
   10       33.621727     34.255968   0.000000   0.000000
   11       43.730164     44.307465   0.000000   0.000000
   12       54.412697     54.823393   0.000000   0.000000
 
 -0.4375000E+00  0.4375000E+00  0.4375000E+00  0.1171875E-01
    1        3.142767      4.050451   1.000000   1.000000
    2        3.195829      4.089958   1.000000   1.000000
    3       11.180195     12.238318   0.496336  -0.184189
    4       11.180195     12.238318   0.151318  -0.029419
    5       11.498083     12.591213  -0.001588   0.000000
    6       21.527078     21.998077   0.000000   0.000000
    7       24.516493     24.892543   0.000000   0.000000
    8       24.516493     24.892543   0.000000   0.000000
    9       31.033831     31.877559   0.000000   0.000000
   10       32.334128     33.054086   0.000000   0.000000
   11       42.164733     42.754053   0.000000   0.000000
   12       57.249067     57.585580   0.000000   0.000000
