 vasp.5.4.1 24Jun15 (build Jul 19 2016 16:50:41) complex                        
  
 executed on           IFC91_ompi date 2019.10.17  12:06:07
 running on    4 total cores
 distrk:  each k-point on    4 cores,    1 groups
 distr:  one band on NCORES_PER_BAND=   1 cores,    4 groups


--------------------------------------------------------------------------------------------------------


 INCAR:
 POTCAR:    PAW Fe 03Mar1998                      
 POTCAR:    PAW Fe 03Mar1998                      
   VRHFIN =Fe:  d7 s1                                                           
   LEXCH  = CA                                                                  
   EATOM  =   597.3608 eV,   43.9048 Ry                                         
                                                                                
   TITEL  = PAW Fe 03Mar1998                                                    
   LULTRA =        F    use ultrasoft PP ?                                      
   IUNSCR =        1    unscreen: 0-lin 1-nonlin 2-no                           
   RPACOR =    2.000    partial core radius                                     
   POMASS =   55.847; ZVAL   =    8.000    mass and valenz                      
   RCORE  =    2.300    outmost cutoff radius                                   
   RWIGS  =    2.460; RWIGS  =    1.302    wigner-seitz radius (au A)           
   ENMAX  =  267.969; ENMIN  =  200.977 eV                                      
   RCLOC  =    1.701    cutoff for local pot                                    
   LCOR   =        T    correct aug charges                                     
   LPAW   =        T    paw PP                                                  
   EAUG   =  511.368                                                            
   DEXC   =    0.000                                                            
   RMAX   =    2.356    core radius for proj-oper                               
   RAUG   =    1.300    factor for augmentation sphere                          
   RDEP   =    2.442    radius for radial grids                                 
   RDEPT  =    1.890    core radius for aug-charge                              
                                                                                
   Atomic configuration                                                         
    9 entries                                                                   
     n  l   j            E        occ.                                          
     1  0  0.50     -6959.8071   2.0000                                         
     2  0  0.50      -811.1996   2.0000                                         
     2  1  1.50      -692.1696   6.0000                                         
     3  0  0.50       -88.7875   2.0000                                         
     3  1  1.50       -55.4703   6.0000                                         
     3  2  2.50        -4.0733   7.0000                                         
     4  0  0.50        -4.4654   1.0000                                         
     4  1  1.50        -3.4015   0.0000                                         
     4  3  2.50        -1.3606   0.0000                                         
   Description                                                                  
     l       E           TYP  RCUT    TYP  RCUT                                 
     2     -4.0732951     23  2.300                                             
     2     -5.4338777     23  2.300                                             
     0     -4.4654423     23  2.300                                             
     0      6.8656597     23  2.300                                             
     1     -2.7211652     23  2.300                                             
     1     18.0064603     23  2.300                                             
  local pseudopotential read in
  partial core-charges read in
  partial kinetic energy density read in
  atomic valenz-charges read in
  non local Contribution for L=           2  read in
    real space projection operators read in
  non local Contribution for L=           2  read in
    real space projection operators read in
  non local Contribution for L=           0  read in
    real space projection operators read in
  non local Contribution for L=           0  read in
    real space projection operators read in
  non local Contribution for L=           1  read in
    real space projection operators read in
  non local Contribution for L=           1  read in
    real space projection operators read in
    PAW grid and wavefunctions read in
 
   number of l-projection  operators is LMAX  =           6
   number of lm-projection operators is LMMAX =          18
 
  PAW Fe 03Mar1998                      :
 energy of atom  1       EATOM= -597.3608
 kinetic energy error for atom=    0.0089 (will be added to EATOM!!)
 
 
 POSCAR: Fe BCC                                  
  positions in direct lattice
  velocities in cartesian coordinates
  No initial velocities read in
 exchange correlation table for  LEXCH =        2
   RHO(1)=    0.500       N(1)  =     2000
   RHO(2)=  100.500       N(2)  =     4000
 


--------------------------------------------------------------------------------------------------------


 ion  position               nearest neighbor table
   1  0.000  0.000  0.000-
 
  LATTYP: Found a body centered cubic cell.
 ALAT       =     2.5000000000
  
  Lattice vectors:
  
 A1 = (  -1.2500000000,   1.2500000000,   1.2500000000)
 A2 = (   1.2500000000,  -1.2500000000,   1.2500000000)
 A3 = (   1.2500000000,   1.2500000000,  -1.2500000000)


Analysis of symmetry for initial positions (statically):
=====================================================================
 Subroutine PRICEL returns:
 Original cell was already a primitive cell.
 

 Routine SETGRP: Setting up the symmetry group for a 
 body centered cubic supercell.


 Subroutine GETGRP returns: Found 48 space group operations
 (whereof 48 operations were pure point group operations)
 out of a pool of 48 trial point group operations.


The static configuration has the point symmetry O_h .


Analysis of symmetry for dynamics (positions and initial velocities):
=====================================================================
 Subroutine PRICEL returns:
 Original cell was already a primitive cell.
 

 Routine SETGRP: Setting up the symmetry group for a 
 body centered cubic supercell.


 Subroutine GETGRP returns: Found 48 space group operations
 (whereof 48 operations were pure point group operations)
 out of a pool of 48 trial point group operations.


The dynamic configuration has the point symmetry O_h .


Analysis of structural, dynamic, and magnetic symmetry:
=====================================================================
 Subroutine PRICEL returns:
 Original cell was already a primitive cell.
 

 Routine SETGRP: Setting up the symmetry group for a 
 body centered cubic supercell.


 Subroutine GETGRP returns: Found 48 space group operations
 (whereof 48 operations were pure point group operations)
 out of a pool of 48 trial point group operations.


The magnetic configuration has the point symmetry O_h .


 Subroutine INISYM returns: Found 48 space group operations
 (whereof 48 operations are pure point group operations),
 and found     1 'primitive' translations

 
 
 KPOINTS: K-Points                                

Automatic generation of k-mesh.
Space group operators:
 irot       det(A)        alpha          n_x          n_y          n_z        tau_x        tau_y        tau_z
    1     1.000000     0.000000     1.000000     0.000000     0.000000     0.000000     0.000000     0.000000
    2    -1.000000     0.000000     1.000000     0.000000     0.000000     0.000000     0.000000     0.000000
    3     1.000000   120.000000    -0.577350    -0.577350    -0.577350     0.000000     0.000000     0.000000
    4    -1.000000   120.000000    -0.577350    -0.577350    -0.577350     0.000000     0.000000     0.000000
    5     1.000000   120.000000     0.577350     0.577350     0.577350     0.000000     0.000000     0.000000
    6    -1.000000   120.000000     0.577350     0.577350     0.577350     0.000000     0.000000     0.000000
    7     1.000000    90.000000     0.000000     0.000000    -1.000000     0.000000     0.000000     0.000000
    8    -1.000000    90.000000     0.000000     0.000000    -1.000000     0.000000     0.000000     0.000000
    9     1.000000   180.000000     0.000000     0.707107     0.707107     0.000000     0.000000     0.000000
   10    -1.000000   180.000000     0.000000     0.707107     0.707107     0.000000     0.000000     0.000000
   11     1.000000    90.000000     0.000000     1.000000     0.000000     0.000000     0.000000     0.000000
   12    -1.000000    90.000000     0.000000     1.000000     0.000000     0.000000     0.000000     0.000000
   13     1.000000   180.000000     0.000000     0.000000     1.000000     0.000000     0.000000     0.000000
   14    -1.000000   180.000000     0.000000     0.000000     1.000000     0.000000     0.000000     0.000000
   15     1.000000   120.000000    -0.577350     0.577350     0.577350     0.000000     0.000000     0.000000
   16    -1.000000   120.000000    -0.577350     0.577350     0.577350     0.000000     0.000000     0.000000
   17     1.000000   120.000000    -0.577350     0.577350    -0.577350     0.000000     0.000000     0.000000
   18    -1.000000   120.000000    -0.577350     0.577350    -0.577350     0.000000     0.000000     0.000000
   19     1.000000    90.000000     0.000000     0.000000     1.000000     0.000000     0.000000     0.000000
   20    -1.000000    90.000000     0.000000     0.000000     1.000000     0.000000     0.000000     0.000000
   21     1.000000    90.000000    -1.000000     0.000000     0.000000     0.000000     0.000000     0.000000
   22    -1.000000    90.000000    -1.000000     0.000000     0.000000     0.000000     0.000000     0.000000
   23     1.000000   180.000000     0.707107     0.000000     0.707107     0.000000     0.000000     0.000000
   24    -1.000000   180.000000     0.707107     0.000000     0.707107     0.000000     0.000000     0.000000
   25     1.000000   120.000000     0.577350    -0.577350     0.577350     0.000000     0.000000     0.000000
   26    -1.000000   120.000000     0.577350    -0.577350     0.577350     0.000000     0.000000     0.000000
   27     1.000000   120.000000    -0.577350    -0.577350     0.577350     0.000000     0.000000     0.000000
   28    -1.000000   120.000000    -0.577350    -0.577350     0.577350     0.000000     0.000000     0.000000
   29     1.000000   180.000000     1.000000     0.000000     0.000000     0.000000     0.000000     0.000000
   30    -1.000000   180.000000     1.000000     0.000000     0.000000     0.000000     0.000000     0.000000
   31     1.000000    90.000000     0.000000    -1.000000     0.000000     0.000000     0.000000     0.000000
   32    -1.000000    90.000000     0.000000    -1.000000     0.000000     0.000000     0.000000     0.000000
   33     1.000000   180.000000     0.707107     0.707107     0.000000     0.000000     0.000000     0.000000
   34    -1.000000   180.000000     0.707107     0.707107     0.000000     0.000000     0.000000     0.000000
   35     1.000000    90.000000     1.000000     0.000000     0.000000     0.000000     0.000000     0.000000
   36    -1.000000    90.000000     1.000000     0.000000     0.000000     0.000000     0.000000     0.000000
   37     1.000000   120.000000     0.577350    -0.577350    -0.577350     0.000000     0.000000     0.000000
   38    -1.000000   120.000000     0.577350    -0.577350    -0.577350     0.000000     0.000000     0.000000
   39     1.000000   180.000000     0.000000     1.000000     0.000000     0.000000     0.000000     0.000000
   40    -1.000000   180.000000     0.000000     1.000000     0.000000     0.000000     0.000000     0.000000
   41     1.000000   120.000000     0.577350     0.577350    -0.577350     0.000000     0.000000     0.000000
   42    -1.000000   120.000000     0.577350     0.577350    -0.577350     0.000000     0.000000     0.000000
   43     1.000000   180.000000     0.000000    -0.707107     0.707107     0.000000     0.000000     0.000000
   44    -1.000000   180.000000     0.000000    -0.707107     0.707107     0.000000     0.000000     0.000000
   45     1.000000   180.000000     0.707107    -0.707107     0.000000     0.000000     0.000000     0.000000
   46    -1.000000   180.000000     0.707107    -0.707107     0.000000     0.000000     0.000000     0.000000
   47     1.000000   180.000000     0.707107     0.000000    -0.707107     0.000000     0.000000     0.000000
   48    -1.000000   180.000000     0.707107     0.000000    -0.707107     0.000000     0.000000     0.000000
 
 Subroutine IBZKPT returns following result:
 ===========================================
 
 Found     26 irreducible k-points:
 
 Following reciprocal coordinates:
            Coordinates               Weight
  0.062500  0.062500  0.062500      8.000000
  0.187500  0.062500  0.062500     24.000000
  0.312500  0.062500  0.062500     24.000000
  0.437500  0.062500  0.062500     12.000000
 -0.062500  0.062500  0.062500      6.000000
  0.187500  0.187500  0.062500     24.000000
  0.312500  0.187500  0.062500     48.000000
 -0.187500  0.187500  0.062500     24.000000
  0.312500  0.312500  0.062500      8.000000
 -0.312500  0.312500  0.062500     24.000000
 -0.187500  0.312500  0.062500     24.000000
 -0.437500  0.437500  0.062500     24.000000
 -0.312500  0.437500  0.062500     48.000000
 -0.437500 -0.437500  0.062500     24.000000
 -0.312500 -0.437500  0.062500     24.000000
  0.187500  0.187500  0.187500      8.000000
  0.312500  0.187500  0.187500     12.000000
 -0.187500  0.187500  0.187500      6.000000
 -0.312500  0.312500  0.187500     24.000000
 -0.437500  0.437500  0.187500     24.000000
 -0.312500  0.437500  0.187500     24.000000
 -0.437500 -0.437500  0.187500     24.000000
 -0.312500  0.312500  0.312500      6.000000
 -0.437500  0.437500  0.312500     24.000000
 -0.437500 -0.437500  0.312500      8.000000
 -0.437500  0.437500  0.437500      6.000000
 
 Following cartesian coordinates:
            Coordinates               Weight
  0.125000  0.125000  0.125000      8.000000
  0.125000  0.250000  0.250000     24.000000
  0.125000  0.375000  0.375000     24.000000
  0.125000  0.500000  0.500000     12.000000
  0.125000  0.000000  0.000000      6.000000
  0.250000  0.250000  0.375000     24.000000
  0.250000  0.375000  0.500000     48.000000
  0.250000 -0.125000  0.000000     24.000000
  0.375000  0.375000  0.625000      8.000000
  0.375000 -0.250000  0.000000     24.000000
  0.375000 -0.125000  0.125000     24.000000
  0.500000 -0.375000  0.000000     24.000000
  0.500000 -0.250000  0.125000     48.000000
 -0.375000 -0.375000 -0.875000     24.000000
 -0.375000 -0.250000 -0.750000     24.000000
  0.375000  0.375000  0.375000      8.000000
  0.375000  0.500000  0.500000     12.000000
  0.375000  0.000000  0.000000      6.000000
  0.500000 -0.125000  0.000000     24.000000
  0.625000 -0.250000  0.000000     24.000000
  0.625000 -0.125000  0.125000     24.000000
 -0.250000 -0.250000 -0.875000     24.000000
  0.625000  0.000000  0.000000      6.000000
  0.750000 -0.125000  0.000000     24.000000
 -0.125000 -0.125000 -0.875000      8.000000
  0.875000  0.000000  0.000000      6.000000
 
 TETIRR: Found    534 inequivalent tetrahedra from     3072


--------------------------------------------------------------------------------------------------------




 Dimension of arrays:
   k-points           NKPTS =     26   k-points in BZ     NKDIM =     26   number of bands    NBANDS=     12
   number of dos      NEDOS =    301   number of ions     NIONS =      1
   non local maximal  LDIM  =      6   non local SUM 2l+1 LMDIM =     18
   total plane-waves  NPLWV =   2744
   max r-space proj   IRMAX =      1   max aug-charges    IRDMAX=  12710
   dimension x,y,z NGX =    14 NGY =   14 NGZ =   14
   dimension x,y,z NGXF=    28 NGYF=   28 NGZF=   28
   support grid    NGXF=    28 NGYF=   28 NGZF=   28
   ions per type =               1
 NGX,Y,Z   is equivalent  to a cutoff of  10.75, 10.75, 10.75 a.u.
 NGXF,Y,Z  is equivalent  to a cutoff of  21.50, 21.50, 21.50 a.u.


 I would recommend the setting:
   dimension x,y,z NGX =    14 NGY =   14 NGZ =   14
 SYSTEM =  Fe BCC                                  
 POSCAR =  Fe BCC                                  

 Startparameter for this run:
   NWRITE =      2    write-flag & timer
   PREC   = accura    normal or accurate (medium, high low for compatibility)
   ISTART =      0    job   : 0-new  1-cont  2-samecut
   ICHARG =      2    charge: 1-file 2-atom 10-const
   ISPIN  =      2    spin polarized calculation?
   LNONCOLLINEAR =      F non collinear calculations
   LSORBIT =      F    spin-orbit coupling
   INIWAV =      1    electr: 0-lowe 1-rand  2-diag
   LASPH  =      F    aspherical Exc in radial PAW
   METAGGA=      F    non-selfconsistent MetaGGA calc.

 Electronic Relaxation 1
   ENCUT  =  400.0 eV  29.40 Ry    5.42 a.u.   3.53  3.53  3.53*2*pi/ulx,y,z
   ENINI  =  400.0     initial cutoff
   ENAUG  =  511.4 eV  augmentation charge cutoff
   NELM   =     60;   NELMIN=  2; NELMDL= -5     # of ELM steps 
   EDIFF  = 0.1E-05   stopping-criterion for ELM
   LREAL  =      F    real-space projection
   NLSPLINE    = F    spline interpolate recip. space projectors
   LCOMPAT=      F    compatible to vasp.4.4
   GGA_COMPAT  = T    GGA compatible to vasp.4.4-vasp.4.6
   LMAXPAW     = -100 max onsite density
   LMAXMIX     =    2 max onsite mixed and CHGCAR
   VOSKOWN=      0    Vosko Wilk Nusair interpolation
   ROPT   =    0.00000
 Ionic relaxation
   EDIFFG = 0.1E-04   stopping-criterion for IOM
   NSW    =      0    number of steps for IOM
   NBLOCK =      1;   KBLOCK =      1    inner block; outer block 
   IBRION =     -1    ionic relax: 0-MD 1-quasi-New 2-CG
   NFREE  =      0    steps in history (QN), initial steepest desc. (CG)
   ISIF   =      2    stress and relaxation
   IWAVPR =     10    prediction:  0-non 1-charg 2-wave 3-comb
   ISYM   =      2    0-nonsym 1-usesym 2-fastsym
   LCORR  =      T    Harris-Foulkes like correction to forces

   POTIM  = 0.5000    time-step for ionic-motion
   TEIN   =    0.0    initial temperature
   TEBEG  =    0.0;   TEEND  =   0.0 temperature during run
   SMASS  =  -3.00    Nose mass-parameter (am)
   estimated Nose-frequenzy (Omega)   =  0.10E-29 period in steps =****** mass=  -0.107E-27a.u.
   SCALEE = 1.0000    scale energy and forces
   NPACO  =    256;   APACO  = 16.0  distance and # of slots for P.C.
   PSTRESS=    0.0 pullay stress

  Mass of Ions in am
   POMASS =  55.85
  Ionic Valenz
   ZVAL   =   8.00
  Atomic Wigner-Seitz radii
   RWIGS  =  -1.00
  virtual crystal weights 
   VCA    =   1.00
   NELECT =       8.0000    total number of electrons
   NUPDOWN=      -1.0000    fix difference up-down

 DOS related values:
   EMIN   =  10.00;   EMAX   =-10.00  energy-range for DOS
   EFERMI =   0.00
   ISMEAR =    -5;   SIGMA  =   0.20  broadening in eV -4-tet -1-fermi 0-gaus

 Electronic relaxation 2 (details)
   IALGO  =     38    algorithm
   LDIAG  =      T    sub-space diagonalisation (order eigenvalues)
   LSUBROT=      F    optimize rotation matrix (better conditioning)
   TURBO    =      0    0=normal 1=particle mesh
   IRESTART =      0    0=no restart 2=restart with 2 vectors
   NREBOOT  =      0    no. of reboots
   NMIN     =      0    reboot dimension
   EREF     =   0.00    reference energy to select bands
   IMIX   =      4    mixing-type and parameters
     AMIX     =   0.40;   BMIX     =  1.00
     AMIX_MAG =   1.60;   BMIX_MAG =  1.00
     AMIN     =   0.10
     WC   =   100.;   INIMIX=   1;  MIXPRE=   1;  MAXMIX= -45

 Intra band minimization:
   WEIMIN = 0.0000     energy-eigenvalue tresh-hold
   EBREAK =  0.21E-07  absolut break condition
   DEPER  =   0.30     relativ break condition  

   TIME   =   0.40     timestep for ELM

  volume/ion in A,a.u.               =       7.81        52.72
  Fermi-wavevector in a.u.,A,eV,Ry     =   1.650092  3.118222 37.045991  2.722803
  Thomas-Fermi vector in A             =   2.739101
 
 Write flags
   LWAVE  =      T    write WAVECAR
   LCHARG =      T    write CHGCAR
   LVTOT  =      F    write LOCPOT, total local potential
   LVHAR  =      F    write LOCPOT, Hartree potential only
   LELF   =      F    write electronic localiz. function (ELF)
   LORBIT =     11    0 simple, 1 ext, 2 COOP (PROOUT)


 Dipole corrections
   LMONO  =      F    monopole corrections only (constant potential shift)
   LDIPOL =      F    correct potential (dipole corrections)
   IDIPOL =      0    1-x, 2-y, 3-z, 4-all directions 
   EPSILON=  1.0000000 bulk dielectric constant

 Exchange correlation treatment:
   GGA     =    --    GGA type
   LEXCH   =     2    internal setting for exchange type
   VOSKOWN=      0    Vosko Wilk Nusair interpolation
   LHFCALC =     F    Hartree Fock is set to
   LHFONE  =     F    Hartree Fock one center treatment
   AEXX    =    0.0000 exact exchange contribution

 Linear response parameters
   LEPSILON=     F    determine dielectric tensor
   LRPA    =     F    only Hartree local field effects (RPA)
   LNABLA  =     F    use nabla operator in PAW spheres
   LVEL    =     F    velocity operator in full k-point grid
   LINTERFAST=   F  fast interpolation
   KINTER  =     0    interpolate to denser k-point grid
   CSHIFT  =0.1000    complex shift for real part using Kramers Kronig
   OMEGAMAX=  -1.0    maximum frequency
   DEG_THRESHOLD= 0.2000000E-02 threshold for treating states as degnerate
   RTIME   =    0.100 relaxation time in fs

 Orbital magnetization related:
   ORBITALMAG=     F  switch on orbital magnetization
   LCHIMAG   =     F  perturbation theory with respect to B field
   DQ        =  0.001000  dq finite difference perturbation B field



--------------------------------------------------------------------------------------------------------


 Static calculation
 charge density and potential will be updated during run
 spin polarized calculation
 Variant of blocked Davidson
 Davidson routine will perform the subspace rotation
 perform sub-space diagonalisation
    after iterative eigenvector-optimisation
 modified Broyden-mixing scheme, WC =      100.0
 initial mixing is a Kerker type mixing with AMIX =  0.4000 and BMIX =      1.0000
 Hartree-type preconditioning will be used
 using additional bands            8
 reciprocal scheme for non local part
 use partial core corrections
 calculate Harris-corrections to forces 
   (improved forces if not selfconsistent)
 use of overlap-Matrix (Vanderbilt PP)
 Fermi weights with tetrahedron method with Bloechl corrections


--------------------------------------------------------------------------------------------------------


  energy-cutoff  :      400.00
  volume of cell :        7.81
      direct lattice vectors                 reciprocal lattice vectors
    -1.250000000  1.250000000  1.250000000     0.000000000  0.400000000  0.400000000
     1.250000000 -1.250000000  1.250000000     0.400000000  0.000000000  0.400000000
     1.250000000  1.250000000 -1.250000000     0.400000000  0.400000000  0.000000000

  length of vectors
     2.165063509  2.165063509  2.165063509     0.565685425  0.565685425  0.565685425


 
 k-points in units of 2pi/SCALE and weight: K-Points                                
   0.12500000  0.12500000  0.12500000       0.016
   0.12500000  0.25000000  0.25000000       0.047
   0.12500000  0.37500000  0.37500000       0.047
   0.12500000  0.50000000  0.50000000       0.023
   0.12500000  0.00000000  0.00000000       0.012
   0.25000000  0.25000000  0.37500000       0.047
   0.25000000  0.37500000  0.50000000       0.094
   0.25000000 -0.12500000  0.00000000       0.047
   0.37500000  0.37500000  0.62500000       0.016
   0.37500000 -0.25000000  0.00000000       0.047
   0.37500000 -0.12500000  0.12500000       0.047
   0.50000000 -0.37500000  0.00000000       0.047
   0.50000000 -0.25000000  0.12500000       0.094
  -0.37500000 -0.37500000 -0.87500000       0.047
  -0.37500000 -0.25000000 -0.75000000       0.047
   0.37500000  0.37500000  0.37500000       0.016
   0.37500000  0.50000000  0.50000000       0.023
   0.37500000  0.00000000  0.00000000       0.012
   0.50000000 -0.12500000  0.00000000       0.047
   0.62500000 -0.25000000  0.00000000       0.047
   0.62500000 -0.12500000  0.12500000       0.047
  -0.25000000 -0.25000000 -0.87500000       0.047
   0.62500000  0.00000000  0.00000000       0.012
   0.75000000 -0.12500000  0.00000000       0.047
  -0.12500000 -0.12500000 -0.87500000       0.016
   0.87500000  0.00000000  0.00000000       0.012
 
 k-points in reciprocal lattice and weights: K-Points                                
   0.06250000  0.06250000  0.06250000       0.016
   0.18750000  0.06250000  0.06250000       0.047
   0.31250000  0.06250000  0.06250000       0.047
   0.43750000  0.06250000  0.06250000       0.023
  -0.06250000  0.06250000  0.06250000       0.012
   0.18750000  0.18750000  0.06250000       0.047
   0.31250000  0.18750000  0.06250000       0.094
  -0.18750000  0.18750000  0.06250000       0.047
   0.31250000  0.31250000  0.06250000       0.016
  -0.31250000  0.31250000  0.06250000       0.047
  -0.18750000  0.31250000  0.06250000       0.047
  -0.43750000  0.43750000  0.06250000       0.047
  -0.31250000  0.43750000  0.06250000       0.094
  -0.43750000 -0.43750000  0.06250000       0.047
  -0.31250000 -0.43750000  0.06250000       0.047
   0.18750000  0.18750000  0.18750000       0.016
   0.31250000  0.18750000  0.18750000       0.023
  -0.18750000  0.18750000  0.18750000       0.012
  -0.31250000  0.31250000  0.18750000       0.047
  -0.43750000  0.43750000  0.18750000       0.047
  -0.31250000  0.43750000  0.18750000       0.047
  -0.43750000 -0.43750000  0.18750000       0.047
  -0.31250000  0.31250000  0.31250000       0.012
  -0.43750000  0.43750000  0.31250000       0.047
  -0.43750000 -0.43750000  0.31250000       0.016
  -0.43750000  0.43750000  0.43750000       0.012
 
 position of ions in fractional coordinates (direct lattice) 
   0.00000000  0.00000000  0.00000000
 
 position of ions in cartesian coordinates  (Angst):
   0.00000000  0.00000000  0.00000000
 


--------------------------------------------------------------------------------------------------------


 k-point  1 :   0.0625 0.0625 0.0625  plane waves:     144
 k-point  2 :   0.1875 0.0625 0.0625  plane waves:     144
 k-point  3 :   0.3125 0.0625 0.0625  plane waves:     142
 k-point  4 :   0.4375 0.0625 0.0625  plane waves:     142
 k-point  5 :  -0.0625 0.0625 0.0625  plane waves:     140
 k-point  6 :   0.1875 0.1875 0.0625  plane waves:     143
 k-point  7 :   0.3125 0.1875 0.0625  plane waves:     143
 k-point  8 :  -0.1875 0.1875 0.0625  plane waves:     148
 k-point  9 :   0.3125 0.3125 0.0625  plane waves:     143
 k-point 10 :  -0.3125 0.3125 0.0625  plane waves:     143
 k-point 11 :  -0.1875 0.3125 0.0625  plane waves:     140
 k-point 12 :  -0.4375 0.4375 0.0625  plane waves:     142
 k-point 13 :  -0.3125 0.4375 0.0625  plane waves:     142
 k-point 14 :  -0.4375-0.4375 0.0625  plane waves:     140
 k-point 15 :  -0.3125-0.4375 0.0625  plane waves:     144
 k-point 16 :   0.1875 0.1875 0.1875  plane waves:     146
 k-point 17 :   0.3125 0.1875 0.1875  plane waves:     146
 k-point 18 :  -0.1875 0.1875 0.1875  plane waves:     148
 k-point 19 :  -0.3125 0.3125 0.1875  plane waves:     142
 k-point 20 :  -0.4375 0.4375 0.1875  plane waves:     138
 k-point 21 :  -0.3125 0.4375 0.1875  plane waves:     140
 k-point 22 :  -0.4375-0.4375 0.1875  plane waves:     140
 k-point 23 :  -0.3125 0.3125 0.3125  plane waves:     136
 k-point 24 :  -0.4375 0.4375 0.3125  plane waves:     136
 k-point 25 :  -0.4375-0.4375 0.3125  plane waves:     137
 k-point 26 :  -0.4375 0.4375 0.4375  plane waves:     132

 maximum and minimum number of plane-waves per node :       148      132

 maximum number of plane-waves:       148
 maximum index in each direction: 
   IXMAX=    3   IYMAX=    3   IZMAX=    3
   IXMIN=   -3   IYMIN=   -3   IZMIN=   -3

 NGX is ok and might be reduce to  14
 NGY is ok and might be reduce to  14
 NGZ is ok and might be reduce to  14

 serial   3D FFT for wavefunctions
 parallel 3D FFT for charge:
    minimum data exchange during FFTs selected (reduces bandwidth)


 total amount of memory used by VASP on root node    31852. kBytes
========================================================================

   base      :      30000. kBytes
   nonl-proj :        556. kBytes
   fftplans  :        204. kBytes
   grid      :        642. kBytes
   one-center:         31. kBytes
   wavefun   :        419. kBytes
 
     INWAV:  cpu time    0.0000: real time    0.0000
 Broyden mixing: mesh for mixing (old mesh)
   NGX =  7   NGY =  7   NGZ =  7
  (NGX  = 28   NGY  = 28   NGZ  = 28)
  gives a total of    343 points

 initial charge density was supplied:
 charge density of overlapping atoms calculated
 number of electron       8.0000000 magnetization       4.0000000
 keeping initial charge density in first step


--------------------------------------------------------------------------------------------------------


 Maximum index for augmentation-charges         2971 (set IRDMAX)


--------------------------------------------------------------------------------------------------------


 First call to EWALD:  gamma=   0.893
 Maximum number of real-space cells 3x 3x 3
 Maximum number of reciprocal cells 3x 3x 3

 FEWALD executed in parallel
    FEWALD:  cpu time    0.0020: real time    0.0011


----------------------------------------- Iteration    1(   1)  ---------------------------------------


    POTLOK:  cpu time    0.0050: real time    0.0024
    SETDIJ:  cpu time    0.0130: real time    0.0066
     EDDAV:  cpu time    0.5879: real time    0.2941
 BZINTS: Fermi energy: 16.901122;  8.000000 electrons
         Band energy:  89.399434;  BLOECHL correction: -0.513007
       DOS:  cpu time    0.0980: real time    0.0493
    --------------------------------------------
      LOOP:  cpu time    0.7149: real time    0.3582

 eigenvalue-minimisations  :  1464
 total energy-change (2. order) : 0.1623538E+02  (-0.3578346E+03)
 number of electron       8.0000000 magnetization       4.0000000
 augmentation part        8.0000000 magnetization       4.0000000

 Free energy of the ion-electron system (eV)
  ---------------------------------------------------
  alpha Z        PSCENC =        85.72983808
  Ewald energy   TEWEN  =      -670.77359510
  -Hartree energ DENC   =       -83.67268914
  -exchange      EXHF   =         0.00000000
  -V(xc)+E(xc)   XCENC  =         7.63330850
  PAW double counting   =       552.76102510     -562.19386350
  entropy T*S    EENTRO =         0.00000000
  eigenvalues    EBANDS =        89.39943383
  atomic energy  EATOM  =       597.35192723
  Solvation  Ediel_sol  =         0.00000000
  ---------------------------------------------------
  free energy    TOTEN  =        16.23538500 eV

  energy without entropy =       16.23538500  energy(sigma->0) =       16.23538500


--------------------------------------------------------------------------------------------------------




----------------------------------------- Iteration    1(   2)  ---------------------------------------


     EDDAV:  cpu time    0.5229: real time    0.2617
 BZINTS: Fermi energy: 12.377081;  8.000000 electrons
         Band energy:  65.263110;  BLOECHL correction: -0.102818
       DOS:  cpu time    0.0800: real time    0.0405
    --------------------------------------------
      LOOP:  cpu time    0.6189: real time    0.3102

 eigenvalue-minimisations  :  1292
 total energy-change (2. order) :-0.2413632E+02  (-0.2246489E+02)
 number of electron       8.0000000 magnetization       4.0000000
 augmentation part        8.0000000 magnetization       4.0000000

 Free energy of the ion-electron system (eV)
  ---------------------------------------------------
  alpha Z        PSCENC =        85.72983808
  Ewald energy   TEWEN  =      -670.77359510
  -Hartree energ DENC   =       -83.67268914
  -exchange      EXHF   =         0.00000000
  -V(xc)+E(xc)   XCENC  =         7.63330850
  PAW double counting   =       552.76102510     -562.19386350
  entropy T*S    EENTRO =         0.00000000
  eigenvalues    EBANDS =        65.26311041
  atomic energy  EATOM  =       597.35192723
  Solvation  Ediel_sol  =         0.00000000
  ---------------------------------------------------
  free energy    TOTEN  =        -7.90093842 eV

  energy without entropy =       -7.90093842  energy(sigma->0) =       -7.90093842


--------------------------------------------------------------------------------------------------------




----------------------------------------- Iteration    1(   3)  ---------------------------------------


     EDDAV:  cpu time    0.5849: real time    0.2933
 BZINTS: Fermi energy: 12.302214;  8.000000 electrons
         Band energy:  64.812081;  BLOECHL correction: -0.104785
       DOS:  cpu time    0.0980: real time    0.0490
    --------------------------------------------
      LOOP:  cpu time    0.6979: real time    0.3492

 eigenvalue-minimisations  :  1456
 total energy-change (2. order) :-0.4510295E+00  (-0.4466830E+00)
 number of electron       8.0000000 magnetization       4.0000000
 augmentation part        8.0000000 magnetization       4.0000000

 Free energy of the ion-electron system (eV)
  ---------------------------------------------------
  alpha Z        PSCENC =        85.72983808
  Ewald energy   TEWEN  =      -670.77359510
  -Hartree energ DENC   =       -83.67268914
  -exchange      EXHF   =         0.00000000
  -V(xc)+E(xc)   XCENC  =         7.63330850
  PAW double counting   =       552.76102510     -562.19386350
  entropy T*S    EENTRO =         0.00000000
  eigenvalues    EBANDS =        64.81208089
  atomic energy  EATOM  =       597.35192723
  Solvation  Ediel_sol  =         0.00000000
  ---------------------------------------------------
  free energy    TOTEN  =        -8.35196794 eV

  energy without entropy =       -8.35196794  energy(sigma->0) =       -8.35196794


--------------------------------------------------------------------------------------------------------




----------------------------------------- Iteration    1(   4)  ---------------------------------------


     EDDAV:  cpu time    0.5809: real time    0.2911
 BZINTS: Fermi energy: 12.302027;  8.000000 electrons
         Band energy:  64.810777;  BLOECHL correction: -0.104792
       DOS:  cpu time    0.0890: real time    0.0444
    --------------------------------------------
      LOOP:  cpu time    0.6859: real time    0.3433

 eigenvalue-minimisations  :  1452
 total energy-change (2. order) :-0.1303904E-02  (-0.1302381E-02)
 number of electron       8.0000000 magnetization       4.0000000
 augmentation part        8.0000000 magnetization       4.0000000

 Free energy of the ion-electron system (eV)
  ---------------------------------------------------
  alpha Z        PSCENC =        85.72983808
  Ewald energy   TEWEN  =      -670.77359510
  -Hartree energ DENC   =       -83.67268914
  -exchange      EXHF   =         0.00000000
  -V(xc)+E(xc)   XCENC  =         7.63330850
  PAW double counting   =       552.76102510     -562.19386350
  entropy T*S    EENTRO =         0.00000000
  eigenvalues    EBANDS =        64.81077699
  atomic energy  EATOM  =       597.35192723
  Solvation  Ediel_sol  =         0.00000000
  ---------------------------------------------------
  free energy    TOTEN  =        -8.35327184 eV

  energy without entropy =       -8.35327184  energy(sigma->0) =       -8.35327184


--------------------------------------------------------------------------------------------------------




----------------------------------------- Iteration    1(   5)  ---------------------------------------


     EDDAV:  cpu time    0.5799: real time    0.2903
 BZINTS: Fermi energy: 12.302026;  8.000000 electrons
         Band energy:  64.810771;  BLOECHL correction: -0.104792
       DOS:  cpu time    0.0920: real time    0.0461
    CHARGE:  cpu time    0.0250: real time    0.0126
    MIXING:  cpu time    0.0010: real time    0.0006
    --------------------------------------------
      LOOP:  cpu time    0.7199: real time    0.3608

 eigenvalue-minimisations  :  1444
 total energy-change (2. order) :-0.5608345E-05  (-0.5616515E-05)
 number of electron       7.9999997 magnetization       1.0704754
 augmentation part        3.7667159 magnetization       0.5449440

 Broyden mixing:
  rms(total) = 0.22278E+01    rms(broyden)= 0.22277E+01
  rms(prec ) = 0.35882E+01
  weight for this iteration     100.00

 Free energy of the ion-electron system (eV)
  ---------------------------------------------------
  alpha Z        PSCENC =        85.72983808
  Ewald energy   TEWEN  =      -670.77359510
  -Hartree energ DENC   =       -83.67268914
  -exchange      EXHF   =         0.00000000
  -V(xc)+E(xc)   XCENC  =         7.63330850
  PAW double counting   =       552.76102510     -562.19386350
  entropy T*S    EENTRO =         0.00000000
  eigenvalues    EBANDS =        64.81077138
  atomic energy  EATOM  =       597.35192723
  Solvation  Ediel_sol  =         0.00000000
  ---------------------------------------------------
  free energy    TOTEN  =        -8.35327745 eV

  energy without entropy =       -8.35327745  energy(sigma->0) =       -8.35327745


--------------------------------------------------------------------------------------------------------




----------------------------------------- Iteration    1(   6)  ---------------------------------------


    POTLOK:  cpu time    0.0040: real time    0.0019
    SETDIJ:  cpu time    0.0130: real time    0.0066
     EDDAV:  cpu time    0.9759: real time    0.4887
 BZINTS: Fermi energy: 10.578003;  8.000000 electrons
         Band energy:  55.641755;  BLOECHL correction: -0.139186
       DOS:  cpu time    0.0910: real time    0.0457
    CHARGE:  cpu time    0.0370: real time    0.0183
    MIXING:  cpu time    0.0010: real time    0.0006
    --------------------------------------------
      LOOP:  cpu time    1.1348: real time    0.5686

 eigenvalue-minimisations  :  1472
 total energy-change (2. order) :-0.1172193E+00  (-0.3494272E+00)
 number of electron       7.9999997 magnetization       1.4208142
 augmentation part        4.0849711 magnetization       1.2332783

 Broyden mixing:
  rms(total) = 0.53490E+00    rms(broyden)= 0.53485E+00
  rms(prec ) = 0.71042E+00
  weight for this iteration     100.00

 eigenvalues of (default mixing * dielectric matrix)
  average eigenvalue GAMMA=   1.0451
  1.0451

 Free energy of the ion-electron system (eV)
  ---------------------------------------------------
  alpha Z        PSCENC =        85.72983808
  Ewald energy   TEWEN  =      -670.77359510
  -Hartree energ DENC   =       -72.36942730
  -exchange      EXHF   =         0.00000000
  -V(xc)+E(xc)   XCENC  =         5.26177093
  PAW double counting   =       736.38712428     -745.69989008
  entropy T*S    EENTRO =         0.00000000
  eigenvalues    EBANDS =        55.64175519
  atomic energy  EATOM  =       597.35192723
  Solvation  Ediel_sol  =         0.00000000
  ---------------------------------------------------
  free energy    TOTEN  =        -8.47049677 eV

  energy without entropy =       -8.47049677  energy(sigma->0) =       -8.47049677


--------------------------------------------------------------------------------------------------------




----------------------------------------- Iteration    1(   7)  ---------------------------------------


    POTLOK:  cpu time    0.0040: real time    0.0019
    SETDIJ:  cpu time    0.0130: real time    0.0066
     EDDAV:  cpu time    0.6149: real time    0.3079
 BZINTS: Fermi energy: 10.515882;  8.000000 electrons
         Band energy:  55.438828;  BLOECHL correction: -0.136987
       DOS:  cpu time    0.0960: real time    0.0484
    CHARGE:  cpu time    0.0340: real time    0.0170
    MIXING:  cpu time    0.0020: real time    0.0006
    --------------------------------------------
      LOOP:  cpu time    0.7769: real time    0.3888

 eigenvalue-minimisations  :  1552
 total energy-change (2. order) : 0.4457730E-01  (-0.1471387E-01)
 number of electron       7.9999997 magnetization       1.2650316
 augmentation part        4.1088906 magnetization       1.0234502

 Broyden mixing:
  rms(total) = 0.32279E+00    rms(broyden)= 0.32279E+00
  rms(prec ) = 0.36196E+00
  weight for this iteration     100.00

 eigenvalues of (default mixing * dielectric matrix)
  average eigenvalue GAMMA=   0.9387
  1.2778  0.5996

 Free energy of the ion-electron system (eV)
  ---------------------------------------------------
  alpha Z        PSCENC =        85.72983808
  Ewald energy   TEWEN  =      -670.77359510
  -Hartree energ DENC   =       -70.31014745
  -exchange      EXHF   =         0.00000000
  -V(xc)+E(xc)   XCENC  =         5.10119795
  PAW double counting   =       847.30676861     -858.27073694
  entropy T*S    EENTRO =         0.00000000
  eigenvalues    EBANDS =        55.43882817
  atomic energy  EATOM  =       597.35192723
  Solvation  Ediel_sol  =         0.00000000
  ---------------------------------------------------
  free energy    TOTEN  =        -8.42591946 eV

  energy without entropy =       -8.42591946  energy(sigma->0) =       -8.42591946


--------------------------------------------------------------------------------------------------------




----------------------------------------- Iteration    1(   8)  ---------------------------------------


    POTLOK:  cpu time    0.0040: real time    0.0019
    SETDIJ:  cpu time    0.0130: real time    0.0066
     EDDAV:  cpu time    0.6399: real time    0.3204
 BZINTS: Fermi energy: 10.534785;  8.000000 electrons
         Band energy:  55.609876;  BLOECHL correction: -0.137897
       DOS:  cpu time    0.1010: real time    0.0505
    CHARGE:  cpu time    0.0270: real time    0.0135
    MIXING:  cpu time    0.0010: real time    0.0006
    --------------------------------------------
      LOOP:  cpu time    0.7989: real time    0.4003

 eigenvalue-minimisations  :  1616
 total energy-change (2. order) : 0.5814764E-02  (-0.6607181E-03)
 number of electron       7.9999997 magnetization       1.1752586
 augmentation part        4.1044429 magnetization       0.9504758

 Broyden mixing:
  rms(total) = 0.13635E+00    rms(broyden)= 0.13635E+00
  rms(prec ) = 0.18614E+00
  weight for this iteration     100.00

 eigenvalues of (default mixing * dielectric matrix)
  average eigenvalue GAMMA=   1.0566
  1.7353  0.8797  0.5548

 Free energy of the ion-electron system (eV)
  ---------------------------------------------------
  alpha Z        PSCENC =        85.72983808
  Ewald energy   TEWEN  =      -670.77359510
  -Hartree energ DENC   =       -69.79362779
  -exchange      EXHF   =         0.00000000
  -V(xc)+E(xc)   XCENC  =         5.04370857
  PAW double counting   =       888.50395175     -900.09218377
  entropy T*S    EENTRO =         0.00000000
  eigenvalues    EBANDS =        55.60987633
  atomic energy  EATOM  =       597.35192723
  Solvation  Ediel_sol  =         0.00000000
  ---------------------------------------------------
  free energy    TOTEN  =        -8.42010470 eV

  energy without entropy =       -8.42010470  energy(sigma->0) =       -8.42010470


--------------------------------------------------------------------------------------------------------




----------------------------------------- Iteration    1(   9)  ---------------------------------------


    POTLOK:  cpu time    0.0030: real time    0.0019
    SETDIJ:  cpu time    0.0140: real time    0.0066
     EDDAV:  cpu time    0.6209: real time    0.3109
 BZINTS: Fermi energy: 10.539222;  8.000000 electrons
         Band energy:  55.721652;  BLOECHL correction: -0.137915
       DOS:  cpu time    0.0890: real time    0.0451
    CHARGE:  cpu time    0.0360: real time    0.0177
    MIXING:  cpu time    0.0010: real time    0.0006
    --------------------------------------------
      LOOP:  cpu time    0.7799: real time    0.3905

 eigenvalue-minimisations  :  1560
 total energy-change (2. order) : 0.1014876E-01  (-0.3050844E-03)
 number of electron       7.9999997 magnetization       1.1904531
 augmentation part        4.1078641 magnetization       0.9782363

 Broyden mixing:
  rms(total) = 0.41492E-01    rms(broyden)= 0.41492E-01
  rms(prec ) = 0.53364E-01
  weight for this iteration     100.00

 eigenvalues of (default mixing * dielectric matrix)
  average eigenvalue GAMMA=   1.1846
  2.3052  1.0420  0.7850  0.6064

 Free energy of the ion-electron system (eV)
  ---------------------------------------------------
  alpha Z        PSCENC =        85.72983808
  Ewald energy   TEWEN  =      -670.77359510
  -Hartree energ DENC   =       -69.02373042
  -exchange      EXHF   =         0.00000000
  -V(xc)+E(xc)   XCENC  =         4.98689163
  PAW double counting   =       945.71374556     -958.11668533
  entropy T*S    EENTRO =         0.00000000
  eigenvalues    EBANDS =        55.72165240
  atomic energy  EATOM  =       597.35192723
  Solvation  Ediel_sol  =         0.00000000
  ---------------------------------------------------
  free energy    TOTEN  =        -8.40995594 eV

  energy without entropy =       -8.40995594  energy(sigma->0) =       -8.40995594


--------------------------------------------------------------------------------------------------------




----------------------------------------- Iteration    1(  10)  ---------------------------------------


    POTLOK:  cpu time    0.0040: real time    0.0019
    SETDIJ:  cpu time    0.0130: real time    0.0066
     EDDAV:  cpu time    0.6029: real time    0.3015
 BZINTS: Fermi energy: 10.546263;  8.000000 electrons
         Band energy:  55.787135;  BLOECHL correction: -0.137792
       DOS:  cpu time    0.0980: real time    0.0497
    CHARGE:  cpu time    0.0290: real time    0.0143
    MIXING:  cpu time    0.0020: real time    0.0007
    --------------------------------------------
      LOOP:  cpu time    0.7639: real time    0.3823

 eigenvalue-minimisations  :  1516
 total energy-change (2. order) : 0.9627400E-03  (-0.7623284E-04)
 number of electron       7.9999997 magnetization       1.1933958
 augmentation part        4.1084451 magnetization       0.9785463

 Broyden mixing:
  rms(total) = 0.56207E-02    rms(broyden)= 0.56189E-02
  rms(prec ) = 0.62399E-02
  weight for this iteration     100.00

 eigenvalues of (default mixing * dielectric matrix)
  average eigenvalue GAMMA=   1.1399
  2.3336  1.1049  0.6073  0.8991  0.7545

 Free energy of the ion-electron system (eV)
  ---------------------------------------------------
  alpha Z        PSCENC =        85.72983808
  Ewald energy   TEWEN  =      -670.77359510
  -Hartree energ DENC   =       -68.75090504
  -exchange      EXHF   =         0.00000000
  -V(xc)+E(xc)   XCENC  =         4.96970134
  PAW double counting   =       969.78656544     -982.50965973
  entropy T*S    EENTRO =         0.00000000
  eigenvalues    EBANDS =        55.78713457
  atomic energy  EATOM  =       597.35192723
  Solvation  Ediel_sol  =         0.00000000
  ---------------------------------------------------
  free energy    TOTEN  =        -8.40899320 eV

  energy without entropy =       -8.40899320  energy(sigma->0) =       -8.40899320


--------------------------------------------------------------------------------------------------------




----------------------------------------- Iteration    1(  11)  ---------------------------------------


    POTLOK:  cpu time    0.0030: real time    0.0019
    SETDIJ:  cpu time    0.0140: real time    0.0066
     EDDAV:  cpu time    0.6069: real time    0.3040
 BZINTS: Fermi energy: 10.546122;  8.000000 electrons
         Band energy:  55.785178;  BLOECHL correction: -0.137882
       DOS:  cpu time    0.0970: real time    0.0489
    CHARGE:  cpu time    0.0480: real time    0.0246
    MIXING:  cpu time    0.0020: real time    0.0003
    --------------------------------------------
      LOOP:  cpu time    0.7839: real time    0.3929

 eigenvalue-minimisations  :  1520
 total energy-change (2. order) :-0.4271358E-04  (-0.1365652E-05)
 number of electron       7.9999997 magnetization       1.1942972
 augmentation part        4.1086967 magnetization       0.9790236

 Broyden mixing:
  rms(total) = 0.30028E-02    rms(broyden)= 0.30028E-02
  rms(prec ) = 0.31468E-02
  weight for this iteration     100.00

 eigenvalues of (default mixing * dielectric matrix)
  average eigenvalue GAMMA=   1.3409
  2.7932  2.1735  1.0174  0.7931  0.5996  0.6685

 Free energy of the ion-electron system (eV)
  ---------------------------------------------------
  alpha Z        PSCENC =        85.72983808
  Ewald energy   TEWEN  =      -670.77359510
  -Hartree energ DENC   =       -68.74054164
  -exchange      EXHF   =         0.00000000
  -V(xc)+E(xc)   XCENC  =         4.97055352
  PAW double counting   =       972.65355713     -985.38595298
  entropy T*S    EENTRO =         0.00000000
  eigenvalues    EBANDS =        55.78517785
  atomic energy  EATOM  =       597.35192723
  Solvation  Ediel_sol  =         0.00000000
  ---------------------------------------------------
  free energy    TOTEN  =        -8.40903592 eV

  energy without entropy =       -8.40903592  energy(sigma->0) =       -8.40903592


--------------------------------------------------------------------------------------------------------




----------------------------------------- Iteration    1(  12)  ---------------------------------------


    POTLOK:  cpu time    0.0040: real time    0.0017
    SETDIJ:  cpu time    0.0160: real time    0.0086
     EDDAV:  cpu time    0.9189: real time    0.4594
 BZINTS: Fermi energy: 10.546356;  8.000000 electrons
         Band energy:  55.786300;  BLOECHL correction: -0.137897
       DOS:  cpu time    0.0940: real time    0.0470
    CHARGE:  cpu time    0.0260: real time    0.0130
    MIXING:  cpu time    0.0010: real time    0.0007
    --------------------------------------------
      LOOP:  cpu time    1.0718: real time    0.5368

 eigenvalue-minimisations  :  1464
 total energy-change (2. order) :-0.7191859E-05  (-0.7157841E-06)
 number of electron       7.9999997 magnetization       1.1940985
 augmentation part        4.1088088 magnetization       0.9787682

 Broyden mixing:
  rms(total) = 0.47963E-03    rms(broyden)= 0.47952E-03
  rms(prec ) = 0.13739E-02
  weight for this iteration     100.00

 eigenvalues of (default mixing * dielectric matrix)
  average eigenvalue GAMMA=   1.2335
  2.7003  2.2095  1.0214  0.7941  0.6960  0.6067  0.6067

 Free energy of the ion-electron system (eV)
  ---------------------------------------------------
  alpha Z        PSCENC =        85.72983808
  Ewald energy   TEWEN  =      -670.77359510
  -Hartree energ DENC   =       -68.73621034
  -exchange      EXHF   =         0.00000000
  -V(xc)+E(xc)   XCENC  =         4.97144766
  PAW double counting   =       974.81427699     -987.55302758
  entropy T*S    EENTRO =         0.00000000
  eigenvalues    EBANDS =        55.78629995
  atomic energy  EATOM  =       597.35192723
  Solvation  Ediel_sol  =         0.00000000
  ---------------------------------------------------
  free energy    TOTEN  =        -8.40904311 eV

  energy without entropy =       -8.40904311  energy(sigma->0) =       -8.40904311


--------------------------------------------------------------------------------------------------------




----------------------------------------- Iteration    1(  13)  ---------------------------------------


    POTLOK:  cpu time    0.0040: real time    0.0019
    SETDIJ:  cpu time    0.0130: real time    0.0066
     EDDAV:  cpu time    0.3649: real time    0.1825
 BZINTS: Fermi energy: 10.546491;  8.000000 electrons
         Band energy:  55.786961;  BLOECHL correction: -0.137894
       DOS:  cpu time    0.0790: real time    0.0399
    CHARGE:  cpu time    0.0330: real time    0.0162
    MIXING:  cpu time    0.0010: real time    0.0007
    --------------------------------------------
      LOOP:  cpu time    0.5079: real time    0.2544

 eigenvalue-minimisations  :   792
 total energy-change (2. order) : 0.1455521E-05  (-0.1021515E-07)
 number of electron       7.9999997 magnetization       1.1940557
 augmentation part        4.1087643 magnetization       0.9787455

 Broyden mixing:
  rms(total) = 0.28231E-03    rms(broyden)= 0.28231E-03
  rms(prec ) = 0.88431E-03
  weight for this iteration     100.00

 eigenvalues of (default mixing * dielectric matrix)
  average eigenvalue GAMMA=   1.2189
  2.6714  2.1970  1.0045  0.9133  0.9133  0.7905  0.6030  0.6578

 Free energy of the ion-electron system (eV)
  ---------------------------------------------------
  alpha Z        PSCENC =        85.72983808
  Ewald energy   TEWEN  =      -670.77359510
  -Hartree energ DENC   =       -68.73884554
  -exchange      EXHF   =         0.00000000
  -V(xc)+E(xc)   XCENC  =         4.97146745
  PAW double counting   =       974.68372015     -987.42051447
  entropy T*S    EENTRO =         0.00000000
  eigenvalues    EBANDS =        55.78696054
  atomic energy  EATOM  =       597.35192723
  Solvation  Ediel_sol  =         0.00000000
  ---------------------------------------------------
  free energy    TOTEN  =        -8.40904165 eV

  energy without entropy =       -8.40904165  energy(sigma->0) =       -8.40904165


--------------------------------------------------------------------------------------------------------




----------------------------------------- Iteration    1(  14)  ---------------------------------------


    POTLOK:  cpu time    0.0040: real time    0.0020
    SETDIJ:  cpu time    0.0140: real time    0.0066
     EDDAV:  cpu time    0.3329: real time    0.1668
 BZINTS: Fermi energy: 10.546491;  8.000000 electrons
         Band energy:  55.786673;  BLOECHL correction: -0.137892
       DOS:  cpu time    0.0970: real time    0.0488
    --------------------------------------------
      LOOP:  cpu time    0.4609: real time    0.2309

 eigenvalue-minimisations  :   696
 total energy-change (2. order) : 0.6359174E-06  (-0.7637328E-08)
 number of electron       7.9999997 magnetization       1.1940557
 augmentation part        4.1087643 magnetization       0.9787455

 Free energy of the ion-electron system (eV)
  ---------------------------------------------------
  alpha Z        PSCENC =        85.72983808
  Ewald energy   TEWEN  =      -670.77359510
  -Hartree energ DENC   =       -68.74454504
  -exchange      EXHF   =         0.00000000
  -V(xc)+E(xc)   XCENC  =         4.97174966
  PAW double counting   =       974.61970736     -987.35079590
  entropy T*S    EENTRO =         0.00000000
  eigenvalues    EBANDS =        55.78667269
  atomic energy  EATOM  =       597.35192723
  Solvation  Ediel_sol  =         0.00000000
  ---------------------------------------------------
  free energy    TOTEN  =        -8.40904102 eV

  energy without entropy =       -8.40904102  energy(sigma->0) =       -8.40904102


--------------------------------------------------------------------------------------------------------




 average (electrostatic) potential at core
  the test charge radii are     1.0103
  (the norm of the test charge is              1.0000)
       1 -39.7847
 
 
 
 E-fermi :  10.5465     XC(G=0): -15.6577     alpha+bet :-19.7328


 spin component 1

 k-point     1 :       0.0625    0.0625    0.0625
  band No.  band energies     occupation 
      1       1.0466      1.00000
      2       6.9696      1.00000
      3       6.9696      1.00000
      4       8.4360      1.00000
      5       9.6597      1.00000
      6       9.6597      1.02271
      7      36.2485      0.00000
      8      36.2485      0.00000
      9      40.1880      0.00000
     10      44.7979      0.00000
     11      48.7061      0.00000
     12      48.7061      0.00000

 k-point     2 :       0.1875    0.0625    0.0625
  band No.  band energies     occupation 
      1       2.9677      1.00000
      2       6.2155      1.00000
      3       6.6382      1.00000
      4       9.5332      1.00000
      5       9.9200      1.01276
      6      10.2512      0.61641
      7      31.0905      0.00000
      8      33.8518      0.00000
      9      39.7476      0.00000
     10      41.4880      0.00000
     11      49.3925      0.00000
     12      49.5538      0.00000

 k-point     3 :       0.3125    0.0625    0.0625
  band No.  band energies     occupation 
      1       3.6574      1.00000
      2       5.5897      1.00000
      3       8.0958      1.00000
      4       9.8075      1.00000
      5      10.1396      0.87716
      6      12.5445     -0.04791
      7      25.3800      0.00000
      8      31.6684      0.00000
      9      36.4563      0.00000
     10      41.9506      0.00000
     11      48.8075      0.00000
     12      53.1712      0.00000

 k-point     4 :       0.4375    0.0625    0.0625
  band No.  band energies     occupation 
      1       3.4624      1.00000
      2       5.3535      1.00000
      3       9.5670      1.00000
      4       9.9492      1.00000
      5      10.2346      0.65443
      6      14.1277     -0.00008
      7      22.1777      0.00000
      8      30.8013      0.00000
      9      35.2031      0.00000
     10      42.0184      0.00000
     11      48.9502      0.00000
     12      52.2455      0.00000

 k-point     5 :      -0.0625    0.0625    0.0625
  band No.  band energies     occupation 
      1       0.2261      1.00000
      2       7.3560      1.00000
      3       7.3560      1.00000
      4       7.5153      1.00000
      5       9.5027      1.00000
      6       9.9142      1.00913
      7      37.5241      0.00000
      8      39.1605      0.00000
      9      39.1605      0.00000
     10      45.2040      0.00000
     11      49.7523      0.00000
     12      49.7524      0.00000

 k-point     6 :       0.1875    0.1875    0.0625
  band No.  band energies     occupation 
      1       4.5167      1.00000
      2       5.7376      1.00000
      3       6.2313      1.00000
      4       9.6913      1.00000
      5      10.1942      1.00162
      6      12.9163     -0.06931
      7      28.1198      0.00000
      8      29.4686      0.00000
      9      35.0625      0.00000
     10      43.9350      0.00000
     11      49.9737      0.00000
     12      52.9994      0.00000

 k-point     7 :       0.3125    0.1875    0.0625
  band No.  band energies     occupation 
      1       4.4886      1.00000
      2       5.4640      1.00000
      3       7.3455      1.00000
      4       9.9683      1.00000
      5      10.3609      0.84367
      6      16.1370     -0.00013
      7      23.2989      0.00000
      8      27.5011      0.00000
      9      33.0982      0.00000
     10      44.9922      0.00000
     11      50.4525      0.00000
     12      54.3007      0.00000

 k-point     8 :      -0.1875    0.1875    0.0625
  band No.  band energies     occupation 
      1       1.7729      1.00000
      2       6.8491      1.00000
      3       7.2040      1.00000
      4       8.6121      1.00000
      5       9.0133      1.00318
      6      10.1205      0.95309
      7      33.8849      0.00000
      8      37.1281      0.00000
      9      39.0786      0.00000
     10      44.5144      0.00000
     11      46.0313      0.00000
     12      47.5668      0.00000

 k-point     9 :       0.3125    0.3125    0.0625
  band No.  band energies     occupation 
      1       4.8821      1.00000
      2       6.2053      1.00000
      3       6.2053      1.00000
      4      10.2355      1.00000
      5      10.2355      0.95219
      6      20.4907      0.00000
      7      20.4907      0.00000
      8      24.5624      0.00000
      9      32.4516      0.00000
     10      47.8659      0.00000
     11      47.8659      0.00000
     12      58.4710      0.00000

 k-point    10 :      -0.3125    0.3125    0.0625
  band No.  band energies     occupation 
      1       3.3531      1.00000
      2       6.1195      1.00000
      3       7.4382      1.00000
      4       9.3852      1.00000
      5      10.4346      0.78743
      6      10.4565      0.27826
      7      28.1961      0.00000
      8      34.1197      0.00000
      9      37.9995      0.00000
     10      43.0667      0.00000
     11      45.6206      0.00000
     12      48.4428      0.00000

 k-point    11 :      -0.1875    0.3125    0.0625
  band No.  band energies     occupation 
      1       3.4476      1.00000
      2       6.4348      1.00000
      3       6.8547      1.00000
      4       8.7475      1.00000
      5       9.9973      1.02366
      6      10.7654      0.16543
      7      31.0052      0.00000
      8      32.7584      0.00000
      9      39.3092      0.00000
     10      41.2713      0.00000
     11      45.3371      0.00000
     12      50.7338      0.00000

 k-point    12 :      -0.4375    0.4375    0.0625
  band No.  band energies     occupation 
      1       3.3165      1.00000
      2       5.6362      1.00000
      3       8.7674      1.00000
      4       9.7481      1.00000
      5      11.9310     -0.18149
      6      11.9865     -0.00626
      7      23.1372      0.00000
      8      32.2908      0.00000
      9      36.2514      0.00000
     10      42.1452      0.00000
     11      46.5894      0.00000
     12      49.4521      0.00000

 k-point    13 :      -0.3125    0.4375    0.0625
  band No.  band energies     occupation 
      1       4.1630      1.00000
      2       5.9257      1.00000
      3       7.0574      1.00000
      4       9.3120      1.00000
      5      10.7830      0.21915
      6      13.2810     -0.01876
      7      25.7402      0.00000
      8      29.9527      0.00000
      9      37.4780      0.00000
     10      41.4341      0.00000
     11      45.6323      0.00000
     12      51.9099      0.00000

 k-point    14 :      -0.4375   -0.4375    0.0625
  band No.  band energies     occupation 
      1       3.9477      1.00000
      2       5.8884      1.00000
      3       7.3532      1.00000
      4       9.5389      1.00000
      5      11.3274     -0.09823
      6      15.6287     -0.00002
      7      22.1685      0.00000
      8      29.0670      0.00000
      9      36.3348      0.00000
     10      42.2592      0.00000
     11      45.8210      0.00000
     12      51.2917      0.00000

 k-point    15 :      -0.3125   -0.4375    0.0625
  band No.  band energies     occupation 
      1       5.0863      1.00000
      2       5.4556      1.00000
      3       6.4225      1.00000
      4       9.8524      0.99995
      5      10.7002      0.12641
      6      17.5728      0.00000
      7      23.0445      0.00000
      8      25.3632      0.00000
      9      38.6454      0.00000
     10      40.9503      0.00000
     11      43.8237      0.00000
     12      55.0034      0.00000

 k-point    16 :       0.1875    0.1875    0.1875
  band No.  band energies     occupation 
      1       5.4568      1.00000
      2       5.4568      1.00000
      3       6.1270      1.00000
      4      10.1694      1.00000
      5      10.1694      1.00697
      6      16.2920     -0.00036
      7      26.1414      0.00000
      8      26.1414      0.00000
      9      29.5970      0.00000
     10      49.1776      0.00000
     11      53.9947      0.00000
     12      53.9947      0.00000

 k-point    17 :       0.3125    0.1875    0.1875
  band No.  band energies     occupation 
      1       5.3654      1.00000
      2       5.4061      1.00000
      3       6.6372      1.00000
      4      10.2363      1.00000
      5      10.2879      0.99811
      6      19.5389      0.00000
      7      22.2945      0.00000
      8      25.4416      0.00000
      9      28.2150      0.00000
     10      51.0625      0.00000
     11      55.5163      0.00000
     12      57.0572      0.00000

 k-point    18 :      -0.1875    0.1875    0.1875
  band No.  band energies     occupation 
      1       3.0581      1.00000
      2       7.4689      1.00000
      3       7.5957      1.00000
      4       7.5957      1.00000
      5       8.6151      1.02720
      6      10.8343      0.13540
      7      33.4115      0.00000
      8      36.4775      0.00000
      9      36.4775      0.00000
     10      38.2104      0.00000
     11      49.5744      0.00000
     12      49.5744      0.00000

 k-point    19 :      -0.3125    0.3125    0.1875
  band No.  band energies     occupation 
      1       4.3043      1.00000
      2       6.1034      1.00000
      3       7.3283      1.00000
      4       8.5555      1.00000
      5      10.2072      0.79704
      6      12.1524     -0.03004
      7      29.1604      0.00000
      8      33.5255      0.00000
      9      33.6439      0.00000
     10      38.9121      0.00000
     11      48.8635      0.00000
     12      51.0587      0.00000

 k-point    20 :      -0.4375    0.4375    0.1875
  band No.  band energies     occupation 
      1       4.0965      1.00000
      2       6.1180      1.00000
      3       6.9666      1.00000
      4       8.9877      1.00209
      5      11.7759     -0.05827
      6      15.2434     -0.00019
      7      23.5226      0.00000
      8      31.5923      0.00000
      9      32.4385      0.00000
     10      41.3239      0.00000
     11      47.7826      0.00000
     12      49.2533      0.00000

 k-point    21 :      -0.3125    0.4375    0.1875
  band No.  band energies     occupation 
      1       4.8114      1.00000
      2       4.9728      1.00000
      3       7.4757      1.00078
      4       9.2559      1.00671
      5      11.0120      0.00618
      6      15.3123     -0.00013
      7      26.5617      0.00000
      8      27.6156      0.00000
      9      35.4477      0.00000
     10      37.6127      0.00000
     11      47.5496      0.00000
     12      52.3829      0.00000

 k-point    22 :      -0.4375   -0.4375    0.1875
  band No.  band energies     occupation 
      1       4.4274      1.00000
      2       5.1232      1.00000
      3       7.1331      1.00177
      4       9.8358      0.99935
      5      11.4231     -0.00731
      6      18.9204      0.00000
      7      22.3299      0.00000
      8      26.2634      0.00000
      9      35.4733      0.00000
     10      38.8999      0.00000
     11      45.4018      0.00000
     12      51.3054      0.00000

 k-point    23 :      -0.3125    0.3125    0.3125
  band No.  band energies     occupation 
      1       4.5011      1.00000
      2       4.8352      1.00000
      3       8.9600      1.00187
      4       8.9600      1.01300
      5      10.2625      0.46737
      6      14.4893      0.00000
      7      29.9161      0.00000
      8      29.9161      0.00000
      9      31.5678      0.00000
     10      34.5605      0.00000
     11      50.6555      0.00000
     12      54.4380      0.00000

 k-point    24 :      -0.4375    0.4375    0.3125
  band No.  band energies     occupation 
      1       3.9146      1.00000
      2       4.1906      1.00000
      3       9.2027      1.00947
      4       9.7288      0.99630
      5      11.5624     -0.01742
      6      18.3351      0.00000
      7      24.4808      0.00000
      8      27.4166      0.00000
      9      32.0617      0.00000
     10      35.3855      0.00000
     11      46.0342      0.00000
     12      53.6440      0.00000

 k-point    25 :      -0.4375   -0.4375    0.3125
  band No.  band energies     occupation 
      1       3.6529      1.00000
      2       3.6529      1.00000
      3       9.3944      1.01701
      4      11.2626      0.29655
      5      11.2626     -0.00041
      6      22.4361      0.00000
      7      22.4361      0.00000
      8      24.1564      0.00000
      9      33.6217      0.00000
     10      33.6217      0.00000
     11      43.7302      0.00000
     12      54.4127      0.00000

 k-point    26 :      -0.4375    0.4375    0.4375
  band No.  band energies     occupation 
      1       3.1428      1.00000
      2       3.1958      1.00000
      3      11.1802      0.49634
      4      11.1802      0.15132
      5      11.4981     -0.00159
      6      21.5271      0.00000
      7      24.5165      0.00000
      8      24.5165      0.00000
      9      31.0338      0.00000
     10      32.3341      0.00000
     11      42.1647      0.00000
     12      57.2491      0.00000

 spin component 2

 k-point     1 :       0.0625    0.0625    0.0625
  band No.  band energies     occupation 
      1       1.3477      1.00000
      2       7.8930      1.00000
      3       7.8930      1.00000
      4       9.4073      1.05196
      5      11.0095     -0.04322
      6      11.0095      0.00000
      7      36.6114      0.00000
      8      36.6114      0.00000
      9      40.3537      0.00000
     10      45.3605      0.00000
     11      49.0579      0.00000
     12      49.0579      0.00000

 k-point     2 :       0.1875    0.0625    0.0625
  band No.  band energies     occupation 
      1       3.3375      1.00000
      2       7.0975      1.00000
      3       7.4988      1.00000
      4      10.8255      0.31790
      5      11.2462     -0.02816
      6      11.2928      0.00000
      7      31.6299      0.00000
      8      34.2548      0.00000
      9      40.2609      0.00000
     10      41.7331      0.00000
     11      49.7434      0.00000
     12      50.0630      0.00000

 k-point     3 :       0.3125    0.0625    0.0625
  band No.  band energies     occupation 
      1       4.2994      1.00000
      2       6.4368      1.00000
      3       8.7162      1.00000
      4      11.0777     -0.02638
      5      11.5419     -0.00074
      6      13.5016      0.00000
      7      26.0566      0.00000
      8      32.0402      0.00000
      9      36.9230      0.00000
     10      42.3196      0.00000
     11      49.3067      0.00000
     12      53.5047      0.00000

 k-point     4 :       0.4375    0.0625    0.0625
  band No.  band energies     occupation 
      1       4.1741      1.00000
      2       6.1878      1.00000
      3      10.1777      1.00000
      4      11.2264     -0.01644
      5      11.6516      0.00000
      6      14.9509      0.00000
      7      22.9695      0.00000
      8      31.1516      0.00000
      9      35.6430      0.00000
     10      42.4303      0.00000
     11      49.4743      0.00000
     12      52.5248      0.00000

 k-point     5 :      -0.0625    0.0625    0.0625
  band No.  band energies     occupation 
      1       0.5197      1.00000
      2       8.2966      1.00000
      3       8.2966      1.00000
      4       8.4664      1.00300
      5      10.8459      0.05629
      6      11.2946      0.00000
      7      37.7879      0.00000
      8      39.3670      0.00000
      9      39.3670      0.00000
     10      45.6034      0.00000
     11      50.2148      0.00000
     12      50.3303      0.00000

 k-point     6 :       0.1875    0.1875    0.0625
  band No.  band energies     occupation 
      1       5.0639      1.00000
      2       6.5891      1.00000
      3       6.9734      1.00000
      4      10.9860      0.00227
      5      11.5719     -0.00088
      6      13.8674      0.00000
      7      28.7171      0.00000
      8      29.9682      0.00000
      9      35.5261      0.00000
     10      44.1735      0.00000
     11      50.3448      0.00000
     12      53.4135      0.00000

 k-point     7 :       0.3125    0.1875    0.0625
  band No.  band energies     occupation 
      1       5.2164      1.00000
      2       6.2781      1.00000
      3       8.0527      1.00000
      4      11.2662     -0.01678
      5      11.7240      0.00000
      6      16.9473      0.00000
      7      23.9972      0.00000
      8      28.0123      0.00000
      9      33.5376      0.00000
     10      45.2958      0.00000
     11      50.7586      0.00000
     12      54.7726      0.00000

 k-point     8 :      -0.1875    0.1875    0.0625
  band No.  band energies     occupation 
      1       2.0909      1.00000
      2       7.7610      1.00000
      3       8.1252      1.00000
      4       9.5946      1.06680
      5      10.2792      0.55474
      6      11.5062      0.00000
      7      34.3522      0.00000
      8      37.4399      0.00000
      9      39.4270      0.00000
     10      44.8689      0.00000
     11      46.5400      0.00000
     12      48.0496      0.00000

 k-point     9 :       0.3125    0.3125    0.0625
  band No.  band energies     occupation 
      1       5.6476      1.00000
      2       6.9786      1.00000
      3       6.9786      1.00000
      4      11.5586     -0.00139
      5      11.5586      0.00000
      6      21.2055      0.00000
      7      21.2055      0.00000
      8      25.1353      0.00000
      9      32.9036      0.00000
     10      48.1530      0.00000
     11      48.1530      0.00000
     12      59.0417      0.00000

 k-point    10 :      -0.3125    0.3125    0.0625
  band No.  band energies     occupation 
      1       3.8664      1.00000
      2       6.9945      1.00000
      3       8.2173      1.00000
      4      10.5623      0.50162
      5      11.4798     -0.02036
      6      11.8006      0.00000
      7      28.8204      0.00000
      8      34.4347      0.00000
      9      38.4707      0.00000
     10      43.5166      0.00000
     11      46.0712      0.00000
     12      48.8342      0.00000

 k-point    11 :      -0.1875    0.3125    0.0625
  band No.  band energies     occupation 
      1       3.8582      1.00000
      2       7.3699      1.00000
      3       7.7128      1.00000
      4       9.9186      1.04926
      5      11.0544      0.00827
      6      12.0622      0.00000
      7      31.5855      0.00000
      8      33.2053      0.00000
      9      39.6741      0.00000
     10      41.6968      0.00000
     11      45.7434      0.00000
     12      51.1700      0.00000

 k-point    12 :      -0.4375    0.4375    0.0625
  band No.  band energies     occupation 
      1       4.0178      1.00000
      2       6.4889      1.00000
      3       9.6582      1.00000
      4      10.9677      0.00011
      5      12.8872      0.00000
      6      13.0395      0.00000
      7      23.8995      0.00000
      8      32.5823      0.00000
      9      36.7066      0.00000
     10      42.6156      0.00000
     11      47.1051      0.00000
     12      49.7802      0.00000

 k-point    13 :      -0.3125    0.4375    0.0625
  band No.  band energies     occupation 
      1       4.8373      1.00000
      2       6.7982      1.00000
      3       7.8743      1.00000
      4      10.4632      0.51136
      5      11.9913     -0.00211
      6      14.2388      0.00000
      7      26.4111      0.00000
      8      30.4430      0.00000
      9      37.8573      0.00000
     10      41.8576      0.00000
     11      46.0245      0.00000
     12      52.3805      0.00000

 k-point    14 :      -0.4375   -0.4375    0.0625
  band No.  band energies     occupation 
      1       4.7020      1.00000
      2       6.7407      1.00000
      3       8.2335      1.00000
      4      10.7234      0.10408
      5      12.4720      0.00000
      6      16.4248      0.00000
      7      22.9427      0.00000
      8      29.5520      0.00000
      9      36.6965      0.00000
     10      42.7340      0.00000
     11      46.1463      0.00000
     12      51.7943      0.00000

 k-point    15 :      -0.3125   -0.4375    0.0625
  band No.  band energies     occupation 
      1       5.8522      1.00000
      2       6.3270      1.00000
      3       7.2758      1.00000
      4      11.0032     -0.01651
      5      11.8747      0.00000
      6      18.3792      0.00000
      7      23.7694      0.00000
      8      25.9098      0.00000
      9      39.0557      0.00000
     10      41.3284      0.00000
     11      44.2000      0.00000
     12      55.6275      0.00000

 k-point    16 :       0.1875    0.1875    0.1875
  band No.  band energies     occupation 
      1       6.2517      1.00000
      2       6.2517      1.00000
      3       6.7158      1.00000
      4      11.5564     -0.00069
      5      11.5564      0.00000
      6      17.1259      0.00000
      7      26.7301      0.00000
      8      26.7301      0.00000
      9      30.0454      0.00000
     10      49.3467      0.00000
     11      54.3217      0.00000
     12      54.3217      0.00000

 k-point    17 :       0.3125    0.1875    0.1875
  band No.  band energies     occupation 
      1       6.1043      1.00000
      2       6.1794      1.00000
      3       7.3493      1.00000
      4      11.6236      0.00000
      5      11.7104      0.00000
      6      20.2368      0.00000
      7      22.9769      0.00000
      8      26.0231      0.00000
      9      28.6621      0.00000
     10      51.2871      0.00000
     11      55.8152      0.00000
     12      57.4295      0.00000

 k-point    18 :      -0.1875    0.1875    0.1875
  band No.  band energies     occupation 
      1       3.4232      1.00000
      2       8.5137      1.00000
      3       8.5137      1.00000
      4       8.6389      1.01314
      5       9.6014      0.95097
      6      12.1910      0.00000
      7      33.9461      0.00000
      8      36.9438      0.00000
      9      36.9438      0.00000
     10      38.5524      0.00000
     11      49.9797      0.00000
     12      49.9797      0.00000

 k-point    19 :      -0.3125    0.3125    0.1875
  band No.  band energies     occupation 
      1       4.8790      1.00000
      2       7.0963      1.00000
      3       8.2320      1.00000
      4       9.5568      1.06792
      5      11.2425      0.00001
      6      13.2886      0.00000
      7      29.7803      0.00000
      8      34.0016      0.00000
      9      34.1421      0.00000
     10      39.3094      0.00000
     11      49.3003      0.00000
     12      51.5067      0.00000

 k-point    20 :      -0.4375    0.4375    0.1875
  band No.  band energies     occupation 
      1       4.8944      1.00000
      2       7.0224      1.00000
      3       7.8543      1.00000
      4      10.0560      1.04543
      5      12.8775      0.00000
      6      16.0620      0.00000
      7      24.2358      0.00000
      8      32.0642      0.00000
      9      32.9302      0.00000
     10      41.7127      0.00000
     11      48.2271      0.00000
     12      49.7772      0.00000

 k-point    21 :      -0.3125    0.4375    0.1875
  band No.  band energies     occupation 
      1       5.5732      1.00000
      2       5.9287      1.00000
      3       8.3861      1.00351
      4      10.2611      0.86810
      5      12.0986     -0.00179
      6      16.1681      0.00000
      7      27.2398      0.00000
      8      28.1271      0.00000
      9      35.9646      0.00000
     10      38.0152      0.00000
     11      48.0118      0.00000
     12      52.9509      0.00000

 k-point    22 :      -0.4375   -0.4375    0.1875
  band No.  band energies     occupation 
      1       5.3141      1.00000
      2       6.0276      1.00000
      3       8.0059      1.00878
      4      10.8719      0.03743
      5      12.5159      0.00000
      6      19.6489      0.00000
      7      23.0338      0.00000
      8      26.8027      0.00000
      9      35.9665      0.00000
     10      39.3379      0.00000
     11      45.8822      0.00000
     12      51.8508      0.00000

 k-point    23 :      -0.3125    0.3125    0.3125
  band No.  band energies     occupation 
      1       5.2590      1.00000
      2       5.8308      1.00000
      3       9.9020      0.99056
      4       9.9020      1.02610
      5      11.3072      0.00016
      6      15.3607      0.00000
      7      30.4073      0.00000
      8      30.4073      0.00000
      9      32.3100      0.00000
     10      35.0011      0.00000
     11      51.2442      0.00000
     12      54.8508      0.00000

 k-point    24 :      -0.4375    0.4375    0.3125
  band No.  band energies     occupation 
      1       4.8265      1.00000
      2       5.0867      1.00000
      3      10.1638      0.92113
      4      10.7046      0.21772
      5      12.6551      0.00000
      6      19.0048      0.00000
      7      25.0593      0.00000
      8      27.8642      0.00000
      9      32.7529      0.00000
     10      35.9113      0.00000
     11      46.6143      0.00000
     12      54.0598      0.00000

 k-point    25 :      -0.4375   -0.4375    0.3125
  band No.  band energies     occupation 
      1       4.5605      1.00000
      2       4.5605      1.00000
      3      10.3485      0.78200
      4      12.3297     -0.08692
      5      12.3297      0.00000
      6      23.0060      0.00000
      7      23.0060      0.00000
      8      24.6202      0.00000
      9      34.2560      0.00000
     10      34.2560      0.00000
     11      44.3075      0.00000
     12      54.8234      0.00000

 k-point    26 :      -0.4375    0.4375    0.4375
  band No.  band energies     occupation 
      1       4.0505      1.00000
      2       4.0900      1.00000
      3      12.2383     -0.18419
      4      12.2383     -0.02942
      5      12.5912      0.00000
      6      21.9981      0.00000
      7      24.8925      0.00000
      8      24.8925      0.00000
      9      31.8776      0.00000
     10      33.0541      0.00000
     11      42.7541      0.00000
     12      57.5856      0.00000


--------------------------------------------------------------------------------------------------------


 soft charge-density along one line, spin component           1
         0         1         2         3         4         5         6         7         8         9
 total charge-density along one line
 
 soft charge-density along one line, spin component           2
         0         1         2         3         4         5         6         7         8         9
 total charge-density along one line
 
 pseudopotential strength for first ion, spin component:           1
 -2.671  -0.000   0.000  -0.000  -0.000  -3.285  -0.000   0.000
 -0.000  -2.671  -0.000  -0.000   0.000  -0.000  -3.285  -0.000
  0.000  -0.000  -2.779  -0.000   0.000   0.000  -0.000  -3.389
 -0.000  -0.000  -0.000  -2.671  -0.000  -0.000  -0.000  -0.000
 -0.000   0.000   0.000  -0.000  -2.779  -0.000   0.000   0.000
 -3.285  -0.000   0.000  -0.000  -0.000  -3.853  -0.000   0.000
 -0.000  -3.285  -0.000  -0.000   0.000  -0.000  -3.853  -0.000
  0.000  -0.000  -3.389  -0.000   0.000   0.000  -0.000  -3.953
 -0.000  -0.000  -0.000  -3.285  -0.000  -0.000  -0.000  -0.000
 -0.000   0.000   0.000  -0.000  -3.389  -0.000   0.000   0.000
  0.000   0.000  -0.000   0.000   0.000   0.000   0.000  -0.000
  0.000   0.000  -0.000   0.000   0.000   0.000   0.000  -0.000
  0.000  -0.000   0.000   0.000   0.000   0.000  -0.000   0.000
  0.000   0.000  -0.000   0.000  -0.000   0.000   0.000  -0.000
  0.000   0.000  -0.000  -0.000   0.000   0.000   0.000  -0.000
  0.000  -0.000   0.000   0.000   0.000   0.000  -0.000   0.000
  0.000   0.000  -0.000   0.000  -0.000   0.000   0.000  -0.000
  0.000   0.000  -0.000  -0.000   0.000   0.000   0.000  -0.000
 pseudopotential strength for first ion, spin component:           2
 -1.974   0.000   0.000   0.000  -0.000  -2.611   0.000   0.000
  0.000  -1.974  -0.000   0.000   0.000   0.000  -2.611  -0.000
  0.000  -0.000  -1.834  -0.000   0.000   0.000  -0.000  -2.475
  0.000   0.000  -0.000  -1.974  -0.000   0.000   0.000  -0.000
 -0.000   0.000   0.000  -0.000  -1.834  -0.000   0.000   0.000
 -2.611   0.000   0.000   0.000  -0.000  -3.202   0.000   0.000
  0.000  -2.611  -0.000   0.000   0.000   0.000  -3.202  -0.000
  0.000  -0.000  -2.475  -0.000   0.000   0.000  -0.000  -3.070
  0.000   0.000  -0.000  -2.611  -0.000   0.000   0.000  -0.000
 -0.000   0.000   0.000  -0.000  -2.475  -0.000   0.000   0.000
 -0.000  -0.000   0.000  -0.000   0.000  -0.000  -0.000   0.000
 -0.000  -0.000   0.000  -0.000   0.000  -0.000  -0.000   0.000
  0.000  -0.000   0.000  -0.000   0.000   0.000  -0.000   0.000
 -0.000   0.000  -0.000   0.000  -0.000  -0.000   0.000  -0.000
  0.000  -0.000  -0.000  -0.000   0.000   0.000  -0.000  -0.000
  0.000  -0.000   0.000  -0.000   0.000   0.000  -0.000   0.000
 -0.000   0.000  -0.000   0.000  -0.000  -0.000   0.000  -0.000
  0.000  -0.000  -0.000  -0.000   0.000   0.000  -0.000  -0.000
 total augmentation occupancy for first ion, spin component:           1
  2.596  -0.000  -0.000   0.000  -0.000  -2.542   0.000  -0.000   0.000  -0.000   0.000  -0.000   0.000   0.000   0.000   0.000
  0.000   2.596  -0.000   0.000  -0.000   0.000  -2.542   0.000   0.000   0.000   0.000   0.000   0.000   0.000   0.000   0.000
 -0.000   0.000   4.955   0.000   0.000   0.000  -0.000  -4.477  -0.000   0.000  -0.000   0.000   0.000   0.000   0.000   0.000
  0.000   0.000  -0.000   2.596   0.000  -0.000   0.000   0.000  -2.542  -0.000  -0.000   0.000   0.000   0.000   0.000   0.000
  0.000   0.000   0.000  -0.000   4.955   0.000  -0.000   0.000   0.000  -4.477   0.000   0.000   0.000   0.000   0.000   0.000
 -2.542  -0.000  -0.000  -0.000  -0.000   3.923   0.000  -0.000  -0.000   0.000   0.000  -0.000   0.000   0.000   0.000   0.000
  0.000  -2.542  -0.000   0.000  -0.000   0.000   3.923   0.000   0.000   0.000   0.000  -0.000   0.000   0.000   0.000   0.000
 -0.000  -0.000  -4.477  -0.000   0.000  -0.000   0.000   5.323   0.000   0.000   0.000   0.000   0.000   0.000   0.000   0.000
  0.000   0.000  -0.000  -2.542   0.000   0.000   0.000  -0.000   3.923   0.000   0.000   0.000   0.000   0.000   0.000   0.000
 -0.000  -0.000  -0.000  -0.000  -4.477  -0.000   0.000   0.000   0.000   5.323   0.000   0.000   0.000   0.000   0.000   0.000
  0.000   0.000  -0.000  -0.000   0.000   0.000   0.000   0.000  -0.000   0.000   3.384  -0.414   0.000   0.000   0.000   0.000
  0.000  -0.000   0.000   0.000   0.000   0.000   0.000   0.000   0.000   0.000  -0.414   0.058   0.000   0.000   0.000   0.000
  0.000   0.000   0.000   0.000   0.000   0.000   0.000   0.000   0.000   0.000   0.000   0.000   0.490  -0.000  -0.000  -0.034
  0.000   0.000   0.000   0.000   0.000   0.000   0.000   0.000   0.000   0.000   0.000   0.000   0.000   0.490  -0.000   0.000
  0.000   0.000   0.000   0.000   0.000   0.000   0.000   0.000   0.000   0.000   0.000   0.000   0.000   0.000   0.490  -0.000
  0.000   0.000   0.000   0.000   0.000   0.000   0.000   0.000   0.000   0.000   0.000   0.000  -0.034  -0.000  -0.000   0.003
  0.000   0.000   0.000   0.000   0.000   0.000   0.000   0.000   0.000   0.000   0.000   0.000   0.000  -0.034   0.000   0.000
  0.000   0.000   0.000   0.000   0.000   0.000   0.000   0.000   0.000   0.000   0.000   0.000  -0.000   0.000  -0.034   0.000
 total augmentation occupancy for first ion, spin component:           2
  0.773  -0.000   0.000   0.000  -0.000  -0.250   0.000   0.000  -0.000   0.000   0.000   0.000   0.000   0.000   0.000   0.000
  0.000   0.773   0.000   0.000  -0.000  -0.000  -0.250   0.000   0.000  -0.000   0.000  -0.000   0.000   0.000   0.000   0.000
  0.000   0.000   2.520  -0.000   0.000   0.000  -0.000  -1.269   0.000   0.000   0.000   0.000   0.000   0.000   0.000   0.000
  0.000  -0.000   0.000   0.773   0.000   0.000   0.000   0.000  -0.250   0.000   0.000   0.000   0.000   0.000   0.000   0.000
 -0.000   0.000   0.000   0.000   2.520   0.000   0.000   0.000   0.000  -1.269   0.000  -0.000   0.000   0.000   0.000   0.000
 -0.250   0.000   0.000   0.000   0.000  -0.109   0.000   0.000   0.000   0.000   0.000  -0.000   0.000   0.000   0.000   0.000
 -0.000  -0.250  -0.000   0.000  -0.000  -0.000  -0.109   0.000   0.000  -0.000   0.000  -0.000   0.000   0.000   0.000   0.000
  0.000   0.000  -1.269   0.000   0.000   0.000   0.000   0.472   0.000   0.000  -0.000   0.000   0.000   0.000   0.000   0.000
  0.000  -0.000  -0.000  -0.250   0.000  -0.000  -0.000   0.000  -0.109   0.000   0.000   0.000   0.000   0.000   0.000   0.000
 -0.000   0.000   0.000   0.000  -1.269   0.000   0.000   0.000   0.000   0.472  -0.000   0.000   0.000   0.000   0.000   0.000
  0.000   0.000   0.000   0.000   0.000   0.000   0.000  -0.000  -0.000  -0.000  -0.168   0.050   0.000   0.000   0.000   0.000
  0.000  -0.000   0.000  -0.000   0.000  -0.000  -0.000  -0.000   0.000   0.000   0.050  -0.009   0.000   0.000   0.000   0.000
  0.000   0.000   0.000   0.000   0.000   0.000   0.000   0.000   0.000   0.000   0.000   0.000  -0.016   0.000   0.000   0.001
  0.000   0.000   0.000   0.000   0.000   0.000   0.000   0.000   0.000   0.000   0.000   0.000   0.000  -0.016   0.000   0.000
  0.000   0.000   0.000   0.000   0.000   0.000   0.000   0.000   0.000   0.000   0.000   0.000   0.000   0.000  -0.016   0.000
  0.000   0.000   0.000   0.000   0.000   0.000   0.000   0.000   0.000   0.000   0.000   0.000   0.001   0.000   0.000  -0.000
  0.000   0.000   0.000   0.000   0.000   0.000   0.000   0.000   0.000   0.000   0.000   0.000   0.000   0.001   0.000   0.000
  0.000   0.000   0.000   0.000   0.000   0.000   0.000   0.000   0.000   0.000   0.000   0.000   0.000   0.000   0.001   0.000


------------------------ aborting loop because EDIFF is reached ----------------------------------------


 


 total charge     
 
# of ion     s       p       d       tot
----------------------------------------
  1        0.682   0.946   6.743   8.370
 


 magnetization (x)
 
# of ion     s       p       d       tot
----------------------------------------
  1       -0.008  -0.030   1.189   1.152
 
    CHARGE:  cpu time    0.0190: real time    0.0090
    FORLOC:  cpu time    0.0000: real time    0.0001
    FORNL :  cpu time    0.0490: real time    0.0244
    STRESS:  cpu time    0.1770: real time    0.0885
    FORCOR:  cpu time    0.0050: real time    0.0028
    FORHAR:  cpu time    0.0030: real time    0.0015
    MIXING:  cpu time    0.0020: real time    0.0008
    OFIELD:  cpu time    0.0000: real time    0.0000

  FORCE on cell =-STRESS in cart. coord.  units (eV):
  Direction    XX          YY          ZZ          XY          YZ          ZX
  --------------------------------------------------------------------------------------
  Alpha Z    85.72984    85.72984    85.72984
  Ewald    -223.59119  -223.59119  -223.59119    -0.00000     0.00000     0.00000
  Hartree    22.91522    22.91522    22.91522    -0.00000    -0.00000    -0.00000
  E(xc)     -41.12348   -41.12348   -41.12348    -0.00000    -0.00000    -0.00000
  Local      67.39380    67.39380    67.39380    -0.00000    -0.00000    -0.00000
  n-local   -23.71656   -21.07219   -20.10796     1.46358    -1.89052    -2.33158
  augment    36.64608    36.64608    36.64608     0.00000     0.00000     0.00000
  Kinetic    78.86309    80.94739    80.70028     0.41608     2.74512     0.72816
  Fock        0.00000     0.00000     0.00000     0.00000     0.00000     0.00000
  -------------------------------------------------------------------------------------
  Total       6.50829     6.50829     6.50829     0.00000     0.00000    -0.00000
  in kB    1334.71091  1334.71091  1334.71091     0.00000     0.00000    -0.00000
  external pressure =     1334.71 kB  Pullay stress =        0.00 kB


 VOLUME and BASIS-vectors are now :
 -----------------------------------------------------------------------------
  energy-cutoff  :      400.00
  volume of cell :        7.81
      direct lattice vectors                 reciprocal lattice vectors
    -1.250000000  1.250000000  1.250000000     0.000000000  0.400000000  0.400000000
     1.250000000 -1.250000000  1.250000000     0.400000000  0.000000000  0.400000000
     1.250000000  1.250000000 -1.250000000     0.400000000  0.400000000  0.000000000

  length of vectors
     2.165063509  2.165063509  2.165063509     0.565685425  0.565685425  0.565685425


 FORCES acting on ions
    electron-ion (+dipol)            ewald-force                    non-local-force                 convergence-correction
 -----------------------------------------------------------------------------------------------
   -.991E-14 -.726E-14 0.838E-14   -.135E-14 -.191E-15 -.704E-15   0.517E-25 0.103E-24 -.414E-24   0.577E-14 0.289E-14 0.798E-14
 -----------------------------------------------------------------------------------------------
   -.991E-14 -.726E-14 0.838E-14   -.135E-14 -.191E-15 -.704E-15   0.517E-25 0.103E-24 -.414E-24   0.577E-14 0.289E-14 0.798E-14
 
 
 POSITION                                       TOTAL-FORCE (eV/Angst)
 -----------------------------------------------------------------------------------
      0.00000      0.00000      0.00000        -0.000000     -0.000000     -0.000000
 -----------------------------------------------------------------------------------
    total drift:                               -0.000000     -0.000000      0.000000


--------------------------------------------------------------------------------------------------------



  FREE ENERGIE OF THE ION-ELECTRON SYSTEM (eV)
  ---------------------------------------------------
  free  energy   TOTEN  =        -8.40904102 eV

  energy  without entropy=       -8.40904102  energy(sigma->0) =       -8.40904102
 


--------------------------------------------------------------------------------------------------------


    POTLOK:  cpu time    0.0320: real time    0.0159


--------------------------------------------------------------------------------------------------------


 writing wavefunctions
     LOOP+:  cpu time   11.1003: real time    5.5598
    4ORBIT:  cpu time    0.0000: real time    0.0000
 


 total charge     
 
# of ion     s       p       d       tot
----------------------------------------
  1        0.682   0.946   6.743   8.370
 


 magnetization (x)
 
# of ion     s       p       d       tot
----------------------------------------
  1       -0.008  -0.030   1.189   1.152
 
 BZINTS: Fermi energy: 10.546491;  8.000000 electrons
         Band energy:  55.786673;  BLOECHL correction: -0.137892

 total amount of memory used by VASP on root node    31852. kBytes
========================================================================

   base      :      30000. kBytes
   nonl-proj :        556. kBytes
   fftplans  :        204. kBytes
   grid      :        642. kBytes
   one-center:         31. kBytes
   wavefun   :        419. kBytes
 
  
  
 General timing and accounting informations for this job:
 ========================================================
  
                  Total CPU time used (sec):       11.819
                            User time (sec):       11.224
                          System time (sec):        0.595
                         Elapsed time (sec):        7.154
  
                   Maximum memory used (kb):       31956.
                   Average memory used (kb):           0.
  
                          Minor page faults:        17917
                          Major page faults:            7
                 Voluntary context switches:          451
