 running on    4 total cores
 distrk:  each k-point on    4 cores,    1 groups
 distr:  one band on    1 cores,    4 groups
 using from now: INCAR     
 vasp.5.4.1 24Jun15 (build Jul 19 2016 16:50:41) complex                        
  
 POSCAR found type information on POSCAR  Fe
 POSCAR found :  1 types and       1 ions
 LDA part: xc-table for Ceperly-Alder, standard interpolation
 POSCAR, INCAR and KPOINTS ok, starting setup
 FFT: planning ...
 WAVECAR not read
 entering main loop
       N       E                     dE             d eps       ncg     rms          rms(c)
DAV:   1     0.162353849987E+02    0.16235E+02   -0.35783E+03  1464   0.830E+02
DAV:   2    -0.790093841987E+01   -0.24136E+02   -0.22465E+02  1292   0.126E+02
DAV:   3    -0.835196793630E+01   -0.45103E+00   -0.44668E+00  1456   0.191E+01
DAV:   4    -0.835327183986E+01   -0.13039E-02   -0.13024E-02  1452   0.895E-01
DAV:   5    -0.835327744820E+01   -0.56083E-05   -0.56165E-05  1444   0.595E-02    0.223E+01
DAV:   6    -0.847049676633E+01   -0.11722E+00   -0.34943E+00  1472   0.290E+01    0.535E+00
DAV:   7    -0.842591946422E+01    0.44577E-01   -0.14714E-01  1552   0.445E+00    0.323E+00
DAV:   8    -0.842010470014E+01    0.58148E-02   -0.66072E-03  1616   0.920E-01    0.136E+00
DAV:   9    -0.840995594204E+01    0.10149E-01   -0.30508E-03  1560   0.448E-01    0.415E-01
DAV:  10    -0.840899320205E+01    0.96274E-03   -0.76233E-04  1516   0.307E-01    0.562E-02
DAV:  11    -0.840903591563E+01   -0.42714E-04   -0.13657E-05  1520   0.319E-02    0.300E-02
DAV:  12    -0.840904310749E+01   -0.71919E-05   -0.71578E-06  1464   0.275E-02    0.480E-03
DAV:  13    -0.840904165197E+01    0.14555E-05   -0.10215E-07   792   0.262E-03    0.282E-03
DAV:  14    -0.840904101605E+01    0.63592E-06   -0.76373E-08   696   0.189E-03
   1 F= -.84090410E+01 E0= -.84090410E+01  d E =0.000000E+00  mag=     1.1940
 writing wavefunctions
