PROCAR lm decomposed
# of k-points:   26         # of bands:  12         # of ions:   1

 k-point    1 :    0.06250000 0.06250000 0.06250000     weight = 0.01562500

band   1 # energy    1.04657269 # occ.  1.00000000
 
ion      s     py     pz     px    dxy    dyz    dz2    dxz    dx2    tot
  1  1.026  0.041  0.041  0.041  0.005  0.005  0.000  0.005  0.000  1.163
 
band   2 # energy    6.96964970 # occ.  1.00000000
 
ion      s     py     pz     px    dxy    dyz    dz2    dxz    dx2    tot
  1  0.000  0.000  0.004  0.003  0.605  0.378  0.024  0.027  0.003  1.043
 
band   3 # energy    6.96964970 # occ.  1.00000000
 
ion      s     py     pz     px    dxy    dyz    dz2    dxz    dx2    tot
  1  0.000  0.004  0.000  0.002  0.068  0.295  0.003  0.647  0.024  1.043
 
band   4 # energy    8.43603652 # occ.  1.00000000
 
ion      s     py     pz     px    dxy    dyz    dz2    dxz    dx2    tot
  1  0.004  0.008  0.008  0.008  0.332  0.332  0.000  0.332  0.000  1.023
 
band   5 # energy    9.65969778 # occ.  1.00000000
 
ion      s     py     pz     px    dxy    dyz    dz2    dxz    dx2    tot
  1  0.000  0.000  0.000  0.000  0.000  0.015  0.001  0.014  0.943  0.973
 
band   6 # energy    9.65969778 # occ.  1.02271432
 
ion      s     py     pz     px    dxy    dyz    dz2    dxz    dx2    tot
  1  0.000  0.000  0.000  0.000  0.020  0.004  0.943  0.005  0.001  0.973
 
band   7 # energy   36.24851867 # occ.  0.00000000
 
ion      s     py     pz     px    dxy    dyz    dz2    dxz    dx2    tot
  1  0.000  0.008  0.016  0.046  0.086  0.240  0.124  0.042  0.229  0.791
 
band   8 # energy   36.24851867 # occ.  0.00000000
 
ion      s     py     pz     px    dxy    dyz    dz2    dxz    dx2    tot
  1  0.000  0.039  0.030  0.001  0.159  0.005  0.229  0.203  0.124  0.791
 
band   9 # energy   40.18804364 # occ.  0.00000000
 
ion      s     py     pz     px    dxy    dyz    dz2    dxz    dx2    tot
  1  0.000  0.000  0.000  0.000  0.000  0.000  0.000  0.000  0.000  0.000
 
band  10 # energy   44.79793400 # occ.  0.00000000
 
ion      s     py     pz     px    dxy    dyz    dz2    dxz    dx2    tot
  1  0.076  0.159  0.159  0.159  0.339  0.339  0.000  0.339  0.000  1.569
 
band  11 # energy   48.70607357 # occ.  0.00000000
 
ion      s     py     pz     px    dxy    dyz    dz2    dxz    dx2    tot
  1  0.000  0.058  0.011  0.120  0.014  0.146  0.024  0.071  0.246  0.690
 
band  12 # energy   48.70607357 # occ.  0.00000000
 
ion      s     py     pz     px    dxy    dyz    dz2    dxz    dx2    tot
  1  0.000  0.068  0.115  0.006  0.140  0.007  0.246  0.083  0.024  0.690
 

 k-point    2 :    0.18750000 0.06250000 0.06250000     weight = 0.04687500

band   1 # energy    2.96771816 # occ.  1.00000000
 
ion      s     py     pz     px    dxy    dyz    dz2    dxz    dx2    tot
  1  0.733  0.105  0.105  0.036  0.007  0.128  0.007  0.007  0.022  1.151
 
band   2 # energy    6.21548162 # occ.  1.00000000
 
ion      s     py     pz     px    dxy    dyz    dz2    dxz    dx2    tot
  1  0.000  0.006  0.006  0.000  0.508  0.000  0.020  0.508  0.007  1.054
 
band   3 # energy    6.63823405 # occ.  1.00000000
 
ion      s     py     pz     px    dxy    dyz    dz2    dxz    dx2    tot
  1  0.038  0.050  0.050  0.004  0.104  0.543  0.037  0.104  0.112  1.042
 
band   4 # energy    9.53317206 # occ.  1.00000000
 
ion      s     py     pz     px    dxy    dyz    dz2    dxz    dx2    tot
  1  0.003  0.000  0.000  0.001  0.017  0.156  0.197  0.017  0.591  0.982
 
band   5 # energy    9.91997334 # occ.  1.01276246
 
ion      s     py     pz     px    dxy    dyz    dz2    dxz    dx2    tot
  1  0.000  0.000  0.000  0.000  0.015  0.000  0.712  0.015  0.237  0.980
 
band   6 # energy   10.25120554 # occ.  0.61641130
 
ion      s     py     pz     px    dxy    dyz    dz2    dxz    dx2    tot
  1  0.022  0.026  0.026  0.025  0.365  0.177  0.000  0.365  0.000  1.008
 
band   7 # energy   31.09047294 # occ.  0.00000000
 
ion      s     py     pz     px    dxy    dyz    dz2    dxz    dx2    tot
  1  0.042  0.094  0.094  0.037  0.019  0.512  0.086  0.019  0.259  1.162
 
band   8 # energy   33.85184649 # occ.  0.00000000
 
ion      s     py     pz     px    dxy    dyz    dz2    dxz    dx2    tot
  1  0.000  0.093  0.093  0.000  0.220  0.000  0.169  0.220  0.056  0.851
 
band   9 # energy   39.74762753 # occ.  0.00000000
 
ion      s     py     pz     px    dxy    dyz    dz2    dxz    dx2    tot
  1  0.142  0.075  0.075  0.357  0.225  0.040  0.013  0.225  0.039  1.192
 
band  10 # energy   41.48802497 # occ.  0.00000000
 
ion      s     py     pz     px    dxy    dyz    dz2    dxz    dx2    tot
  1  0.000  0.000  0.000  0.000  0.245  0.000  0.015  0.245  0.005  0.509
 
band  11 # energy   49.39251990 # occ.  0.00000000
 
ion      s     py     pz     px    dxy    dyz    dz2    dxz    dx2    tot
  1  0.000  0.094  0.094  0.000  0.283  0.000  0.000  0.283  0.000  0.755
 
band  12 # energy   49.55377177 # occ.  0.00000000
 
ion      s     py     pz     px    dxy    dyz    dz2    dxz    dx2    tot
  1  0.034  0.066  0.066  0.166  0.147  0.392  0.156  0.147  0.467  1.640
 

 k-point    3 :    0.31250000 0.06250000 0.06250000     weight = 0.04687500

band   1 # energy    3.65740232 # occ.  1.00000000
 
ion      s     py     pz     px    dxy    dyz    dz2    dxz    dx2    tot
  1  0.281  0.025  0.025  0.034  0.000  0.505  0.056  0.000  0.169  1.096
 
band   2 # energy    5.58972158 # occ.  1.00000000
 
ion      s     py     pz     px    dxy    dyz    dz2    dxz    dx2    tot
  1  0.000  0.008  0.008  0.000  0.522  0.000  0.006  0.522  0.002  1.068
 
band   3 # energy    8.09581960 # occ.  1.00000000
 
ion      s     py     pz     px    dxy    dyz    dz2    dxz    dx2    tot
  1  0.133  0.250  0.250  0.000  0.149  0.068  0.021  0.149  0.063  1.084
 
band   4 # energy    9.80752400 # occ.  1.00000000
 
ion      s     py     pz     px    dxy    dyz    dz2    dxz    dx2    tot
  1  0.006  0.002  0.002  0.001  0.013  0.295  0.165  0.013  0.496  0.994
 
band   5 # energy   10.13962183 # occ.  0.87715707
 
ion      s     py     pz     px    dxy    dyz    dz2    dxz    dx2    tot
  1  0.000  0.000  0.000  0.000  0.005  0.000  0.734  0.005  0.245  0.988
 
band   6 # energy   12.54452814 # occ. -0.04791285
 
ion      s     py     pz     px    dxy    dyz    dz2    dxz    dx2    tot
  1  0.047  0.097  0.097  0.019  0.338  0.090  0.000  0.338  0.001  1.028
 
band   7 # energy   25.38001498 # occ.  0.00000000
 
ion      s     py     pz     px    dxy    dyz    dz2    dxz    dx2    tot
  1  0.220  0.104  0.104  0.024  0.007  0.546  0.052  0.007  0.155  1.218
 
band   8 # energy   31.66842853 # occ.  0.00000000
 
ion      s     py     pz     px    dxy    dyz    dz2    dxz    dx2    tot
  1  0.000  0.133  0.133  0.000  0.186  0.000  0.049  0.186  0.016  0.704
 
band   9 # energy   36.45629287 # occ.  0.00000000
 
ion      s     py     pz     px    dxy    dyz    dz2    dxz    dx2    tot
  1  0.146  0.014  0.014  0.556  0.080  0.005  0.021  0.080  0.063  0.979
 
band  10 # energy   41.95055799 # occ.  0.00000000
 
ion      s     py     pz     px    dxy    dyz    dz2    dxz    dx2    tot
  1  0.000  0.000  0.000  0.000  0.661  0.000  0.007  0.661  0.002  1.332
 
band  11 # energy   48.80749695 # occ.  0.00000000
 
ion      s     py     pz     px    dxy    dyz    dz2    dxz    dx2    tot
  1  0.120  0.035  0.035  0.134  0.039  0.059  0.249  0.039  0.746  1.455
 
band  12 # energy   53.17115427 # occ.  0.00000000
 
ion      s     py     pz     px    dxy    dyz    dz2    dxz    dx2    tot
  1  0.102  0.013  0.016  0.026  0.004  0.329  0.012  0.006  0.041  0.550
 

 k-point    4 :    0.43750000 0.06250000 0.06250000     weight = 0.02343750

band   1 # energy    3.46236652 # occ.  1.00000000
 
ion      s     py     pz     px    dxy    dyz    dz2    dxz    dx2    tot
  1  0.186  0.000  0.000  0.032  0.000  0.567  0.075  0.000  0.225  1.086
 
band   2 # energy    5.35351643 # occ.  1.00000000
 
ion      s     py     pz     px    dxy    dyz    dz2    dxz    dx2    tot
  1  0.000  0.009  0.009  0.000  0.529  0.000  0.000  0.529  0.000  1.075
 
band   3 # energy    9.56699689 # occ.  1.00000000
 
ion      s     py     pz     px    dxy    dyz    dz2    dxz    dx2    tot
  1  0.000  0.312  0.312  0.000  0.230  0.000  0.000  0.230  0.000  1.083
 
band   4 # energy    9.94920911 # occ.  1.00000000
 
ion      s     py     pz     px    dxy    dyz    dz2    dxz    dx2    tot
  1  0.018  0.000  0.000  0.001  0.000  0.306  0.168  0.000  0.504  0.997
 
band   5 # energy   10.23458069 # occ.  0.65442588
 
ion      s     py     pz     px    dxy    dyz    dz2    dxz    dx2    tot
  1  0.000  0.000  0.000  0.000  0.000  0.000  0.745  0.000  0.248  0.993
 
band   6 # energy   14.12773032 # occ. -0.00007609
 
ion      s     py     pz     px    dxy    dyz    dz2    dxz    dx2    tot
  1  0.000  0.241  0.241  0.000  0.288  0.000  0.000  0.288  0.000  1.058
 
band   7 # energy   22.17771973 # occ.  0.00000000
 
ion      s     py     pz     px    dxy    dyz    dz2    dxz    dx2    tot
  1  0.427  0.000  0.000  0.028  0.000  0.594  0.041  0.000  0.123  1.212
 
band   8 # energy   30.80132633 # occ.  0.00000000
 
ion      s     py     pz     px    dxy    dyz    dz2    dxz    dx2    tot
  1  0.000  0.146  0.146  0.000  0.172  0.000  0.000  0.172  0.000  0.637
 
band   9 # energy   35.20314593 # occ.  0.00000000
 
ion      s     py     pz     px    dxy    dyz    dz2    dxz    dx2    tot
  1  0.141  0.000  0.000  0.642  0.000  0.023  0.020  0.000  0.060  0.885
 
band  10 # energy   42.01838322 # occ.  0.00000000
 
ion      s     py     pz     px    dxy    dyz    dz2    dxz    dx2    tot
  1  0.000  0.001  0.001  0.000  0.809  0.000  0.000  0.809  0.000  1.619
 
band  11 # energy   48.95024122 # occ.  0.00000000
 
ion      s     py     pz     px    dxy    dyz    dz2    dxz    dx2    tot
  1  0.201  0.000  0.000  0.130  0.000  0.000  0.311  0.000  0.933  1.575
 
band  12 # energy   52.24546200 # occ.  0.00000000
 
ion      s     py     pz     px    dxy    dyz    dz2    dxz    dx2    tot
  1  0.000  0.063  0.063  0.000  0.013  0.000  0.000  0.013  0.000  0.152
 

 k-point    5 :   -0.06250000 0.06250000 0.06250000     weight = 0.01171875

band   1 # energy    0.22611544 # occ.  1.00000000
 
ion      s     py     pz     px    dxy    dyz    dz2    dxz    dx2    tot
  1  1.116  0.000  0.000  0.045  0.000  0.000  0.000  0.000  0.001  1.163
 
band   2 # energy    7.35597236 # occ.  1.00000000
 
ion      s     py     pz     px    dxy    dyz    dz2    dxz    dx2    tot
  1  0.000  0.003  0.003  0.000  0.519  0.000  0.000  0.519  0.000  1.043
 
band   3 # energy    7.35597272 # occ.  1.00000000
 
ion      s     py     pz     px    dxy    dyz    dz2    dxz    dx2    tot
  1  0.000  0.003  0.003  0.000  0.519  0.000  0.000  0.519  0.000  1.043
 
band   4 # energy    7.51534843 # occ.  1.00000000
 
ion      s     py     pz     px    dxy    dyz    dz2    dxz    dx2    tot
  1  0.000  0.000  0.000  0.000  0.000  1.040  0.000  0.000  0.000  1.040
 
band   5 # energy    9.50267435 # occ.  1.00000000
 
ion      s     py     pz     px    dxy    dyz    dz2    dxz    dx2    tot
  1  0.000  0.000  0.000  0.000  0.000  0.000  0.726  0.000  0.242  0.968
 
band   6 # energy    9.91422656 # occ.  1.00912602
 
ion      s     py     pz     px    dxy    dyz    dz2    dxz    dx2    tot
  1  0.001  0.000  0.000  0.000  0.000  0.000  0.244  0.000  0.732  0.977
 
band   7 # energy   37.52408533 # occ.  0.00000000
 
ion      s     py     pz     px    dxy    dyz    dz2    dxz    dx2    tot
  1  0.000  0.000  0.000  0.000  0.000  0.000  0.285  0.000  0.095  0.380
 
band   8 # energy   39.16045309 # occ.  0.00000000
 
ion      s     py     pz     px    dxy    dyz    dz2    dxz    dx2    tot
  1  0.000  0.003  0.003  0.000  0.117  0.000  0.000  0.117  0.000  0.240
 
band   9 # energy   39.16045310 # occ.  0.00000000
 
ion      s     py     pz     px    dxy    dyz    dz2    dxz    dx2    tot
  1  0.000  0.003  0.003  0.000  0.117  0.000  0.000  0.117  0.000  0.240
 
band  10 # energy   45.20396986 # occ.  0.00000000
 
ion      s     py     pz     px    dxy    dyz    dz2    dxz    dx2    tot
  1  0.011  0.000  0.000  0.183  0.000  0.000  0.178  0.000  0.534  0.906
 
band  11 # energy   49.75226587 # occ.  0.00000000
 
ion      s     py     pz     px    dxy    dyz    dz2    dxz    dx2    tot
  1  0.000  0.109  0.363  0.000  0.317  0.000  0.000  1.058  0.000  1.846
 
band  12 # energy   49.75242865 # occ.  0.00000000
 
ion      s     py     pz     px    dxy    dyz    dz2    dxz    dx2    tot
  1  0.000  0.363  0.109  0.000  1.057  0.000  0.000  0.317  0.000  1.846
 

 k-point    6 :    0.18750000 0.18750000 0.06250000     weight = 0.04687500

band   1 # energy    4.51665536 # occ.  1.00000000
 
ion      s     py     pz     px    dxy    dyz    dz2    dxz    dx2    tot
  1  0.352  0.070  0.076  0.070  0.027  0.228  0.062  0.228  0.000  1.114
 
band   2 # energy    5.73758530 # occ.  1.00000000
 
ion      s     py     pz     px    dxy    dyz    dz2    dxz    dx2    tot
  1  0.000  0.046  0.000  0.046  0.000  0.375  0.000  0.375  0.208  1.049
 
band   3 # energy    6.23129377 # occ.  1.00000000
 
ion      s     py     pz     px    dxy    dyz    dz2    dxz    dx2    tot
  1  0.100  0.016  0.175  0.016  0.688  0.042  0.002  0.042  0.000  1.081
 
band   4 # energy    9.69133272 # occ.  1.00000000
 
ion      s     py     pz     px    dxy    dyz    dz2    dxz    dx2    tot
  1  0.000  0.001  0.000  0.001  0.000  0.113  0.000  0.113  0.757  0.986
 
band   5 # energy   10.19423631 # occ.  1.00161869
 
ion      s     py     pz     px    dxy    dyz    dz2    dxz    dx2    tot
  1  0.008  0.000  0.001  0.000  0.000  0.037  0.908  0.037  0.000  0.992
 
band   6 # energy   12.91631747 # occ. -0.06930937
 
ion      s     py     pz     px    dxy    dyz    dz2    dxz    dx2    tot
  1  0.074  0.055  0.102  0.055  0.314  0.209  0.020  0.209  0.000  1.036
 
band   7 # energy   28.11975989 # occ.  0.00000000
 
ion      s     py     pz     px    dxy    dyz    dz2    dxz    dx2    tot
  1  0.000  0.175  0.000  0.175  0.000  0.284  0.000  0.284  0.276  1.193
 
band   8 # energy   29.46856802 # occ.  0.00000000
 
ion      s     py     pz     px    dxy    dyz    dz2    dxz    dx2    tot
  1  0.138  0.000  0.271  0.000  0.188  0.190  0.061  0.190  0.000  1.039
 
band   9 # energy   35.06245319 # occ.  0.00000000
 
ion      s     py     pz     px    dxy    dyz    dz2    dxz    dx2    tot
  1  0.229  0.231  0.001  0.231  0.227  0.001  0.038  0.001  0.000  0.961
 
band  10 # energy   43.93498103 # occ.  0.00000000
 
ion      s     py     pz     px    dxy    dyz    dz2    dxz    dx2    tot
  1  0.000  0.010  0.000  0.010  0.000  0.148  0.000  0.148  0.122  0.437
 
band  11 # energy   49.97374699 # occ.  0.00000000
 
ion      s     py     pz     px    dxy    dyz    dz2    dxz    dx2    tot
  1  0.022  0.017  0.015  0.017  0.692  0.252  0.019  0.252  0.000  1.287
 
band  12 # energy   52.99943761 # occ.  0.00000000
 
ion      s     py     pz     px    dxy    dyz    dz2    dxz    dx2    tot
  1  0.000  0.133  0.000  0.133  0.000  0.171  0.000  0.171  0.562  1.171
 

 k-point    7 :    0.31250000 0.18750000 0.06250000     weight = 0.09375000

band   1 # energy    4.48864026 # occ.  1.00000000
 
ion      s     py     pz     px    dxy    dyz    dz2    dxz    dx2    tot
  1  0.126  0.002  0.005  0.089  0.059  0.585  0.058  0.051  0.109  1.084
 
band   2 # energy    5.46399876 # occ.  1.00000000
 
ion      s     py     pz     px    dxy    dyz    dz2    dxz    dx2    tot
  1  0.000  0.047  0.023  0.028  0.349  0.035  0.001  0.507  0.081  1.071
 
band   3 # energy    7.34547879 # occ.  1.00000000
 
ion      s     py     pz     px    dxy    dyz    dz2    dxz    dx2    tot
  1  0.034  0.172  0.241  0.002  0.352  0.005  0.077  0.145  0.049  1.077
 
band   4 # energy    9.96833187 # occ.  1.00000000
 
ion      s     py     pz     px    dxy    dyz    dz2    dxz    dx2    tot
  1  0.004  0.002  0.000  0.003  0.000  0.216  0.044  0.047  0.675  0.992
 
band   5 # energy   10.36086257 # occ.  0.84366511
 
ion      s     py     pz     px    dxy    dyz    dz2    dxz    dx2    tot
  1  0.006  0.006  0.009  0.000  0.047  0.016  0.790  0.072  0.051  0.998
 
band   6 # energy   16.13696859 # occ. -0.00012538
 
ion      s     py     pz     px    dxy    dyz    dz2    dxz    dx2    tot
  1  0.057  0.170  0.249  0.026  0.254  0.075  0.039  0.216  0.000  1.086
 
band   7 # energy   23.29894446 # occ.  0.00000000
 
ion      s     py     pz     px    dxy    dyz    dz2    dxz    dx2    tot
  1  0.220  0.129  0.018  0.123  0.011  0.502  0.012  0.033  0.132  1.180
 
band   8 # energy   27.50110924 # occ.  0.00000000
 
ion      s     py     pz     px    dxy    dyz    dz2    dxz    dx2    tot
  1  0.168  0.070  0.142  0.094  0.196  0.003  0.000  0.310  0.038  1.022
 
band   9 # energy   33.09815385 # occ.  0.00000000
 
ion      s     py     pz     px    dxy    dyz    dz2    dxz    dx2    tot
  1  0.220  0.104  0.031  0.323  0.130  0.047  0.015  0.027  0.009  0.905
 
band  10 # energy   44.99224042 # occ.  0.00000000
 
ion      s     py     pz     px    dxy    dyz    dz2    dxz    dx2    tot
  1  0.006  0.004  0.000  0.017  0.243  0.023  0.012  0.389  0.170  0.865
 
band  11 # energy   50.45250538 # occ.  0.00000000
 
ion      s     py     pz     px    dxy    dyz    dz2    dxz    dx2    tot
  1  0.005  0.062  0.010  0.000  0.254  0.085  0.164  0.006  0.097  0.683
 
band  12 # energy   54.30069358 # occ.  0.00000000
 
ion      s     py     pz     px    dxy    dyz    dz2    dxz    dx2    tot
  1  0.082  0.025  0.008  0.252  0.103  0.025  0.317  0.033  0.537  1.382
 

 k-point    8 :   -0.18750000 0.18750000 0.06250000     weight = 0.04687500

band   1 # energy    1.77294067 # occ.  1.00000000
 
ion      s     py     pz     px    dxy    dyz    dz2    dxz    dx2    tot
  1  0.927  0.033  0.000  0.153  0.029  0.000  0.011  0.000  0.008  1.160
 
band   2 # energy    6.84907918 # occ.  1.00000000
 
ion      s     py     pz     px    dxy    dyz    dz2    dxz    dx2    tot
  1  0.000  0.000  0.005  0.000  0.000  0.406  0.000  0.635  0.000  1.046
 
band   3 # energy    7.20404113 # occ.  1.00000000
 
ion      s     py     pz     px    dxy    dyz    dz2    dxz    dx2    tot
  1  0.012  0.031  0.000  0.018  0.847  0.000  0.110  0.000  0.013  1.031
 
band   4 # energy    8.61207490 # occ.  1.00000000
 
ion      s     py     pz     px    dxy    dyz    dz2    dxz    dx2    tot
  1  0.000  0.000  0.015  0.000  0.000  0.617  0.000  0.383  0.000  1.015
 
band   5 # energy    9.01332451 # occ.  1.00318372
 
ion      s     py     pz     px    dxy    dyz    dz2    dxz    dx2    tot
  1  0.000  0.001  0.000  0.001  0.134  0.000  0.653  0.000  0.181  0.969
 
band   6 # energy   10.12046145 # occ.  0.95309336
 
ion      s     py     pz     px    dxy    dyz    dz2    dxz    dx2    tot
  1  0.010  0.000  0.000  0.003  0.005  0.000  0.189  0.000  0.777  0.984
 
band   7 # energy   33.88492150 # occ.  0.00000000
 
ion      s     py     pz     px    dxy    dyz    dz2    dxz    dx2    tot
  1  0.014  0.082  0.000  0.028  0.364  0.000  0.488  0.000  0.053  1.028
 
band   8 # energy   37.12807757 # occ.  0.00000000
 
ion      s     py     pz     px    dxy    dyz    dz2    dxz    dx2    tot
  1  0.018  0.000  0.000  0.105  0.166  0.000  0.016  0.000  0.236  0.540
 
band   9 # energy   39.07860016 # occ.  0.00000000
 
ion      s     py     pz     px    dxy    dyz    dz2    dxz    dx2    tot
  1  0.000  0.000  0.073  0.000  0.000  0.099  0.000  0.834  0.000  1.006
 
band  10 # energy   44.51439454 # occ.  0.00000000
 
ion      s     py     pz     px    dxy    dyz    dz2    dxz    dx2    tot
  1  0.012  0.117  0.000  0.117  0.319  0.000  0.070  0.000  0.027  0.662
 
band  11 # energy   46.03127454 # occ.  0.00000000
 
ion      s     py     pz     px    dxy    dyz    dz2    dxz    dx2    tot
  1  0.000  0.000  0.463  0.000  0.000  0.671  0.000  0.245  0.000  1.379
 
band  12 # energy   47.56676469 # occ.  0.00000000
 
ion      s     py     pz     px    dxy    dyz    dz2    dxz    dx2    tot
  1  0.096  0.291  0.000  0.092  0.266  0.000  0.220  0.000  0.001  0.968
 

 k-point    9 :    0.31250000 0.31250000 0.06250000     weight = 0.01562500

band   1 # energy    4.88207118 # occ.  1.00000000
 
ion      s     py     pz     px    dxy    dyz    dz2    dxz    dx2    tot
  1  0.063  0.016  0.016  0.016  0.325  0.325  0.000  0.325  0.000  1.084
 
band   2 # energy    6.20525264 # occ.  1.00000000
 
ion      s     py     pz     px    dxy    dyz    dz2    dxz    dx2    tot
  1  0.000  0.049  0.197  0.049  0.373  0.093  0.215  0.093  0.000  1.071
 
band   3 # energy    6.20525281 # occ.  1.00000000
 
ion      s     py     pz     px    dxy    dyz    dz2    dxz    dx2    tot
  1  0.000  0.148  0.000  0.148  0.000  0.280  0.000  0.280  0.215  1.071
 
band   4 # energy   10.23551781 # occ.  1.00000000
 
ion      s     py     pz     px    dxy    dyz    dz2    dxz    dx2    tot
  1  0.000  0.002  0.009  0.002  0.158  0.040  0.745  0.040  0.000  0.996
 
band   5 # energy   10.23551801 # occ.  0.95219256
 
ion      s     py     pz     px    dxy    dyz    dz2    dxz    dx2    tot
  1  0.000  0.007  0.000  0.007  0.000  0.119  0.000  0.119  0.745  0.996
 
band   6 # energy   20.49066453 # occ.  0.00000000
 
ion      s     py     pz     px    dxy    dyz    dz2    dxz    dx2    tot
  1  0.000  0.091  0.365  0.091  0.330  0.082  0.102  0.082  0.000  1.144
 
band   7 # energy   20.49066459 # occ.  0.00000000
 
ion      s     py     pz     px    dxy    dyz    dz2    dxz    dx2    tot
  1  0.000  0.274  0.000  0.274  0.000  0.247  0.000  0.247  0.102  1.144
 
band   8 # energy   24.56243184 # occ.  0.00000000
 
ion      s     py     pz     px    dxy    dyz    dz2    dxz    dx2    tot
  1  0.555  0.006  0.006  0.006  0.157  0.157  0.000  0.157  0.000  1.046
 
band   9 # energy   32.45161140 # occ.  0.00000000
 
ion      s     py     pz     px    dxy    dyz    dz2    dxz    dx2    tot
  1  0.211  0.139  0.139  0.139  0.113  0.113  0.000  0.113  0.000  0.966
 
band  10 # energy   47.86590811 # occ.  0.00000000
 
ion      s     py     pz     px    dxy    dyz    dz2    dxz    dx2    tot
  1  0.000  0.010  0.038  0.009  0.132  0.033  0.365  0.033  0.000  0.620
 
band  11 # energy   47.86590816 # occ.  0.00000000
 
ion      s     py     pz     px    dxy    dyz    dz2    dxz    dx2    tot
  1  0.000  0.029  0.000  0.029  0.000  0.099  0.000  0.099  0.365  0.620
 
band  12 # energy   58.47104707 # occ.  0.00000000
 
ion      s     py     pz     px    dxy    dyz    dz2    dxz    dx2    tot
  1  0.018  0.151  0.151  0.151  0.533  0.533  0.000  0.533  0.000  2.068
 

 k-point   10 :   -0.31250000 0.31250000 0.06250000     weight = 0.04687500

band   1 # energy    3.35313114 # occ.  1.00000000
 
ion      s     py     pz     px    dxy    dyz    dz2    dxz    dx2    tot
  1  0.483  0.030  0.000  0.129  0.315  0.000  0.154  0.000  0.008  1.119
 
band   2 # energy    6.11949877 # occ.  1.00000000
 
ion      s     py     pz     px    dxy    dyz    dz2    dxz    dx2    tot
  1  0.000  0.000  0.005  0.000  0.000  0.478  0.000  0.574  0.000  1.057
 
band   3 # energy    7.43817165 # occ.  1.00000000
 
ion      s     py     pz     px    dxy    dyz    dz2    dxz    dx2    tot
  1  0.124  0.148  0.000  0.171  0.217  0.000  0.231  0.000  0.154  1.045
 
band   4 # energy    9.38515867 # occ.  1.00000000
 
ion      s     py     pz     px    dxy    dyz    dz2    dxz    dx2    tot
  1  0.002  0.021  0.000  0.024  0.445  0.000  0.474  0.000  0.033  0.998
 
band   5 # energy   10.43459432 # occ.  0.78743077
 
ion      s     py     pz     px    dxy    dyz    dz2    dxz    dx2    tot
  1  0.000  0.000  0.021  0.000  0.000  0.539  0.000  0.433  0.000  0.993
 
band   6 # energy   10.45650952 # occ.  0.27825516
 
ion      s     py     pz     px    dxy    dyz    dz2    dxz    dx2    tot
  1  0.049  0.015  0.000  0.035  0.001  0.000  0.110  0.000  0.792  1.002
 
band   7 # energy   28.19614799 # occ.  0.00000000
 
ion      s     py     pz     px    dxy    dyz    dz2    dxz    dx2    tot
  1  0.130  0.167  0.000  0.083  0.545  0.000  0.293  0.000  0.015  1.234
 
band   8 # energy   34.11969875 # occ.  0.00000000
 
ion      s     py     pz     px    dxy    dyz    dz2    dxz    dx2    tot
  1  0.021  0.049  0.000  0.129  0.018  0.000  0.088  0.000  0.137  0.444
 
band   9 # energy   37.99946600 # occ.  0.00000000
 
ion      s     py     pz     px    dxy    dyz    dz2    dxz    dx2    tot
  1  0.000  0.000  0.343  0.000  0.000  0.091  0.000  0.984  0.000  1.418
 
band  10 # energy   43.06673830 # occ.  0.00000000
 
ion      s     py     pz     px    dxy    dyz    dz2    dxz    dx2    tot
  1  0.000  0.000  0.321  0.000  0.000  0.944  0.000  0.080  0.000  1.346
 
band  11 # energy   45.62058539 # occ.  0.00000000
 
ion      s     py     pz     px    dxy    dyz    dz2    dxz    dx2    tot
  1  0.051  0.261  0.000  0.001  0.212  0.000  0.574  0.000  0.029  1.128
 
band  12 # energy   48.44282471 # occ.  0.00000000
 
ion      s     py     pz     px    dxy    dyz    dz2    dxz    dx2    tot
  1  0.195  0.001  0.000  0.074  0.114  0.000  0.262  0.000  0.109  0.755
 

 k-point   11 :   -0.18750000 0.31250000 0.06250000     weight = 0.04687500

band   1 # energy    3.44759304 # occ.  1.00000000
 
ion      s     py     pz     px    dxy    dyz    dz2    dxz    dx2    tot
  1  0.628  0.021  0.021  0.237  0.069  0.001  0.024  0.069  0.071  1.141
 
band   2 # energy    6.43484654 # occ.  1.00000000
 
ion      s     py     pz     px    dxy    dyz    dz2    dxz    dx2    tot
  1  0.000  0.025  0.025  0.000  0.300  0.000  0.274  0.300  0.091  1.014
 
band   3 # energy    6.85469305 # occ.  1.00000000
 
ion      s     py     pz     px    dxy    dyz    dz2    dxz    dx2    tot
  1  0.027  0.011  0.011  0.056  0.218  0.508  0.000  0.218  0.001  1.051
 
band   4 # energy    8.74746604 # occ.  1.00000000
 
ion      s     py     pz     px    dxy    dyz    dz2    dxz    dx2    tot
  1  0.000  0.004  0.004  0.000  0.194  0.000  0.439  0.194  0.146  0.981
 
band   5 # energy    9.99725402 # occ.  1.02365779
 
ion      s     py     pz     px    dxy    dyz    dz2    dxz    dx2    tot
  1  0.000  0.012  0.012  0.007  0.192  0.422  0.040  0.192  0.121  0.997
 
band   6 # energy   10.76542169 # occ.  0.16543229
 
ion      s     py     pz     px    dxy    dyz    dz2    dxz    dx2    tot
  1  0.075  0.010  0.010  0.046  0.019  0.082  0.187  0.019  0.561  1.010
 
band   7 # energy   31.00524475 # occ.  0.00000000
 
ion      s     py     pz     px    dxy    dyz    dz2    dxz    dx2    tot
  1  0.000  0.108  0.108  0.000  0.203  0.000  0.444  0.203  0.148  1.215
 
band   8 # energy   32.75835383 # occ.  0.00000000
 
ion      s     py     pz     px    dxy    dyz    dz2    dxz    dx2    tot
  1  0.120  0.038  0.038  0.180  0.271  0.046  0.006  0.271  0.019  0.990
 
band   9 # energy   39.30922951 # occ.  0.00000000
 
ion      s     py     pz     px    dxy    dyz    dz2    dxz    dx2    tot
  1  0.000  0.051  0.051  0.000  0.308  0.000  0.198  0.308  0.066  0.981
 
band  10 # energy   41.27130976 # occ.  0.00000000
 
ion      s     py     pz     px    dxy    dyz    dz2    dxz    dx2    tot
  1  0.004  0.236  0.236  0.030  0.114  0.088  0.004  0.114  0.012  0.838
 
band  11 # energy   45.33710840 # occ.  0.00000000
 
ion      s     py     pz     px    dxy    dyz    dz2    dxz    dx2    tot
  1  0.113  0.015  0.015  0.049  0.125  0.637  0.020  0.125  0.061  1.161
 
band  12 # energy   50.73379355 # occ.  0.00000000
 
ion      s     py     pz     px    dxy    dyz    dz2    dxz    dx2    tot
  1  0.000  0.220  0.220  0.000  0.013  0.000  0.202  0.013  0.067  0.735
 

 k-point   12 :   -0.43750000 0.43750000 0.06250000     weight = 0.04687500

band   1 # energy    3.31652008 # occ.  1.00000000
 
ion      s     py     pz     px    dxy    dyz    dz2    dxz    dx2    tot
  1  0.218  0.000  0.000  0.023  0.506  0.000  0.336  0.000  0.001  1.084
 
band   2 # energy    5.63624323 # occ.  1.00000000
 
ion      s     py     pz     px    dxy    dyz    dz2    dxz    dx2    tot
  1  0.000  0.000  0.005  0.000  0.000  0.517  0.000  0.545  0.000  1.067
 
band   3 # energy    8.76742584 # occ.  1.00000000
 
ion      s     py     pz     px    dxy    dyz    dz2    dxz    dx2    tot
  1  0.032  0.168  0.000  0.181  0.001  0.000  0.081  0.000  0.568  1.031
 
band   4 # energy    9.74808387 # occ.  1.00000000
 
ion      s     py     pz     px    dxy    dyz    dz2    dxz    dx2    tot
  1  0.012  0.014  0.000  0.012  0.363  0.000  0.548  0.000  0.049  0.998
 
band   5 # energy   11.93103757 # occ. -0.18148520
 
ion      s     py     pz     px    dxy    dyz    dz2    dxz    dx2    tot
  1  0.000  0.000  0.004  0.000  0.000  0.513  0.000  0.479  0.000  0.996
 
band   6 # energy   11.98645534 # occ. -0.00626025
 
ion      s     py     pz     px    dxy    dyz    dz2    dxz    dx2    tot
  1  0.051  0.275  0.000  0.333  0.034  0.000  0.007  0.000  0.386  1.087
 
band   7 # energy   23.13718400 # occ.  0.00000000
 
ion      s     py     pz     px    dxy    dyz    dz2    dxz    dx2    tot
  1  0.364  0.085  0.000  0.017  0.565  0.000  0.192  0.000  0.004  1.228
 
band   8 # energy   32.29078411 # occ.  0.00000000
 
ion      s     py     pz     px    dxy    dyz    dz2    dxz    dx2    tot
  1  0.019  0.103  0.000  0.125  0.007  0.000  0.098  0.000  0.017  0.369
 
band   9 # energy   36.25139703 # occ.  0.00000000
 
ion      s     py     pz     px    dxy    dyz    dz2    dxz    dx2    tot
  1  0.000  0.000  0.612  0.000  0.000  0.121  0.000  0.422  0.000  1.154
 
band  10 # energy   42.14521882 # occ.  0.00000000
 
ion      s     py     pz     px    dxy    dyz    dz2    dxz    dx2    tot
  1  0.000  0.000  0.171  0.000  0.000  0.938  0.000  0.632  0.000  1.741
 
band  11 # energy   46.58938816 # occ.  0.00000000
 
ion      s     py     pz     px    dxy    dyz    dz2    dxz    dx2    tot