<?xml version="1.0" encoding="ISO-8859-1"?>
<modeling>
 <generator>
  <i name="program" type="string">vasp </i>
  <i name="version" type="string">5.4.1  </i>
  <i name="subversion" type="string">24Jun15 (build Jul 19 2016 16:50:41) complex                          parallel </i>
  <i name="platform" type="string">IFC91_ompi </i>
  <i name="date" type="string">2019 10 17 </i>
  <i name="time" type="string">12:06:07 </i>
 </generator>
 <incar>
  <i type="string" name="SYSTEM"> Fe BCC</i>
  <i type="string" name="PREC">accurate</i>
  <i type="int" name="ISPIN">     2</i>
  <i name="EDIFF">      0.00000100</i>
  <i name="ENMAX">    400.00000000</i>
  <v name="MAGMOM">      4.00000000</v>
  <i type="int" name="ISMEAR">    -5</i>
  <i type="logical" name="LORBIT"> F  </i>
  <v type="int" name="KPOINT_BSE">    -1     0     0     0</v>
 </incar>
 <kpoints>
  <generation param="Monkhorst-Pack">
   <v type="int" name="divisions">       8        8        8 </v>
   <v name="usershift">      0.00000000       0.00000000       0.00000000 </v>
   <v name="genvec1">      0.12500000       0.00000000       0.00000000 </v>
   <v name="genvec2">      0.00000000       0.12500000       0.00000000 </v>
   <v name="genvec3">      0.00000000       0.00000000       0.12500000 </v>
   <v name="shift">      0.50000000       0.50000000       0.50000000 </v>
  </generation>
  <varray name="kpointlist" >
   <v>       0.06250000       0.06250000       0.06250000 </v>
   <v>       0.18750000       0.06250000       0.06250000 </v>
   <v>       0.31250000       0.06250000       0.06250000 </v>
   <v>       0.43750000       0.06250000       0.06250000 </v>
   <v>      -0.06250000       0.06250000       0.06250000 </v>
   <v>       0.18750000       0.18750000       0.06250000 </v>
   <v>       0.31250000       0.18750000       0.06250000 </v>
   <v>      -0.18750000       0.18750000       0.06250000 </v>
   <v>       0.31250000       0.31250000       0.06250000 </v>
   <v>      -0.31250000       0.31250000       0.06250000 </v>
   <v>      -0.18750000       0.31250000       0.06250000 </v>
   <v>      -0.43750000       0.43750000       0.06250000 </v>
   <v>      -0.31250000       0.43750000       0.06250000 </v>
   <v>      -0.43750000      -0.43750000       0.06250000 </v>
   <v>      -0.31250000      -0.43750000       0.06250000 </v>
   <v>       0.18750000       0.18750000       0.18750000 </v>
   <v>       0.31250000       0.18750000       0.18750000 </v>
   <v>      -0.18750000       0.18750000       0.18750000 </v>
   <v>      -0.31250000       0.31250000       0.18750000 </v>
   <v>      -0.43750000       0.43750000       0.18750000 </v>
   <v>      -0.31250000       0.43750000       0.18750000 </v>
   <v>      -0.43750000      -0.43750000       0.18750000 </v>
   <v>      -0.31250000       0.31250000       0.31250000 </v>
   <v>      -0.43750000       0.43750000       0.31250000 </v>
   <v>      -0.43750000      -0.43750000       0.31250000 </v>
   <v>      -0.43750000       0.43750000       0.43750000 </v>
  </varray>
  <varray name="weights" >
   <v>       0.01562500 </v>
   <v>       0.04687500 </v>
   <v>       0.04687500 </v>
   <v>       0.02343750 </v>
   <v>       0.01171875 </v>
   <v>       0.04687500 </v>
   <v>       0.09375000 </v>
   <v>       0.04687500 </v>
   <v>       0.01562500 </v>
   <v>       0.04687500 </v>
   <v>       0.04687500 </v>
   <v>       0.04687500 </v>
   <v>       0.09375000 </v>
   <v>       0.04687500 </v>
   <v>       0.04687500 </v>
   <v>       0.01562500 </v>
   <v>       0.02343750 </v>
   <v>       0.01171875 </v>
   <v>       0.04687500 </v>
   <v>       0.04687500 </v>
   <v>       0.04687500 </v>
   <v>       0.04687500 </v>
   <v>       0.01171875 </v>
   <v>       0.04687500 </v>
   <v>       0.01562500 </v>
   <v>       0.01171875 </v>
  </varray>
  <varray name="tetrahedronlist"  type="int" >
   <v type="int" >        4        1        2        2        6 </v>
   <v type="int" >        8        2        2        6        6 </v>
   <v type="int" >        4        2        6        6       16 </v>
   <v type="int" >        4        2        3        6        7 </v>
   <v type="int" >        4        2        6        6        7 </v>
   <v type="int" >       12        6        6        7       16 </v>
   <v type="int" >        8        3        6        7        7 </v>
   <v type="int" >        8        6        7        7       17 </v>
   <v type="int" >        8        6        7       16       17 </v>
   <v type="int" >        4        3        4        7        7 </v>
   <v type="int" >        4        3        7        7        7 </v>
   <v type="int" >       16        7        7        7       17 </v>
   <v type="int" >        8        4        7        7        7 </v>
   <v type="int" >        4        7        7        7       16 </v>
   <v type="int" >       20        7        7       16       17 </v>
   <v type="int" >        4        3        4        6        7 </v>
   <v type="int" >        4        4        6        7        7 </v>
   <v type="int" >       16        6        7        7       16 </v>
   <v type="int" >        8        3        6        6        7 </v>
   <v type="int" >        4        6        6        6        7 </v>
   <v type="int" >        4        2        2        3        6 </v>
   <v type="int" >        8        2        3        6        6 </v>
   <v type="int" >        4        2        6        6        6 </v>
   <v type="int" >        4        2        2        2        6 </v>
   <v type="int" >        8        2        2        6       11 </v>
   <v type="int" >        4        2        6        6       11 </v>
   <v type="int" >       16        1        2        2        8 </v>
   <v type="int" >        4        2        2        2        8 </v>
   <v type="int" >       12        2        2        8       11 </v>
   <v type="int" >       16        1        2        8        8 </v>
   <v type="int" >        4        2        8        8       18 </v>
   <v type="int" >        4        2        8       11       18 </v>
   <v type="int" >       20        1        5        8        8 </v>
   <v type="int" >        4        1        8        8        8 </v>
   <v type="int" >        4        8        8        8       18 </v>
   <v type="int" >        8        5        8        8        8 </v>
   <v type="int" >        4        8        8        8       11 </v>
   <v type="int" >        4        8        8       11       18 </v>
   <v type="int" >        8        1        2        5        8 </v>
   <v type="int" >        8        2        5        8        8 </v>
   <v type="int" >        8        2        8        8       11 </v>
   <v type="int" >        4        2        2        6        8 </v>
   <v type="int" >        4        2        6        8       11 </v>
   <v type="int" >        4        6        7        9       16 </v>
   <v type="int" >       16        7        9       16       17 </v>
   <v type="int" >       12        9       16       17       17 </v>
   <v type="int" >       20        7        7        9       17 </v>
   <v type="int" >       12        7        9       17       17 </v>
   <v type="int" >        8        7        7       17       17 </v>
   <v type="int" >       12        3        6        7       16 </v>
   <v type="int" >        8        3        7        7       16 </v>
   <v type="int" >        8        3        6        6       16 </v>
   <v type="int" >        4        3        6       13       16 </v>
   <v type="int" >        4        3        7       13       16 </v>
   <v type="int" >        4        2        6        6       10 </v>
   <v type="int" >        4        3        6        6       10 </v>
   <v type="int" >        8        3        6       10       13 </v>
   <v type="int" >       12        2        6       10       11 </v>
   <v type="int" >        4        6       10       11       19 </v>
   <v type="int" >        4        6       10       13       19 </v>
   <v type="int" >        4        2        8       11       11 </v>
   <v type="int" >        4        2       10       11       11 </v>
   <v type="int" >        4       10       11       11       19 </v>
   <v type="int" >        8        8       11       11       18 </v>
   <v type="int" >        8       11       11       18       19 </v>
   <v type="int" >        4       11       11       19       19 </v>
   <v type="int" >        4        8        8       10       18 </v>
   <v type="int" >       12        8       10       11       18 </v>
   <v type="int" >       12       10       11       18       19 </v>
   <v type="int" >        4       10       11       13       18 </v>
   <v type="int" >        4       10       13       18       19 </v>
   <v type="int" >        4        2        3        8       11 </v>
   <v type="int" >        4        3        8       10       11 </v>
   <v type="int" >        8        3       10       11       13 </v>
   <v type="int" >       16        2        3        6       11 </v>
   <v type="int" >        4        3        6        7       11 </v>
   <v type="int" >        4        3        7       11       13 </v>
   <v type="int" >        4        4        7        9       17 </v>
   <v type="int" >        8        4        7        7       17 </v>
   <v type="int" >        4        4        7       14       17 </v>
   <v type="int" >        4        3        7        7       12 </v>
   <v type="int" >        8        4        7        7       12 </v>
   <v type="int" >        8        4        7       12       14 </v>
   <v type="int" >        8        3        7       12       13 </v>
   <v type="int" >        4        7       12       13       20 </v>
   <v type="int" >        4        7       12       14       20 </v>
   <v type="int" >        4        3       10       13       13 </v>
   <v type="int" >        4        3       12       13       13 </v>
   <v type="int" >        4       12       13       13       20 </v>
   <v type="int" >        8       10       13       13       19 </v>
   <v type="int" >       12       13       13       19       21 </v>
   <v type="int" >        4       13       13       20       21 </v>
   <v type="int" >        8       10       11       13       19 </v>
   <v type="int" >        8       11       13       19       19 </v>
   <v type="int" >        4       13       19       19       20 </v>
   <v type="int" >        8       13       19       20       21 </v>
   <v type="int" >        4       10       11       12       19 </v>
   <v type="int" >        4       11       12       13       19 </v>
   <v type="int" >        8       12       13       19       20 </v>
   <v type="int" >        8       10       12       13       19 </v>
   <v type="int" >        4       12       13       14       19 </v>
   <v type="int" >        4       12       14       19       20 </v>
   <v type="int" >        4        3        4       10       13 </v>
   <v type="int" >        4        4       10       12       13 </v>
   <v type="int" >       12        4       12       13       14 </v>
   <v type="int" >       12        3        4        7       13 </v>
   <v type="int" >        8        4        7        7       13 </v>
   <v type="int" >       12        4        7       13       14 </v>
   <v type="int" >        4        4       12       14       14 </v>
   <v type="int" >        4       12       14       14       20 </v>
   <v type="int" >        4       14       14       20       22 </v>
   <v type="int" >        4       12       13       15       20 </v>
   <v type="int" >        4       12       14       15       20 </v>
   <v type="int" >        8       14       15       20       22 </v>
   <v type="int" >       12       13       15       20       21 </v>
   <v type="int" >       12       15       20       21       22 </v>
   <v type="int" >        4       15       20       22       22 </v>
   <v type="int" >        4       13       13       14       21 </v>
   <v type="int" >       12       13       14       15       21 </v>
   <v type="int" >       16       14       15       21       22 </v>
   <v type="int" >        8       13       14       20       21 </v>
   <v type="int" >        4       14       20       20       21 </v>
   <v type="int" >       12       14       20       21       22 </v>
   <v type="int" >        4       12       12       13       20 </v>
   <v type="int" >        8       12       13       14       20 </v>
   <v type="int" >        8       12       14       20       20 </v>
   <v type="int" >        8       12       12       14       20 </v>
   <v type="int" >        4       12       13       20       20 </v>
   <v type="int" >       16        3        4       12       14 </v>
   <v type="int" >        8        3       12       12       14 </v>
   <v type="int" >        8        3       12       13       14 </v>
   <v type="int" >       16        3        4        7       14 </v>
   <v type="int" >        4        3        6        7       14 </v>
   <v type="int" >        4        3        6       13       14 </v>
   <v type="int" >        8       14       15       15       22 </v>
   <v type="int" >        8       15       15       22       22 </v>
   <v type="int" >        8       15       21       22       22 </v>
   <v type="int" >       12       13       14       15       22 </v>
   <v type="int" >        4       13       15       15       22 </v>
   <v type="int" >        8       13       15       21       22 </v>
   <v type="int" >       12       13       14       20       22 </v>
   <v type="int" >        4       13       19       20       22 </v>
   <v type="int" >        4       13       19       21       22 </v>
   <v type="int" >        4       10       12       14       20 </v>
   <v type="int" >        4       10       13       14       20 </v>
   <v type="int" >        8       10       13       19       20 </v>
   <v type="int" >        8       10       12       13       20 </v>
   <v type="int" >        4       10       11       13       20 </v>
   <v type="int" >        4       10       11       19       20 </v>
   <v type="int" >        4        2        3       12       13 </v>
   <v type="int" >        4        2       10       12       13 </v>
   <v type="int" >        8        2       10       11       13 </v>
   <v type="int" >       12        2        3        6       13 </v>
   <v type="int" >        4        2        2        6       13 </v>
   <v type="int" >        4        2        2       11       13 </v>
   <v type="int" >        4       11       13       15       21 </v>
   <v type="int" >        8       11       13       19       21 </v>
   <v type="int" >        4       11       18       19       21 </v>
   <v type="int" >        4        8       10       13       19 </v>
   <v type="int" >        4        8       11       13       19 </v>
   <v type="int" >        8        8       11       18       19 </v>
   <v type="int" >        8        8       10       11       19 </v>
   <v type="int" >        4        8        8       11       19 </v>
   <v type="int" >        4        8        8       18       19 </v>
   <v type="int" >        4        1        2       10       11 </v>
   <v type="int" >        4        1        8       10       11 </v>
   <v type="int" >        8        1        8        8       11 </v>
   <v type="int" >        8        1        2        2       11 </v>
   <v type="int" >       12        1        2        8       11 </v>
   <v type="int" >        4        5        8       11       18 </v>
   <v type="int" >        4        5        8        8       18 </v>
   <v type="int" >        4        1        5        8       18 </v>
   <v type="int" >        4        5        5        8        8 </v>
   <v type="int" >       12        1        5        5        8 </v>
   <v type="int" >        6        1        1        5        5 </v>
   <v type="int" >        8        1        1        5        8 </v>
   <v type="int" >        4        1        1        2        8 </v>
   <v type="int" >        4        2        3        6       16 </v>
   <v type="int" >        4        3        7       16       17 </v>
   <v type="int" >       12        7       16       17       17 </v>
   <v type="int" >        8        7       17       17       17 </v>
   <v type="int" >       12        7        7        9       16 </v>
   <v type="int" >        4        6        6        7        7 </v>
   <v type="int" >       16        3        6        7       13 </v>
   <v type="int" >       12        6        7        7       13 </v>
   <v type="int" >        4        3        6        6       11 </v>
   <v type="int" >       12        3        6       11       13 </v>
   <v type="int" >       12        2        3       10       11 </v>
   <v type="int" >        4        3       10       11       19 </v>
   <v type="int" >        4        3       11       13       19 </v>
   <v type="int" >        4        2        8       10       18 </v>
   <v type="int" >        4        2       10       11       18 </v>
   <v type="int" >        4       10       18       19       19 </v>
   <v type="int" >        4        8        8       11       11 </v>
   <v type="int" >        4        8       10       11       11 </v>
   <v type="int" >        4       10       11       11       13 </v>
   <v type="int" >        4       11       11       13       19 </v>
   <v type="int" >        4        2        6        8       10 </v>
   <v type="int" >        4        6        8       10       11 </v>
   <v type="int" >       12        6       10       11       13 </v>
   <v type="int" >        8        2        3        6       10 </v>
   <v type="int" >        4        3        6        7       10 </v>
   <v type="int" >        4        6        7       10       13 </v>
   <v type="int" >        4       16       17       17       17 </v>
   <v type="int" >        4       17       17       17       17 </v>
   <v type="int" >        4        9       17       17       17 </v>
   <v type="int" >        8        7        7       15       17 </v>
   <v type="int" >        8        7        9       15       17 </v>
   <v type="int" >        4        6        7       13       16 </v>
   <v type="int" >        4        7        7       13       16 </v>
   <v type="int" >       12        7        7       13       15 </v>
   <v type="int" >        8        6        7       13       13 </v>
   <v type="int" >        4        7       13       13       21 </v>
   <v type="int" >        4        7       13       15       21 </v>
   <v type="int" >        4        6       11       13       19 </v>
   <v type="int" >        4        6       13       13       19 </v>
   <v type="int" >        4       13       19       19       23 </v>
   <v type="int" >        4       13       19       21       23 </v>
   <v type="int" >        4       11       18       19       19 </v>
   <v type="int" >        4       11       19       19       19 </v>
   <v type="int" >        4       19       19       19       23 </v>
   <v type="int" >        4       18       19       19       19 </v>
   <v type="int" >        4       19       19       19       21 </v>
   <v type="int" >        4       19       19       21       23 </v>
   <v type="int" >        4       11       13       18       19 </v>
   <v type="int" >        4       13       18       19       19 </v>
   <v type="int" >        8       13       19       19       21 </v>
   <v type="int" >       12       11       13       13       19 </v>
   <v type="int" >        4       13       13       15       19 </v>
   <v type="int" >        4       13       15       19       21 </v>
   <v type="int" >        4        6        7       11       13 </v>
   <v type="int" >        4        7       11       13       13 </v>
   <v type="int" >        8        7       13       13       15 </v>
   <v type="int" >        4        7        7        9       13 </v>
   <v type="int" >        4        7        9       13       15 </v>
   <v type="int" >        4        7        9       14       17 </v>
   <v type="int" >       12        7        9       14       15 </v>
   <v type="int" >        4        9       14       15       22 </v>
   <v type="int" >        4        7       13       15       20 </v>
   <v type="int" >        4        7       14       15       20 </v>
   <v type="int" >        4       15       20       21       24 </v>
   <v type="int" >        4       15       20       22       24 </v>
   <v type="int" >        4       13       19       21       21 </v>
   <v type="int" >        4       13       20       21       21 </v>
   <v type="int" >        4       20       21       21       24 </v>
   <v type="int" >        8       19       21       21       23 </v>
   <v type="int" >        8       21       21       23       24 </v>
   <v type="int" >        4       21       21       24       24 </v>
   <v type="int" >        4       19       19       20       23 </v>
   <v type="int" >       12       19       20       21       23 </v>
   <v type="int" >       12       20       21       23       24 </v>
   <v type="int" >        4       20       21       22       23 </v>
   <v type="int" >        4       20       22       23       24 </v>
   <v type="int" >        4       13       14       19       21 </v>
   <v type="int" >        4       14       19       20       21 </v>
   <v type="int" >        4       14       15       15       21 </v>
   <v type="int" >       16        7       13       14       15 </v>
   <v type="int" >        8        7       14       15       15 </v>
   <v type="int" >       16        7        7        9       15 </v>
   <v type="int" >        4        7        7       15       15 </v>
   <v type="int" >        4       14       20       22       22 </v>
   <v type="int" >        8       20       22       22       24 </v>
   <v type="int" >       16       22       22       24       25 </v>
   <v type="int" >       16       20       21       22       24 </v>
   <v type="int" >        8       21       22       24       24 </v>
   <v type="int" >        4       22       24       24       24 </v>
   <v type="int" >       16       22       24       24       25 </v>
   <v type="int" >        4       20       20       21       24 </v>
   <v type="int" >       12       20       22       24       24 </v>
   <v type="int" >        8       20       20       22       24 </v>
   <v type="int" >        4       20       21       24       24 </v>
   <v type="int" >        4       13       20       20       22 </v>
   <v type="int" >        8       13       20       21       22 </v>
   <v type="int" >        4       13       13       15       22 </v>
   <v type="int" >        4       13       13       21       22 </v>
   <v type="int" >        4        6        7       14       15 </v>
   <v type="int" >        4        6       13       14       15 </v>
   <v type="int" >        4        6       13       13       15 </v>
   <v type="int" >        4        6        7        7       15 </v>
   <v type="int" >        4        3        6        7       15 </v>
   <v type="int" >        4        3        6       13       15 </v>
   <v type="int" >        8       21       22       22       25 </v>
   <v type="int" >       12       21       22       24       25 </v>
   <v type="int" >        4       21       23       24       25 </v>
   <v type="int" >        4       19       20       22       24 </v>
   <v type="int" >        4       19       21       22       24 </v>
   <v type="int" >        8       19       21       23       24 </v>
   <v type="int" >        8       19       20       21       24 </v>
   <v type="int" >        4       19       19       21       24 </v>
   <v type="int" >        4       19       19       23       24 </v>
   <v type="int" >        4       11       13       20       21 </v>
   <v type="int" >        4       11       19       20       21 </v>
   <v type="int" >        4       11       19       19       21 </v>
   <v type="int" >        4       11       13       13       21 </v>
   <v type="int" >        4       10       11       13       21 </v>
   <v type="int" >        4       10       11       19       21 </v>
   <v type="int" >        4        2        6       13       13 </v>
   <v type="int" >        4        2       11       13       13 </v>
   <v type="int" >       12        2        3       10       13 </v>
   <v type="int" >        4        2       10       10       13 </v>
   <v type="int" >        4       18       19       21       23 </v>
   <v type="int" >        4       18       19       19       23 </v>
   <v type="int" >        4       11       18       19       23 </v>
   <v type="int" >        4        8       11       19       19 </v>
   <v type="int" >        4        8       18       19       19 </v>
   <v type="int" >        4        2        8       10       19 </v>
   <v type="int" >        4        2        8       11       19 </v>
   <v type="int" >       16        2        8       10       11 </v>
   <v type="int" >        4        8        8       10       11 </v>
   <v type="int" >       12        2        8        8       10 </v>
   <v type="int" >        8        2        8       10       10 </v>
   <v type="int" >        4        8       10       10       11 </v>
   <v type="int" >        4        1        8       11       18 </v>
   <v type="int" >        4        2        8        8        8 </v>
   <v type="int" >        8        2        2        8       10 </v>
   <v type="int" >        4        2        2        3       10 </v>
   <v type="int" >        4        3        4        7       17 </v>
   <v type="int" >        4        4        7       16       17 </v>
   <v type="int" >        4        7        7        7        9 </v>
   <v type="int" >        4        4        7        7       14 </v>
   <v type="int" >        4        7        7        7       14 </v>
   <v type="int" >       12        3        4       12       13 </v>
   <v type="int" >        4        4       12       13       20 </v>
   <v type="int" >        4        4       13       14       20 </v>
   <v type="int" >        4        3       10       12       19 </v>
   <v type="int" >        4        3       12       13       19 </v>
   <v type="int" >        4       12       13       19       21 </v>
   <v type="int" >        4       12       19       20       21 </v>
   <v type="int" >        4       10       13       19       19 </v>
   <v type="int" >        8       13       13       19       20 </v>
   <v type="int" >        4       10       11       13       13 </v>
   <v type="int" >        4       10       12       13       13 </v>
   <v type="int" >        4       12       13       13       14 </v>
   <v type="int" >        4       13       13       14       20 </v>
   <v type="int" >        4        3        7       10       12 </v>
   <v type="int" >        4        7       10       12       13 </v>
   <v type="int" >        8        7       12       13       14 </v>
   <v type="int" >        8        3        4        7       12 </v>
   <v type="int" >        4        7        7       12       14 </v>
   <v type="int" >        4        7        9       15       16 </v>
   <v type="int" >       12        7        9       15       15 </v>
   <v type="int" >        8        7        7       14       15 </v>
   <v type="int" >        4        7       14       15       22 </v>
   <v type="int" >        4        7       15       15       22 </v>
   <v type="int" >        4        7       13       14       21 </v>
   <v type="int" >        4        7       14       15       21 </v>
   <v type="int" >        4       14       20       21       24 </v>
   <v type="int" >        4       14       21       22       24 </v>
   <v type="int" >        4       13       19       20       23 </v>
   <v type="int" >        4       13       20       21       23 </v>
   <v type="int" >        4       20       23       24       24 </v>
   <v type="int" >        4       19       19       21       21 </v>
   <v type="int" >        4       19       20       21       21 </v>
   <v type="int" >        4       20       21       21       22 </v>
   <v type="int" >        4       21       21       22       24 </v>
   <v type="int" >        4       13       15       19       20 </v>
   <v type="int" >        4       15       19       20       21 </v>
   <v type="int" >        8       13       14       15       20 </v>
   <v type="int" >        4       14       15       15       20 </v>
   <v type="int" >        4       15       15       20       22 </v>
   <v type="int" >        4        7        9       13       14 </v>
   <v type="int" >        4        9       13       14       15 </v>
   <v type="int" >        8        9       14       15       15 </v>
   <v type="int" >        8        7        7        9       14 </v>
   <v type="int" >        4        9       15       15       22 </v>
   <v type="int" >        4       15       22       22       25 </v>
   <v type="int" >        4       15       21       22       24 </v>
   <v type="int" >        4       15       22       22       24 </v>
   <v type="int" >        8       22       24       24       26 </v>
   <v type="int" >        8       22       24       25       26 </v>
   <v type="int" >        4       21       23       24       24 </v>
   <v type="int" >        4       21       24       24       24 </v>
   <v type="int" >        8       24       24       24       26 </v>
   <v type="int" >        4       23       24       24       24 </v>
   <v type="int" >        4       24       24       24       25 </v>
   <v type="int" >       20       24       24       25       26 </v>
   <v type="int" >        4       21       22       23       24 </v>
   <v type="int" >        4       22       23       24       24 </v>
   <v type="int" >       12       21       22       22       24 </v>
   <v type="int" >        4       22       22       22       24 </v>
   <v type="int" >        4       15       15       21       22 </v>
   <v type="int" >        4       15       22       22       22 </v>
   <v type="int" >        4       15       15       15       22 </v>
   <v type="int" >        4       14       15       22       22 </v>
   <v type="int" >        4        7       15       15       15 </v>
   <v type="int" >        4        4        7        7       15 </v>
   <v type="int" >        4        4        7       14       15 </v>
   <v type="int" >        4       22       24       25       25 </v>
   <v type="int" >        8       24       25       25       26 </v>
   <v type="int" >        6       25       25       26       26 </v>
   <v type="int" >       12       24       25       26       26 </v>
   <v type="int" >        4       24       24       26       26 </v>
   <v type="int" >        8       21       24       24       25 </v>
   <v type="int" >        4       20       21       22       25 </v>
   <v type="int" >        4       20       21       24       25 </v>
   <v type="int" >        4       13       15       22       22 </v>
   <v type="int" >        4       13       21       22       22 </v>
   <v type="int" >        4       12       13       14       22 </v>
   <v type="int" >        4       12       13       20       22 </v>
   <v type="int" >        4        3        7       14       15 </v>
   <v type="int" >        4        3       13       14       15 </v>
   <v type="int" >        4       23       24       25       26 </v>
   <v type="int" >        4       23       24       24       26 </v>
   <v type="int" >        4       21       23       24       26 </v>
   <v type="int" >        4       19       21       24       24 </v>
   <v type="int" >        4       19       23       24       24 </v>
   <v type="int" >        4       13       19       20       24 </v>
   <v type="int" >        4       13       19       21       24 </v>
   <v type="int" >        4       10       13       20       21 </v>
   <v type="int" >        4       10       19       20       21 </v>
   <v type="int" >        4        3       10       12       20 </v>
   <v type="int" >        4        3       10       13       20 </v>
   <v type="int" >        8        3       10       12       13 </v>
   <v type="int" >        4       10       10       12       13 </v>
   <v type="int" >        8        3       10       10       12 </v>
   <v type="int" >        8        3       10       12       12 </v>
   <v type="int" >        4       10       12       12       13 </v>
   <v type="int" >        4       11       19       21       23 </v>
   <v type="int" >        4        6       11       13       21 </v>
   <v type="int" >        4        2       10       13       19 </v>
   <v type="int" >        4        2       11       13       19 </v>
   <v type="int" >        8        2        6       11       13 </v>
   <v type="int" >        4        2        6        6       13 </v>
   <v type="int" >        4        3       10       10       11 </v>
   <v type="int" >        4        3       11       13       13 </v>
   <v type="int" >        4        2        2        6       10 </v>
   <v type="int" >        4        6       10       12       13 </v>
   <v type="int" >        4        3        6       10       12 </v>
   <v type="int" >        4        2        3        3       10 </v>
   <v type="int" >        4        3        3       10       12 </v>
   <v type="int" >        4        3        3        4       12 </v>
   <v type="int" >        4        3        4        7       16 </v>
   <v type="int" >        4        6        7        7        7 </v>
   <v type="int" >        4        6        6        7       13 </v>
   <v type="int" >        8        3        7        7       14 </v>
   <v type="int" >        8        3        7       13       14 </v>
   <v type="int" >        4        3       12       14       20 </v>
   <v type="int" >        4        3       13       14       20 </v>
   <v type="int" >        4        4       12       12       20 </v>
   <v type="int" >        4        4       12       14       20 </v>
   <v type="int" >        4       12       14       20       22 </v>
   <v type="int" >        4       12       20       20       22 </v>
   <v type="int" >        4       12       13       14       21 </v>
   <v type="int" >        4       12       14       20       21 </v>
   <v type="int" >        4       14       21       22       22 </v>
   <v type="int" >        4       13       13       15       20 </v>
   <v type="int" >        4       14       15       20       20 </v>
   <v type="int" >        4       15       20       20       22 </v>
   <v type="int" >        4       12       13       14       14 </v>
   <v type="int" >        4       13       14       14       20 </v>
   <v type="int" >        2       14       14       20       20 </v>
   <v type="int" >        2       12       12       14       14 </v>
   <v type="int" >        8        4        7       12       12 </v>
   <v type="int" >        4        7       12       12       14 </v>
   <v type="int" >        4        3        6        7       12 </v>
   <v type="int" >        4        6        7       12       13 </v>
   <v type="int" >        4        6        7       15       16 </v>
   <v type="int" >        8        6        7       13       15 </v>
   <v type="int" >        4        6       13       15       21 </v>
   <v type="int" >        4        7       13       14       22 </v>
   <v type="int" >        4        7       13       15       22 </v>
   <v type="int" >        4       13       20       22       24 </v>
   <v type="int" >        4       13       21       22       24 </v>
   <v type="int" >        4       14       20       20       24 </v>
   <v type="int" >        4       14       20       22       24 </v>
   <v type="int" >        4       20       22       24       25 </v>
   <v type="int" >        4       20       24       24       25 </v>
   <v type="int" >        6       22       22       24       24 </v>
   <v type="int" >        4       20       21       22       22 </v>
   <v type="int" >        2       20       20       22       22 </v>
   <v type="int" >        4        7        7       13       14 </v>
   <v type="int" >        4        3        7       13       13 </v>
   <v type="int" >        4       15       21       22       25 </v>
   <v type="int" >        4       21       24       25       26 </v>
   <v type="int" >        4       24       26       26       26 </v>
   <v type="int" >        6       24       24       25       25 </v>
   <v type="int" >        4        4        7       13       15 </v>
   <v type="int" >        4        4       13       14       15 </v>
   <v type="int" >        8        4       12       12       13 </v>
   <v type="int" >        4       25       26       26       26 </v>
   <v type="int" >        2       26       26       26       26 </v>
   <v type="int" >        4        4       12       12       14 </v>
   <v type="int" >        4       12       12       12       14 </v>
   <v type="int" >        8        4       12       12       12 </v>
   <v type="int" >        4        3        4        4       12 </v>
   <v type="int" >        4        4        4       12       12 </v>
   <v type="int" >        4        1        5        8       11 </v>
   <v type="int" >        4        1        2        6       11 </v>
   <v type="int" >        4        2        8       10       13 </v>
   <v type="int" >        4        2        8       11       13 </v>
   <v type="int" >        4        2        3        7       13 </v>
   <v type="int" >        4        2        6        7       13 </v>
   <v type="int" >        4        3       10       12       14 </v>
   <v type="int" >        4        3       10       13       14 </v>
   <v type="int" >        4        3        4        6       13 </v>
   <v type="int" >        4        4        6        7       13 </v>
   <v type="int" >        4        3       10       11       12 </v>
   <v type="int" >        4        3       11       12       13 </v>
   <v type="int" >        4        2        2        3       11 </v>
   <v type="int" >        6        2        2        8        8 </v>
   <v type="int" >        6        1        1        8        8 </v>
   <v type="int" >        4        5        5        5        8 </v>
   <v type="int" >        4        6       11       13       15 </v>
   <v type="int" >        4        6        7        9       15 </v>
   <v type="int" >        4        7       13       15       15 </v>
   <v type="int" >        4        7        7        7       15 </v>
   <v type="int" >        4        7       13       13       14 </v>
   <v type="int" >        4        3        7        7       13 </v>
   <v type="int" >        4        6       10       13       13 </v>
   <v type="int" >        4        2        6       10       10 </v>
   <v type="int" >        4        3        6       10       10 </v>
   <v type="int" >        4        2        2       10       11 </v>
   <v type="int" >        2        2        2       10       10 </v>
   <v type="int" >        4        1        8        8       10 </v>
   <v type="int" >        4        1        2        8       10 </v>
   <v type="int" >        4        2        3        8       10 </v>
   <v type="int" >        4        3        8       10       10 </v>
   <v type="int" >        4        4        7        9       14 </v>
   <v type="int" >        4        7       12       13       15 </v>
   <v type="int" >        4        7       12       14       15 </v>
   <v type="int" >        4        3        7       12       12 </v>
   <v type="int" >        4        3        3       10       13 </v>
   <v type="int" >        4        3        3       12       13 </v>
   <v type="int" >        2        3        3       12       12 </v>
   <v type="int" >        2        3        3       10       10 </v>
   <v type="int" >        4        2       10       10       12 </v>
   <v type="int" >        4        2        3       10       12 </v>
   <v type="int" >        4        3        4       10       12 </v>
   <v type="int" >        4        4       10       12       12 </v>
   <v type="int" >        4        4        4       12       14 </v>
   <v type="int" >        4        3       12       12       12 </v>
   <v type="int" >        4        3        4       12       12 </v>
   <v type="int" >        4        1        5        5        5 </v>
   <v type="int" >        2        5        5        5        5 </v>
  </varray>
  <i name="volumeweight">      0.00032552 </i>
 </kpoints>
 <parameters>
  <separator name="general" >
   <i type="string" name="SYSTEM">Fe BCC</i>
   <i type="logical" name="LCOMPAT"> F  </i>
  </separator>
  <separator name="electronic" >
   <i type="string" name="PREC">accura</i>
   <i name="ENMAX">    400.00000000</i>
   <i name="ENAUG">    511.36800000</i>
   <i name="EDIFF">      0.00000100</i>
   <i type="int" name="IALGO">    38</i>
   <i type="int" name="IWAVPR">    10</i>
   <i type="int" name="NBANDS">    12</i>
   <i name="NELECT">      8.00000000</i>
   <i type="int" name="TURBO">     0</i>
   <i type="int" name="IRESTART">     0</i>
   <i type="int" name="NREBOOT">     0</i>
   <i type="int" name="NMIN">     0</i>
   <i name="EREF">      0.00000000</i>
   <separator name="electronic smearing" >
    <i type="int" name="ISMEAR">    -5</i>
    <i name="SIGMA">      0.20000000</i>
    <i name="KSPACING">      0.50000000</i>
    <i type="logical" name="KGAMMA"> T  </i>
   </separator>
   <separator name="electronic projectors" >
    <i type="logical" name="LREAL"> F  </i>
    <v name="ROPT">      0.00000000</v>
    <i type="int" name="LMAXPAW">  -100</i>
    <i type="int" name="LMAXMIX">     2</i>
    <i type="logical" name="NLSPLINE"> F  </i>
   </separator>
   <separator name="electronic startup" >
    <i type="int" name="ISTART">     0</i>
    <i type="int" name="ICHARG">     2</i>
    <i type="int" name="INIWAV">     1</i>
   </separator>
   <separator name="electronic spin" >
    <i type="int" name="ISPIN">     2</i>
    <i type="logical" name="LNONCOLLINEAR"> F  </i>
    <v name="MAGMOM">      4.00000000</v>
    <i name="NUPDOWN">     -1.00000000</i>
    <i type="logical" name="LSORBIT"> F  </i>
    <v name="SAXIS">      0.00000000      0.00000000      1.00000000</v>
    <i type="logical" name="LSPIRAL"> F  </i>
    <v name="QSPIRAL">      0.00000000      0.00000000      0.00000000</v>
    <i type="logical" name="LZEROZ"> F  </i>
   </separator>
   <separator name="electronic exchange-correlation" >
    <i type="logical" name="LASPH"> F  </i>
    <i type="logical" name="LMETAGGA"> F  </i>
   </separator>
   <separator name="electronic convergence" >
    <i type="int" name="NELM">    60</i>
    <i type="int" name="NELMDL">    -5</i>
    <i type="int" name="NELMIN">     2</i>
    <i name="ENINI">    400.00000000</i>
    <separator name="electronic convergence detail" >
     <i type="logical" name="LDIAG"> T  </i>
     <i type="logical" name="LSUBROT"> F  </i>
     <i name="WEIMIN">      0.00000000</i>
     <i name="EBREAK">      0.00000002</i>
     <i name="DEPER">      0.30000000</i>
     <i type="int" name="NRMM">     4</i>
     <i name="TIME">      0.40000000</i>
    </separator>
   </separator>
   <separator name="electronic mixer" >
    <i name="AMIX">      0.40000000</i>
    <i name="BMIX">      1.00000000</i>
    <i name="AMIN">      0.10000000</i>
    <i name="AMIX_MAG">      1.60000000</i>
    <i name="BMIX_MAG">      1.00000000</i>
    <separator name="electronic mixer details" >
     <i type="int" name="IMIX">     4</i>
     <i type="logical" name="MIXFIRST"> F  </i>
     <i type="int" name="MAXMIX">   -45</i>
     <i name="WC">    100.00000000</i>
     <i type="int" name="INIMIX">     1</i>
     <i type="int" name="MIXPRE">     1</i>
     <i type="int" name="MREMOVE">     5</i>
    </separator>
   </separator>
   <separator name="electronic dipolcorrection" >
    <i type="logical" name="LDIPOL"> F  </i>
    <i type="logical" name="LMONO"> F  </i>
    <i type="int" name="IDIPOL">     0</i>
    <i name="EPSILON">      1.00000000</i>
    <v name="DIPOL">   -100.00000000   -100.00000000   -100.00000000</v>
    <i name="EFIELD">      0.00000000</i>
   </separator>
  </separator>
  <separator name="grids" >
   <i type="int" name="NGX">    14</i>
   <i type="int" name="NGY">    14</i>
   <i type="int" name="NGZ">    14</i>
   <i type="int" name="NGXF">    28</i>
   <i type="int" name="NGYF">    28</i>
   <i type="int" name="NGZF">    28</i>
   <i type="logical" name="ADDGRID"> F  </i>
  </separator>
  <separator name="ionic" >
   <i type="int" name="NSW">     0</i>
   <i type="int" name="IBRION">    -1</i>
   <i type="int" name="ISIF">     2</i>
   <i name="PSTRESS">      0.00000000</i>
   <i name="EDIFFG">      0.00001000</i>
   <i type="int" name="NFREE">     0</i>
   <i name="POTIM">      0.50000000</i>
   <i name="SMASS">     -3.00000000</i>
   <i name="SCALEE">      1.00000000</i>
  </separator>
  <separator name="ionic md" >
   <i name="TEBEG">      0.00010000</i>
   <i name="TEEND">      0.00010000</i>
   <i type="int" name="NBLOCK">     1</i>
   <i type="int" name="KBLOCK">     1</i>
   <i type="int" name="NPACO">   256</i>
   <i name="APACO">     16.00000000</i>
  </separator>
  <separator name="symmetry" >
   <i type="int" name="ISYM">     2</i>
   <i name="SYMPREC">      0.00001000</i>
  </separator>
  <separator name="dos" >
   <i type="logical" name="LORBIT"> F  </i>
   <v name="RWIGS">     -1.00000000</v>
   <i type="int" name="NEDOS">   301</i>
   <i name="EMIN">     10.00000000</i>
   <i name="EMAX">    -10.00000000</i>
   <i name="EFERMI">      0.00000000</i>
  </separator>
  <separator name="writing" >
   <i type="int" name="NWRITE">     2</i>
   <i type="logical" name="LWAVE"> T  </i>
   <i type="logical" name="LCHARG"> T  </i>
   <i type="logical" name="LPARD"> F  </i>
   <i type="logical" name="LVTOT"> F  </i>
   <i type="logical" name="LVHAR"> F  </i>
   <i type="logical" name="LELF"> F  </i>
   <i type="logical" name="LOPTICS"> F  </i>
   <v name="STM">      0.00000000      0.00000000      0.00000000      0.00000000      0.00000000      0.00000000      0.00000000</v>
  </separator>
  <separator name="performance" >
   <i type="int" name="NPAR">     4</i>
   <i type="int" name="NSIM">     4</i>
   <i type="int" name="NBLK">    -1</i>
   <i type="logical" name="LPLANE"> T  </i>
   <i type="logical" name="LSCALAPACK"> F  </i>
   <i type="logical" name="LSCAAWARE"> F  </i>
   <i type="logical" name="LSCALU"> F  </i>
   <i type="logical" name="LASYNC"> F  </i>
   <i type="logical" name="LORBITALREAL"> F  </i>
  </separator>
  <separator name="miscellaneous" >
   <i type="int" name="IDIOT">     3</i>
   <i type="logical" name="LMUSIC"> F  </i>
   <v name="POMASS">     55.84700000</v>
   <v name="DARWINR">      0.00000000</v>
   <v name="DARWINV">      1.00000000</v>
   <i type="logical" name="LCORR"> T  </i>
  </separator>
  <i type="logical" name="GGA_COMPAT"> T  </i>
  <i type="logical" name="LBERRY"> F  </i>
  <i type="int" name="ICORELEVEL">     0</i>
  <i type="logical" name="LDAU"> F  </i>
  <i type="int" name="I_CONSTRAINED_M">     0</i>
  <separator name="electronic exchange-correlation" >
   <i type="string" name="GGA">--</i>
   <i type="int" name="VOSKOWN">     0</i>
   <i type="logical" name="LHFCALC"> F  </i>
   <i type="string" name="PRECFOCK"></i>
   <i type="logical" name="LSYMGRAD"> F  </i>
   <i type="logical" name="LHFONE"> F  </i>
   <i type="logical" name="LRHFCALC"> F  </i>
   <i type="logical" name="LTHOMAS"> F  </i>
   <i type="logical" name="LMODELHF"> F  </i>
   <i name="ENCUT4O">     -1.00000000</i>
   <i type="int" name="EXXOEP">     0</i>
   <i type="int" name="FOURORBIT">     0</i>
   <i name="AEXX">      0.00000000</i>
   <i name="HFALPHA">      0.00000000</i>
   <i name="MCALPHA">      0.00000000</i>
   <i name="ALDAX">      1.00000000</i>
   <i name="AGGAX">      1.00000000</i>
   <i name="ALDAC">      1.00000000</i>
   <i name="AGGAC">      1.00000000</i>
   <i type="int" name="NKREDX">     1</i>
   <i type="int" name="NKREDY">     1</i>
   <i type="int" name="NKREDZ">     1</i>
   <i type="logical" name="SHIFTRED"> F  </i>
   <i type="logical" name="ODDONLY"> F  </i>
   <i type="logical" name="EVENONLY"> F  </i>
   <i type="int" name="LMAXFOCK">     0</i>
   <i type="int" name="NMAXFOCKAE">     0</i>
   <i type="logical" name="LFOCKAEDFT"> F  </i>
   <i name="HFSCREEN">      0.00000000</i>
   <i name="HFSCREENC">      0.00000000</i>
   <i type="int" name="NBANDSGWLOW">     0</i>
  </separator>
  <separator name="vdW DFT" >
   <i type="logical" name="LUSE_VDW"> F  </i>
   <i name="Zab_VDW">     -0.84910000</i>
   <i name="PARAM1">      0.12340000</i>
   <i name="PARAM2">      1.00000000</i>
   <i name="PARAM3">      0.00000000</i>
  </separator>
  <separator name="model GW" >
   <i type="int" name="MODEL_GW">     0</i>
   <i name="MODEL_EPS0">      4.68750000</i>
   <i name="MODEL_ALPHA">      1.00000000</i>
  </separator>
  <separator name="linear response parameters" >
   <i type="logical" name="LEPSILON"> F  </i>
   <i type="logical" name="LRPA"> F  </i>
   <i type="logical" name="LNABLA"> F  </i>
   <i type="logical" name="LVEL"> F  </i>
   <i type="int" name="KINTER">     0</i>
   <i name="CSHIFT">      0.10000000</i>
   <i name="OMEGAMAX">     -1.00000000</i>
   <i name="DEG_THRESHOLD">      0.00200000</i>
  </separator>
  <separator name="orbital magnetization" >
   <i type="logical" name="NUCIND"> F  </i>
   <v name="MAGPOS">      0.00000000      0.00000000      0.00000000</v>
   <i type="logical" name="LNICSALL"> T  </i>
   <i type="logical" name="ORBITALMAG"> F  </i>
   <i type="logical" name="LMAGBLOCH"> F  </i>
   <i type="logical" name="LCHIMAG"> F  </i>
   <i type="logical" name="LGAUGE"> T  </i>
   <i type="int" name="MAGATOM">     0</i>
   <v name="MAGDIPOL">      0.00000000      0.00000000      0.00000000</v>
   <v name="AVECCONST">      0.00000000      0.00000000      0.00000000</v>
  </separator>
  <separator name="response functions" >
   <i type="logical" name="LADDER"> F  </i>
   <i type="logical" name="LFXC"> F  </i>
   <i type="logical" name="LHARTREE"> T  </i>
   <i type="int" name="IBSE">     0</i>
   <v type="int" name="KPOINT">    -1     0     0     0</v>
   <i type="logical" name="LTCTE"> F  </i>
   <i type="logical" name="LTETE"> F  </i>
   <i type="logical" name="LTRIPLET"> F  </i>
   <i type="logical" name="LFXCEPS"> F  </i>
   <i type="logical" name="LFXHEG"> F  </i>
   <i type="int" name="NATURALO">     0</i>
   <i type="logical" name="L2ORDER"> F  </i>
   <i type="logical" name="LUSEW"> F  </i>
   <i name="ENCUTGW">     -2.00000000</i>
   <i name="ENCUTGWSOFT">     -2.00000000</i>
   <i name="ENCUTLF">     -1.00000000</i>
   <i type="int" name="LMAXMP2">    -1</i>
   <i name="SCISSOR">      0.00000000</i>
   <i type="int" name="NOMEGA">     0</i>
   <i type="int" name="NOMEGAR">     0</i>
   <i type="int" name="NBANDSGW">    -1</i>
   <i type="int" name="NBANDSO">    -1</i>
   <i type="int" name="NBANDSV">    -1</i>
   <i type="int" name="NELM">     1</i>
   <i type="int" name="NELMHF">     1</i>
   <i type="int" name="DIM">     3</i>
   <i type="int" name="ANTIRES">     0</i>
   <i name="OMEGAMAX">    -30.00000000</i>
   <i name="OMEGAMIN">    -30.00000000</i>
   <i name="OMEGATL">   -200.00000000</i>
   <i type="int" name="OMEGAGRID">     0</i>
   <i name="CSHIFT">     -0.10000000</i>
   <i type="logical" name="SELFENERGY"> F  </i>
   <i type="logical" name="LSPECTRAL"> F  </i>
   <i type="logical" name="LSPECTRALGW"> F  </i>
   <i type="logical" name="LSINGLES"> F  </i>
   <i type="logical" name="LFERMIGW"> F  </i>
   <i type="logical" name="ODDONLYGW"> F  </i>
   <i type="logical" name="EVENONLYGW"> F  </i>
   <i type="int" name="NKREDLFX">     1</i>
   <i type="int" name="NKREDLFY">     1</i>
   <i type="int" name="NKREDLFZ">     1</i>
   <i type="int" name="MAXMEM">  1800</i>
   <i type="int" name="TELESCOPE">     0</i>
   <i type="int" name="TAUPAR">     1</i>
   <i type="int" name="OMEGAPAR">    -1</i>
   <i name="LAMBDA">      1.00000000</i>
  </separator>
  <separator name="External order field" >
   <i name="OFIELD_KAPPA">      0.00000000</i>
   <v name="OFIELD_K">      0.00000000      0.00000000      0.00000000</v>
   <i name="OFIELD_Q6_NEAR">      0.00000000</i>
   <i name="OFIELD_Q6_FAR">      0.00000000</i>
   <i name="OFIELD_A">      0.00000000</i>
  </separator>
 </parameters>
 <atominfo>
  <atoms>       1 </atoms>
  <types>       1 </types>
  <array name="atoms" >
   <dimension dim="1">ion</dimension>
   <field type="string">element</field>
   <field type="int">atomtype</field>
   <set>
    <rc><c>Fe</c><c>   1</c></rc>
   </set>
  </array>
  <array name="atomtypes" >
   <dimension dim="1">type</dimension>
   <field type="int">atomspertype</field>
   <field type="string">element</field>
   <field>mass</field>
   <field>valence</field>
   <field type="string">pseudopotential</field>
   <set>
    <rc><c>   1</c><c>Fe</c><c>     55.84700000</c><c>      8.00000000</c><c>  PAW Fe 03Mar1998                      </c></rc>
   </set>
  </array>
 </atominfo>
 <structure name="initialpos" >
  <crystal>
   <varray name="basis" >
    <v>      -1.25000000       1.25000000       1.25000000 </v>
    <v>       1.25000000      -1.25000000       1.25000000 </v>
    <v>       1.25000000       1.25000000      -1.25000000 </v>
   </varray>
   <i name="volume">      7.81250000 </i>
   <varray name="rec_basis" >
    <v>       0.00000000       0.40000000       0.40000000 </v>
    <v>       0.40000000       0.00000000       0.40000000 </v>
    <v>       0.40000000       0.40000000       0.00000000 </v>
   </varray>
  </crystal>
  <varray name="positions" >
   <v>       0.00000000       0.00000000       0.00000000 </v>
  </varray>
 </structure>
 <calculation>
  <scstep>
   <time name="dav">    0.59    0.29</time>
   <time name="total">    0.71    0.36</time>
   <energy>
    <i name="alphaZ">     85.72983808 </i>
    <i name="ewald">   -670.77359510 </i>
    <i name="hartreedc">    -83.67268914 </i>
    <i name="XCdc">      7.63330850 </i>
    <i name="pawpsdc">    552.76102510 </i>
    <i name="pawaedc">   -562.19386350 </i>
    <i name="eentropy">      0.00000000 </i>
    <i name="bandstr">     89.39943383 </i>
    <i name="atom">    597.35192723 </i>
    <i name="e_fr_energy">     16.23538500 </i>
    <i name="e_wo_entrp">     16.23538500 </i>
    <i name="e_0_energy">     16.23538500 </i>
   </energy>
  </scstep>
  <scstep>
   <time name="dav">    0.52    0.26</time>
   <time name="total">    0.62    0.31</time>
   <energy>
    <i name="e_fr_energy">     -7.90093842 </i>
    <i name="e_wo_entrp">     -7.90093842 </i>
    <i name="e_0_energy">     -7.90093842 </i>
   </energy>
  </scstep>
  <scstep>
   <time name="dav">    0.58    0.29</time>
   <time name="total">    0.70    0.35</time>
   <energy>
    <i name="e_fr_energy">     -8.35196794 </i>
    <i name="e_wo_entrp">     -8.35196794 </i>
    <i name="e_0_energy">     -8.35196794 </i>
   </energy>
  </scstep>
  <scstep>
   <time name="dav">    0.58    0.29</time>
   <time name="total">    0.69    0.34</time>
   <energy>
    <i name="e_fr_energy">     -8.35327184 </i>
    <i name="e_wo_entrp">     -8.35327184 </i>
    <i name="e_0_energy">     -8.35327184 </i>
   </energy>
  </scstep>
  <scstep>
   <time name="dav">    0.58    0.29</time>
   <time name="total">    0.72    0.36</time>
   <energy>
    <i name="e_fr_energy">     -8.35327745 </i>
    <i name="e_wo_entrp">     -8.35327745 </i>
    <i name="e_0_energy">     -8.35327745 </i>
   </energy>
  </scstep>
  <scstep>
   <time name="dav">    0.98    0.49</time>
   <time name="total">    1.13    0.57</time>
   <energy>
    <i name="e_fr_energy">     -8.47049677 </i>
    <i name="e_wo_entrp">     -8.47049677 </i>
    <i name="e_0_energy">     -8.47049677 </i>
   </energy>
  </scstep>
  <scstep>
   <time name="dav">    0.61    0.31</time>
   <time name="total">    0.78    0.39</time>
   <energy>
    <i name="e_fr_energy">     -8.42591946 </i>
    <i name="e_wo_entrp">     -8.42591946 </i>
    <i name="e_0_energy">     -8.42591946 </i>
   </energy>
  </scstep>
  <scstep>
   <time name="dav">    0.64    0.32</time>
   <time name="total">    0.80    0.40</time>
   <energy>
    <i name="e_fr_energy">     -8.42010470 </i>
    <i name="e_wo_entrp">     -8.42010470 </i>
    <i name="e_0_energy">     -8.42010470 </i>
   </energy>
  </scstep>
  <scstep>
   <time name="dav">    0.62    0.31</time>
   <time name="total">    0.78    0.39</time>
   <energy>
    <i name="e_fr_energy">     -8.40995594 </i>
    <i name="e_wo_entrp">     -8.40995594 </i>
    <i name="e_0_energy">     -8.40995594 </i>
   </energy>
  </scstep>
  <scstep>
   <time name="dav">    0.60    0.30</time>
   <time name="total">    0.76    0.38</time>
   <energy>
    <i name="e_fr_energy">     -8.40899320 </i>
    <i name="e_wo_entrp">     -8.40899320 </i>
    <i name="e_0_energy">     -8.40899320 </i>
   </energy>
  </scstep>
  <scstep>
   <time name="dav">    0.61    0.30</time>
   <time name="total">    0.78    0.39</time>
   <energy>
    <i name="e_fr_energy">     -8.40903592 </i>
    <i name="e_wo_entrp">     -8.40903592 </i>
    <i name="e_0_energy">     -8.40903592 </i>
   </energy>
  </scstep>
  <scstep>
   <time name="dav">    0.92    0.46</time>
   <time name="total">    1.07    0.54</time>
   <energy>
    <i name="e_fr_energy">     -8.40904311 </i>
    <i name="e_wo_entrp">     -8.40904311 </i>
    <i name="e_0_energy">     -8.40904311 </i>
   </energy>
  </scstep>
  <scstep>
   <time name="dav">    0.36    0.18</time>
   <time name="total">    0.51    0.25</time>
   <energy>
    <i name="e_fr_energy">     -8.40904165 </i>
    <i name="e_wo_entrp">     -8.40904165 </i>
    <i name="e_0_energy">     -8.40904165 </i>
   </energy>
  </scstep>
  <scstep>
   <time name="dav">    0.33    0.17</time>
   <time name="total">    0.46    0.23</time>
   <energy>
    <i name="alphaZ">     85.72983808 </i>
    <i name="ewald">   -670.77359510 </i>
    <i name="hartreedc">    -68.74454504 </i>
    <i name="XCdc">      4.97174966 </i>
    <i name="pawpsdc">    974.61970736 </i>
    <i name="pawaedc">   -987.35079590 </i>
    <i name="eentropy">      0.00000000 </i>
    <i name="bandstr">     55.78667269 </i>
    <i name="atom">    597.35192723 </i>
    <i name="e_fr_energy">     -8.40904102 </i>
    <i name="e_wo_entrp">     -8.40904102 </i>
    <i name="e_0_energy">     -8.40904102 </i>
   </energy>
  </scstep>
  <structure>
   <crystal>
    <varray name="basis" >
     <v>      -1.25000000       1.25000000       1.25000000 </v>
     <v>       1.25000000      -1.25000000       1.25000000 </v>
     <v>       1.25000000       1.25000000      -1.25000000 </v>
    </varray>
    <i name="volume">      7.81250000 </i>
    <varray name="rec_basis" >
     <v>       0.00000000       0.40000000       0.40000000 </v>
     <v>       0.40000000       0.00000000       0.40000000 </v>
     <v>       0.40000000       0.40000000       0.00000000 </v>
    </varray>
   </crystal>
   <varray name="positions" >
    <v>       0.00000000       0.00000000       0.00000000 </v>
   </varray>
  </structure>
  <varray name="forces" >
   <v>      -0.00000000      -0.00000000      -0.00000000 </v>
  </varray>
  <varray name="stress" >
   <v>    1334.71091312      -0.00000000      -0.00000000 </v>
   <v>       0.00000000    1334.71091312      -0.00000000 </v>
   <v>       0.00000000       0.00000000    1334.71091312 </v>
  </varray>
  <energy>
   <i name="e_fr_energy">     -8.40904102 </i>
   <i name="e_wo_entrp">     -8.40904102 </i>
   <i name="e_0_energy">      0.00000000 </i>
  </energy>
  <time name="totalsc">   11.10    5.56</time>
  <eigenvalues>
   <array>
    <dimension dim="1">band</dimension>
    <dimension dim="2">kpoint</dimension>
    <dimension dim="3">spin</dimension>
    <field>eigene</field>
    <field>occ</field>
    <set>
     <set comment="spin 1">
      <set comment="kpoint 1">
       <r>    1.0466    1.0000 </r>
       <r>    6.9696    1.0000 </r>
       <r>    6.9696    1.0000 </r>
       <r>    8.4360    1.0000 </r>
       <r>    9.6597    1.0000 </r>
       <r>    9.6597    1.0227 </r>
       <r>   36.2485    0.0000 </r>
       <r>   36.2485    0.0000 </r>
       <r>   40.1880    0.0000 </r>
       <r>   44.7979    0.0000 </r>
       <r>   48.7061    0.0000 </r>
       <r>   48.7061    0.0000 </r>
      </set>
      <set comment="kpoint 2">
       <r>    2.9677    1.0000 </r>
       <r>    6.2155    1.0000 </r>
       <r>    6.6382    1.0000 </r>
       <r>    9.5332    1.0000 </r>
       <r>    9.9200    1.0128 </r>
       <r>   10.2512    0.6164 </r>
       <r>   31.0905    0.0000 </r>
       <r>   33.8518    0.0000 </r>
       <r>   39.7476    0.0000 </r>
       <r>   41.4880    0.0000 </r>
       <r>   49.3925    0.0000 </r>
       <r>   49.5538    0.0000 </r>
      </set>
      <set comment="kpoint 3">
       <r>    3.6574    1.0000 </r>
       <r>    5.5897    1.0000 </r>
       <r>    8.0958    1.0000 </r>
       <r>    9.8075    1.0000 </r>
       <r>   10.1396    0.8772 </r>
       <r>   12.5445   -0.0479 </r>
       <r>   25.3800    0.0000 </r>
       <r>   31.6684    0.0000 </r>
       <r>   36.4563    0.0000 </r>
       <r>   41.9506    0.0000 </r>
       <r>   48.8075    0.0000 </r>
       <r>   53.1712    0.0000 </r>
      </set>
      <set comment="kpoint 4">
       <r>    3.4624    1.0000 </r>
       <r>    5.3535    1.0000 </r>
       <r>    9.5670    1.0000 </r>
       <r>    9.9492    1.0000 </r>
       <r>   10.2346    0.6544 </r>
       <r>   14.1277   -0.0001 </r>
       <r>   22.1777    0.0000 </r>
       <r>   30.8013    0.0000 </r>
       <r>   35.2031    0.0000 </r>
       <r>   42.0184    0.0000 </r>
       <r>   48.9502    0.0000 </r>
       <r>   52.2455    0.0000 </r>
      </set>
      <set comment="kpoint 5">
       <r>    0.2261    1.0000 </r>
       <r>    7.3560    1.0000 </r>
       <r>    7.3560    1.0000 </r>
       <r>    7.5153    1.0000 </r>
       <r>    9.5027    1.0000 </r>
       <r>    9.9142    1.0091 </r>
       <r>   37.5241    0.0000 </r>
       <r>   39.1605    0.0000 </r>
       <r>   39.1605    0.0000 </r>
       <r>   45.2040    0.0000 </r>
       <r>   49.7523    0.0000 </r>
       <r>   49.7524    0.0000 </r>
      </set>
      <set comment="kpoint 6">
       <r>    4.5167    1.0000 </r>
       <r>    5.7376    1.0000 </r>
       <r>    6.2313    1.0000 </r>
       <r>    9.6913    1.0000 </r>
       <r>   10.1942    1.0016 </r>
       <r>   12.9163   -0.0693 </r>
       <r>   28.1198    0.0000 </r>
       <r>   29.4686    0.0000 </r>
       <r>   35.0625    0.0000 </r>
       <r>   43.9350    0.0000 </r>
       <r>   49.9737    0.0000 </r>
       <r>   52.9994    0.0000 </r>
      </set>
      <set comment="kpoint 7">
       <r>    4.4886    1.0000 </r>
       <r>    5.4640    1.0000 </r>
       <r>    7.3455    1.0000 </r>
       <r>    9.9683    1.0000 </r>
       <r>   10.3609    0.8437 </r>
       <r>   16.1370   -0.0001 </r>
       <r>   23.2989    0.0000 </r>
       <r>   27.5011    0.0000 </r>
       <r>   33.0982    0.0000 </r>
       <r>   44.9922    0.0000 </r>
       <r>   50.4525    0.0000 </r>
       <r>   54.3007    0.0000 </r>
      </set>
      <set comment="kpoint 8">
       <r>    1.7729    1.0000 </r>
       <r>    6.8491    1.0000 </r>
       <r>    7.2040    1.0000 </r>
       <r>    8.6121    1.0000 </r>
       <r>    9.0133    1.0032 </r>
       <r>   10.1205    0.9531 </r>
       <r>   33.8849    0.0000 </r>
       <r>   37.1281    0.0000 </r>
       <r>   39.0786    0.0000 </r>
       <r>   44.5144    0.0000 </r>
       <r>   46.0313    0.0000 </r>
       <r>   47.5668    0.0000 </r>
      </set>
      <set comment="kpoint 9">
       <r>    4.8821    1.0000 </r>
       <r>    6.2053    1.0000 </r>
       <r>    6.2053    1.0000 </r>
       <r>   10.2355    1.0000 </r>
       <r>   10.2355    0.9522 </r>
       <r>   20.4907    0.0000 </r>
       <r>   20.4907    0.0000 </r>
       <r>   24.5624    0.0000 </r>
       <r>   32.4516    0.0000 </r>
       <r>   47.8659    0.0000 </r>
       <r>   47.8659    0.0000 </r>
       <r>   58.4710    0.0000 </r>
      </set>
      <set comment="kpoint 10">
       <r>    3.3531    1.0000 </r>
       <r>    6.1195    1.0000 </r>
       <r>    7.4382    1.0000 </r>
       <r>    9.3852    1.0000 </r>
       <r>   10.4346    0.7874 </r>
       <r>   10.4565    0.2783 </r>
       <r>   28.1961    0.0000 </r>
       <r>   34.1197    0.0000 </r>
       <r>   37.9995    0.0000 </r>
       <r>   43.0667    0.0000 </r>
       <r>   45.6206    0.0000 </r>
       <r>   48.4428    0.0000 </r>
      </set>
      <set comment="kpoint 11">
       <r>    3.4476    1.0000 </r>
       <r>    6.4348    1.0000 </r>
       <r>    6.8547    1.0000 </r>
       <r>    8.7475    1.0000 </r>
       <r>    9.9973    1.0237 </r>
       <r>   10.7654    0.1654 </r>
       <r>   31.0052    0.0000 </r>
       <r>   32.7584    0.0000 </r>
       <r>   39.3092    0.0000 </r>
       <r>   41.2713    0.0000 </r>
       <r>   45.3371    0.0000 </r>
       <r>   50.7338    0.0000 </r>
      </set>
      <set comment="kpoint 12">
       <r>    3.3165    1.0000 </r>
       <r>    5.6362    1.0000 </r>
       <r>    8.7674    1.0000 </r>
       <r>    9.7481    1.0000 </r>
       <r>   11.9310   -0.1815 </r>
       <r>   11.9865   -0.0063 </r>
       <r>   23.1372    0.0000 </r>
       <r>   32.2908    0.0000 </r>
       <r>   36.2514    0.0000 </r>
       <r>   42.1452    0.0000 </r>
       <r>   46.5894    0.0000 </r>
       <r>   49.4521    0.0000 </r>
      </set>
      <set comment="kpoint 13">
       <r>    4.1630    1.0000 </r>
       <r>    5.9257    1.0000 </r>
       <r>    7.0574    1.0000 </r>
       <r>    9.3120    1.0000 </r>
       <r>   10.7830    0.2191 </r>
       <r>   13.2810   -0.0188 </r>
       <r>   25.7402    0.0000 </r>
       <r>   29.9527    0.0000 </r>
       <r>   37.4780    0.0000 </r>
       <r>   41.4341    0.0000 </r>
       <r>   45.6323    0.0000 </r>
       <r>   51.9099    0.0000 </r>
      </set>
      <set comment="kpoint 14">
       <r>    3.9477    1.0000 </r>
       <r>    5.8884    1.0000 </r>
       <r>    7.3532    1.0000 </r>
       <r>    9.5389    1.0000 </r>
       <r>   11.3274   -0.0982 </r>
       <r>   15.6287   -0.0000 </r>
       <r>   22.1685    0.0000 </r>
       <r>   29.0670    0.0000 </r>
       <r>   36.3348    0.0000 </r>
       <r>   42.2592    0.0000 </r>
       <r>   45.8210    0.0000 </r>
       <r>   51.2917    0.0000 </r>
      </set>
      <set comment="kpoint 15">
       <r>    5.0863    1.0000 </r>
       <r>    5.4556    1.0000 </r>
       <r>    6.4225    1.0000 </r>
       <r>    9.8524    1.0000 </r>
       <r>   10.7002    0.1264 </r>
       <r>   17.5728    0.0000 </r>
       <r>   23.0445    0.0000 </r>
       <r>   25.3632    0.0000 </r>
       <r>   38.6454    0.0000 </r>
       <r>   40.9503    0.0000 </r>
       <r>   43.8237    0.0000 </r>
       <r>   55.0034    0.0000 </r>
      </set>
      <set comment="kpoint 16">
       <r>    5.4568    1.0000 </r>
       <r>    5.4568    1.0000 </r>
       <r>    6.1270    1.0000 </r>
       <r>   10.1694    1.0000 </r>
       <r>   10.1694    1.0070 </r>
       <r>   16.2920   -0.0004 </r>
       <r>   26.1414    0.0000 </r>
       <r>   26.1414    0.0000 </r>
       <r>   29.5970    0.0000 </r>
       <r>   49.1776    0.0000 </r>
       <r>   53.9947    0.0000 </r>
       <r>   53.9947    0.0000 </r>
      </set>
      <set comment="kpoint 17">
       <r>    5.3654    1.0000 </r>
       <r>    5.4061    1.0000 </r>
       <r>    6.6372    1.0000 </r>
       <r>   10.2363    1.0000 </r>
       <r>   10.2879    0.9981 </r>
       <r>   19.5389    0.0000 </r>
       <r>   22.2945    0.0000 </r>
       <r>   25.4416    0.0000 </r>
       <r>   28.2150    0.0000 </r>
       <r>   51.0625    0.0000 </r>
       <r>   55.5163    0.0000 </r>
       <r>   57.0572    0.0000 </r>
      </set>
      <set comment="kpoint 18">
       <r>    3.0581    1.0000 </r>
       <r>    7.4689    1.0000 </r>
       <r>    7.5957    1.0000 </r>
       <r>    7.5957    1.0000 </r>
       <r>    8.6151    1.0272 </r>
       <r>   10.8343    0.1354 </r>
       <r>   33.4115    0.0000 </r>
       <r>   36.4775    0.0000 </r>
       <r>   36.4775    0.0000 </r>
       <r>   38.2104    0.0000 </r>
       <r>   49.5744    0.0000 </r>
       <r>   49.5744    0.0000 </r>
      </set>
      <set comment="kpoint 19">
       <r>    4.3043    1.0000 </r>
       <r>    6.1034    1.0000 </r>
       <r>    7.3283    1.0000 </r>
       <r>    8.5555    1.0000 </r>
       <r>   10.2072    0.7970 </r>
       <r>   12.1524   -0.0300 </r>
       <r>   29.1604    0.0000 </r>
       <r>   33.5255    0.0000 </r>
       <r>   33.6439    0.0000 </r>
       <r>   38.9121    0.0000 </r>
       <r>   48.8635    0.0000 </r>
       <r>   51.0587    0.0000 </r>
      </set>
      <set comment="kpoint 20">
       <r>    4.0965    1.0000 </r>
       <r>    6.1180    1.0000 </r>
       <r>    6.9666    1.0000 </r>
       <r>    8.9877    1.0021 </r>
       <r>   11.7759   -0.0583 </r>
       <r>   15.2434   -0.0002 </r>
       <r>   23.5226    0.0000 </r>
       <r>   31.5923    0.0000 </r>
       <r>   32.4385    0.0000 </r>
       <r>   41.3239    0.0000 </r>
       <r>   47.7826    0.0000 </r>
       <r>   49.2533    0.0000 </r>
      </set>
      <set comment="kpoint 21">
       <r>    4.8114    1.0000 </r>
       <r>    4.9728    1.0000 </r>
       <r>    7.4757    1.0008 </r>
       <r>    9.2559    1.0067 </r>
       <r>   11.0120    0.0062 </r>
       <r>   15.3123   -0.0001 </r>
       <r>   26.5617    0.0000 </r>
       <r>   27.6156    0.0000 </r>
       <r>   35.4477    0.0000 </r>
       <r>   37.6127    0.0000 </r>
       <r>   47.5496    0.0000 </r>
       <r>   52.3829    0.0000 </r>
      </set>
      <set comment="kpoint 22">
       <r>    4.4274    1.0000 </r>
       <r>    5.1232    1.0000 </r>
       <r>    7.1331    1.0018 </r>
       <r>    9.8358    0.9993 </r>
       <r>   11.4231   -0.0073 </r>
       <r>   18.9204    0.0000 </r>
       <r>   22.3299    0.0000 </r>
       <r>   26.2634    0.0000 </r>
       <r>   35.4733    0.0000 </r>
       <r>   38.8999    0.0000 </r>
       <r>   45.4018    0.0000 </r>
       <r>   51.3054    0.0000 </r>
      </set>
      <set comment="kpoint 23">
       <r>    4.5011    1.0000 </r>
       <r>    4.8352    1.0000 </r>
       <r>    8.9600    1.0019 </r>
       <r>    8.9600    1.0130 </r>
       <r>   10.2625    0.4674 </r>
       <r>   14.4893    0.0000 </r>
       <r>   29.9161    0.0000 </r>
       <r>   29.9161    0.0000 </r>
       <r>   31.5678    0.0000 </r>
       <r>   34.5605    0.0000 </r>
       <r>   50.6555    0.0000 </r>
       <r>   54.4380    0.0000 </r>
      </set>
      <set comment="kpoint 24">
       <r>    3.9146    1.0000 </r>
       <r>    4.1906    1.0000 </r>
       <r>    9.2027    1.0095 </r>
       <r>    9.7288    0.9963 </r>
       <r>   11.5624   -0.0174 </r>
       <r>   18.3351    0.0000 </r>
       <r>   24.4808    0.0000 </r>
       <r>   27.4166    0.0000 </r>
       <r>   32.0617    0.0000 </r>
       <r>   35.3855    0.0000 </r>
       <r>   46.0342    0.0000 </r>
       <r>   53.6440    0.0000 </r>
      </set>
      <set comment="kpoint 25">
       <r>    3.6529    1.0000 </r>
       <r>    3.6529    1.0000 </r>
       <r>    9.3944    1.0170 </r>
       <r>   11.2626    0.2966 </r>
       <r>   11.2626   -0.0004 </r>
       <r>   22.4361    0.0000 </r>
       <r>   22.4361    0.0000 </r>
       <r>   24.1564    0.0000 </r>
       <r>   33.6217    0.0000 </r>
       <r>   33.6217    0.0000 </r>
       <r>   43.7302    0.0000 </r>
       <r>   54.4127    0.0000 </r>
      </set>
      <set comment="kpoint 26">
       <r>    3.1428    1.0000 </r>
       <r>    3.1958    1.0000 </r>
       <r>   11.1802    0.4963 </r>
       <r>   11.1802    0.1513 </r>
       <r>   11.4981   -0.0016 </r>
       <r>   21.5271    0.0000 </r>
       <r>   24.5165    0.0000 </r>
       <r>   24.5165    0.0000 </r>
       <r>   31.0338    0.0000 </r>
       <r>   32.3341    0.0000 </r>
       <r>   42.1647    0.0000 </r>
       <r>   57.2491    0.0000 </r>
      </set>
     </set>
     <set comment="spin 2">
      <set comment="kpoint 1">
       <r>    1.3477    1.0000 </r>
       <r>    7.8930    1.0000 </r>
       <r>    7.8930    1.0000 </r>
       <r>    9.4073    1.0520 </r>
       <r>   11.0095   -0.0432 </r>
       <r>   11.0095    0.0000 </r>
       <r>   36.6114    0.0000 </r>
       <r>   36.6114    0.0000 </r>
       <r>   40.3537    0.0000 </r>
       <r>   45.3605    0.0000 </r>
       <r>   49.0579    0.0000 </r>
       <r>   49.0579    0.0000 </r>
      </set>
      <set comment="kpoint 2">
       <r>    3.3375    1.0000 </r>
       <r>    7.0975    1.0000 </r>
       <r>    7.4988    1.0000 </r>
       <r>   10.8255    0.3179 </r>
       <r>   11.2462   -0.0282 </r>
       <r>   11.2928    0.0000 </r>
       <r>   31.6299    0.0000 </r>
       <r>   34.2548    0.0000 </r>
       <r>   40.2609    0.0000 </r>
       <r>   41.7331    0.0000 </r>
       <r>   49.7434    0.0000 </r>
       <r>   50.0630    0.0000 </r>
      </set>
      <set comment="kpoint 3">
       <r>    4.2994    1.0000 </r>
       <r>    6.4368    1.0000 </r>
       <r>    8.7162    1.0000 </r>
       <r>   11.0777   -0.0264 </r>
       <r>   11.5419   -0.0007 </r>
       <r>   13.5016    0.0000 </r>
       <r>   26.0566    0.0000 </r>
       <r>   32.0402    0.0000 </r>
       <r>   36.9230    0.0000 </r>
       <r>   42.3196    0.0000 </r>
       <r>   49.3067    0.0000 </r>
       <r>   53.5047    0.0000 </r>
      </set>
      <set comment="kpoint 4">
       <r>    4.1741    1.0000 </r>
       <r>    6.1878    1.0000 </r>
       <r>   10.1777    1.0000 </r>
       <r>   11.2264   -0.0164 </r>
       <r>   11.6516    0.0000 </r>
       <r>   14.9509    0.0000 </r>
       <r>   22.9695    0.0000 </r>
       <r>   31.1516    0.0000 </r>
       <r>   35.6430    0.0000 </r>
       <r>   42.4303    0.0000 </r>
       <r>   49.4743    0.0000 </r>
       <r>   52.5248    0.0000 </r>
      </set>
      <set comment="kpoint 5">
       <r>    0.5197    1.0000 </r>
       <r>    8.2966    1.0000 </r>
       <r>    8.2966    1.0000 </r>
       <r>    8.4664    1.0030 </r>
       <r>   10.8459    0.0563 </r>
       <r>   11.2946    0.0000 </r>
       <r>   37.7879    0.0000 </r>
       <r>   39.3670    0.0000 </r>
       <r>   39.3670    0.0000 </r>
       <r>   45.6034    0.0000 </r>
       <r>   50.2148    0.0000 </r>
       <r>   50.3303    0.0000 </r>
      </set>
      <set comment="kpoint 6">
       <r>    5.0639    1.0000 </r>
       <r>    6.5891    1.0000 </r>
       <r>    6.9734    1.0000 </r>
       <r>   10.9860    0.0023 </r>
       <r>   11.5719   -0.0009 </r>
       <r>   13.8674    0.0000 </r>
       <r>   28.7171    0.0000 </r>
       <r>   29.9682    0.0000 </r>
       <r>   35.5261    0.0000 </r>
       <r>   44.1735    0.0000 </r>
       <r>   50.3448    0.0000 </r>
       <r>   53.4135    0.0000 </r>
      </set>
      <set comment="kpoint 7">
       <r>    5.2164    1.0000 </r>
       <r>    6.2781    1.0000 </r>
       <r>    8.0527    1.0000 </r>
       <r>   11.2662   -0.0168 </r>
       <r>   11.7240    0.0000 </r>
       <r>   16.9473    0.0000 </r>
       <r>   23.9972    0.0000 </r>
       <r>   28.0123    0.0000 </r>
       <r>   33.5376    0.0000 </r>
       <r>   45.2958    0.0000 </r>
       <r>   50.7586    0.0000 </r>
       <r>   54.7726    0.0000 </r>
      </set>
      <set comment="kpoint 8">
       <r>    2.0909    1.0000 </r>
       <r>    7.7610    1.0000 </r>
       <r>    8.1252    1.0000 </r>
       <r>    9.5946    1.0668 </r>
       <r>   10.2792    0.5547 </r>
       <r>   11.5062    0.0000 </r>
       <r>   34.3522    0.0000 </r>
       <r>   37.4399    0.0000 </r>
       <r>   39.4270    0.0000 </r>
       <r>   44.8689    0.0000 </r>
       <r>   46.5400    0.0000 </r>
       <r>   48.0496    0.0000 </r>
      </set>
      <set comment="kpoint 9">
       <r>    5.6476    1.0000 </r>
       <r>    6.9786    1.0000 </r>
       <r>    6.9786    1.0000 </r>
       <r>   11.5586   -0.0014 </r>
       <r>   11.5586    0.0000 </r>
       <r>   21.2055    0.0000 </r>
       <r>   21.2055    0.0000 </r>
       <r>   25.1353    0.0000 </r>
       <r>   32.9036    0.0000 </r>
       <r>   48.1530    0.0000 </r>
       <r>   48.1530    0.0000 </r>
       <r>   59.0417    0.0000 </r>
      </set>
      <set comment="kpoint 10">
       <r>    3.8664    1.0000 </r>
       <r>    6.9945    1.0000 </r>
       <r>    8.2173    1.0000 </r>
       <r>   10.5623    0.5016 </r>
       <r>   11.4798   -0.0204 </r>
       <r>   11.8006    0.0000 </r>
       <r>   28.8204    0.0000 </r>
       <r>   34.4347    0.0000 </r>
       <r>   38.4707    0.0000 </r>
       <r>   43.5166    0.0000 </r>
       <r>   46.0712    0.0000 </r>
       <r>   48.8342    0.0000 </r>
      </set>
      <set comment="kpoint 11">
       <r>    3.8582    1.0000 </r>
       <r>    7.3699    1.0000 </r>
       <r>    7.7128    1.0000 </r>
       <r>    9.9186    1.0493 </r>
       <r>   11.0544    0.0083 </r>
       <r>   12.0622    0.0000 </r>
       <r>   31.5855    0.0000 </r>
       <r>   33.2053    0.0000 </r>
       <r>   39.6741    0.0000 </r>
       <r>   41.6968    0.0000 </r>
       <r>   45.7434    0.0000 </r>
       <r>   51.1700    0.0000 </r>
      </set>
      <set comment="kpoint 12">
       <r>    4.0178    1.0000 </r>
       <r>    6.4889    1.0000 </r>
       <r>    9.6582    1.0000 </r>
       <r>   10.9677    0.0001 </r>
       <r>   12.8872    0.0000 </r>
       <r>   13.0395    0.0000 </r>
       <r>   23.8995    0.0000 </r>
       <r>   32.5823    0.0000 </r>
       <r>   36.7066    0.0000 </r>
       <r>   42.6156    0.0000 </r>
       <r>   47.1051    0.0000 </r>
       <r>   49.7802    0.0000 </r>
      </set>
      <set comment="kpoint 13">
       <r>    4.8373    1.0000 </r>
       <r>    6.7982    1.0000 </r>
       <r>    7.8743    1.0000 </r>
       <r>   10.4632    0.5114 </r>
       <r>   11.9913   -0.0021 </r>
       <r>   14.2388    0.0000 </r>
       <r>   26.4111    0.0000 </r>
       <r>   30.4430    0.0000 </r>
       <r>   37.8573    0.0000 </r>
       <r>   41.8576    0.0000 </r>
       <r>   46.0245    0.0000 </r>
       <r>   52.3805    0.0000 </r>
      </set>
      <set comment="kpoint 14">
       <r>    4.7020    1.0000 </r>
       <r>    6.7407    1.0000 </r>
       <r>    8.2335    1.0000 </r>
       <r>   10.7234    0.1041 </r>
       <r>   12.4720    0.0000 </r>
       <r>   16.4248    0.0000 </r>
       <r>   22.9427    0.0000 </r>
       <r>   29.5520    0.0000 </r>
       <r>   36.6965    0.0000 </r>
       <r>   42.7340    0.0000 </r>
       <r>   46.1463    0.0000 </r>
       <r>   51.7943    0.0000 </r>
      </set>
      <set comment="kpoint 15">
       <r>    5.8522    1.0000 </r>
       <r>    6.3270    1.0000 </r>
       <r>    7.2758    1.0000 </r>
       <r>   11.0032   -0.0165 </r>
       <r>   11.8747    0.0000 </r>
       <r>   18.3792    0.0000 </r>
       <r>   23.7694    0.0000 </r>
       <r>   25.9098    0.0000 </r>
       <r>   39.0557    0.0000 </r>
       <r>   41.3284    0.0000 </r>
       <r>   44.2000    0.0000 </r>
       <r>   55.6275    0.0000 </r>
      </set>
      <set comment="kpoint 16">
       <r>    6.2517    1.0000 </r>
       <r>    6.2517    1.0000 </r>
[...]
                                                                                                                                                                                                                                                                                                                                                                                                                                                                                                                                                                                                                                                                                                                                                                                                                                                                                                                                                                                                                                                                                                                                                                                                                                                                                                                                                                                                                                                                                                                                                                                                                                                                                                                                                                                                                                                                                                                                                                                                                                                                                                                                                                                                                                                                                                                                                                                                                                                                                                                                                                                                                                                                                                                                                                                                                                                                                                                                                                                                                                                                                                                                                                                                                                                                                                                                                                                                                                                                                                                                                                                                                                                                                                                                                                                                                                                                                                                                                                                                                                                                                                                                                                                                                                                                                                                                                                                                                                                                                                                                                                                                                                                                                                                                                                                                                                                                                                                                                                                                                                                                                                                                                                                                                                                                                                                                                                                                                                                                                                                                                                                                                                                                                                                                                                                                                                                                                                                                                                                                                                                                                                                                                                                                                                                                                                                                                                                                                                                                                                                                                                                                                                                                                                                                                                                                                                                                                                                                                                                                                                                                                                                                                                                                                                                                                                                                                                                                                                                                                                                                                                                                                                                                                                                                                                                                                                                                                                                                                                                                                                                                                                                                                                                                                                                                                                                                                                                                                                                                                                                                                                                                                                                                                                                                                                                                                                                                                                                                                                                                                                                                                                                                                                                                                                                                                                                                                                                                                                                                                                                                                                                                                                                                                                                                                                                                                                                                                                                                                                                                                                                                                                                                                                                                                                                                                                                                                                                                                                                                                                                                                                                                                                                                                                                                                                                                                                                                                                                                                                                                                                                                                                                                                                                                                                                                                                                                                                                                                                                                                                                                                                                                                                                                                                                                                                                                                                                                                                                                                                                                                                                                                                                                                                                                                                                                                                                                                                                                                                                                                                                                                                                                                                                                                                                                                                                                                                                                                                                                                                                                                                                                                                                                                                                                                                                                                                                                                                                                                                                                                                                                                                                                                                                                                                                                                                                                                                                                                                                                                                                                                                                                                                                                                                                                                                                                                                                                                                                                                                                                                                                                                                                                                                                                                                                                                                                                                                                                                                                                                                                                                                                                                                                                                                                                                                                                                                                                                                                                                                                                                                                                                                                                                                                                                                                                                                                                                                                                                                                                                                                                                                                                                                                                                                                                                                                                                                                                                                                                                                                                                                                                                                                                                                                                                                                                                                                                                                                                                                                                                                                                                                                                                                                                                                                                                                                                                                                                                                                                                                                                                                                                                                                                                                                                                                                                                                                                                                                                                                                                                                                                                                                                                                                                                                                                                                                                                                                                                                                                                                                                                                                                                                                                                                                                                                                                                                                                                                                                                                                                                                                                                                                                                                                                                                                                                                                                                                                                                                                                                                                                                                                                                                                                                                                                                                                                                                                                                                                                                                                                                                                                                                                                                                                                                                                                                                                                                                                                                                                                                                                                                                                                                                                                                                                                                                                                                                                                                                