Fe FCC                                  
   3.50000000000000     
    -0.500000    0.500000    0.500000
     0.500000   -0.500000    0.500000
     0.500000    0.500000   -0.500000
   Fe
     1
Direct
  0.000000  0.000000  0.000000
 
   40   40   40
 0.18516035983E+03 0.18095151193E+03 0.16892650738E+03 0.15072305499E+03 0.12858935472E+03
 0.10488105308E+03 0.81666068852E+02 0.60530203337E+02 0.42553804274E+02 0.28355644147E+02
 0.18113534001E+02 0.11547265493E+02 0.79231491325E+01 0.61545855406E+01 0.50796354830E+01
 0.42666626062E+01 0.36980659271E+01 0.33277987315E+01 0.31045522335E+01 0.29873945493E+01
 0.29511436289E+01 0.29873945493E+01 0.31045522335E+01 0.33277987315E+01 0.36980659271E+01
 0.42666626062E+01 0.50796354830E+01 0.61545855406E+01 0.79231491325E+01 0.11547265493E+02
 0.18113534001E+02 0.28355644147E+02 0.42553804274E+02 0.60530203337E+02 0.81666068852E+02
 0.10488105308E+03 0.12858935472E+03 0.15072305499E+03 0.16892650738E+03 0.18095151193E+03
 0.18095151193E+03 0.17956107121E+03 0.17018105161E+03 0.15411601439E+03 0.13342675070E+03
 0.11044109849E+03 0.87315866915E+02 0.65777739804E+02 0.47052066139E+02 0.31893635268E+02
 0.20618282609E+02 0.13094295814E+02 0.87325730704E+01 0.65511085716E+01 0.53675064593E+01
 0.44790544565E+01 0.38417158389E+01 0.34170161897E+01 0.31534718375E+01 0.30064007215E+01
 0.29456688902E+01 0.29575233244E+01 0.30447151571E+01 0.32265066769E+01 0.35382695308E+01
 0.40282912111E+01 0.47466953373E+01 0.57205294929E+01 0.71088738955E+01 0.98907285503E+01
 0.15215932816E+02 0.23950334374E+02 0.36532847897E+02 0.52943239104E+02 0.72719391121E+02
 0.94953321435E+02 0.11825156530E+03 0.14072652016E+03 0.16012460964E+03 0.17415251484E+03
 0.16892650738E+03 0.17018105161E+03 0.16371026107E+03 0.15042827451E+03 0.13209370668E+03
 0.11087440528E+03 0.88902569305E+02 0.67967708598E+02 0.49393094899E+02 0.34038443866E+02
 0.22331538419E+02 0.14269296174E+02 0.94040842189E+01 0.68817910549E+01 0.55873016234E+01
 0.46483840321E+01 0.39581958255E+01 0.34878489232E+01 0.31883127854E+01 0.30133034304E+01
 0.29292222603E+01 0.29178621180E+01 0.29766432697E+01 0.31185912098E+01 0.33723288621E+01
 0.37806063944E+01 0.43934539075E+01 0.52501198561E+01 0.63772923465E+01 0.83640048189E+01
 0.12345667474E+02 0.19289431067E+02 0.29790165219E+02 0.43998443135E+02 0.61623677097E+02
 0.81943181235E+02 0.10377941277E+03 0.12548060306E+03 0.14499609667E+03 0.16012460964E+03
 0.15072305499E+03 0.15411601439E+03 0.15042827451E+03 0.14018949346E+03 0.12479239609E+03
 0.10613885482E+03 0.86224119082E+02 0.66808464636E+02 0.49249267233E+02 0.34468183443E+02
 0.22971735416E+02 0.14858202402E+02 0.98061524293E+01 0.70959099277E+01 0.57210837493E+01
 0.47596813786E+01 0.40370253395E+01 0.35339508266E+01 0.32058106049E+01 0.30068571805E+01
 0.29018092034E+01 0.28693454032E+01 0.29024386251E+01 0.30082254792E+01 0.32081613967E+01
 0.35377174775E+01 0.40429273063E+01 0.47688663491E+01 0.57352990519E+01 0.71187328864E+01
 0.98486857790E+01 0.14943096178E+02 0.23132426376E+02 0.34742023199E+02 0.49665070985E+02
 0.67371833396E+02 0.86905877093E+02 0.10687198779E+03 0.12548060306E+03 0.14072652016E+03
 0.12858935472E+03 0.13342675070E+03 0.13209370668E+03 0.12479239609E+03 0.11254260024E+03
 0.96918950144E+02 0.79691052253E+02 0.62502163163E+02 0.46673627882E+02 0.33138164477E+02
 0.22442314822E+02 0.14753564843E+02 0.98531001085E+01 0.71485568077E+01 0.57586795484E+01
 0.48024490890E+01 0.40700087529E+01 0.35500165395E+01 0.32031831269E+01 0.29861105431E+01
 0.28636445952E+01 0.28129210267E+01 0.28237476419E+01 0.28982864215E+01 0.30511682892E+01
 0.33098377208E+01 0.37134567238E+01 0.43067327070E+01 0.51238904204E+01 0.61779463975E+01
 0.79234515353E+01 0.11333619451E+02 0.17232465325E+02 0.26108297020E+02 0.38045131422E+02
 0.52714510968E+02 0.69381203870E+02 0.86905877093E+02 0.10377941277E+03 0.11825156530E+03
 0.10488105308E+03 0.11044109849E+03 0.11087440528E+03 0.10613885482E+03 0.96918950144E+02
 0.84448200922E+02 0.70218383863E+02 0.55688083262E+02 0.42079105988E+02 0.30284389414E+02
 0.20850691707E+02 0.13981293149E+02 0.95324459792E+01 0.70227000418E+01 0.56976281490E+01
 0.47723111459E+01 0.40527259075E+01 0.35328385007E+01 0.31787661032E+01 0.29507489973E+01
 0.28153537633E+01 0.27497351188E+01 0.27419959207E+01 0.27906186245E+01 0.29043749718E+01
 0.31029046203E+01 0.34170192082E+01 0.38863044595E+01 0.45501294929E+01 0.54286384696E+01
 0.65834377651E+01 0.86672619475E+01 0.12532676198E+02 0.18796364370E+02 0.27726670098E+02
 0.39203052268E+02 0.52714510968E+02 0.67371833396E+02 0.81943181235E+02 0.94953321435E+02
 0.81666068852E+02 0.87315866915E+02 0.88902569305E+02 0.86224119082E+02 0.79691052253E+02
 0.70218383863E+02 0.59004617295E+02 0.47283807967E+02 0.36131139928E+02 0.26357107519E+02
 0.18473348577E+02 0.12688549208E+02 0.89070200314E+01 0.67374894549E+01 0.55439465664E+01
 0.46715944696E+01 0.39853801578E+01 0.34820419425E+01 0.31325004639E+01 0.29013535625E+01
 0.27580977703E+01 0.26812475387E+01 0.26586052076E+01 0.26864163718E+01 0.27689583358E+01
 0.29190512598E+01 0.31590297296E+01 0.35206405083E+01 0.40411100869E+01 0.47520446800E+01
 0.56598311787E+01 0.69096560612E+01 0.91949101874E+01 0.13200956678E+02 0.19350801671E+02
 0.27726670098E+02 0.38045131422E+02 0.49665070985E+02 0.61623677097E+02 0.72719391121E+02
 0.60530203337E+02 0.65777739804E+02 0.67967708598E+02 0.66808464636E+02 0.62502163163E+02
 0.55688083262E+02 0.47283807967E+02 0.38285556776E+02 0.29594854981E+02 0.21910247525E+02
 0.15681681564E+02 0.11099405843E+02 0.80930289128E+01 0.63408700311E+01 0.53115570243E+01
 0.45087767939E+01 0.38727911639E+01 0.34002819581E+01 0.30661134712E+01 0.28394798673E+01
 0.26935652120E+01 0.26092219352E+01 0.25751053831E+01 0.25865801072E+01 0.26449370305E+01
 0.27576331474E+01 0.29394307942E+01 0.32134721173E+01 0.36104636483E+01 0.41634149309E+01
 0.48956802903E+01 0.58049527265E+01 0.70939925487E+01 0.93857076250E+01 0.13200956678E+02
 0.18796364370E+02 0.26108297020E+02 0.34742023199E+02 0.43998443135E+02 0.52943239104E+02
 0.42553804274E+02 0.47052066139E+02 0.49393094899E+02 0.49249267233E+02 0.46673627882E+02
 0.42079105988E+02 0.36131139928E+02 0.29594854981E+02 0.23189283779E+02 0.17485504719E+02
 0.12855526807E+02 0.94554199442E+01 0.72235812468E+01 0.58905295129E+01 0.50181302580E+01
 0.42970209494E+01 0.37235655566E+01 0.32928525167E+01 0.29829365976E+01 0.27675281537E+01
 0.26238301138E+01 0.25355962061E+01 0.24931184845E+01 0.24919610203E+01 0.25318356149E+01
 0.26164602810E+01 0.27545440496E+01 0.29613034622E+01 0.32592878014E+01 0.36767626987E+01
 0.42416680207E+01 0.49700906765E+01 0.58550864554E+01 0.70939925487E+01 0.91949101874E+01
 0.12532676198E+02 0.17232465325E+02 0.23132426376E+02 0.29790165219E+02 0.36532847897E+02
 0.28355644147E+02 0.31893635268E+02 0.34038443866E+02 0.34468183443E+02 0.33138164477E+02
 0.30284389414E+02 0.26357107519E+02 0.21910247525E+02 0.17485504719E+02 0.13522976887E+02
 0.10309911795E+02 0.79600560605E+01 0.64103764284E+01 0.54306012858E+01 0.46841586381E+01
 0.40521949477E+01 0.35486934836E+01 0.31668314665E+01 0.28874195208E+01 0.26884469525E+01
 0.25511266307E+01 0.24622901142E+01 0.24142512667E+01 0.24034725684E+01 0.24292021233E+01
 0.24929423354E+01 0.25990921285E+01 0.27564524405E+01 0.29797440539E+01 0.32899384148E+01
 0.37119747292E+01 0.42685766166E+01 0.49700906765E+01 0.58049527265E+01 0.69096560612E+01
 0.86672619475E+01 0.11333619451E+02 0.14943096178E+02 0.19289431067E+02 0.23950334374E+02
 0.18113534001E+02 0.20618282609E+02 0.22331538419E+02 0.22971735416E+02 0.22442314822E+02
 0.20850691707E+02 0.18473348577E+02 0.15681681564E+02 0.12855526807E+02 0.10309911795E+02
 0.82480227236E+01 0.67390909536E+01 0.57134740536E+01 0.49720888499E+01 0.43307534279E+01
 0.37908043774E+01 0.33599305961E+01 0.30300023740E+01 0.27844862294E+01 0.26053642590E+01
 0.24776178843E+01 0.23910283808E+01 0.23399663335E+01 0.23220976604E+01 0.23369257603E+01
 0.23849562875E+01 0.24679309440E+01 0.25900531667E+01 0.27596347169E+01 0.29902967981E+01
 0.33007261033E+01 0.37119747292E+01 0.42416680207E+01 0.48956802903E+01 0.56598311787E+01
 0.65834377651E+01 0.79234515353E+01 0.98486857790E+01 0.12345667474E+02 0.15215932816E+02
 0.11547265493E+02 0.13094295814E+02 0.14269296174E+02 0.14858202402E+02 0.14753564843E+02
 0.13981293149E+02 0.12688549208E+02 0.11099405843E+02 0.94554199442E+01 0.79600560605E+01
 0.67390909536E+01 0.58194582442E+01 0.51233164878E+01 0.45148500022E+01 0.39777591523E+01
 0.35281702936E+01 0.31683149397E+01 0.28898209164E+01 0.26789075905E+01 0.25212526619E+01
 0.24052303430E+01 0.23232431234E+01 0.22714980594E+01 0.22488415346E+01 0.22553499226E+01
 0.22913355296E+01 0.23572193576E+01 0.24543521416E+01 0.25864579322E+01 0.27610814825E+01
 0.29902967981E+01 0.32899384148E+01 0.36767626987E+01 0.41634149309E+01 0.47520446800E+01
 0.54286384696E+01 0.61779463975E+01 0.71187328864E+01 0.83640048189E+01 0.98907285503E+01
 0.79231491325E+01 0.87325730704E+01 0.94040842189E+01 0.98061524293E+01 0.98531001085E+01
 0.95324459792E+01 0.89070200314E+01 0.80930289128E+01 0.72235812468E+01 0.64103764284E+01
 0.57134740536E+01 0.51233164878E+01 0.45788511145E+01 0.40790099490E+01 0.36421516147E+01
 0.32770504013E+01 0.29830667889E+01 0.27526363444E+01 0.25748326654E+01 0.24387081205E+01
 0.23355916411E+01 0.22600779089E+01 0.22098434860E+01 0.21846726808E+01 0.21852092566E+01
 0.22119563741E+01 0.22649129480E+01 0.23439943781E+01 0.24501029995E+01 0.25864579322E+01
 0.27596347169E+01 0.29797440539E+01 0.32592878014E+01 0.36104636483E+01 0.40411100869E+01
 0.45501294929E+01 0.51238904204E+01 0.57352990519E+01 0.63772923465E+01 0.71088738955E+01
 0.61545855406E+01 0.65511085716E+01 0.68817910549E+01 0.70959099277E+01 0.71485568077E+01
 0.70227000418E+01 0.67374894549E+01 0.63408700311E+01 0.58905295129E+01 0.54306012858E+01
 0.49720888499E+01 0.45148500022E+01 0.40790099490E+01 0.36824025544E+01 0.33367439363E+01
 0.30467921526E+01 0.28109809466E+01 0.26232710356E+01 0.24755490573E+01 0.23598714733E+01
 0.22700662988E+01 0.22024703398E+01 0.21558138763E+01 0.21304714315E+01 0.21274460156E+01
 0.21474832459E+01 0.21906159629E+01 0.22562825979E+01 0.23439943781E+01 0.24543521416E+01
 0.25900531667E+01 0.27564524405E+01 0.29613034622E+01 0.32134721173E+01 0.35206405083E+01
 0.38863044595E+01 0.43067327070E+01 0.47688663491E+01 0.52501198561E+01 0.57205294929E+01
 0.50796354830E+01 0.53675064593E+01 0.55873016234E+01 0.57210837493E+01 0.57586795484E+01
 0.56976281490E+01 0.55439465664E+01 0.53115570243E+01 0.50181302580E+01 0.46841586381E+01
 0.43307534279E+01 0.39777591523E+01 0.36421516147E+01 0.33367439363E+01 0.30694092574E+01
 0.28430401755E+01 0.26562965512E+01 0.25049485486E+01 0.23834625368E+01 0.22864702905E+01
 0.22098507690E+01 0.21512649663E+01 0.21101077283E+01 0.20869878492E+01 0.20829780177E+01
 0.20989163929E+01 0.21349767258E+01 0.21906159629E+01 0.22649129480E+01 0.23572193576E+01
 0.24679309440E+01 0.25990921285E+01 0.27545440496E+01 0.29394307942E+01 0.31590297296E+01
 0.34170192082E+01 0.37134567238E+01 0.40429273063E+01 0.43934539075E+01 0.47466953373E+01
 0.42666626062E+01 0.44790544565E+01 0.46483840321E+01 0.47596813786E+01 0.48024490890E+01
 0.47723111459E+01 0.46715944696E+01 0.45087767939E+01 0.42970209494E+01 0.40521949477E+01
 0.37908043774E+01 0.35281702936E+01 0.32770504013E+01 0.30467921526E+01 0.28430401755E+01
 0.26679689976E+01 0.25209482244E+01 0.23994816188E+01 0.23002280449E+01 0.22199251949E+01
 0.21560767612E+01 0.21073099819E+01 0.20733706014E+01 0.20548079642E+01 0.20524896283E+01
 0.20671215777E+01 0.20989163929E+01 0.21474832459E+01 0.22119563741E+01 0.22913355296E+01
 0.23849562875E+01 0.24929423354E+01 0.26164602810E+01 0.27576331474E+01 0.29190512598E+01
 0.31029046203E+01 0.33098377208E+01 0.35377174775E+01 0.37806063944E+01 0.40282912111E+01
 0.36980659271E+01 0.38417158389E+01 0.39581958255E+01 0.40370253395E+01 0.40700087529E+01
 0.40527259075E+01 0.39853801578E+01 0.38727911639E+01 0.37235655566E+01 0.35486934836E+01
 0.33599305961E+01 0.31683149397E+01 0.29830667889E+01 0.28109809466E+01 0.26562965512E+01
 0.25209482244E+01 0.24050676140E+01 0.23076032576E+01 0.22269441477E+01 0.21614575201E+01
 0.21098775354E+01 0.20715072738E+01 0.20462264319E+01 0.20343348569E+01 0.20362993506E+01
 0.20524896283E+01 0.20829780177E+01 0.21274460156E+01 0.21852092566E+01 0.22553499226E+01
 0.23369257603E+01 0.24292021233E+01 0.25318356149E+01 0.26449370305E+01 0.27689583358E+01
 0.29043749718E+01 0.30511682892E+01 0.32081613967E+01 0.33723288621E+01 0.35382695308E+01
 0.33277987315E+01 0.34170161897E+01 0.34878489232E+01 0.35339508266E+01 0.35500165395E+01
 0.35328385007E+01 0.34820419425E+01 0.34002819581E+01 0.32928525167E+01 0.31668314665E+01
 0.30300023740E+01 0.28898209164E+01 0.27526363444E+01 0.26232710356E+01 0.25049485486E+01
 0.23994816188E+01 0.23076032576E+01 0.22293375265E+01 0.21643379869E+01 0.21121516880E+01
 0.20723894072E+01 0.20448019721E+01 0.20292789097E+01 0.20257954672E+01 0.20343348569E+01
 0.20548079642E+01 0.20869878492E+01 0.21304714315E+01 0.21846726808E+01 0.22488415346E+01
 0.23220976604E+01 0.24034725684E+01 0.24919610203E+01 0.25865801072E+01 0.26864163718E+01
 0.27906186245E+01 0.28982864215E+01 0.30082254792E+01 0.31185912098E+01 0.32265066769E+01
 0.31045522335E+01 0.31534718375E+01 0.31883127854E+01 0.32058106049E+01 0.32031831269E+01
 0.31787661032E+01 0.31325004639E+01 0.30661134712E+01 0.29829365976E+01 0.28874195208E+01
 0.27844862294E+01 0.26789075905E+01 0.25748326654E+01 0.24755490573E+01 0.23834625368E+01
 0.23002280449E+01 0.22269441477E+01 0.21643379869E+01 0.21128997101E+01 0.20729551370E+01
 0.20446851636E+01 0.20281128043E+01 0.20230857143E+01 0.20292789097E+01 0.20462264319E+01
 0.20733706014E+01 0.21101077283E+01 0.21558138763E+01 0.22098434860E+01 0.22714980594E+01
 0.23399663335E+01 0.24142512667E+01 0.24931184845E+01 0.25751053831E+01 0.26586052076E+01
 0.27419959207E+01 0.28237476419E+01 0.29024386251E+01 0.29766432697E+01 0.30447151571E+01
 0.29873945493E+01 0.30064007215E+01 0.30133034304E+01 0.30068571805E+01 0.29861105431E+01
 0.29507489973E+01 0.29013535625E+01 0.28394798673E+01 0.27675281537E+01 0.26884469525E+01
 0.26053642590E+01 0.25212526619E+01 0.24387081205E+01 0.23598714733E+01 0.22864702905E+01
 0.22199251949E+01 0.21614575201E+01 0.21121516880E+01 0.20729551370E+01 0.20446267136E+01
 0.20276611853E+01 0.20222222114E+01 0.20281128043E+01 0.20448019721E+01 0.20715072738E+01
 0.21073099819E+01 0.21512649663E+01 0.22024703398E+01 0.22600779089E+01 0.23232431234E+01
 0.23910283808E+01 0.24622901142E+01 0.25355962061E+01 0.26092219352E+01 0.26812475387E+01
 0.27497351188E+01 0.28129210267E+01 0.28693454032E+01 0.29178621180E+01 0.29575233244E+01
 0.29511436289E+01 0.29456688902E+01 0.29292222603E+01 0.29018092034E+01 0.28636445952E+01
 0.28153537633E+01 0.27580977703E+01 0.26935652120E+01 0.26238301138E+01 0.25511266307E+01
 0.24776178843E+01 0.24052303430E+01 0.23355916411E+01 0.22700662988E+01 0.22098507690E+01
 0.21560767612E+01 0.21098775354E+01 0.20723894072E+01 0.20446851636E+01 0.20276611853E+01
 0.20219162952E+01 0.20276611853E+01 0.20446851636E+01 0.20723894072E+01 0.21098775354E+01
 0.21560767612E+01 0.22098507690E+01 0.22700662988E+01 0.23355916411E+01 0.24052303430E+01
 0.24776178843E+01 0.25511266307E+01 0.26238301138E+01 0.26935652120E+01 0.27580977703E+01
 0.28153537633E+01 0.28636445952E+01 0.29018092034E+01 0.29292222603E+01 0.29456688902E+01
 0.29873945493E+01 0.29575233244E+01 0.29178621180E+01 0.28693454032E+01 0.28129210267E+01
 0.27497351188E+01 0.26812475387E+01 0.26092219352E+01 0.25355962061E+01 0.24622901142E+01
 0.23910283808E+01 0.23232431234E+01 0.22600779089E+01 0.22024703398E+01 0.21512649663E+01
 0.21073099819E+01 0.20715072738E+01 0.20448019721E+01 0.20281128043E+01 0.20222222114E+01
 0.20276611853E+01 0.20446267136E+01 0.20729551370E+01 0.21121516880E+01 0.21614575201E+01
 0.22199251949E+01 0.22864702905E+01 0.23598714733E+01 0.24387081205E+01 0.25212526619E+01
 0.26053642590E+01 0.26884469525E+01 0.27675281537E+01 0.28394798673E+01 0.29013535625E+01
 0.29507489973E+01 0.29861105431E+01 0.30068571805E+01 0.30133034304E+01 0.30064007215E+01
 0.31045522335E+01 0.30447151571E+01 0.29766432697E+01 0.29024386251E+01 0.28237476419E+01
 0.27419959207E+01 0.26586052076E+01 0.25751053831E+01 0.24931184845E+01 0.24142512667E+01
 0.23399663335E+01 0.22714980594E+01 0.22098434860E+01 0.21558138763E+01 0.21101077283E+01
 0.20733706014E+01 0.20462264319E+01 0.20292789097E+01 0.20230857143E+01 0.20281128043E+01
 0.20446851636E+01 0.20729551370E+01 0.21128997101E+01 0.21643379869E+01 0.22269441477E+01
 0.23002280449E+01 0.23834625368E+01 0.24755490573E+01 0.25748326654E+01 0.26789075905E+01
 0.27844862294E+01 0.28874195208E+01 0.29829365976E+01 0.30661134712E+01 0.31325004639E+01
 0.31787661032E+01 0.32031831269E+01 0.32058106049E+01 0.31883127854E+01 0.31534718375E+01
 0.33277987315E+01 0.32265066769E+01 0.31185912098E+01 0.30082254792E+01 0.28982864215E+01
 0.27906186245E+01 0.26864163718E+01 0.25865801072E+01 0.24919610203E+01 0.24034725684E+01
 0.23220976604E+01 0.22488415346E+01 0.21846726808E+01 0.21304714315E+01 0.20869878492E+01
 0.20548079642E+01 0.20343348569E+01 0.20257954672E+01 0.20292789097E+01 0.20448019721E+01
 0.20723894072E+01 0.21121516880E+01 0.21643379869E+01 0.22293375265E+01 0.23076032576E+01
 0.23994816188E+01 0.25049485486E+01 0.26232710356E+01 0.27526363444E+01 0.28898209164E+01
 0.30300023740E+01 0.31668314665E+01 0.32928525167E+01 0.34002819581E+01 0.34820419425E+01
 0.35328385007E+01 0.35500165395E+01 0.35339508266E+01 0.34878489232E+01 0.34170161897E+01
 0.36980659271E+01 0.35382695308E+01 0.33723288621E+01 0.32081613967E+01 0.30511682892E+01
 0.29043749718E+01 0.27689583358E+01 0.26449370305E+01 0.25318356149E+01 0.24292021233E+01
 0.23369257603E+01 0.22553499226E+01 0.21852092566E+01 0.21274460156E+01 0.20829780177E+01
 0.20524896283E+01 0.20362993506E+01 0.20343348569E+01 0.20462264319E+01 0.20715072738E+01
 0.21098775354E+01 0.21614575201E+01 0.22269441477E+01 0.23076032576E+01 0.24050676140E+01
 0.25209482244E+01 0.26562965512E+01 0.28109809466E+01 0.29830667889E+01 0.31683149397E+01
 0.33599305961E+01 0.35486934836E+01 0.37235655566E+01 0.38727911639E+01 0.39853801578E+01
 0.40527259075E+01 0.40700087529E+01 0.40370253395E+01 0.39581958255E+01 0.38417158389E+01
 0.42666626062E+01 0.40282912111E+01 0.37806063944E+01 0.35377174775E+01 0.33098377208E+01
 0.31029046203E+01 0.29190512598E+01 0.27576331474E+01 0.26164602810E+01 0.24929423354E+01
 0.23849562875E+01 0.22913355296E+01 0.22119563741E+01 0.21474832459E+01 0.20989163929E+01
 0.20671215777E+01 0.20524896283E+01 0.20548079642E+01 0.20733706014E+01 0.21073099819E+01
 0.21560767612E+01 0.22199251949E+01 0.23002280449E+01 0.23994816188E+01 0.25209482244E+01
 0.26679689976E+01 0.28430401755E+01 0.30467921526E+01 0.32770504013E+01 0.35281702936E+01
 0.37908043774E+01 0.40521949477E+01 0.42970209494E+01 0.45087767939E+01 0.46715944696E+01
 0.47723111459E+01 0.48024490890E+01 0.47596813786E+01 0.46483840321E+01 0.44790544565E+01
 0.50796354830E+01 0.47466953373E+01 0.43934539075E+01 0.40429273063E+01 0.37134567238E+01
 0.34170192082E+01 0.31590297296E+01 0.29394307942E+01 0.27545440496E+01 0.25990921285E+01
 0.24679309440E+01 0.23572193576E+01 0.22649129480E+01 0.21906159629E+01 0.21349767258E+01
 0.20989163929E+01 0.20829780177E+01 0.20869878492E+01 0.21101077283E+01 0.21512649663E+01
 0.22098507690E+01 0.22864702905E+01 0.23834625368E+01 0.25049485486E+01 0.26562965512E+01
 0.28430401755E+01 0.30694092574E+01 0.33367439363E+01 0.36421516147E+01 0.39777591523E+01
 0.43307534279E+01 0.46841586381E+01 0.50181302580E+01 0.53115570243E+01 0.55439465664E+01
 0.56976281490E+01 0.57586795484E+01 0.57210837493E+01 0.55873016234E+01 0.53675064593E+01
 0.61545855406E+01 0.57205294929E+01 0.52501198561E+01 0.47688663491E+01 0.43067327070E+01
 0.38863044595E+01 0.35206405083E+01 0.32134721173E+01 0.29613034622E+01 0.27564524405E+01
 0.25900531667E+01 0.24543521416E+01 0.23439943781E+01 0.22562825979E+01 0.21906159629E+01
 0.21474832459E+01 0.21274460156E+01 0.21304714315E+01 0.21558138763E+01 0.22024703398E+01
 0.22700662988E+01 0.23598714733E+01 0.24755490573E+01 0.26232710356E+01 0.28109809466E+01
 0.30467921526E+01 0.33367439363E+01 0.36824025544E+01 0.40790099490E+01 0.45148500022E+01
 0.49720888499E+01 0.54306012858E+01 0.58905295129E+01 0.63408700311E+01 0.67374894549E+01
 0.70227000418E+01 0.71485568077E+01 0.70959099277E+01 0.68817910549E+01 0.65511085716E+01
 0.79231491325E+01 0.71088738955E+01 0.63772923465E+01 0.57352990519E+01 0.51238904204E+01
 0.45501294929E+01 0.40411100869E+01 0.36104636483E+01 0.32592878014E+01 0.29797440539E+01
 0.27596347169E+01 0.25864579322E+01 0.24501029995E+01 0.23439943781E+01 0.22649129480E+01
 0.22119563741E+01 0.21852092566E+01 0.21846726808E+01 0.22098434860E+01 0.22600779089E+01
 0.23355916411E+01 0.24387081205E+01 0.25748326654E+01 0.27526363444E+01 0.29830667889E+01
 0.32770504013E+01 0.36421516147E+01 0.40790099490E+01 0.45788511145E+01 0.51233164878E+01
 0.57134740536E+01 0.64103764284E+01 0.72235812468E+01 0.80930289128E+01 0.89070200314E+01
 0.95324459792E+01 0.98531001085E+01 0.98061524293E+01 0.94040842189E+01 0.87325730704E+01
 0.11547265493E+02 0.98907285503E+01 0.83640048189E+01 0.71187328864E+01 0.61779463975E+01
 0.54286384696E+01 0.47520446800E+01 0.41634149309E+01 0.36767626987E+01 0.32899384148E+01
 0.29902967981E+01 0.27610814825E+01 0.25864579322E+01 0.24543521416E+01 0.23572193576E+01
 0.22913355296E+01 0.22553499226E+01 0.22488415346E+01 0.22714980594E+01 0.23232431234E+01
 0.24052303430E+01 0.25212526619E+01 0.26789075905E+01 0.28898209164E+01 0.31683149397E+01
 0.35281702936E+01 0.39777591523E+01 0.45148500022E+01 0.51233164878E+01 0.58194582442E+01
 0.67390909536E+01 0.79600560605E+01 0.94554199442E+01 0.11099405843E+02 0.12688549208E+02
 0.13981293149E+02 0.14753564843E+02 0.14858202402E+02 0.14269296174E+02 0.13094295814E+02
 0.18113534001E+02 0.15215932816E+02 0.12345667474E+02 0.98486857790E+01 0.79234515353E+01
 0.65834377651E+01 0.56598311787E+01 0.48956802903E+01 0.42416680207E+01 0.37119747292E+01
 0.33007261033E+01 0.29902967981E+01 0.27596347169E+01 0.25900531667E+01 0.24679309440E+01
 0.23849562875E+01 0.23369257603E+01 0.23220976604E+01 0.23399663335E+01 0.23910283808E+01
 0.24776178843E+01 0.26053642590E+01 0.27844862294E+01 0.30300023740E+01 0.33599305961E+01
 0.37908043774E+01 0.43307534279E+01 0.49720888499E+01 0.57134740536E+01 0.67390909536E+01
 0.82480227236E+01 0.10309911795E+02 0.12855526807E+02 0.15681681564E+02 0.18473348577E+02
 0.20850691707E+02 0.22442314822E+02 0.22971735416E+02 0.22331538419E+02 0.20618282609E+02
 0.28355644147E+02 0.23950334374E+02 0.19289431067E+02 0.14943096178E+02 0.11333619451E+02
 0.86672619475E+01 0.69096560612E+01 0.58049527265E+01 0.49700906765E+01 0.42685766166E+01
 0.37119747292E+01 0.32899384148E+01 0.29797440539E+01 0.27564524405E+01 0.25990921285E+01
 0.24929423354E+01 0.24292021233E+01 0.24034725684E+01 0.24142512667E+01 0.24622901142E+01
 0.25511266307E+01 0.26884469525E+01 0.28874195208E+01 0.31668314665E+01 0.35486934836E+01
 0.40521949477E+01 0.46841586381E+01 0.54306012858E+01 0.64103764284E+01 0.79600560605E+01
 0.10309911795E+02 0.13522976887E+02 0.17485504719E+02 0.21910247525E+02 0.26357107519E+02
 0.30284389414E+02 0.33138164477E+02 0.34468183443E+02 0.34038443866E+02 0.31893635268E+02
 0.42553804274E+02 0.36532847897E+02 0.29790165219E+02 0.23132426376E+02 0.17232465325E+02
 0.12532676198E+02 0.91949101874E+01 0.70939925487E+01 0.58550864554E+01 0.49700906765E+01
 0.42416680207E+01 0.36767626987E+01 0.32592878014E+01 0.29613034622E+01 0.27545440496E+01
 0.26164602810E+01 0.25318356149E+01 0.24919610203E+01 0.24931184845E+01 0.25355962061E+01
 0.26238301138E+01 0.27675281537E+01 0.29829365976E+01 0.32928525167E+01 0.37235655566E+01
 0.42970209494E+01 0.50181302580E+01 0.58905295129E+01 0.72235812468E+01 0.94554199442E+01
 0.12855526807E+02 0.17485504719E+02 0.23189283779E+02 0.29594854981E+02 0.36131139928E+02
 0.42079105988E+02 0.46673627882E+02 0.49249267233E+02 0.49393094899E+02 0.47052066139E+02
 0.60530203337E+02 0.52943239104E+02 0.43998443135E+02 0.34742023199E+02 0.26108297020E+02
 0.18796364370E+02 0.13200956678E+02 0.93857076250E+01 0.70939925487E+01 0.58049527265E+01
 0.48956802903E+01 0.41634149309E+01 0.36104636483E+01 0.32134721173E+01 0.29394307942E+01
 0.27576331474E+01 0.26449370305E+01 0.25865801072E+01 0.25751053831E+01 0.26092219352E+01
 0.26935652120E+01 0.28394798673E+01 0.30661134712E+01 0.34002819581E+01 0.38727911639E+01
 0.45087767939E+01 0.53115570243E+01 0.63408700311E+01 0.80930289128E+01 0.11099405843E+02
 0.15681681564E+02 0.21910247525E+02 0.29594854981E+02 0.38285556776E+02 0.47283807967E+02
 0.55688083262E+02 0.62502163163E+02 0.66808464636E+02 0.67967708598E+02 0.65777739804E+02
 0.81666068852E+02 0.72719391121E+02 0.61623677097E+02 0.49665070985E+02 0.38045131422E+02
 0.27726670098E+02 0.19350801671E+02 0.13200956678E+02 0.91949101874E+01 0.69096560612E+01
 0.56598311787E+01 0.47520446800E+01 0.40411100869E+01 0.35206405083E+01 0.31590297296E+01
 0.29190512598E+01 0.27689583358E+01 0.26864163718E+01 0.26586052076E+01 0.26812475387E+01
 0.27580977703E+01 0.29013535625E+01 0.31325004639E+01 0.34820419425E+01 0.39853801578E+01
 0.46715944696E+01 0.55439465664E+01 0.67374894549E+01 0.89070200314E+01 0.12688549208E+02
 0.18473348577E+02 0.26357107519E+02 0.36131139928E+02 0.47283807967E+02 0.59004617295E+02
 0.70218383863E+02 0.79691052253E+02 0.86224119082E+02 0.88902569305E+02 0.87315866915E+02
 0.10488105308E+03 0.94953321435E+02 0.81943181235E+02 0.67371833396E+02 0.52714510968E+02
 0.39203052268E+02 0.27726670098E+02 0.18796364370E+02 0.12532676198E+02 0.86672619475E+01
 0.65834377651E+01 0.54286384696E+01 0.45501294929E+01 0.38863044595E+01 0.34170192082E+01
 0.31029046203E+01 0.29043749718E+01 0.27906186245E+01 0.27419959207E+01 0.27497351188E+01
 0.28153537633E+01 0.29507489973E+01 0.31787661032E+01 0.35328385007E+01 0.40527259075E+01
 0.47723111459E+01 0.56976281490E+01 0.70227000418E+01 0.95324459792E+01 0.13981293149E+02
 0.20850691707E+02 0.30284389414E+02 0.42079105988E+02 0.55688083262E+02 0.70218383863E+02
 0.84448200922E+02 0.96918950144E+02 0.10613885482E+03 0.11087440528E+03 0.11044109849E+03
 0.12858935472E+03 0.11825156530E+03 0.10377941277E+03 0.86905877093E+02 0.69381203870E+02
 0.52714510968E+02 0.38045131422E+02 0.26108297020E+02 0.17232465325E+02 0.11333619451E+02
 0.79234515353E+01 0.61779463975E+01 0.51238904204E+01 0.43067327070E+01 0.37134567238E+01
 0.33098377208E+01 0.30511682892E+01 0.28982864215E+01 0.28237476419E+01 0.28129210267E+01
 0.28636445952E+01 0.29861105431E+01 0.32031831269E+01 0.35500165395E+01 0.40700087529E+01
 0.48024490890E+01 0.57586795484E+01 0.71485568077E+01 0.98531001085E+01 0.14753564843E+02
 0.22442314822E+02 0.33138164477E+02 0.46673627882E+02 0.62502163163E+02 0.79691052253E+02
 0.96918950144E+02 0.11254260024E+03 0.12479239609E+03 0.13209370668E+03 0.13342675070E+03
 0.15072305499E+03 0.14072652016E+03 0.12548060306E+03 0.10687198779E+03 0.86905877093E+02
 0.67371833396E+02 0.49665070985E+02 0.34742023199E+02 0.23132426376E+02 0.14943096178E+02
 0.98486857790E+01 0.71187328864E+01 0.57352990519E+01 0.47688663491E+01 0.40429273063E+01
 0.35377174775E+01 0.32081613967E+01 0.30082254792E+01 0.29024386251E+01 0.28693454032E+01
 0.29018092034E+01 0.30068571805E+01 0.32058106049E+01 0.35339508266E+01 0.40370253395E+01
 0.47596813786E+01 0.57210837493E+01 0.70959099277E+01 0.98061524293E+01 0.14858202402E+02
 0.22971735416E+02 0.34468183443E+02 0.49249267233E+02 0.66808464636E+02 0.86224119082E+02
 0.10613885482E+03 0.12479239609E+03 0.14018949346E+03 0.15042827451E+03 0.15411601439E+03
 0.16892650738E+03 0.16012460964E+03 0.14499609667E+03 0.12548060306E+03 0.10377941277E+03
 0.81943181235E+02 0.61623677097E+02 0.43998443135E+02 0.29790165219E+02 0.19289431067E+02
 0.12345667474E+02 0.83640048189E+01 0.63772923465E+01 0.52501198561E+01 0.43934539075E+01
 0.37806063944E+01 0.33723288621E+01 0.31185912098E+01 0.29766432697E+01 0.29178621180E+01
 0.29292222603E+01 0.30133034304E+01 0.31883127854E+01 0.34878489232E+01 0.39581958255E+01
 0.46483840321E+01 0.55873016234E+01 0.68817910549E+01 0.94040842189E+01 0.14269296174E+02
 0.22331538419E+02 0.34038443866E+02 0.49393094899E+02 0.67967708598E+02 0.88902569305E+02
 0.11087440528E+03 0.13209370668E+03 0.15042827451E+03 0.16371026107E+03 0.17018105161E+03
 0.18095151193E+03 0.17415251484E+03 0.16012460964E+03 0.14072652016E+03 0.11825156530E+03
 0.94953321435E+02 0.72719391121E+02 0.52943239104E+02 0.36532847897E+02 0.23950334374E+02
 0.15215932816E+02 0.98907285503E+01 0.71088738955E+01 0.57205294929E+01 0.47466953373E+01
 0.40282912111E+01 0.35382695308E+01 0.32265066769E+01 0.30447151571E+01 0.29575233244E+01
 0.29456688902E+01 0.30064007215E+01 0.31534718375E+01 0.34170161897E+01 0.38417158389E+01
 0.44790544565E+01 0.53675064593E+01 0.65511085716E+01 0.87325730704E+01 0.13094295814E+02
 0.20618282609E+02 0.31893635268E+02 0.47052066139E+02 0.65777739804E+02 0.87315866915E+02
 0.11044109849E+03 0.13342675070E+03 0.15411601439E+03 0.17018105161E+03 0.17956107121E+03
 0.18095151193E+03 0.17956107121E+03 0.17018105161E+03 0.15411601439E+03 0.13342675070E+03
 0.11044109849E+03 0.87315866915E+02 0.65777739804E+02 0.47052066139E+02 0.31893635268E+02
 0.20618282609E+02 0.13094295814E+02 0.87325730704E+01 0.65511085716E+01 0.53675064593E+01
 0.44790544565E+01 0.38417158389E+01 0.34170161897E+01 0.31534718375E+01 0.30064007215E+01
 0.29456688902E+01 0.29575233244E+01 0.30447151571E+01 0.32265066769E+01 0.35382695308E+01
 0.40282912111E+01 0.47466953373E+01 0.57205294929E+01 0.71088738955E+01 0.98907285503E+01