   1   1   1   0
  0.2143750E+02  0.3031089E-09  0.3031089E-09  0.3031089E-09  0.5000000E-15
  1.000000000000000E-004
  CAR 
 Fe FCC                                  
     30.57552936     -5.96401198  301      1.63769562      1.00000000
     -5.964  0.0000E+00  0.0000E+00  0.0000E+00  0.0000E+00
     -5.842  0.0000E+00  0.0000E+00  0.0000E+00  0.0000E+00
     -5.720  0.0000E+00  0.0000E+00  0.0000E+00  0.0000E+00
     -5.599  0.0000E+00  0.0000E+00  0.0000E+00  0.0000E+00
     -5.477  0.0000E+00  0.0000E+00  0.0000E+00  0.0000E+00
     -5.355  0.0000E+00  0.0000E+00  0.0000E+00  0.0000E+00
     -5.233  0.0000E+00  0.0000E+00  0.0000E+00  0.0000E+00
     -5.111  0.0000E+00  0.0000E+00  0.0000E+00  0.0000E+00
     -4.990  0.0000E+00  0.0000E+00  0.0000E+00  0.0000E+00
     -4.868  0.0000E+00  0.0000E+00  0.0000E+00  0.0000E+00
     -4.746  0.0000E+00  0.0000E+00  0.0000E+00  0.0000E+00
     -4.624  0.0000E+00  0.0000E+00  0.0000E+00  0.0000E+00
     -4.502  0.0000E+00  0.0000E+00  0.0000E+00  0.0000E+00
     -4.381  0.0000E+00  0.0000E+00  0.0000E+00  0.0000E+00
     -4.259  0.0000E+00  0.0000E+00  0.0000E+00  0.0000E+00
     -4.137  0.0000E+00  0.0000E+00  0.0000E+00  0.0000E+00
     -4.015  0.0000E+00  0.0000E+00  0.0000E+00  0.0000E+00
     -3.893  0.2196E-01  0.1854E-01  0.1960E-02  0.1306E-02
     -3.772  0.3226E-01  0.2888E-01  0.5283E-02  0.4215E-02
     -3.650  0.4049E-01  0.3712E-01  0.9735E-02  0.8256E-02
     -3.528  0.4974E-01  0.4369E-01  0.1513E-01  0.1317E-01
     -3.406  0.6175E-01  0.5528E-01  0.2195E-01  0.1924E-01
     -3.284  0.7060E-01  0.6353E-01  0.3004E-01  0.2650E-01
     -3.163  0.7218E-01  0.6843E-01  0.3887E-01  0.3457E-01
     -3.041  0.8100E-01  0.6735E-01  0.4819E-01  0.4257E-01
     -2.919  0.9078E-01  0.7296E-01  0.5864E-01  0.5111E-01
     -2.797  0.1015E+00  0.7886E-01  0.7034E-01  0.6036E-01
     -2.675  0.1132E+00  0.8506E-01  0.8341E-01  0.7034E-01
     -2.554  0.1258E+00  0.9155E-01  0.9796E-01  0.8109E-01
     -2.432  0.1487E+00  0.9833E-01  0.1144E+00  0.9265E-01
     -2.310  0.1812E+00  0.1029E+00  0.1345E+00  0.1049E+00
     -2.188  0.2190E+00  0.1092E+00  0.1588E+00  0.1178E+00
     -2.066  0.2787E+00  0.1147E+00  0.1887E+00  0.1314E+00
     -1.945  0.3813E+00  0.1189E+00  0.2285E+00  0.1457E+00
     -1.823  0.5211E+00  0.1235E+00  0.2831E+00  0.1604E+00
     -1.701  0.1124E+01  0.1292E+00  0.4007E+00  0.1758E+00
     -1.579  0.2281E+01  0.1367E+00  0.6111E+00  0.1920E+00
     -1.457  0.2197E+01  0.1449E+00  0.9158E+00  0.2091E+00
     -1.336  0.7824E+00  0.1538E+00  0.1079E+01  0.2273E+00
     -1.214  0.5151E+01  0.1633E+00  0.1465E+01  0.2466E+00
     -1.092  0.1627E+01  0.1736E+00  0.1872E+01  0.2671E+00
     -0.970  0.3429E+01  0.1848E+00  0.2128E+01  0.2889E+00
     -0.848  0.2616E+01  0.1980E+00  0.2600E+01  0.3122E+00
     -0.727  0.1666E+01  0.2164E+00  0.2838E+01  0.3374E+00
     -0.605  0.3734E+01  0.2402E+00  0.3132E+01  0.3651E+00
     -0.483  0.8577E+01  0.2673E+00  0.3914E+01  0.3960E+00
     -0.361  0.2706E+01  0.3012E+00  0.4450E+01  0.4305E+00
     -0.239  0.2139E+01  0.3464E+00  0.4759E+01  0.4698E+00
     -0.118  0.3221E+01  0.3995E+00  0.5031E+01  0.5167E+00
      0.004  0.1923E+00  0.4150E+00  0.5176E+01  0.5664E+00
      0.126  0.1922E+00  0.4275E+00  0.5200E+01  0.6176E+00
      0.248  0.1930E+00  0.4581E+00  0.5223E+01  0.6711E+00
      0.370  0.1873E+00  0.5209E+00  0.5247E+01  0.7366E+00
      0.491  0.1887E+00  0.5073E+00  0.5269E+01  0.7994E+00
      0.613  0.1903E+00  0.4740E+00  0.5293E+01  0.8594E+00
      0.735  0.1774E+00  0.6981E+00  0.5315E+01  0.9143E+00
      0.857  0.1750E+00  0.5282E+00  0.5336E+01  0.9898E+00
      0.979  0.1734E+00  0.2551E+00  0.5357E+01  0.1025E+01
      1.100  0.1741E+00  0.9676E+00  0.5378E+01  0.1081E+01
      1.222  0.1780E+00  0.2339E+01  0.5400E+01  0.1329E+01
      1.344  0.1844E+00  0.4192E+01  0.5422E+01  0.1697E+01
      1.466  0.1968E+00  0.2443E+01  0.5445E+01  0.2038E+01
      1.587  0.2006E+00  0.3041E+01  0.5469E+01  0.2369E+01
      1.709  0.2037E+00  0.1949E+01  0.5494E+01  0.2687E+01
      1.831  0.2060E+00  0.4616E+00  0.5519E+01  0.2869E+01
      1.953  0.2073E+00  0.3178E+00  0.5544E+01  0.2910E+01
      2.075  0.2078E+00  0.3285E+00  0.5569E+01  0.2949E+01
      2.196  0.2082E+00  0.5127E+00  0.5594E+01  0.2997E+01
      2.318  0.2102E+00  0.1032E+01  0.5620E+01  0.3100E+01
      2.440  0.2145E+00  0.1908E+01  0.5646E+01  0.3285E+01
      2.562  0.2502E+00  0.3159E+01  0.5673E+01  0.3556E+01
      2.684  0.2112E+00  0.3310E+01  0.5701E+01  0.3986E+01
      2.805  0.1977E+00  0.2812E+01  0.5726E+01  0.4321E+01
      2.927  0.1849E+00  0.3943E+01  0.5749E+01  0.5007E+01
      3.049  0.1729E+00  0.8713E+00  0.5771E+01  0.5244E+01
      3.171  0.1628E+00  0.6251E+00  0.5792E+01  0.5333E+01
      3.293  0.1518E+00  0.4551E+00  0.5811E+01  0.5397E+01
      3.414  0.1396E+00  0.4335E+00  0.5828E+01  0.5451E+01
      3.536  0.1311E+00  0.4135E+00  0.5845E+01  0.5502E+01
      3.658  0.1229E+00  0.3919E+00  0.5860E+01  0.5552E+01
      3.780  0.1148E+00  0.3698E+00  0.5875E+01  0.5598E+01
      3.902  0.1068E+00  0.3446E+00  0.5888E+01  0.5641E+01
      4.023  0.1064E+00  0.3142E+00  0.5902E+01  0.5681E+01
      4.145  0.9850E-01  0.2747E+00  0.5914E+01  0.5720E+01
      4.267  0.9763E-01  0.2526E+00  0.5926E+01  0.5752E+01
      4.389  0.1023E+00  0.2326E+00  0.5938E+01  0.5782E+01
      4.511  0.1078E+00  0.2148E+00  0.5951E+01  0.5809E+01
      4.632  0.1083E+00  0.1962E+00  0.5964E+01  0.5834E+01
      4.754  0.1232E+00  0.1791E+00  0.5978E+01  0.5857E+01
      4.876  0.1413E+00  0.1696E+00  0.5996E+01  0.5878E+01
      4.998  0.1546E+00  0.1518E+00  0.6014E+01  0.5898E+01
      5.120  0.2166E+00  0.1333E+00  0.6035E+01  0.5915E+01
      5.241  0.2251E+00  0.1143E+00  0.6062E+01  0.5930E+01
      5.363  0.2482E+00  0.8316E-01  0.6091E+01  0.5943E+01
      5.485  0.2682E+00  0.7501E-01  0.6122E+01  0.5953E+01
      5.607  0.2848E+00  0.6744E-01  0.6156E+01  0.5961E+01
      5.729  0.2980E+00  0.6753E-01  0.6191E+01  0.5970E+01
      5.850  0.2725E+00  0.8696E-01  0.6226E+01  0.5980E+01
      5.972  0.2661E+00  0.1180E+00  0.6259E+01  0.5992E+01
      6.094  0.2635E+00  0.1643E+00  0.6292E+01  0.6009E+01
      6.216  0.2521E+00  0.2750E+00  0.6323E+01  0.6039E+01
      6.338  0.2381E+00  0.3122E+00  0.6353E+01  0.6076E+01
      6.459  0.2153E+00  0.3433E+00  0.6381E+01  0.6116E+01
      6.581  0.2216E+00  0.3604E+00  0.6407E+01  0.6159E+01
      6.703  0.2300E+00  0.3355E+00  0.6435E+01  0.6203E+01
      6.825  0.2368E+00  0.3223E+00  0.6463E+01  0.6243E+01
      6.947  0.2420E+00  0.3063E+00  0.6492E+01  0.6282E+01
      7.068  0.2443E+00  0.2947E+00  0.6522E+01  0.6318E+01
      7.190  0.2406E+00  0.2875E+00  0.6552E+01  0.6354E+01
      7.312  0.2376E+00  0.2828E+00  0.6581E+01  0.6388E+01
      7.434  0.2379E+00  0.2861E+00  0.6610E+01  0.6422E+01
      7.556  0.2393E+00  0.2885E+00  0.6639E+01  0.6457E+01
      7.677  0.2418E+00  0.2905E+00  0.6668E+01  0.6493E+01
      7.799  0.2452E+00  0.2794E+00  0.6698E+01  0.6528E+01
      7.921  0.2541E+00  0.2708E+00  0.6731E+01  0.6561E+01
      8.043  0.2588E+00  0.2645E+00  0.6763E+01  0.6594E+01
      8.165  0.2633E+00  0.2525E+00  0.6794E+01  0.6627E+01
      8.286  0.2817E+00  0.2566E+00  0.6828E+01  0.6658E+01
      8.408  0.2851E+00  0.2615E+00  0.6863E+01  0.6689E+01
      8.530  0.2908E+00  0.2784E+00  0.6898E+01  0.6724E+01
      8.652  0.2961E+00  0.2827E+00  0.6934E+01  0.6758E+01
      8.774  0.2854E+00  0.2867E+00  0.6971E+01  0.6793E+01
      8.895  0.2822E+00  0.3041E+00  0.7005E+01  0.6830E+01
      9.017  0.2619E+00  0.3070E+00  0.7039E+01  0.6867E+01
      9.139  0.2584E+00  0.3159E+00  0.7071E+01  0.6905E+01
      9.261  0.2550E+00  0.3252E+00  0.7102E+01  0.6944E+01
      9.383  0.2528E+00  0.2791E+00  0.7133E+01  0.6982E+01
      9.504  0.2498E+00  0.2749E+00  0.7163E+01  0.7016E+01
      9.626  0.2528E+00  0.2707E+00  0.7194E+01  0.7049E+01
      9.748  0.2445E+00  0.2666E+00  0.7224E+01  0.7082E+01
      9.870  0.2368E+00  0.2627E+00  0.7254E+01  0.7114E+01
      9.992  0.2352E+00  0.2589E+00  0.7282E+01  0.7146E+01
     10.113  0.2340E+00  0.2566E+00  0.7311E+01  0.7177E+01
     10.235  0.2315E+00  0.2601E+00  0.7339E+01  0.7209E+01
     10.357  0.2290E+00  0.2463E+00  0.7367E+01  0.7240E+01
     10.479  0.2270E+00  0.2428E+00  0.7395E+01  0.7270E+01
     10.601  0.2249E+00  0.2416E+00  0.7423E+01  0.7299E+01
     10.722  0.2228E+00  0.2391E+00  0.7450E+01  0.7328E+01
     10.844  0.2206E+00  0.2360E+00  0.7477E+01  0.7357E+01
     10.966  0.2191E+00  0.2336E+00  0.7504E+01  0.7386E+01
     11.088  0.2176E+00  0.2313E+00  0.7530E+01  0.7414E+01
     11.210  0.2231E+00  0.2289E+00  0.7558E+01  0.7442E+01
     11.331  0.2237E+00  0.2266E+00  0.7585E+01  0.7470E+01
     11.453  0.2260E+00  0.2253E+00  0.7612E+01  0.7497E+01
     11.575  0.2309E+00  0.2237E+00  0.7640E+01  0.7525E+01
     11.697  0.2471E+00  0.2219E+00  0.7669E+01  0.7552E+01
     11.819  0.2750E+00  0.2193E+00  0.7701E+01  0.7579E+01
     11.940  0.2705E+00  0.2182E+00  0.7734E+01  0.7605E+01
     12.062  0.2703E+00  0.2205E+00  0.7767E+01  0.7632E+01
     12.184  0.2781E+00  0.2530E+00  0.7800E+01  0.7661E+01
     12.306  0.2869E+00  0.2720E+00  0.7834E+01  0.7694E+01
     12.428  0.2957E+00  0.2751E+00  0.7870E+01  0.7727E+01
     12.549  0.3018E+00  0.2890E+00  0.7907E+01  0.7762E+01
     12.671  0.3084E+00  0.2971E+00  0.7944E+01  0.7797E+01
     12.793  0.3178E+00  0.3072E+00  0.7982E+01  0.7834E+01
     12.915  0.3291E+00  0.3204E+00  0.8021E+01  0.7872E+01
     13.037  0.3249E+00  0.3297E+00  0.8062E+01  0.7912E+01
     13.158  0.3368E+00  0.3428E+00  0.8102E+01  0.7953E+01
     13.280  0.3490E+00  0.3590E+00  0.8144E+01  0.7996E+01
     13.402  0.3763E+00  0.3758E+00  0.8189E+01  0.8040E+01
     13.524  0.4009E+00  0.3923E+00  0.8237E+01  0.8087E+01
     13.646  0.4016E+00  0.3893E+00  0.8285E+01  0.8134E+01
     13.767  0.4281E+00  0.4032E+00  0.8336E+01  0.8182E+01
     13.889  0.4463E+00  0.4313E+00  0.8389E+01  0.8234E+01
     14.011  0.4406E+00  0.4515E+00  0.8442E+01  0.8288E+01
     14.133  0.4419E+00  0.4629E+00  0.8496E+01  0.8344E+01
     14.255  0.4417E+00  0.4593E+00  0.8550E+01  0.8400E+01
     14.376  0.4461E+00  0.4458E+00  0.8603E+01  0.8455E+01
     14.498  0.4558E+00  0.4452E+00  0.8659E+01  0.8509E+01
     14.620  0.4475E+00  0.4412E+00  0.8714E+01  0.8563E+01
     14.742  0.4300E+00  0.4415E+00  0.8767E+01  0.8617E+01
     14.864  0.3939E+00  0.4494E+00  0.8818E+01  0.8671E+01
     14.985  0.3353E+00  0.4409E+00  0.8862E+01  0.8726E+01
     15.107  0.2465E+00  0.4177E+00  0.8898E+01  0.8778E+01
     15.229  0.2205E+00  0.3814E+00  0.8926E+01  0.8827E+01
     15.351  0.2149E+00  0.3256E+00  0.8952E+01  0.8870E+01
     15.473  0.2103E+00  0.2404E+00  0.8978E+01  0.8905E+01
     15.594  0.2067E+00  0.2229E+00  0.9003E+01  0.8933E+01
     15.716  0.2041E+00  0.2186E+00  0.9028E+01  0.8960E+01
     15.838  0.1932E+00  0.2151E+00  0.9053E+01  0.8986E+01
     15.960  0.2321E+00  0.2123E+00  0.9078E+01  0.9012E+01
     16.082  0.1880E+00  0.2103E+00  0.9102E+01  0.9038E+01
     16.203  0.1907E+00  0.2055E+00  0.9125E+01  0.9063E+01
     16.325  0.1948E+00  0.2081E+00  0.9149E+01  0.9088E+01
     16.447  0.1878E+00  0.2057E+00  0.9172E+01  0.9113E+01
     16.569  0.1565E+00  0.1899E+00  0.9193E+01  0.9137E+01
     16.691  0.1585E+00  0.2658E+00  0.9212E+01  0.9166E+01
     16.812  0.1669E+00  0.1658E+00  0.9232E+01  0.9189E+01
     16.934  0.1706E+00  0.1676E+00  0.9252E+01  0.9209E+01
     17.056  0.1741E+00  0.1695E+00  0.9273E+01  0.9229E+01
     17.178  0.1774E+00  0.1718E+00  0.9295E+01  0.9250E+01
     17.299  0.1842E+00  0.1793E+00  0.9316E+01  0.9272E+01
     17.421  0.1923E+00  0.1869E+00  0.9339E+01  0.9294E+01
     17.543  0.2124E+00  0.1970E+00  0.9364E+01  0.9317E+01
     17.665  0.3286E+00  0.2117E+00  0.9392E+01  0.9342E+01
     17.787  0.4268E+00  0.2311E+00  0.9443E+01  0.9369E+01
     17.908  0.3441E+00  0.2501E+00  0.9490E+01  0.9398E+01
     18.030  0.2986E+00  0.4323E+00  0.9528E+01  0.9448E+01
     18.152  0.2806E+00  0.3790E+00  0.9563E+01  0.9498E+01
     18.274  0.2638E+00  0.3205E+00  0.9598E+01  0.9541E+01
     18.396  0.2543E+00  0.2957E+00  0.9630E+01  0.9578E+01
     18.517  0.2450E+00  0.2779E+00  0.9660E+01  0.9613E+01
     18.639  0.2711E+00  0.2623E+00  0.9691E+01  0.9646E+01
     18.761  0.3118E+00  0.2469E+00  0.9726E+01  0.9678E+01
     18.883  0.2975E+00  0.2405E+00  0.9763E+01  0.9707E+01
     19.005  0.3119E+00  0.2333E+00  0.9800E+01  0.9736E+01
     19.126  0.3325E+00  0.2672E+00  0.9839E+01  0.9767E+01
     19.248  0.3641E+00  0.3688E+00  0.9882E+01  0.9808E+01
     19.370  0.4009E+00  0.3574E+00  0.9930E+01  0.9851E+01
     19.492  0.4186E+00  0.3883E+00  0.9980E+01  0.9896E+01
     19.614  0.4351E+00  0.4182E+00  0.1003E+02  0.9949E+01
     19.735  0.4496E+00  0.4299E+00  0.1009E+02  0.1000E+02
     19.857  0.4707E+00  0.4405E+00  0.1014E+02  0.1005E+02
     19.979  0.4755E+00  0.4441E+00  0.1020E+02  0.1011E+02
     20.101  0.4664E+00  0.4490E+00  0.1026E+02  0.1016E+02
     20.223  0.4585E+00  0.4603E+00  0.1031E+02  0.1022E+02
     20.344  0.4444E+00  0.4565E+00  0.1037E+02  0.1027E+02
     20.466  0.5137E+00  0.4438E+00  0.1043E+02  0.1033E+02
     20.588  0.4721E+00  0.4904E+00  0.1049E+02  0.1039E+02
     20.710  0.4186E+00  0.4746E+00  0.1054E+02  0.1045E+02
     20.832  0.3637E+00  0.4503E+00  0.1059E+02  0.1051E+02
     20.953  0.3295E+00  0.4203E+00  0.1063E+02  0.1056E+02
     21.075  0.3352E+00  0.3834E+00  0.1067E+02  0.1061E+02
     21.197  0.3666E+00  0.4330E+00  0.1072E+02  0.1066E+02
     21.319  0.3714E+00  0.3216E+00  0.1076E+02  0.1070E+02
     21.441  0.3555E+00  0.3216E+00  0.1081E+02  0.1074E+02
     21.562  0.3580E+00  0.3308E+00  0.1085E+02  0.1078E+02
     21.684  0.3638E+00  0.3402E+00  0.1089E+02  0.1082E+02
     21.806  0.3725E+00  0.3485E+00  0.1094E+02  0.1086E+02
     21.928  0.3832E+00  0.3571E+00  0.1098E+02  0.1090E+02
     22.050  0.3943E+00  0.3687E+00  0.1103E+02  0.1095E+02
     22.171  0.4007E+00  0.3824E+00  0.1108E+02  0.1099E+02
     22.293  0.4044E+00  0.3982E+00  0.1113E+02  0.1104E+02
     22.415  0.4363E+00  0.4162E+00  0.1118E+02  0.1109E+02
     22.537  0.4369E+00  0.4431E+00  0.1123E+02  0.1114E+02
     22.659  0.4187E+00  0.4633E+00  0.1129E+02  0.1120E+02
     22.780  0.3847E+00  0.4477E+00  0.1133E+02  0.1125E+02
     22.902  0.3104E+00  0.4108E+00  0.1138E+02  0.1131E+02
     23.024  0.2977E+00  0.3492E+00  0.1141E+02  0.1135E+02
     23.146  0.2867E+00  0.3153E+00  0.1145E+02  0.1139E+02
     23.268  0.2776E+00  0.3025E+00  0.1148E+02  0.1143E+02
     23.389  0.2716E+00  0.2941E+00  0.1152E+02  0.1147E+02
     23.511  0.2634E+00  0.2848E+00  0.1155E+02  0.1150E+02
     23.633  0.2560E+00  0.2759E+00  0.1158E+02  0.1154E+02
     23.755  0.2492E+00  0.2674E+00  0.1161E+02  0.1157E+02
     23.877  0.2348E+00  0.2594E+00  0.1164E+02  0.1160E+02
     23.998  0.2258E+00  0.2461E+00  0.1167E+02  0.1163E+02
     24.120  0.2168E+00  0.2369E+00  0.1170E+02  0.1166E+02
     24.242  0.2324E+00  0.2280E+00  0.1172E+02  0.1169E+02
     24.364  0.2296E+00  0.2404E+00  0.1175E+02  0.1172E+02
     24.486  0.1844E+00  0.2451E+00  0.1178E+02  0.1175E+02
     24.607  0.1679E+00  0.2248E+00  0.1180E+02  0.1178E+02
     24.729  0.1540E+00  0.1809E+00  0.1182E+02  0.1180E+02
     24.851  0.1413E+00  0.1645E+00  0.1184E+02  0.1182E+02
     24.973  0.1533E+00  0.1495E+00  0.1186E+02  0.1184E+02
     25.095  0.1269E+00  0.1357E+00  0.1187E+02  0.1186E+02
     25.216  0.1071E+00  0.1477E+00  0.1189E+02  0.1188E+02
     25.338  0.9657E-01  0.1004E+00  0.1190E+02  0.1189E+02
     25.460  0.8822E-01  0.8795E-01  0.1191E+02  0.1191E+02
     25.582  0.9180E-01  0.7767E-01  0.1192E+02  0.1192E+02
     25.704  0.6348E-01  0.6954E-01  0.1193E+02  0.1192E+02
     25.825  0.5782E-01  0.6312E-01  0.1194E+02  0.1193E+02
     25.947  0.5290E-01  0.5794E-01  0.1195E+02  0.1194E+02
     26.069  0.4870E-01  0.5391E-01  0.1195E+02  0.1195E+02
     26.191  0.4545E-01  0.5061E-01  0.1196E+02  0.1195E+02
     26.313  0.4278E-01  0.4737E-01  0.1196E+02  0.1196E+02
     26.434  0.4059E-01  0.4416E-01  0.1197E+02  0.1196E+02
     26.556  0.3887E-01  0.4100E-01  0.1197E+02  0.1197E+02
     26.678  0.2424E-01  0.3788E-01  0.1198E+02  0.1197E+02
     26.800  0.2246E-01  0.3481E-01  0.1198E+02  0.1198E+02
     26.922  0.2073E-01  0.2344E-01  0.1198E+02  0.1198E+02
     27.043  0.1905E-01  0.2125E-01  0.1199E+02  0.1199E+02
     27.165  0.1742E-01  0.1907E-01  0.1199E+02  0.1199E+02
     27.287  0.1584E-01  0.1690E-01  0.1199E+02  0.1199E+02
     27.409  0.1432E-01  0.1473E-01  0.1199E+02  0.1199E+02
     27.531  0.1285E-01  0.5470E-02  0.1199E+02  0.1200E+02
     27.652  0.1143E-01  0.5049E-02  0.1199E+02  0.1200E+02
     27.774  0.4156E-02  0.4643E-02  0.1200E+02  0.1200E+02
     27.896  0.3809E-02  0.4251E-02  0.1200E+02  0.1200E+02
     28.018  0.3476E-02  0.3875E-02  0.1200E+02  0.1200E+02
     28.140  0.3155E-02  0.3513E-02  0.1200E+02  0.1200E+02
     28.261  0.2847E-02  0.3166E-02  0.1200E+02  0.1200E+02
     28.383  0.2552E-02  0.2834E-02  0.1200E+02  0.1200E+02
     28.505  0.2269E-02  0.2517E-02  0.1200E+02  0.1200E+02
     28.627  0.0000E+00  0.0000E+00  0.1200E+02  0.1200E+02
     28.749  0.0000E+00  0.0000E+00  0.1200E+02  0.1200E+02
     28.870  0.0000E+00  0.0000E+00  0.1200E+02  0.1200E+02
     28.992  0.0000E+00  0.0000E+00  0.1200E+02  0.1200E+02
     29.114  0.0000E+00  0.0000E+00  0.1200E+02  0.1200E+02
     29.236  0.0000E+00  0.0000E+00  0.1200E+02  0.1200E+02
     29.358  0.0000E+00  0.0000E+00  0.1200E+02  0.1200E+02
     29.479  0.0000E+00  0.0000E+00  0.1200E+02  0.1200E+02
     29.601  0.0000E+00  0.0000E+00  0.1200E+02  0.1200E+02
     29.723  0.0000E+00  0.0000E+00  0.1200E+02  0.1200E+02
     29.845  0.0000E+00  0.0000E+00  0.1200E+02  0.1200E+02
     29.967  0.0000E+00  0.0000E+00  0.1200E+02  0.1200E+02
     30.088  0.0000E+00  0.0000E+00  0.1200E+02  0.1200E+02
     30.210  0.0000E+00  0.0000E+00  0.1200E+02  0.1200E+02
     30.332  0.0000E+00  0.0000E+00  0.1200E+02  0.1200E+02
     30.454  0.0000E+00  0.0000E+00  0.1200E+02  0.1200E+02
     30.576  0.0000E+00  0.0000E+00  0.1200E+02  0.1200E+02
     30.57552936     -5.96401198  301      1.63769562      1.00000000
     -5.964  0.0000E+00  0.0000E+00  0.0000E+00  0.0000E+00  0.0000E+00  0.0000E+00  0.0000E+00  0.0000E+00  0.0000E+00  0.0000E+00  0.0000E+00  0.0000E+00  0.0000E+00  0.0000E+00  0.0000E+00  0.0000E+00  0.0000E+00  0.0000E+00
     -5.842  0.0000E+00  0.0000E+00  0.0000E+00  0.0000E+00  0.0000E+00  0.0000E+00  0.0000E+00  0.0000E+00  0.0000E+00  0.0000E+00  0.0000E+00  0.0000E+00  0.0000E+00  0.0000E+00  0.0000E+00  0.0000E+00  0.0000E+00  0.0000E+00
     -5.720  0.0000E+00  0.0000E+00  0.0000E+00  0.0000E+00  0.0000E+00  0.0000E+00  0.0000E+00  0.0000E+00  0.0000E+00  0.0000E+00  0.0000E+00  0.0000E+00  0.0000E+00  0.0000E+00  0.0000E+00  0.0000E+00  0.0000E+00  0.0000E+00
     -5.599  0.0000E+00  0.0000E+00  0.0000E+00  0.0000E+00  0.0000E+00  0.0000E+00  0.0000E+00  0.0000E+00  0.0000E+00  0.0000E+00  0.0000E+00  0.0000E+00  0.0000E+00  0.0000E+00  0.0000E+00  0.0000E+00  0.0000E+00  0.0000E+00
     -5.477  0.0000E+00  0.0000E+00  0.0000E+00  0.0000E+00  0.0000E+00  0.0000E+00  0.0000E+00  0.0000E+00  0.0000E+00  0.0000E+00  0.0000E+00  0.0000E+00  0.0000E+00  0.0000E+00  0.0000E+00  0.0000E+00  0.0000E+00  0.0000E+00
     -5.355  0.0000E+00  0.0000E+00  0.0000E+00  0.0000E+00  0.0000E+00  0.0000E+00  0.0000E+00  0.0000E+00  0.0000E+00  0.0000E+00  0.0000E+00  0.0000E+00  0.0000E+00  0.0000E+00  0.0000E+00  0.0000E+00  0.0000E+00  0.0000E+00
     -5.233  0.0000E+00  0.0000E+00  0.0000E+00  0.0000E+00  0.0000E+00  0.0000E+00  0.0000E+00  0.0000E+00  0.0000E+00  0.0000E+00  0.0000E+00  0.0000E+00  0.0000E+00  0.0000E+00  0.0000E+00  0.0000E+00  0.0000E+00  0.0000E+00
     -5.111  0.0000E+00  0.0000E+00  0.0000E+00  0.0000E+00  0.0000E+00  0.0000E+00  0.0000E+00  0.0000E+00  0.0000E+00  0.0000E+00  0.0000E+00  0.0000E+00  0.0000E+00  0.0000E+00  0.0000E+00  0.0000E+00  0.0000E+00  0.0000E+00
     -4.990  0.0000E+00  0.0000E+00  0.0000E+00  0.0000E+00  0.0000E+00  0.0000E+00  0.0000E+00  0.0000E+00  0.0000E+00  0.0000E+00  0.0000E+00  0.0000E+00  0.0000E+00  0.0000E+00  0.0000E+00  0.0000E+00  0.0000E+00  0.0000E+00
     -4.868  0.0000E+00  0.0000E+00  0.0000E+00  0.0000E+00  0.0000E+00  0.0000E+00  0.0000E+00  0.0000E+00  0.0000E+00  0.0000E+00  0.0000E+00  0.0000E+00  0.0000E+00  0.0000E+00  0.0000E+00  0.0000E+00  0.0000E+00  0.0000E+00
     -4.746  0.0000E+00  0.0000E+00  0.0000E+00  0.0000E+00  0.0000E+00  0.0000E+00  0.0000E+00  0.0000E+00  0.0000E+00  0.0000E+00  0.0000E+00  0.0000E+00  0.0000E+00  0.0000E+00  0.0000E+00  0.0000E+00  0.0000E+00  0.0000E+00
     -4.624  0.0000E+00  0.0000E+00  0.0000E+00  0.0000E+00  0.0000E+00  0.0000E+00  0.0000E+00  0.0000E+00  0.0000E+00  0.0000E+00  0.0000E+00  0.0000E+00  0.0000E+00  0.0000E+00  0.0000E+00  0.0000E+00  0.0000E+00  0.0000E+00
     -4.502  0.0000E+00  0.0000E+00  0.0000E+00  0.0000E+00  0.0000E+00  0.0000E+00  0.0000E+00  0.0000E+00  0.0000E+00  0.0000E+00  0.0000E+00  0.0000E+00  0.0000E+00  0.0000E+00  0.0000E+00  0.0000E+00  0.0000E+00  0.0000E+00
     -4.381  0.0000E+00  0.0000E+00  0.0000E+00  0.0000E+00  0.0000E+00  0.0000E+00  0.0000E+00  0.0000E+00  0.0000E+00  0.0000E+00  0.0000E+00  0.0000E+00  0.0000E+00  0.0000E+00  0.0000E+00  0.0000E+00  0.0000E+00  0.0000E+00
     -4.259  0.0000E+00  0.0000E+00  0.0000E+00  0.0000E+00  0.0000E+00  0.0000E+00  0.0000E+00  0.0000E+00  0.0000E+00  0.0000E+00  0.0000E+00  0.0000E+00  0.0000E+00  0.0000E+00  0.0000E+00  0.0000E+00  0.0000E+00  0.0000E+00
     -4.137  0.0000E+00  0.0000E+00  0.0000E+00  0.0000E+00  0.0000E+00  0.0000E+00  0.0000E+00  0.0000E+00  0.0000E+00  0.0000E+00  0.0000E+00  0.0000E+00  0.0000E+00  0.0000E+00  0.0000E+00  0.0000E+00  0.0000E+00  0.0000E+00
     -4.015  0.0000E+00  0.0000E+00  0.0000E+00  0.0000E+00  0.0000E+00  0.0000E+00  0.0000E+00  0.0000E+00  0.0000E+00  0.0000E+00  0.0000E+00  0.0000E+00  0.0000E+00  0.0000E+00  0.0000E+00  0.0000E+00  0.0000E+00  0.0000E+00
     -3.893  0.8317E-02  0.6598E-02  0.5996E-04  0.4470E-04  0.3965E-04  0.2978E-04  0.2299E-03  0.1837E-03  0.4155E-04  0.7953E-05  0.1140E-04  0.2379E-05  0.1454E-04  0.2778E-05  0.1006E-04  0.2309E-05  0.1706E-04  0.3691E-05
     -3.772  0.1207E-01  0.1016E-01  0.1191E-03  0.1026E-03  0.7141E-04  0.6261E-04  0.4014E-03  0.3434E-03  0.9532E-04  0.2037E-04  0.3142E-04  0.6415E-05  0.3588E-04  0.7326E-05  0.2140E-04  0.5239E-05  0.4536E-04  0.9531E-05
     -3.650  0.1496E-01  0.1292E-01  0.1796E-03  0.1622E-03  0.9606E-04  0.8890E-04  0.5926E-03  0.5209E-03  0.1640E-03  0.3590E-04  0.6124E-04  0.1180E-04  0.6616E-04  0.1377E-04  0.3453E-04  0.8171E-05  0.8935E-04  0.1849E-04
     -3.528  0.1812E-01  0.1503E-01  0.2635E-03  0.2264E-03  0.1312E-03  0.1109E-03  0.8409E-03  0.7217E-03  0.2640E-03  0.5499E-04  0.1216E-03  0.1899E-04  0.1109E-03  0.2223E-04  0.5595E-04  0.1130E-04  0.1555E-03  0.3075E-04
     -3.406  0.2211E-01  0.1879E-01  0.3898E-03  0.3489E-03  0.2051E-03  0.1790E-03  0.1137E-02  0.1010E-02  0.4407E-03  0.8752E-04  0.2763E-03  0.4171E-04  0.1880E-03  0.3522E-04  0.1132E-03  0.2058E-04  0.2619E-03  0.4983E-04
     -3.284  0.2475E-01  0.2130E-01  0.5192E-03  0.4750E-03  0.2928E-03  0.2609E-03  0.1395E-02  0.1262E-02  0.6801E-03  0.1261E-03  0.5104E-03  0.7630E-04  0.2942E-03  0.5034E-04  0.2051E-03  0.3489E-04  0.4028E-03  0.7314E-04
     -3.163  0.2422E-01  0.2258E-01  0.6390E-03  0.6047E-03  0.4077E-03  0.3564E-03  0.1629E-02  0.1476E-02  0.1061E-02  0.1707E-03  0.8875E-03  0.1228E-03  0.5045E-03  0.6761E-04  0.3859E-03  0.5423E-04  0.7331E-03  0.1007E-03
     -3.041  0.2634E-01  0.2160E-01  0.7533E-03  0.7078E-03  0.4981E-03  0.4632E-03  0.1926E-02  0.1690E-02  0.1732E-02  0.2380E-03  0.1186E-02  0.1791E-03  0.8787E-03  0.1025E-03  0.5692E-03  0.8606E-04  0.1072E-02  0.1660E-03
     -2.919  0.2860E-01  0.2306E-01  0.8714E-03  0.8211E-03  0.5918E-03  0.5481E-03  0.2258E-02  0.1963E-02  0.2555E-02  0.3258E-03  0.1555E-02  0.2237E-03  0.1352E-02  0.1423E-03  0.8027E-03  0.1143E-03  0.1479E-02  0.2205E-03
     -2.797  0.3100E-01  0.2456E-01  0.9934E-03  0.9383E-03  0.6886E-03  0.6356E-03  0.2626E-02  0.2264E-02  0.3530E-02  0.4272E-03  0.1993E-02  0.2745E-03  0.1924E-02  0.1888E-03  0.1086E-02  0.1475E-03  0.1953E-02  0.2824E-03
     -2.675  0.3353E-01  0.2613E-01  0.1119E-02  0.1059E-02  0.7886E-03  0.7258E-03  0.3029E-02  0.2591E-02  0.4657E-02  0.5423E-03  0.2500E-02  0.3313E-03  0.2596E-02  0.2420E-03  0.1420E-02  0.1856E-03  0.2494E-02  0.3518E-03
     -2.554  0.3619E-01  0.2774E-01  0.1249E-02  0.1184E-02  0.8917E-03  0.8187E-03  0.3468E-02  0.2945E-02  0.5937E-02  0.6710E-03  0.3077E-02  0.3943E-03  0.3366E-02  0.3020E-03  0.1805E-02  0.2286E-03  0.3103E-02  0.4287E-03
     -2.432  0.3973E-01  0.2941E-01  0.1491E-02  0.1312E-02  0.1137E-02  0.9142E-03  0.4060E-02  0.3326E-02  0.8643E-02  0.8134E-03  0.5645E-02  0.4633E-03  0.5246E-02  0.3686E-03  0.3177E-02  0.2766E-03  0.4294E-02  0.5131E-03
     -2.310  0.4421E-01  0.3006E-01  0.1760E-02  0.1441E-02  0.1420E-02  0.1051E-02  0.4881E-02  0.3706E-02  0.1302E-01  0.1039E-02  0.9428E-02  0.6376E-03  0.8546E-02  0.4803E-03  0.4898E-02  0.3879E-03  0.6520E-02  0.6225E-03
     -2.188  0.4803E-01  0.3109E-01  0.1952E-02  0.1611E-02  0.1649E-02  0.1224E-02  0.5861E-02  0.4127E-02  0.1934E-01  0.1330E-02  0.1409E-01  0.8816E-03  0.1361E-01  0.6319E-03  0.7004E-02  0.5034E-03  0.9850E-02  0.7868E-03
     -2.066  0.5359E-01  0.3180E-01  0.2143E-02  0.1765E-02  0.1834E-02  0.1398E-02  0.7186E-02  0.4546E-02  0.3158E-01  0.1653E-02  0.2107E-01  0.1158E-02  0.2288E-01  0.8130E-03  0.9603E-02  0.6276E-03  0.1489E-01  0.9981E-03
     -1.945  0.6218E-01  0.3203E-01  0.2399E-02  0.1874E-02  0.2030E-02  0.1546E-02  0.8864E-02  0.4934E-02  0.5623E-01  0.2024E-02  0.3363E-01  0.1454E-02  0.4112E-01  0.1028E-02  0.1285E-01  0.7612E-03  0.2220E-01  0.1252E-02
     -1.823  0.7256E-01  0.3237E-01  0.2666E-02  0.1976E-02  0.2258E-02  0.1683E-02  0.1080E-01  0.5325E-02  0.9211E-01  0.2483E-02  0.5135E-01  0.1768E-02  0.6807E-01  0.1284E-02  0.1689E-01  0.9028E-03  0.3169E-01  0.1528E-02
     -1.701  0.9341E-01  0.3297E-01  0.2961E-02  0.2092E-02  0.3348E-02  0.1822E-02  0.1410E-01  0.5734E-02  0.2234E+00  0.3031E-02  0.1634E+00  0.2105E-02  0.2307E+00  0.1581E-02  0.3532E-01  0.1052E-02  0.7977E-01  0.1826E-02
     -1.579  0.9878E-01  0.3403E-01  0.3748E-02  0.2228E-02  0.4566E-02  0.1955E-02  0.2499E-01  0.6193E-02  0.3389E+00  0.3754E-02  0.2361E+00  0.2481E-02  0.7014E+00  0.1953E-02  0.9689E-01  0.1203E-02  0.3329E+00  0.2146E-02
     -1.457  0.5753E-01  0.3518E-01  0.3819E-02  0.2367E-02  0.3224E-02  0.2090E-02  0.2120E-01  0.6683E-02  0.2925E+00  0.4604E-02  0.2840E+00  0.2911E-02  0.5795E+00  0.2388E-02  0.1583E+00  0.1368E-02  0.4328E+00  0.2494E-02
     -1.336  0.6640E-02  0.3641E-01  0.2547E-02  0.2511E-02  0.9197E-03  0.2227E-02  0.5622E-02  0.7203E-02  0.4184E-01  0.5580E-02  0.1358E+00  0.3393E-02  0.1171E+00  0.2884E-02  0.4514E-01  0.1547E-02  0.3195E+00  0.2868E-02
     -1.214  0.2505E-02  0.3772E-01  0.1647E-01  0.2658E-02  0.1270E-01  0.2367E-02  0.1095E-01  0.7754E-02  0.7012E+00  0.6679E-02  0.8540E+00  0.3929E-02  0.5848E+00  0.3442E-02  0.1682E+01  0.1739E-02  0.7431E+00  0.3270E-02
     -1.092  0.3902E-02  0.3910E-01  0.2746E-02  0.2809E-02  0.3315E-02  0.2508E-02  0.1609E-02  0.8336E-02  0.2985E+00  0.7904E-02  0.2330E+00  0.4517E-02  0.2414E+00  0.4062E-02  0.5241E+00  0.1946E-02  0.1691E+00  0.3699E-02
     -0.970  0.2480E-01  0.3971E-01  0.1422E-01  0.2936E-02  0.1371E-01  0.2667E-02  0.1385E-01  0.9062E-02  0.9706E+00  0.9399E-02  0.7204E+00  0.5808E-02  0.2393E+00  0.5013E-02  0.6493E+00  0.2365E-02  0.4356E+00  0.4687E-02
     -0.848  0.2402E-01  0.4046E-01  0.1575E-01  0.3065E-02  0.1466E-01  0.2861E-02  0.1285E-01  0.9753E-02  0.4488E+00  0.1124E-01  0.5118E+00  0.7611E-02  0.2099E+00  0.6199E-02  0.4997E+00  0.2936E-02  0.6002E+00  0.5747E-02
     -0.727  0.1230E-01  0.4190E-01  0.7315E-02  0.3249E-02  0.6756E-02  0.3126E-02  0.4757E-02  0.1051E-01  0.2725E+00  0.1375E-01  0.3419E+00  0.1016E-01  0.1659E+00  0.7806E-02  0.3279E+00  0.3596E-02  0.3830E+00  0.7092E-02
     -0.605  0.1041E-01  0.4393E-01  0.8490E-02  0.3468E-02  0.5023E-02  0.3428E-02  0.3902E-02  0.1134E-01  0.8433E+00  0.1715E-01  0.3633E+00  0.1367E-01  0.1023E+01  0.9935E-02  0.4222E+00  0.4340E-02  0.8363E+00  0.8733E-02
     -0.483  0.1463E-01  0.4616E-01  0.8087E-02  0.3672E-02  0.6574E-02  0.3718E-02  0.2916E-02  0.1221E-01  0.1057E+01  0.2126E-01  0.8659E+00  0.1792E-01  0.2938E+01  0.1252E-01  0.7584E+00  0.5155E-02  0.2563E+01  0.1061E-01
     -0.361  0.1636E-01  0.4903E-01  0.4461E-02  0.3829E-02  0.3732E-02  0.3919E-02  0.4995E-02  0.1324E-01  0.3548E+00  0.2761E-01  0.6075E+00  0.2239E-01  0.6095E+00  0.1643E-01  0.5228E+00  0.6093E-02  0.4504E+00  0.1264E-01
     -0.239  0.1699E-01  0.5331E-01  0.4420E-02  0.4047E-02  0.3135E-02  0.4138E-02  0.6484E-02  0.1459E-01  0.2303E+00  0.3632E-01  0.7977E+00  0.2771E-01  0.1855E+00  0.2161E-01  0.5659E+00  0.7268E-02  0.2221E+00  0.1503E-01
     -0.118  0.1543E-01  0.5774E-01  0.4593E-02  0.4128E-02  0.3247E-02  0.4255E-02  0.6686E-02  0.1588E-01  0.3619E+00  0.4768E-01  0.1536E+01  0.3510E-01  0.5923E-01  0.2839E-01  0.9614E+00  0.8642E-02  0.1464E+00  0.1780E-01
      0.004  0.1442E-01  0.5676E-01  0.2509E-02  0.4028E-02  0.1609E-02  0.4387E-02  0.4689E-02  0.1629E-01  0.2894E-01  0.5129E-01  0.2069E-01  0.3842E-01  0.1236E-01  0.3184E-01  0.2125E-01  0.1014E-01  0.4971E-01  0.1948E-01
      0.126  0.1584E-01  0.5481E-01  0.2888E-02  0.3901E-02  0.1801E-02  0.4514E-02  0.5400E-02  0.1682E-01  0.2868E-01  0.5342E-01  0.2035E-01  0.4094E-01  0.1124E-01  0.3553E-01  0.2077E-01  0.1186E-01  0.4549E-01  0.2227E-01