    1    1    1    2
  0.2143750E+02  0.3031089E-09  0.3031089E-09  0.3031089E-09  0.5000000E-15
  1.000000000000000E-004
  CAR 
 Fe FCC                                  
      8     26     12
 
  0.6250000E-01  0.6250000E-01  0.6250000E-01  0.1562500E-01
    1       -3.571547     -3.534316   1.000000   1.000000
    2       -1.001777      1.728940   1.000000   0.064287
    3       -1.001777      1.728940   1.000000  -0.002265
    4       -0.715233      2.108670   1.000000   0.000000
    5       -0.543640      2.749866   1.000000   0.000000
    6       -0.543640      2.749866   1.000000   0.000000
    7       15.904693     16.142263   0.000000   0.000000
    8       15.992513     16.142263   0.000000   0.000000
    9       15.992513     16.744666   0.000000   0.000000
   10       20.865678     20.241624   0.000000   0.000000
   11       20.942832     21.436275   0.000000   0.000000
   12       20.942832     21.436275   0.000000   0.000000
 
  0.1875000E+00  0.6250000E-01  0.6250000E-01  0.4687500E-01
    1       -2.523118     -2.392037   1.000000   1.000000
    2       -1.135849      1.514640   1.000000   1.021459
    3       -1.021717      1.579250   1.000000   0.843579
    4       -0.563969      2.557711   1.000000   0.000000
    5       -0.509856      2.674631   1.000000   0.000000
    6       -0.299458      2.809414   1.004110   0.000000
    7       11.181107     11.710984   0.000000   0.000000
    8       13.903313     14.365954   0.000000   0.000000
    9       14.171112     14.515227   0.000000   0.000000
   10       20.078908     19.940838   0.000000   0.000000
   11       20.618106     21.041343   0.000000   0.000000
   12       22.309183     22.498181   0.000000   0.000000
 
  0.3125000E+00  0.6250000E-01  0.6250000E-01  0.4687500E-01
    1       -1.798942     -0.794365   1.000000   1.000000
    2       -1.254757      1.322458   1.000000   1.002380
    3       -0.559511      1.466013   1.000000   1.051462
    4       -0.487496      2.694346   1.000000   0.000000
    5       -0.485818      2.861937   1.000000   0.000000
    6        0.671364      3.105188   0.952138   0.000000
    7        6.981567      7.795392   0.000000   0.000000
    8       12.527938     13.093866   0.000000   0.000000
    9       13.029157     13.216163   0.000000   0.000000
   10       19.189210     19.209377   0.000000   0.000000
   11       20.040055     20.469153   0.000000   0.000000
   12       24.497160     24.725476   0.000000   0.000000
 
  0.4375000E+00  0.6250000E-01  0.6250000E-01  0.2343750E-01
    1       -1.764247      0.075131   1.000000   1.000000
    2       -1.301345      1.247297   1.000000   1.000000
    3       -0.499187      1.658997   1.000000   0.769863
    4       -0.477065      2.715403   1.000000   0.000000
    5       -0.212913      2.883718   1.000000   0.000000
    6        2.487452      3.545173   0.004878   0.000000
    7        4.164162      5.691523   0.000000   0.000000
    8       12.030272     12.560792   0.000000   0.000000
    9       12.637792     12.813952   0.000000   0.000000
   10       18.890406     18.952968   0.000000   0.000000
   11       19.851746     20.299108   0.000000   0.000000
   12       26.102131     25.812445   0.000000   0.000000
 
 -0.6250000E-01  0.6250000E-01  0.6250000E-01  0.1171875E-01
    1       -3.964012     -3.932766   1.000000   1.000000
    2       -0.937211      1.828498   1.000000  -0.020583
    3       -0.937211      1.828499   1.000000  -0.004558
    4       -0.908484      1.877220   1.000000   0.000000
    5       -0.564594      2.719234   1.000000   0.000000
    6       -0.505505      2.817087   1.000000   0.000000
    7       18.243737     18.201767   0.000000   0.000000
    8       18.243744     18.646711   0.000000   0.000000
    9       18.558544     18.646711   0.000000   0.000000
   10       18.617993     19.254935   0.000000   0.000000
   11       20.441908     20.530386   0.000000   0.000000
   12       20.441909     20.530387   0.000000   0.000000
 
  0.1875000E+00  0.1875000E+00  0.6250000E-01  0.4687500E-01
    1       -1.632916     -1.031822   1.000000   1.000000
    2       -1.195295      1.317286   1.000000   1.004592
    3       -1.095035      1.353934   1.000000   1.023288
    4       -0.538382      2.702502   1.000000   0.000000
    5       -0.469855      2.850854   1.000000   0.000000
    6        0.622238      3.177707   0.949657   0.000000
    7        9.377529     10.013680   0.000000   0.000000
    8        9.813615     10.303084   0.000000   0.000000
    9       12.548684     12.944330   0.000000   0.000000
   10       21.397956     21.211431   0.000000   0.000000
   11       22.292290     22.692628   0.000000   0.000000
   12       24.146711     24.325588   0.000000   0.000000
 
  0.3125000E+00  0.1875000E+00  0.6250000E-01  0.9375000E-01
    1       -1.504381      0.299266   1.000000   1.000000
    2       -1.257520      1.186716   1.000000   1.000000
    3       -0.773287      1.284418   1.000000   1.012085
    4       -0.491208      2.750529   1.000000   0.000000
    5       -0.417730      2.876121   1.000000   0.000000
    6        2.598288      4.124795   0.031033   0.000000
    7        5.781549      6.697928   0.000000   0.000000
    8        8.769293      9.324483   0.000000   0.000000
    9       11.770324     12.168531   0.000000   0.000000
   10       21.181938     21.169207   0.000000   0.000000
   11       23.825828     23.984138   0.000000   0.000000
   12       24.411352     24.553174   0.000000   0.000000
 
 -0.1875000E+00  0.1875000E+00  0.6250000E-01  0.4687500E-01
    1       -3.195155     -3.143160   1.000000   1.000000
    2       -1.023035      1.692581   1.000000   0.222986
    3       -0.932361      1.777003   1.000000  -0.076248
    4       -0.678560      2.168102   1.000000   0.000000
    5       -0.638703      2.570151   1.000000   0.000000
    6       -0.474425      2.854924   1.000000   0.000000
    7       13.452161     13.889231   0.000000   0.000000
    8       15.914876     16.512212   0.000000   0.000000
    9       16.515205     16.629455   0.000000   0.000000
   10       18.804444     19.159784   0.000000   0.000000
   11       19.342473     19.502056   0.000000   0.000000
   12       20.451616     20.469517   0.000000   0.000000
 
  0.3125000E+00  0.3125000E+00  0.6250000E-01  0.1562500E-01
    1       -1.404172      0.886409   1.000000   1.000000
    2       -1.055705      1.121037   1.000000   1.000000
    3       -1.055704      1.121037   1.000000   1.000408
    4       -0.440161      2.826010   1.000000   0.000000
    5       -0.440159      2.826010   1.000000   0.000000
    6        5.283714      6.114576  -0.011784   0.000000
    7        5.283717      6.114577   0.000000   0.000000
    8        5.464785      6.473786   0.000000   0.000000
    9       11.417911     11.845232   0.000000   0.000000
   10       23.155836     22.984459   0.000000   0.000000
   11       23.155840     22.984460   0.000000   0.000000
   12       24.969742     25.862379   0.000000   0.000000
 
 -0.3125000E+00  0.3125000E+00  0.6250000E-01  0.4687500E-01
    1       -2.093461     -1.696608   1.000000   1.000000
    2       -1.155320      1.487448   1.000000   1.026588
    3       -0.787228      1.606144   1.000000   0.790006
    4       -0.544897      2.565372   1.000000   0.000000
    5       -0.311729      2.650825   1.000000   0.000000
    6       -0.304096      2.889746   1.029277   0.000000
    7        8.915827      9.574988   0.000000   0.000000
    8       14.068272     14.664007   0.000000   0.000000
    9       14.949079     15.020439   0.000000   0.000000
   10       18.203887     18.449780   0.000000   0.000000
   11       18.773082     19.109090   0.000000   0.000000
   12       21.373744     21.501828   0.000000   0.000000
 
 -0.1875000E+00  0.3125000E+00  0.6250000E-01  0.4687500E-01
    1       -2.230757     -2.027800   1.000000   1.000000
    2       -1.060810      1.611588   1.000000   0.843389
    3       -0.992992      1.632852   1.000000   0.523737
    4       -0.673503      2.436605   1.000000   0.000000
    5       -0.441102      2.534920   1.000000   0.000000
    6       -0.232622      2.923890   1.014547   0.000000
    7       11.382571     11.978374   0.000000   0.000000
    8       11.656872     12.079848   0.000000   0.000000
    9       16.247760     16.718000   0.000000   0.000000
   10       17.583014     17.599220   0.000000   0.000000
   11       19.243480     19.536795   0.000000   0.000000
   12       22.805711     22.910519   0.000000   0.000000
 
 -0.4375000E+00  0.4375000E+00  0.6250000E-01  0.4687500E-01
    1       -1.818408     -0.226638   1.000000   1.000000
    2       -1.247532      1.346270   1.000000   1.000000
    3       -0.606195      1.649220   1.000000   0.671751
    4       -0.518046      2.636734   1.000000   0.000000
    5       -0.027445      3.021689   1.000000   0.000000
    6        1.441971      3.042214   0.615344   0.000000
    7        5.132570      6.304378   0.000000   0.000000
    8       13.020823     13.547566   0.000000   0.000000
    9       14.120091     14.148267   0.000000   0.000000
   10       17.652100     17.958123   0.000000   0.000000
   11       18.620436     19.014960   0.000000   0.000000
   12       23.272860     23.294327   0.000000   0.000000
 
 -0.3125000E+00  0.4375000E+00  0.6250000E-01  0.9375000E-01
    1       -1.633071     -0.490402   1.000000   1.000000
    2       -1.166869      1.374852   1.000000   1.005681
    3       -0.890265      1.514368   1.000000   0.972345
    4       -0.566132      2.516728   1.000000   0.000000
    5       -0.271541      2.852906   1.000000   0.000000
    6        1.033199      3.272776   0.772683   0.000000
    7        7.321429      8.079686   0.000000   0.000000
    8       10.276767     10.789539   0.000000   0.000000
    9       15.136905     15.452836   0.000000   0.000000
   10       17.758367     17.926401   0.000000   0.000000
   11       19.933680     20.202405   0.000000   0.000000
   12       22.846547     23.052130   0.000000   0.000000
 
 -0.4375000E+00 -0.4375000E+00  0.6250000E-01  0.4687500E-01
    1       -1.621540      0.349707   1.000000   1.000000
    2       -1.184407      1.385401   1.000000   1.000000
    3       -0.830314      1.401786   1.000000   1.095653
    4       -0.539608      2.573334   1.000000   0.000000
    5       -0.123499      2.944372   1.000000   0.000000
    6        3.100777      4.061638  -0.073321   0.000000
    7        4.359745      5.767441   0.000000   0.000000
    8        9.826263     10.326077   0.000000   0.000000
    9       14.692156     14.962132   0.000000   0.000000
   10       17.713076     17.970845   0.000000   0.000000
   11       21.769983     21.646898   0.000000   0.000000
   12       21.989334     22.472459   0.000000   0.000000
 
 -0.3125000E+00 -0.4375000E+00  0.6250000E-01  0.4687500E-01
    1       -1.367084      0.661571   1.000000   1.000000
    2       -1.230358      1.162949   1.000000   1.000000
    3       -1.029207      1.368104   1.000000   1.050854
    4       -0.452560      2.628834   1.000000   0.000000
    5       -0.281522      2.818100   1.000000   0.000000
    6        3.339255      4.618998  -0.037709   0.000000
    7        6.415619      7.224503   0.000000   0.000000
    8        6.550467      7.286660   0.000000   0.000000
    9       15.079449     15.480531   0.000000   0.000000
   10       18.675855     18.647354   0.000000   0.000000
   11       19.726040     19.890630   0.000000   0.000000
   12       22.244719     22.823290   0.000000   0.000000
 
  0.1875000E+00  0.1875000E+00  0.1875000E+00  0.1562500E-01
    1       -1.252581      0.261378   1.000000   1.000000
    2       -1.252581      1.138217   1.000000   1.000000
    3       -1.078583      1.138217   1.000000   1.000092
    4       -0.480421      2.852121   1.000000   0.000000
    5       -0.480421      2.852121   1.000000   0.000000
    6        2.345844      4.106847   0.102739   0.000000
    7        7.953103      8.605818   0.000000   0.000000
    8        8.668821      9.205599   0.000000   0.000000
    9        8.668821      9.205599   0.000000   0.000000
   10       25.439333     24.829281   0.000000   0.000000
   11       26.151130     26.081463   0.000000   0.000000
   12       26.151130     26.081463   0.000000   0.000000
 
  0.3125000E+00  0.1875000E+00  0.1875000E+00  0.2343750E-01
    1       -1.268286      0.859763   1.000000   1.000000
    2       -1.262906      1.081426   1.000000   1.000000
    3       -0.940685      1.125742   1.000000   1.000154
    4       -0.469647      2.863552   1.000000   0.000000
    5       -0.468625      2.896512   1.000000   0.000000
    6        4.833357      5.694054  -0.013467   0.000000
    7        5.112520      6.157625   0.000000   0.000000
    8        7.810118      8.415372   0.000000   0.000000
    9        8.280817      8.833928   0.000000   0.000000
   10       25.608437     25.288580   0.000000   0.000000
   11       26.587858     26.847942   0.000000   0.000000
   12       27.734741     27.473996   0.000000   0.000000
 
 -0.1875000E+00  0.1875000E+00  0.1875000E+00  0.1171875E-01
    1       -2.496304     -2.383165   1.000000   1.000000
    2       -0.878753      1.867648   1.000000  -0.252907
    3       -0.856177      1.867649   1.000000  -0.084006
    4       -0.856177      2.187501   1.000000   0.000000
    5       -0.673005      2.191627   1.000000   0.000000
    6       -0.322131      2.952160   1.004733   0.000000
    7       13.632052     14.197358   0.000000   0.000000
    8       13.632058     14.197358   0.000000   0.000000
    9       14.587712     14.864364   0.000000   0.000000
   10       14.953057     15.137804   0.000000   0.000000
   11       22.348793     22.421091   0.000000   0.000000
   12       22.348794     22.421092   0.000000   0.000000
 
 -0.3125000E+00  0.3125000E+00  0.1875000E+00  0.4687500E-01
    1       -1.669573     -1.023866   1.000000   1.000000
    2       -1.107971      1.619895   1.000000   0.902972
    3       -0.899715      1.796620   1.000000  -0.045065
    4       -0.665351      2.214560   1.000000   0.000000
    5       -0.350431      2.598830   1.000000   0.000000
    6        0.340237      3.058382   1.019616   0.000000
    7        9.577137     10.180951   0.000000   0.000000
    8       11.853140     12.389904   0.000000   0.000000
    9       13.490136     13.800593   0.000000   0.000000
   10       15.795026     16.103674   0.000000   0.000000
   11       21.530227     21.793174   0.000000   0.000000
   12       22.453426     22.626759   0.000000   0.000000
 
 -0.4375000E+00  0.4375000E+00  0.1875000E+00  0.4687500E-01
    1       -1.564969      0.298835   1.000000   1.000000
    2       -1.088426      1.297295   1.000000   1.000000
    3       -0.967020      1.695746   1.000000   0.250490
    4       -0.605709      2.356825   1.000000   0.000000
    5       -0.054988      3.004695   1.000000   0.000000
    6        2.416900      3.787091   0.063432   0.000000
    7        5.747502      6.693488   0.000000   0.000000
    8       10.856303     11.330754   0.000000   0.000000
    9       12.856479     13.193783   0.000000   0.000000
   10       17.946261     18.219831   0.000000   0.000000
   11       20.689055     21.022494   0.000000   0.000000
   12       20.875017     21.165729   0.000000   0.000000
 
 -0.3125000E+00  0.4375000E+00  0.1875000E+00  0.4687500E-01
    1       -1.404111      0.219581   1.000000   1.000000
    2       -1.327970      1.298557   1.000000   1.003884
    3       -0.861271      1.820465   1.000000   0.020953
    4       -0.519625      2.365523   1.000000   0.000000
    5       -0.199598      2.814061   1.000000   0.000000
    6        2.082744      3.712781   0.175321   0.000000
    7        8.195804      8.831327   0.000000   0.000000
    8        8.434721      9.022857   0.000000   0.000000
    9       14.553205     15.078935   0.000000   0.000000
   10       14.936973     15.106923   0.000000   0.000000
   11       20.332920     20.635143   0.000000   0.000000
   12       21.602805     21.920900   0.000000   0.000000
 
 -0.4375000E+00 -0.4375000E+00  0.1875000E+00  0.4687500E-01
    1       -1.451339      0.902325   1.000000   1.000000
    2       -1.295937      1.070321   1.000000   1.000000
    3       -0.929732      1.672718   1.000000   0.285071
    4       -0.412931      2.514046   1.000000   0.000000
    5       -0.113266      2.920241   1.000000   0.000000
    6        4.587281      5.351366  -0.027142   0.000000
    7        5.069057      6.117876   0.000000   0.000000
    8        7.859980      8.445435   0.000000   0.000000
    9       14.371558     14.739883   0.000000   0.000000
   10       17.257299     17.354718   0.000000   0.000000
   11       17.325935     17.886630   0.000000   0.000000
   12       21.104668     21.413330   0.000000   0.000000
 
 -0.3125000E+00  0.3125000E+00  0.3125000E+00  0.1171875E-01
    1       -1.476313      0.012966   1.000000   1.000000
    2       -1.351845      1.404150   1.000000   1.016865
    3       -0.558252      2.213662   1.000000  -0.016915
    4       -0.558252      2.213663   1.000000   0.000000
    5       -0.340776      2.628121   1.000000   0.000000
    6        1.641259      3.403399   0.360884   0.000000
    7       10.028182     10.498157   0.000000   0.000000
    8       10.028187     10.498158   0.000000   0.000000
    9       12.128972     12.827903   0.000000   0.000000
   10       12.738599     13.005225   0.000000   0.000000
   11       20.446458     20.820161   0.000000   0.000000
   12       25.445263     25.702915   0.000000   0.000000
 
 -0.4375000E+00  0.4375000E+00  0.3125000E+00  0.4687500E-01
    1       -1.548990      0.731864   1.000000   1.000000
    2       -1.494353      1.053929   1.000000   1.000000
    3       -0.514801      2.297832   1.000000  -0.026824
    4       -0.410939      2.412413   1.000000   0.000000
    5       -0.093184      2.953180   1.000000   0.000000
    6        3.918661      4.815170  -0.020457   0.000000
    7        6.996226      7.593609   0.000000   0.000000
    8        8.986527      9.357359   0.000000   0.000000
    9       11.902724     12.509140   0.000000   0.000000
   10       13.898312     14.316177   0.000000   0.000000
   11       16.790901     17.224885   0.000000   0.000000
   12       24.907853     25.134756   0.000000   0.000000
 
 -0.4375000E+00 -0.4375000E+00  0.3125000E+00  0.1562500E-01
    1       -1.600542      0.888245   1.000000   1.000000
    2       -1.600541      0.888245   1.000000   1.000000
    3       -0.472693      2.310847   1.000000  -0.016532
    4       -0.138364      2.865669   1.000000   0.000000
    5       -0.138363      2.865671   1.000000   0.000000
    6        6.491939      6.999141   0.000000   0.000000
    7        6.519848      6.999142   0.000000   0.000000
    8        6.519854      7.118265   0.000000   0.000000
    9       13.355059     13.945397   0.000000   0.000000
   10       13.686476     13.945398   0.000000   0.000000
   11       13.686478     14.342162   0.000000   0.000000
   12       25.131048     25.332847   0.000000   0.000000
 
 -0.4375000E+00  0.4375000E+00  0.4375000E+00  0.1171875E-01
    1       -1.702592      0.762610   1.000000   1.000000
    2       -1.698405      0.835571   1.000000   1.000000
    3       -0.151785      2.840264   1.000000   0.000000
    4       -0.151784      2.840265   1.000000   0.000000
    5       -0.106923      2.939919   1.000000   0.000000
    6        6.002279      6.433291   0.000000   0.000000
    7        7.893233      8.105993   0.000000   0.000000
    8        7.893238      8.105994   0.000000   0.000000
    9       11.159988     12.140677   0.000000   0.000000
   10       11.753548     12.256186   0.000000   0.000000
   11       13.318828     13.838926   0.000000   0.000000
   12       28.520757     28.575529   0.000000   0.000000
