       N       E                     dE             d eps       ncg     rms          rms(c)
DAV:   1     0.193661177078E+02    0.19366E+02   -0.33187E+03  1296   0.603E+02
DAV:   2    -0.685623465662E+01   -0.26222E+02   -0.23516E+02  1296   0.105E+02
DAV:   3    -0.753138003017E+01   -0.67515E+00   -0.67100E+00  1496   0.209E+01
DAV:   4    -0.753510977270E+01   -0.37297E-02   -0.37278E-02  1408   0.142E+00
DAV:   5    -0.753514796350E+01   -0.38191E-04   -0.38172E-04  1436   0.149E-01    0.818E+00
DAV:   6    -0.730148192341E+01    0.23367E+00   -0.15714E+01  1420   0.475E+01    0.114E+01
DAV:   7    -0.680660252584E+01    0.49488E+00   -0.30946E+00  1436   0.191E+01    0.374E+00
DAV:   8    -0.681012579672E+01   -0.35233E-02   -0.18744E-02  1432   0.938E-01    0.132E+00
DAV:   9    -0.680382292067E+01    0.63029E-02   -0.25718E-02  1400   0.110E+00    0.386E-01
DAV:  10    -0.680607355684E+01   -0.22506E-02   -0.33708E-03  1512   0.379E-01    0.147E-01
DAV:  11    -0.680680690335E+01   -0.73335E-03   -0.30451E-03  1408   0.491E-01    0.114E-01
DAV:  12    -0.680677513394E+01    0.31769E-04   -0.22909E-04  1460   0.151E-01    0.464E-02
DAV:  13    -0.680679136583E+01   -0.16232E-04   -0.52529E-05  1356   0.397E-02    0.179E-02
DAV:  14    -0.680678824967E+01    0.31162E-05   -0.29186E-06  1172   0.116E-02    0.108E-02
DAV:  15    -0.680679648927E+01   -0.82396E-05   -0.25428E-06   720   0.158E-02    0.136E-03
DAV:  16    -0.680679676834E+01   -0.27908E-06   -0.20028E-07   636   0.425E-03
   1 F= -.68067968E+01 E0= -.68067968E+01  d E =0.000000E+00  mag=     2.9585
