PROCAR lm decomposed
# of k-points:   26         # of bands:  12         # of ions:   1

 k-point    1 :    0.06250000 0.06250000 0.06250000     weight = 0.01562500

band   1 # energy   -3.57154727 # occ.  1.00000000
 
ion      s     py     pz     px    dxy    dyz    dz2    dxz    dx2    tot
  1  0.372  0.007  0.007  0.007  0.002  0.002  0.000  0.002  0.000  0.399
 
band   2 # energy   -1.00177653 # occ.  1.00000000
 
ion      s     py     pz     px    dxy    dyz    dz2    dxz    dx2    tot
  1  0.000  0.000  0.000  0.000  0.140  0.341  0.005  0.428  0.017  0.931
 
band   3 # energy   -1.00177653 # occ.  1.00000000
 
ion      s     py     pz     px    dxy    dyz    dz2    dxz    dx2    tot
  1  0.000  0.000  0.000  0.000  0.466  0.265  0.017  0.178  0.005  0.931
 
band   4 # energy   -0.71523306 # occ.  1.00000000
 
ion      s     py     pz     px    dxy    dyz    dz2    dxz    dx2    tot
  1  0.001  0.001  0.001  0.001  0.313  0.313  0.000  0.313  0.000  0.943
 
band   5 # energy   -0.54364034 # occ.  1.00000000
 
ion      s     py     pz     px    dxy    dyz    dz2    dxz    dx2    tot
  1  0.000  0.000  0.000  0.000  0.004  0.009  0.237  0.010  0.699  0.959
 
band   6 # energy   -0.54364034 # occ.  1.00000000
 
ion      s     py     pz     px    dxy    dyz    dz2    dxz    dx2    tot
  1  0.000  0.000  0.000  0.000  0.011  0.006  0.699  0.005  0.237  0.959
 
band   7 # energy   15.90469275 # occ.  0.00000000
 
ion      s     py     pz     px    dxy    dyz    dz2    dxz    dx2    tot
  1  0.092  0.154  0.154  0.154  0.030  0.030  0.000  0.030  0.000  0.643
 
band   8 # energy   15.99251339 # occ.  0.00000000
 
ion      s     py     pz     px    dxy    dyz    dz2    dxz    dx2    tot
  1  0.000  0.104  0.034  0.084  0.019  0.048  0.011  0.060  0.038  0.398
 
band   9 # energy   15.99251339 # occ.  0.00000000
 
ion      s     py     pz     px    dxy    dyz    dz2    dxz    dx2    tot
  1  0.000  0.044  0.114  0.064  0.066  0.037  0.038  0.025  0.011  0.398
 
band  10 # energy   20.86567814 # occ.  0.00000000
 
ion      s     py     pz     px    dxy    dyz    dz2    dxz    dx2    tot
  1  0.000  0.000  0.000  0.000  0.000  0.000  0.000  0.000  0.000  0.000
 
band  11 # energy   20.94283162 # occ.  0.00000000
 
ion      s     py     pz     px    dxy    dyz    dz2    dxz    dx2    tot
  1  0.000  0.107  0.197  0.113  0.010  0.005  0.026  0.005  0.011  0.474
 
band  12 # energy   20.94283162 # occ.  0.00000000
 
ion      s     py     pz     px    dxy    dyz    dz2    dxz    dx2    tot
  1  0.000  0.171  0.081  0.165  0.004  0.008  0.011  0.008  0.026  0.474
 

 k-point    2 :    0.18750000 0.06250000 0.06250000     weight = 0.04687500

band   1 # energy   -2.52311843 # occ.  1.00000000
 
ion      s     py     pz     px    dxy    dyz    dz2    dxz    dx2    tot
  1  0.303  0.022  0.022  0.006  0.008  0.063  0.003  0.008  0.009  0.445
 
band   2 # energy   -1.13584927 # occ.  1.00000000
 
ion      s     py     pz     px    dxy    dyz    dz2    dxz    dx2    tot
  1  0.000  0.001  0.001  0.000  0.448  0.000  0.017  0.448  0.006  0.919
 
band   3 # energy   -1.02171740 # occ.  1.00000000
 
ion      s     py     pz     px    dxy    dyz    dz2    dxz    dx2    tot
  1  0.009  0.005  0.005  0.000  0.109  0.511  0.037  0.109  0.111  0.896
 
band   4 # energy   -0.56396916 # occ.  1.00000000
 
ion      s     py     pz     px    dxy    dyz    dz2    dxz    dx2    tot
  1  0.001  0.000  0.000  0.000  0.013  0.146  0.196  0.013  0.589  0.958
 
band   5 # energy   -0.50985629 # occ.  1.00000000
 
ion      s     py     pz     px    dxy    dyz    dz2    dxz    dx2    tot
  1  0.000  0.000  0.000  0.000  0.012  0.000  0.703  0.012  0.234  0.962
 
band   6 # energy   -0.29945833 # occ.  1.00411015
 
ion      s     py     pz     px    dxy    dyz    dz2    dxz    dx2    tot
  1  0.017  0.004  0.004  0.003  0.347  0.204  0.000  0.347  0.001  0.927
 
band   7 # energy   11.18110705 # occ.  0.00000000
 
ion      s     py     pz     px    dxy    dyz    dz2    dxz    dx2    tot
  1  0.105  0.130  0.130  0.001  0.001  0.103  0.006  0.001  0.019  0.497
 
band   8 # energy   13.90331254 # occ.  0.00000000
 
ion      s     py     pz     px    dxy    dyz    dz2    dxz    dx2    tot
  1  0.072  0.012  0.012  0.356  0.033  0.010  0.006  0.033  0.017  0.548
 
band   9 # energy   14.17111155 # occ.  0.00000000
 
ion      s     py     pz     px    dxy    dyz    dz2    dxz    dx2    tot
  1  0.000  0.116  0.116  0.000  0.067  0.000  0.020  0.067  0.007  0.394
 
band  10 # energy   20.07890823 # occ.  0.00000000
 
ion      s     py     pz     px    dxy    dyz    dz2    dxz    dx2    tot
  1  0.000  0.034  0.034  0.000  0.122  0.000  0.005  0.122  0.002  0.317
 
band  11 # energy   20.61810632 # occ.  0.00000000
 
ion      s     py     pz     px    dxy    dyz    dz2    dxz    dx2    tot
  1  0.048  0.044  0.044  0.158  0.008  0.003  0.045  0.008  0.136  0.494
 
band  12 # energy   22.30918345 # occ.  0.00000000
 
ion      s     py     pz     px    dxy    dyz    dz2    dxz    dx2    tot
  1  0.000  0.133  0.133  0.000  0.013  0.000  0.044  0.013  0.015  0.350
 

 k-point    3 :    0.31250000 0.06250000 0.06250000     weight = 0.04687500

band   1 # energy   -1.79894170 # occ.  1.00000000
 
ion      s     py     pz     px    dxy    dyz    dz2    dxz    dx2    tot
  1  0.100  0.006  0.006  0.004  0.001  0.438  0.044  0.001  0.133  0.734
 
band   2 # energy   -1.25475743 # occ.  1.00000000
 
ion      s     py     pz     px    dxy    dyz    dz2    dxz    dx2    tot
  1  0.000  0.001  0.001  0.000  0.450  0.000  0.006  0.450  0.002  0.909
 
band   3 # energy   -0.55951055 # occ.  1.00000000
 
ion      s     py     pz     px    dxy    dyz    dz2    dxz    dx2    tot
  1  0.031  0.010  0.010  0.000  0.125  0.038  0.136  0.125  0.407  0.882
 
band   4 # energy   -0.48749634 # occ.  1.00000000
 
ion      s     py     pz     px    dxy    dyz    dz2    dxz    dx2    tot
  1  0.008  0.010  0.010  0.000  0.216  0.246  0.051  0.216  0.152  0.910
 
band   5 # energy   -0.48581757 # occ.  1.00000000
 
ion      s     py     pz     px    dxy    dyz    dz2    dxz    dx2    tot
  1  0.000  0.000  0.000  0.000  0.004  0.000  0.718  0.004  0.239  0.966
 
band   6 # energy    0.67136426 # occ.  0.95213813
 
ion      s     py     pz     px    dxy    dyz    dz2    dxz    dx2    tot
  1  0.114  0.046  0.046  0.004  0.142  0.173  0.004  0.142  0.011  0.680
 
band   7 # energy    6.98156650 # occ.  0.00000000
 
ion      s     py     pz     px    dxy    dyz    dz2    dxz    dx2    tot
  1  0.195  0.093  0.093  0.002  0.002  0.111  0.006  0.002  0.018  0.522
 
band   8 # energy   12.52793817 # occ.  0.00000000
 
ion      s     py     pz     px    dxy    dyz    dz2    dxz    dx2    tot
  1  0.079  0.002  0.002  0.397  0.011  0.016  0.005  0.011  0.015  0.538
 
band   9 # energy   13.02915711 # occ.  0.00000000
 
ion      s     py     pz     px    dxy    dyz    dz2    dxz    dx2    tot
  1  0.000  0.121  0.121  0.000  0.067  0.000  0.006  0.067  0.002  0.384
 
band  10 # energy   19.18920985 # occ.  0.00000000
 
ion      s     py     pz     px    dxy    dyz    dz2    dxz    dx2    tot
  1  0.000  0.028  0.028  0.000  0.159  0.000  0.002  0.159  0.001  0.376
 
band  11 # energy   20.04005503 # occ.  0.00000000
 
ion      s     py     pz     px    dxy    dyz    dz2    dxz    dx2    tot
  1  0.105  0.013  0.013  0.124  0.003  0.020  0.058  0.003  0.174  0.512
 
band  12 # energy   24.49716030 # occ.  0.00000000
 
ion      s     py     pz     px    dxy    dyz    dz2    dxz    dx2    tot
  1  0.000  0.131  0.131  0.000  0.011  0.000  0.085  0.011  0.028  0.398
 

 k-point    4 :    0.43750000 0.06250000 0.06250000     weight = 0.02343750

band   1 # energy   -1.76424738 # occ.  1.00000000
 
ion      s     py     pz     px    dxy    dyz    dz2    dxz    dx2    tot
  1  0.053  0.000  0.000  0.004  0.000  0.500  0.062  0.000  0.187  0.806
 
band   2 # energy   -1.30134497 # occ.  1.00000000
 
ion      s     py     pz     px    dxy    dyz    dz2    dxz    dx2    tot
  1  0.000  0.001  0.001  0.000  0.452  0.000  0.000  0.452  0.000  0.906
 
band   3 # energy   -0.49918708 # occ.  1.00000000
 
ion      s     py     pz     px    dxy    dyz    dz2    dxz    dx2    tot
  1  0.005  0.000  0.000  0.000  0.000  0.286  0.167  0.000  0.501  0.960
 
band   4 # energy   -0.47706545 # occ.  1.00000000
 
ion      s     py     pz     px    dxy    dyz    dz2    dxz    dx2    tot
  1  0.000  0.000  0.000  0.000  0.000  0.000  0.725  0.000  0.242  0.967
 
band   5 # energy   -0.21291301 # occ.  1.00000000
 
ion      s     py     pz     px    dxy    dyz    dz2    dxz    dx2    tot
  1  0.000  0.012  0.012  0.000  0.449  0.000  0.000  0.449  0.000  0.922
 
band   6 # energy    2.48745191 # occ.  0.00487831
 
ion      s     py     pz     px    dxy    dyz    dz2    dxz    dx2    tot
  1  0.000  0.155  0.155  0.000  0.042  0.000  0.000  0.042  0.000  0.394
 
band   7 # energy    4.16416181 # occ.  0.00000000
 
ion      s     py     pz     px    dxy    dyz    dz2    dxz    dx2    tot
  1  0.394  0.000  0.000  0.006  0.000  0.212  0.010  0.000  0.029  0.651
 
band   8 # energy   12.03027205 # occ.  0.00000000
 
ion      s     py     pz     px    dxy    dyz    dz2    dxz    dx2    tot
  1  0.081  0.000  0.000  0.412  0.000  0.018  0.005  0.000  0.015  0.530
 
band   9 # energy   12.63779159 # occ.  0.00000000
 
ion      s     py     pz     px    dxy    dyz    dz2    dxz    dx2    tot
  1  0.000  0.122  0.122  0.000  0.067  0.000  0.000  0.067  0.000  0.379
 
band  10 # energy   18.89040629 # occ.  0.00000000
 
ion      s     py     pz     px    dxy    dyz    dz2    dxz    dx2    tot
  1  0.000  0.026  0.026  0.000  0.170  0.000  0.000  0.170  0.000  0.392
 
band  11 # energy   19.85174567 # occ.  0.00000000
 
ion      s     py     pz     px    dxy    dyz    dz2    dxz    dx2    tot
  1  0.128  0.000  0.000  0.116  0.000  0.031  0.062  0.000  0.186  0.523
 
band  12 # energy   26.10213082 # occ.  0.00000000
 
ion      s     py     pz     px    dxy    dyz    dz2    dxz    dx2    tot
  1  0.000  0.036  0.036  0.000  0.002  0.000  0.000  0.002  0.000  0.075
 

 k-point    5 :   -0.06250000 0.06250000 0.06250000     weight = 0.01171875

band   1 # energy   -3.96401198 # occ.  1.00000000
 
ion      s     py     pz     px    dxy    dyz    dz2    dxz    dx2    tot
  1  0.388  0.000  0.000  0.008  0.000  0.000  0.000  0.000  0.000  0.396
 
band   2 # energy   -0.93721145 # occ.  1.00000000
 
ion      s     py     pz     px    dxy    dyz    dz2    dxz    dx2    tot
  1  0.000  0.000  0.000  0.000  0.468  0.000  0.000  0.468  0.000  0.937
 
band   3 # energy   -0.93721129 # occ.  1.00000000
 
ion      s     py     pz     px    dxy    dyz    dz2    dxz    dx2    tot
  1  0.000  0.000  0.000  0.000  0.468  0.000  0.000  0.468  0.000  0.937
 
band   4 # energy   -0.90848438 # occ.  1.00000000
 
ion      s     py     pz     px    dxy    dyz    dz2    dxz    dx2    tot
  1  0.000  0.000  0.000  0.000  0.000  0.939  0.000  0.000  0.000  0.939
 
band   5 # energy   -0.56459404 # occ.  1.00000000
 
ion      s     py     pz     px    dxy    dyz    dz2    dxz    dx2    tot
  1  0.000  0.000  0.000  0.000  0.000  0.000  0.717  0.000  0.239  0.956
 
band   6 # energy   -0.50550484 # occ.  1.00000000
 
ion      s     py     pz     px    dxy    dyz    dz2    dxz    dx2    tot
  1  0.000  0.000  0.000  0.000  0.000  0.000  0.240  0.000  0.721  0.961
 
band   7 # energy   18.24373736 # occ.  0.00000000
 
ion      s     py     pz     px    dxy    dyz    dz2    dxz    dx2    tot
  1  0.000  0.193  0.193  0.000  0.089  0.000  0.000  0.089  0.000  0.565
 
band   8 # energy   18.24374358 # occ.  0.00000000
 
ion      s     py     pz     px    dxy    dyz    dz2    dxz    dx2    tot
  1  0.000  0.193  0.193  0.000  0.089  0.000  0.000  0.089  0.000  0.565
 
band   9 # energy   18.55854390 # occ.  0.00000000
 
ion      s     py     pz     px    dxy    dyz    dz2    dxz    dx2    tot
  1  0.046  0.000  0.000  0.528  0.000  0.000  0.005  0.000  0.016  0.595
 
band  10 # energy   18.61799254 # occ.  0.00000000
 
ion      s     py     pz     px    dxy    dyz    dz2    dxz    dx2    tot
  1  0.000  0.000  0.000  0.000  0.000  0.000  0.105  0.000  0.035  0.140
 
band  11 # energy   20.44190849 # occ.  0.00000000
 
ion      s     py     pz     px    dxy    dyz    dz2    dxz    dx2    tot
  1  0.000  0.109  0.109  0.000  0.010  0.000  0.000  0.010  0.000  0.238
 
band  12 # energy   20.44190929 # occ.  0.00000000
 
ion      s     py     pz     px    dxy    dyz    dz2    dxz    dx2    tot
  1  0.000  0.109  0.109  0.000  0.010  0.000  0.000  0.010  0.000  0.238
 

 k-point    6 :    0.18750000 0.18750000 0.06250000     weight = 0.04687500

band   1 # energy   -1.63291585 # occ.  1.00000000
 
ion      s     py     pz     px    dxy    dyz    dz2    dxz    dx2    tot
  1  0.142  0.012  0.018  0.012  0.002  0.209  0.057  0.209  0.000  0.659
 
band   2 # energy   -1.19529517 # occ.  1.00000000
 
ion      s     py     pz     px    dxy    dyz    dz2    dxz    dx2    tot
  1  0.000  0.004  0.000  0.004  0.000  0.342  0.000  0.342  0.203  0.895
 
band   3 # energy   -1.09503463 # occ.  1.00000000
 
ion      s     py     pz     px    dxy    dyz    dz2    dxz    dx2    tot
  1  0.028  0.002  0.018  0.002  0.729  0.034  0.001  0.034  0.000  0.848
 
band   4 # energy   -0.53838234 # occ.  1.00000000
 
ion      s     py     pz     px    dxy    dyz    dz2    dxz    dx2    tot
  1  0.000  0.000  0.000  0.000  0.000  0.109  0.000  0.109  0.742  0.960
 
band   5 # energy   -0.46985535 # occ.  1.00000000
 
ion      s     py     pz     px    dxy    dyz    dz2    dxz    dx2    tot
  1  0.003  0.000  0.000  0.000  0.001  0.036  0.887  0.036  0.000  0.963
 
band   6 # energy    0.62223784 # occ.  0.94965721
 
ion      s     py     pz     px    dxy    dyz    dz2    dxz    dx2    tot
  1  0.102  0.014  0.030  0.014  0.205  0.193  0.019  0.193  0.000  0.769
 
band   7 # energy    9.37752904 # occ.  0.00000000
 
ion      s     py     pz     px    dxy    dyz    dz2    dxz    dx2    tot
  1  0.246  0.041  0.162  0.041  0.012  0.021  0.001  0.021  0.000  0.546
 
band   8 # energy    9.81361537 # occ.  0.00000000
 
ion      s     py     pz     px    dxy    dyz    dz2    dxz    dx2    tot
  1  0.000  0.129  0.000  0.129  0.000  0.072  0.000  0.072  0.040  0.441
 
band   9 # energy   12.54868439 # occ.  0.00000000
 
ion      s     py     pz     px    dxy    dyz    dz2    dxz    dx2    tot
  1  0.038  0.118  0.056  0.118  0.085  0.015  0.012  0.015  0.000  0.457
 
band  10 # energy   21.39795625 # occ.  0.00000000
 
ion      s     py     pz     px    dxy    dyz    dz2    dxz    dx2    tot
  1  0.000  0.035  0.000  0.035  0.000  0.024  0.000  0.024  0.153  0.272
 
band  11 # energy   22.29228985 # occ.  0.00000000
 
ion      s     py     pz     px    dxy    dyz    dz2    dxz    dx2    tot
  1  0.041  0.051  0.094  0.051  0.119  0.079  0.027  0.079  0.000  0.543
 
band  12 # energy   24.14671091 # occ.  0.00000000
 
ion      s     py     pz     px    dxy    dyz    dz2    dxz    dx2    tot
  1  0.000  0.113  0.000  0.113  0.000  0.027  0.000  0.027  0.109  0.389
 

 k-point    7 :    0.31250000 0.18750000 0.06250000     weight = 0.09375000

band   1 # energy   -1.50438098 # occ.  1.00000000
 
ion      s     py     pz     px    dxy    dyz    dz2    dxz    dx2    tot
  1  0.035  0.000  0.001  0.009  0.051  0.529  0.055  0.058  0.094  0.833
 
band   2 # energy   -1.25752031 # occ.  1.00000000
 
ion      s     py     pz     px    dxy    dyz    dz2    dxz    dx2    tot
  1  0.000  0.004  0.002  0.003  0.306  0.046  0.002  0.435  0.089  0.890
 
band   3 # energy   -0.77328670 # occ.  1.00000000
 
ion      s     py     pz     px    dxy    dyz    dz2    dxz    dx2    tot
  1  0.008  0.013  0.019  0.000  0.378  0.001  0.193  0.162  0.094  0.867
 
band   4 # energy   -0.49120848 # occ.  1.00000000
 
ion      s     py     pz     px    dxy    dyz    dz2    dxz    dx2    tot
  1  0.001  0.000  0.000  0.000  0.000  0.222  0.086  0.047  0.605  0.962
 
band   5 # energy   -0.41773034 # occ.  1.00000000
 
ion      s     py     pz     px    dxy    dyz    dz2    dxz    dx2    tot
  1  0.003  0.002  0.003  0.000  0.124  0.009  0.611  0.145  0.059  0.956
 
band   6 # energy    2.59828764 # occ.  0.03103323
 
ion      s     py     pz     px    dxy    dyz    dz2    dxz    dx2    tot
  1  0.142  0.057  0.092  0.013  0.069  0.082  0.018  0.079  0.001  0.551
 
band   7 # energy    5.78154906 # occ.  0.00000000
 
ion      s     py     pz     px    dxy    dyz    dz2    dxz    dx2    tot
  1  0.239  0.092  0.051  0.012  0.017  0.098  0.000  0.009  0.017  0.535
 
band   8 # energy    8.76929326 # occ.  0.00000000
 
ion      s     py     pz     px    dxy    dyz    dz2    dxz    dx2    tot
  1  0.112  0.033  0.044  0.182  0.021  0.019  0.001  0.055  0.017  0.485
 
band   9 # energy   11.77032421 # occ.  0.00000000
 
ion      s     py     pz     px    dxy    dyz    dz2    dxz    dx2    tot
  1  0.042  0.098  0.076  0.120  0.062  0.020  0.003  0.036  0.001  0.456
 
band  10 # energy   21.18193771 # occ.  0.00000000
 
ion      s     py     pz     px    dxy    dyz    dz2    dxz    dx2    tot
  1  0.024  0.001  0.011  0.064  0.060  0.002  0.018  0.083  0.099  0.361
 
band  11 # energy   23.82582826 # occ.  0.00000000
 
ion      s     py     pz     px    dxy    dyz    dz2    dxz    dx2    tot
  1  0.001  0.125  0.018  0.014  0.103  0.017  0.005  0.041  0.145  0.468
 
band  12 # energy   24.41135222 # occ.  0.00000000
 
ion      s     py     pz     px    dxy    dyz    dz2    dxz    dx2    tot
  1  0.052  0.003  0.000  0.098  0.009  0.051  0.117  0.019  0.019  0.368
 

 k-point    8 :   -0.18750000 0.18750000 0.06250000     weight = 0.04687500

band   1 # energy   -3.19515546 # occ.  1.00000000
 
ion      s     py     pz     px    dxy    dyz    dz2    dxz    dx2    tot
  1  0.353  0.007  0.000  0.028  0.010  0.000  0.004  0.000  0.004  0.405
 
band   2 # energy   -1.02303536 # occ.  1.00000000
 
ion      s     py     pz     px    dxy    dyz    dz2    dxz    dx2    tot
  1  0.000  0.000  0.000  0.000  0.000  0.368  0.000  0.561  0.000  0.929
 
band   3 # energy   -0.93236051 # occ.  1.00000000
 
ion      s     py     pz     px    dxy    dyz    dz2    dxz    dx2    tot
  1  0.003  0.003  0.000  0.002  0.799  0.000  0.100  0.000  0.014  0.921
 
band   4 # energy   -0.67856045 # occ.  1.00000000
 
ion      s     py     pz     px    dxy    dyz    dz2    dxz    dx2    tot
  1  0.000  0.000  0.001  0.000  0.000  0.574  0.000  0.372  0.000  0.948
 
band   5 # energy   -0.63870310 # occ.  1.00000000
 
ion      s     py     pz     px    dxy    dyz    dz2    dxz    dx2    tot
  1  0.000  0.000  0.000  0.000  0.117  0.000  0.661  0.000  0.173  0.951
 
band   6 # energy   -0.47442483 # occ.  1.00000000
 
ion      s     py     pz     px    dxy    dyz    dz2    dxz    dx2    tot
  1  0.003  0.000  0.000  0.000  0.002  0.000  0.185  0.000  0.771  0.961
 
band   7 # energy   13.45216064 # occ.  0.00000000
 
ion      s     py     pz     px    dxy    dyz    dz2    dxz    dx2    tot
  1  0.064  0.167  0.000  0.109  0.116  0.000  0.031  0.000  0.002  0.488
 
band   8 # energy   15.91487597 # occ.  0.00000000
 
ion      s     py     pz     px    dxy    dyz    dz2    dxz    dx2    tot
  1  0.000  0.000  0.409  0.000  0.000  0.001  0.000  0.168  0.000  0.577
 
band   9 # energy   16.51520473 # occ.  0.00000000
 
ion      s     py     pz     px    dxy    dyz    dz2    dxz    dx2    tot
  1  0.041  0.044  0.000  0.213  0.001  0.000  0.037  0.000  0.039  0.375
 
band  10 # energy   18.80444352 # occ.  0.00000000
 
ion      s     py     pz     px    dxy    dyz    dz2    dxz    dx2    tot
  1  0.002  0.270  0.000  0.037  0.022  0.000  0.110  0.000  0.006  0.446
 
band  11 # energy   19.34247260 # occ.  0.00000000
 
ion      s     py     pz     px    dxy    dyz    dz2    dxz    dx2    tot
  1  0.000  0.000  0.115  0.000  0.000  0.218  0.000  0.072  0.000  0.405
 
band  12 # energy   20.45161601 # occ.  0.00000000
 
ion      s     py     pz     px    dxy    dyz    dz2    dxz    dx2    tot
  1  0.077  0.024  0.000  0.069  0.078  0.000  0.013  0.000  0.031  0.292
 

 k-point    9 :    0.31250000 0.31250000 0.06250000     weight = 0.01562500

band   1 # energy   -1.40417178 # occ.  1.00000000
 
ion      s     py     pz     px    dxy    dyz    dz2    dxz    dx2    tot
  1  0.016  0.001  0.001  0.001  0.285  0.285  0.000  0.285  0.000  0.875
 
band   2 # energy   -1.05570483 # occ.  1.00000000
 
ion      s     py     pz     px    dxy    dyz    dz2    dxz    dx2    tot
  1  0.000  0.004  0.018  0.004  0.373  0.093  0.280  0.093  0.000  0.867
 
band   3 # energy   -1.05570369 # occ.  1.00000000
 
ion      s     py     pz     px    dxy    dyz    dz2    dxz    dx2    tot
  1  0.000  0.013  0.000  0.013  0.000  0.280  0.000  0.280  0.280  0.867
 
band   4 # energy   -0.44016096 # occ.  1.00000000
 
ion      s     py     pz     px    dxy    dyz    dz2    dxz    dx2    tot
  1  0.000  0.001  0.000  0.001  0.000  0.148  0.000  0.148  0.665  0.962
 
band   5 # energy   -0.44015946 # occ.  1.00000000
 
ion      s     py     pz     px    dxy    dyz    dz2    dxz    dx2    tot
  1  0.000  0.000  0.002  0.000  0.197  0.049  0.665  0.049  0.000  0.962
 
band   6 # energy    5.28371366 # occ. -0.01178367
 
ion      s     py     pz     px    dxy    dyz    dz2    dxz    dx2    tot
  1  0.000  0.047  0.187  0.047  0.102  0.026  0.025  0.026  0.000  0.460
 
band   7 # energy    5.28371712 # occ.  0.00000000
 
ion      s     py     pz     px    dxy    dyz    dz2    dxz    dx2    tot
  1  0.000  0.141  0.000  0.141  0.000  0.077  0.000  0.077  0.025  0.460
 
band   8 # energy    5.46478494 # occ.  0.00000000
 
ion      s     py     pz     px    dxy    dyz    dz2    dxz    dx2    tot
  1  0.533  0.000  0.000  0.000  0.029  0.029  0.000  0.029  0.000  0.622
 
band   9 # energy   11.41791074 # occ.  0.00000000
 
ion      s     py     pz     px    dxy    dyz    dz2    dxz    dx2    tot
  1  0.050  0.097  0.097  0.097  0.041  0.041  0.000  0.041  0.000  0.464
 
band  10 # energy   23.15583614 # occ.  0.00000000
 
ion      s     py     pz     px    dxy    dyz    dz2    dxz    dx2    tot
  1  0.000  0.010  0.039  0.010  0.014  0.004  0.185  0.004  0.000  0.265
 
band  11 # energy   23.15583979 # occ.  0.00000000
 
ion      s     py     pz     px    dxy    dyz    dz2    dxz    dx2    tot
  1  0.000  0.029  0.000  0.029  0.000  0.011  0.000  0.011  0.185  0.265
 
band  12 # energy   24.96974241 # occ.  0.00000000
 
ion      s     py     pz     px    dxy    dyz    dz2    dxz    dx2    tot
  1  0.075  0.099  0.099  0.099  0.127  0.127  0.000  0.127  0.000  0.751
 

 k-point   10 :   -0.31250000 0.31250000 0.06250000     weight = 0.04687500

band   1 # energy   -2.09346099 # occ.  1.00000000
 
ion      s     py     pz     px    dxy    dyz    dz2    dxz    dx2    tot
  1  0.207  0.009  0.000  0.030  0.220  0.000  0.094  0.000  0.011  0.571
 
band   2 # energy   -1.15531992 # occ.  1.00000000
 
ion      s     py     pz     px    dxy    dyz    dz2    dxz    dx2    tot
  1  0.000  0.000  0.001  0.000  0.000  0.419  0.000  0.500  0.000  0.919
 
band   3 # energy   -0.78722799 # occ.  1.00000000
 
ion      s     py     pz     px    dxy    dyz    dz2    dxz    dx2    tot
  1  0.033  0.011  0.000  0.014  0.086  0.000  0.360  0.000  0.349  0.853
 
band   4 # energy   -0.54489718 # occ.  1.00000000
 
ion      s     py     pz     px    dxy    dyz    dz2    dxz    dx2    tot
  1  0.001  0.003  0.000  0.003  0.446  0.000  0.430  0.000  0.061  0.945
 
band   5 # energy   -0.31172939 # occ.  1.00000000
 
ion      s     py     pz     px    dxy    dyz    dz2    dxz    dx2    tot
  1  0.000  0.000  0.002  0.000  0.000  0.526  0.000  0.435  0.000  0.963
 
band   6 # energy   -0.30409644 # occ.  1.02927731
 
ion      s     py     pz     px    dxy    dyz    dz2    dxz    dx2    tot
  1  0.059  0.012  0.000  0.020  0.159  0.000  0.053  0.000  0.541  0.844
 
band   7 # energy    8.91582744 # occ.  0.00000000
 
ion      s     py     pz     px    dxy    dyz    dz2    dxz    dx2    tot
  1  0.142  0.138  0.000  0.090  0.107  0.000  0.026  0.000  0.002  0.506
 
band   8 # energy   14.06827237 # occ.  0.00000000
 
ion      s     py     pz     px    dxy    dyz    dz2    dxz    dx2    tot
  1  0.000  0.000  0.457  0.000  0.000  0.000  0.000  0.103  0.000  0.560
 
band   9 # energy   14.94907854 # occ.  0.00000000
 
ion      s     py     pz     px    dxy    dyz    dz2    dxz    dx2    tot
  1  0.039  0.085  0.000  0.167  0.001  0.000  0.038  0.000  0.017  0.348
 
band  10 # energy   18.20388714 # occ.  0.00000000
 
ion      s     py     pz     px    dxy    dyz    dz2    dxz    dx2    tot
  1  0.000  0.000  0.072  0.000  0.000  0.248  0.000  0.142  0.000  0.461
 
band  11 # energy   18.77308167 # occ.  0.00000000
 
ion      s     py     pz     px    dxy    dyz    dz2    dxz    dx2    tot
  1  0.083  0.170  0.000  0.005  0.008  0.000  0.192  0.000  0.001  0.458
 
band  12 # energy   21.37374440 # occ.  0.00000000
 
ion      s     py     pz     px    dxy    dyz    dz2    dxz    dx2    tot
  1  0.077  0.044  0.000  0.056  0.111  0.000  0.000  0.000  0.075  0.364
 

 k-point   11 :   -0.18750000 0.31250000 0.06250000     weight = 0.04687500

band   1 # energy   -2.23075666 # occ.  1.00000000
 
ion      s     py     pz     px    dxy    dyz    dz2    dxz    dx2    tot
  1  0.265  0.004  0.004  0.048  0.043  0.000  0.017  0.043  0.052  0.479
 
band   2 # energy   -1.06080956 # occ.  1.00000000
 
ion      s     py     pz     px    dxy    dyz    dz2    dxz    dx2    tot
  1  0.000  0.002  0.002  0.000  0.275  0.000  0.267  0.275  0.089  0.911
 
band   3 # energy   -0.99299226 # occ.  1.00000000
 
ion      s     py     pz     px    dxy    dyz    dz2    dxz    dx2    tot
  1  0.008  0.001  0.001  0.006  0.191  0.502  0.001  0.191  0.004  0.906
 
band   4 # energy   -0.67350260 # occ.  1.00000000
 
ion      s     py     pz     px    dxy    dyz    dz2    dxz    dx2    tot
  1  0.000  0.000  0.000  0.000  0.185  0.000  0.433  0.185  0.144  0.948
 
band   5 # energy   -0.44110174 # occ.  1.00000000
 
ion      s     py     pz     px    dxy    dyz    dz2    dxz    dx2    tot
  1  0.003  0.000  0.000  0.000  0.109  0.220  0.130  0.109  0.390  0.962
 
band   6 # energy   -0.23262239 # occ.  1.01454746
 
ion      s     py     pz     px    dxy    dyz    dz2    dxz    dx2    tot
  1  0.042  0.003  0.003  0.011  0.122  0.224  0.093  0.122  0.278  0.897
 
band   7 # energy   11.38257083 # occ.  0.00000000
 
ion      s     py     pz     px    dxy    dyz    dz2    dxz    dx2    tot
  1  0.162  0.073  0.073  0.146  0.041  0.003  0.000  0.041  0.000  0.537
 
band   8 # energy   11.65687214 # occ.  0.00000000
 
ion      s     py     pz     px    dxy    dyz    dz2    dxz    dx2    tot
  1  0.000  0.130  0.130  0.000  0.062  0.000  0.048  0.062  0.016  0.447
 
band   9 # energy   16.24775960 # occ.  0.00000000
 
ion      s     py     pz     px    dxy    dyz    dz2    dxz    dx2    tot
  1  0.006  0.172  0.172  0.124  0.002  0.028  0.000  0.002  0.001  0.509
 
band  10 # energy   17.58301430 # occ.  0.00000000
 
ion      s     py     pz     px    dxy    dyz    dz2    dxz    dx2    tot
  1  0.000  0.053  0.053  0.000  0.025  0.000  0.132  0.025  0.044  0.331
 
band  11 # energy   19.24347998 # occ.  0.00000000
 
ion      s     py     pz     px    dxy    dyz    dz2    dxz    dx2    tot
  1  0.098  0.000  0.000  0.044  0.077  0.139  0.007  0.077  0.022  0.467
 
band  12 # energy   22.80571139 # occ.  0.00000000
 
ion      s     py     pz     px    dxy    dyz    dz2    dxz    dx2    tot
  1  0.000  0.113  0.113  0.000  0.044  0.000  0.019  0.044  0.006  0.339
 

 k-point   12 :   -0.43750000 0.43750000 0.06250000     weight = 0.04687500

band   1 # energy   -1.81840845 # occ.  1.00000000
 
ion      s     py     pz     px    dxy    dyz    dz2    dxz    dx2    tot
  1  0.066  0.000  0.000  0.004  0.446  0.000  0.271  0.000  0.001  0.788
 
band   2 # energy   -1.24753151 # occ.  1.00000000
 
ion      s     py     pz     px    dxy    dyz    dz2    dxz    dx2    tot
  1  0.000  0.000  0.001  0.000  0.000  0.444  0.000  0.468  0.000  0.912
 
band   3 # energy   -0.60619532 # occ.  1.00000000
 
ion      s     py     pz     px    dxy    dyz    dz2    dxz    dx2    tot
  1  0.005  0.003  0.000  0.004  0.044  0.000  0.168  0.000  0.713  0.936
 
band   4 # energy   -0.51804631 # occ.  1.00000000
 
ion      s     py     pz     px    dxy    dyz    dz2    dxz    dx2    tot
  1  0.003  0.001  0.000  0.000  0.276  0.000  0.466  0.000  0.211  0.957
 
band   5 # energy   -0.02744538 # occ.  1.00000000
 
ion      s     py     pz     px    dxy    dyz    dz2    dxz    dx2    tot
  1  0.000  0.000  0.000  0.000  0.000  0.503  0.000  0.475  0.000  0.978
 
band   6 # energy    1.44197132 # occ.  0.61534364
 
ion      s     py     pz     px    dxy    dyz    dz2    dxz    dx2    tot
  1  0.108  0.091  0.000  0.121  0.091  0.000  0.016  0.000  0.039  0.467
 
band   7 # energy    5.13256970 # occ.  0.00000000
 
ion      s     py     pz     px    dxy    dyz    dz2    dxz    dx2    tot
  1  0.270  0.078  0.000  0.038  0.147  0.000  0.033  0.000  0.003  0.568
 
band   8 # energy   13.02082326 # occ.  0.00000000
 
ion      s     py     pz     px    dxy    dyz    dz2    dxz    dx2    tot
  1  0.000  0.000  0.485  0.000  0.000  0.009  0.000  0.043  0.000  0.537
 
band   9 # energy   14.12009117 # occ.  0.00000000
 
ion      s     py     pz     px    dxy    dyz    dz2    dxz    dx2    tot
  1  0.037  0.114  0.000  0.138  0.001  0.000  0.038  0.000  0.002  0.330
 
band  10 # energy   17.65209977 # occ.  0.00000000
 
ion      s     py     pz     px    dxy    dyz    dz2    dxz    dx2    tot
  1  0.000  0.000  0.056  0.000  0.000  0.234  0.000  0.198  0.000  0.488
 
band  11 # energy   18.62043611 # occ.  0.00000000
 
ion      s     py     pz     px    dxy    dyz    dz2    dxz    dx2    tot