Fe FCC                                  
           1
    -1.750000    1.750000    1.750000
     1.750000   -1.750000    1.750000
     1.750000    1.750000   -1.750000
   Fe
   1
Direct configuration=     1
   0.00000000  0.00000000  0.00000000
