Fe FCC                                  
   2.60000000000000     
    -0.500000    0.500000    0.500000
     0.500000   -0.500000    0.500000
     0.500000    0.500000   -0.500000
   Fe
     1
Direct
  0.000000  0.000000  0.000000
 
   32   32   32
 0.74100525799E+02 0.72653682918E+02 0.68492926271E+02 0.62115050492E+02 0.54222544903E+02
 0.45584075276E+02 0.36912023409E+02 0.28786488179E+02 0.21629057232E+02 0.15708178986E+02
 0.11151820680E+02 0.79529827397E+01 0.59707181250E+01 0.49414406336E+01 0.45147435239E+01
 0.43319303148E+01 0.42676236569E+01 0.43319303148E+01 0.45147435239E+01 0.49414406336E+01
 0.59707181250E+01 0.79529827397E+01 0.11151820680E+02 0.15708178986E+02 0.21629057232E+02
 0.28786488179E+02 0.36912023409E+02 0.45584075276E+02 0.54222544903E+02 0.62115050492E+02
 0.68492926271E+02 0.72653682918E+02 0.72653682918E+02 0.72175408646E+02 0.68931760579E+02
 0.63316794867E+02 0.55968613506E+02 0.47636535015E+02 0.39051006039E+02 0.30831976753E+02
 0.23447679871E+02 0.17211720244E+02 0.12294841450E+02 0.87328532985E+01 0.64279085055E+01
 0.51549000528E+01 0.45885194004E+01 0.43599375034E+01 0.42552921067E+01 0.42767546463E+01
 0.44200887993E+01 0.47218625826E+01 0.54836537915E+01 0.70690311821E+01 0.97747369551E+01
 0.13785253993E+02 0.19153974799E+02 0.25800298308E+02 0.33506876473E+02 0.41909264553E+02
 0.50486504991E+02 0.58574505637E+02 0.65423836752E+02 0.70306883147E+02 0.68492926271E+02
 0.68931760579E+02 0.66686075005E+02 0.62032199261E+02 0.55512986648E+02 0.47820962175E+02
 0.39669889155E+02 0.31693271964E+02 0.24389049120E+02 0.18105742428E+02 0.13049882787E+02
 0.92946174468E+01 0.67820599744E+01 0.53270577447E+01 0.46371740211E+01 0.43584703355E+01
 0.42190628346E+01 0.41986537500E+01 0.43011640136E+01 0.45187838156E+01 0.50325199082E+01
 0.61984269368E+01 0.83367556120E+01 0.11672577107E+02 0.16307289027E+02 0.22210732325E+02
 0.29219689208E+02 0.37031544774E+02 0.45195205847E+02 0.53116036051E+02 0.60096527358E+02
 0.65423836752E+02 0.62115050492E+02 0.63316794867E+02 0.62032199261E+02 0.58421355171E+02
 0.52914814740E+02 0.46118916665E+02 0.38697703010E+02 0.31269001736E+02 0.24338719816E+02
 0.18275730273E+02 0.13312440349E+02 0.95518547852E+01 0.69706736114E+01 0.54219474221E+01
 0.46498594424E+01 0.43274199444E+01 0.41611077006E+01 0.41032217048E+01 0.41639269177E+01
 0.43333054462E+01 0.46595707667E+01 0.54380486206E+01 0.69984140512E+01 0.95991192022E+01
 0.13388493466E+02 0.18388760494E+02 0.24492680162E+02 0.31460658906E+02 0.38914955704E+02
 0.46341226734E+02 0.53116036051E+02 0.58574505637E+02 0.54222544903E+02 0.55968613506E+02
 0.55512986648E+02 0.52914814740E+02 0.48490448241E+02 0.42743113203E+02 0.36261469010E+02
 0.29620585375E+02 0.23311172219E+02 0.17705126185E+02 0.13048337828E+02 0.94643604064E+01
 0.69573444504E+01 0.54142859994E+01 0.46162326749E+01 0.42690037980E+01 0.40846813851E+01
 0.39965860295E+01 0.40182564078E+01 0.41473056314E+01 0.43727001349E+01 0.48454080632E+01
 0.58804704794E+01 0.77575601532E+01 0.10666871771E+02 0.14683073153E+02 0.19756406934E+02
 0.25710539639E+02 0.32240549441E+02 0.38914955704E+02 0.45195205847E+02 0.50486504991E+02
 0.45584075276E+02 0.47636535015E+02 0.47820962175E+02 0.46118916665E+02 0.42743113203E+02
 0.38089926053E+02 0.32657593681E+02 0.26957735768E+02 0.21445074674E+02 0.16477031417E+02
 0.12299496484E+02 0.90461910792E+01 0.67404940093E+01 0.52974182177E+01 0.45324279242E+01
 0.41864136264E+01 0.39937141666E+01 0.38845817946E+01 0.38733571206E+01 0.39624217959E+01
 0.41421642641E+01 0.44280574080E+01 0.50454708204E+01 0.62782296808E+01 0.83480265458E+01
 0.11378415407E+02 0.15377491929E+02 0.20232688100E+02 0.25710539639E+02 0.31460658906E+02
 0.37031544774E+02 0.41909264553E+02 0.36912023409E+02 0.39051006039E+02 0.39669889155E+02
 0.38697703010E+02 0.36261469010E+02 0.32657593681E+02 0.28289640368E+02 0.23593600507E+02
 0.18972680823E+02 0.14754765614E+02 0.11173026453E+02 0.83610801953E+01 0.63531281091E+01
 0.50855359750E+01 0.44040158806E+01 0.40840182146E+01 0.38924356957E+01 0.37721400231E+01
 0.37365139377E+01 0.37899967571E+01 0.39294463797E+01 0.41426118999E+01 0.44898042129E+01
 0.52143060084E+01 0.65532677852E+01 0.86700800179E+01 0.11627790935E+02 0.15377491929E+02
 0.19756406934E+02 0.24492680162E+02 0.29219689208E+02 0.33506876473E+02 0.28786488179E+02
 0.30831976753E+02 0.31693271964E+02 0.31269001736E+02 0.29620585375E+02 0.26957735768E+02
 0.23593600507E+02 0.19884661602E+02 0.16173554277E+02 0.12747763583E+02 0.98174111188E+01
 0.75070745583E+01 0.58541313729E+01 0.48098003310E+01 0.42451323069E+01 0.39677856140E+01
 0.37850932203E+01 0.36630159082E+01 0.36124521522E+01 0.36377464123E+01 0.37391125901E+01
 0.39119705095E+01 0.41467698518E+01 0.45384246756E+01 0.53106404132E+01 0.66513491613E+01
 0.86700800179E+01 0.11378415407E+02 0.14683073153E+02 0.18388760494E+02 0.22210732325E+02
 0.25800298308E+02 0.21629057232E+02 0.23447679871E+02 0.24389049120E+02 0.24338719816E+02
 0.23311172219E+02 0.21445074674E+02 0.18972680823E+02 0.16173554277E+02 0.13326785192E+02
 0.10673350563E+02 0.83932977250E+01 0.65954351343E+01 0.53141635322E+01 0.45099282308E+01
 0.40742772929E+01 0.38438371335E+01 0.36757743544E+01 0.35598502835E+01 0.35033954431E+01
 0.35093069357E+01 0.35787758223E+01 0.37116186830E+01 0.39039497433E+01 0.41508387029E+01
 0.45568315269E+01 0.53106404132E+01 0.65532677852E+01 0.83480265458E+01 0.10666871771E+02
 0.13388493466E+02 0.16307289027E+02 0.19153974799E+02 0.15708178986E+02 0.17211720244E+02
 0.18105742428E+02 0.18275730273E+02 0.17705126185E+02 0.16477031417E+02 0.14754765614E+02
 0.12747763583E+02 0.10673350563E+02 0.87242170506E+01 0.70467345152E+01 0.57297549161E+01
 0.48003991825E+01 0.42239793668E+01 0.39082940967E+01 0.37174949991E+01 0.35683188081E+01
 0.34644622737E+01 0.34096788934E+01 0.34048737637E+01 0.34507612778E+01 0.35487997338E+01
 0.36999570439E+01 0.39016816689E+01 0.41508387029E+01 0.45384246756E+01 0.52143060084E+01
 0.62782296808E+01 0.77575601532E+01 0.95991192022E+01 0.11672577107E+02 0.13785253993E+02
 0.11151820680E+02 0.12294841450E+02 0.13049882787E+02 0.13312440349E+02 0.13048337828E+02
 0.12299496484E+02 0.11173026453E+02 0.98174111188E+01 0.83932977250E+01 0.70467345152E+01
 0.58898302829E+01 0.49896936536E+01 0.43637061502E+01 0.39790397312E+01 0.37563261815E+01
 0.35940290173E+01 0.34662979741E+01 0.33782406752E+01 0.33306432877E+01 0.33225249154E+01
 0.33535096624E+01 0.34250071876E+01 0.35397836202E+01 0.36999570439E+01 0.39039497433E+01
 0.41467698518E+01 0.44898042129E+01 0.50454708204E+01 0.58804704794E+01 0.69984140512E+01
 0.83367556120E+01 0.97747369551E+01 0.79529827397E+01 0.87328532985E+01 0.92946174468E+01
 0.95518547852E+01 0.94643604064E+01 0.90461910792E+01 0.83610801953E+01 0.75070745583E+01
 0.65954351343E+01 0.57297549161E+01 0.49896936536E+01 0.44208575185E+01 0.40300384050E+01
 0.37844991030E+01 0.36163862434E+01 0.34783205328E+01 0.33730336427E+01 0.33025177080E+01
 0.32655313406E+01 0.32597281748E+01 0.32836349095E+01 0.33378321428E+01 0.34250071876E+01
 0.35487997338E+01 0.37116186830E+01 0.39119705095E+01 0.41426118999E+01 0.44280574080E+01
 0.48454080632E+01 0.54380486206E+01 0.61984269368E+01 0.70690311821E+01 0.59707181250E+01
 0.64279085055E+01 0.67820599744E+01 0.69706736114E+01 0.69573444504E+01 0.67404940093E+01
 0.63531281091E+01 0.58541313729E+01 0.53141635322E+01 0.48003991825E+01 0.43637061502E+01
 0.40300384050E+01 0.37960694234E+01 0.36284976237E+01 0.34882183403E+01 0.33747663359E+01
 0.32916131834E+01 0.32388397122E+01 0.32141799245E+01 0.32146124158E+01 0.32379013337E+01
 0.32836349095E+01 0.33535096624E+01 0.34507612778E+01 0.35787758223E+01 0.37391125901E+01
 0.39294463797E+01 0.41421642641E+01 0.43727001349E+01 0.46595707667E+01 0.50325199082E+01
 0.54836537915E+01 0.49414406336E+01 0.51549000528E+01 0.53270577447E+01 0.54219474221E+01
 0.54142859994E+01 0.52974182177E+01 0.50855359750E+01 0.48098003310E+01 0.45099282308E+01
 0.42239793668E+01 0.39790397312E+01 0.37844991030E+01 0.36284976237E+01 0.34918756026E+01
 0.33767171635E+01 0.32871549059E+01 0.32248561847E+01 0.31890808124E+01 0.31773945847E+01
 0.31867550799E+01 0.32146124158E+01 0.32597281748E+01 0.33225249154E+01 0.34048737637E+01
 0.35093069357E+01 0.36377464123E+01 0.37899967571E+01 0.39624217959E+01 0.41473056314E+01
 0.43333054462E+01 0.45187838156E+01 0.47218625826E+01 0.45147435239E+01 0.45885194004E+01
 0.46371740211E+01 0.46498594424E+01 0.46162326749E+01 0.45324279242E+01 0.44040158806E+01
 0.42451323069E+01 0.40742772929E+01 0.39082940967E+01 0.37563261815E+01 0.36163862434E+01
 0.34882183403E+01 0.33767171635E+01 0.32859320527E+01 0.32184699573E+01 0.31752110700E+01
 0.31553799011E+01 0.31569700372E+01 0.31773945847E+01 0.32141799245E+01 0.32655313406E+01
 0.33306432877E+01 0.34096788934E+01 0.35033954431E+01 0.36124521522E+01 0.37365139377E+01
 0.38733571206E+01 0.40182564078E+01 0.41639269177E+01 0.43011640136E+01 0.44200887993E+01
 0.43319303148E+01 0.43599375034E+01 0.43584703355E+01 0.43274199444E+01 0.42690037980E+01
 0.41864136264E+01 0.40840182146E+01 0.39677856140E+01 0.38438371335E+01 0.37174949991E+01
 0.35940290173E+01 0.34783205328E+01 0.33747663359E+01 0.32871549059E+01 0.32184699573E+01
 0.31706787031E+01 0.31445993193E+01 0.31399195117E+01 0.31553799011E+01 0.31890808124E+01
 0.32388397122E+01 0.33025177080E+01 0.33782406752E+01 0.34644622737E+01 0.35598502835E+01
 0.36630159082E+01 0.37721400231E+01 0.38845817946E+01 0.39965860295E+01 0.41032217048E+01
 0.41986537500E+01 0.42767546463E+01 0.42676236569E+01 0.42552921067E+01 0.42190628346E+01
 0.41611077006E+01 0.40846813851E+01 0.39937141666E+01 0.38924356957E+01 0.37850932203E+01
 0.36757743544E+01 0.35683188081E+01 0.34662979741E+01 0.33730336427E+01 0.32916131834E+01
 0.32248561847E+01 0.31752110700E+01 0.31445993193E+01 0.31342536461E+01 0.31445993193E+01
 0.31752110700E+01 0.32248561847E+01 0.32916131834E+01 0.33730336427E+01 0.34662979741E+01
 0.35683188081E+01 0.36757743544E+01 0.37850932203E+01 0.38924356957E+01 0.39937141666E+01
 0.40846813851E+01 0.41611077006E+01 0.42190628346E+01 0.42552921067E+01 0.43319303148E+01
 0.42767546463E+01 0.41986537500E+01 0.41032217048E+01 0.39965860295E+01 0.38845817946E+01
 0.37721400231E+01 0.36630159082E+01 0.35598502835E+01 0.34644622737E+01 0.33782406752E+01
 0.33025177080E+01 0.32388397122E+01 0.31890808124E+01 0.31553799011E+01 0.31399195117E+01
 0.31445993193E+01 0.31706787031E+01 0.32184699573E+01 0.32871549059E+01 0.33747663359E+01
 0.34783205328E+01 0.35940290173E+01 0.37174949991E+01 0.38438371335E+01 0.39677856140E+01
 0.40840182146E+01 0.41864136264E+01 0.42690037980E+01 0.43274199444E+01 0.43584703355E+01
 0.43599375034E+01 0.45147435239E+01 0.44200887993E+01 0.43011640136E+01 0.41639269177E+01
 0.40182564078E+01 0.38733571206E+01 0.37365139377E+01 0.36124521522E+01 0.35033954431E+01
 0.34096788934E+01 0.33306432877E+01 0.32655313406E+01 0.32141799245E+01 0.31773945847E+01
 0.31569700372E+01 0.31553799011E+01 0.31752110700E+01 0.32184699573E+01 0.32859320527E+01
 0.33767171635E+01 0.34882183403E+01 0.36163862434E+01 0.37563261815E+01 0.39082940967E+01
 0.40742772929E+01 0.42451323069E+01 0.44040158806E+01 0.45324279242E+01 0.46162326749E+01
 0.46498594424E+01 0.46371740211E+01 0.45885194004E+01 0.49414406336E+01 0.47218625826E+01
 0.45187838156E+01 0.43333054462E+01 0.41473056314E+01 0.39624217959E+01 0.37899967571E+01
 0.36377464123E+01 0.35093069357E+01 0.34048737637E+01 0.33225249154E+01 0.32597281748E+01
 0.32146124158E+01 0.31867550799E+01 0.31773945847E+01 0.31890808124E+01 0.32248561847E+01
 0.32871549059E+01 0.33767171635E+01 0.34918756026E+01 0.36284976237E+01 0.37844991030E+01
 0.39790397312E+01 0.42239793668E+01 0.45099282308E+01 0.48098003310E+01 0.50855359750E+01
 0.52974182177E+01 0.54142859994E+01 0.54219474221E+01 0.53270577447E+01 0.51549000528E+01
 0.59707181250E+01 0.54836537915E+01 0.50325199082E+01 0.46595707667E+01 0.43727001349E+01
 0.41421642641E+01 0.39294463797E+01 0.37391125901E+01 0.35787758223E+01 0.34507612778E+01
 0.33535096624E+01 0.32836349095E+01 0.32379013337E+01 0.32146124158E+01 0.32141799245E+01
 0.32388397122E+01 0.32916131834E+01 0.33747663359E+01 0.34882183403E+01 0.36284976237E+01
 0.37960694234E+01 0.40300384050E+01 0.43637061502E+01 0.48003991825E+01 0.53141635322E+01
 0.58541313729E+01 0.63531281091E+01 0.67404940093E+01 0.69573444504E+01 0.69706736114E+01
 0.67820599744E+01 0.64279085055E+01 0.79529827397E+01 0.70690311821E+01 0.61984269368E+01
 0.54380486206E+01 0.48454080632E+01 0.44280574080E+01 0.41426118999E+01 0.39119705095E+01
 0.37116186830E+01 0.35487997338E+01 0.34250071876E+01 0.33378321428E+01 0.32836349095E+01
 0.32597281748E+01 0.32655313406E+01 0.33025177080E+01 0.33730336427E+01 0.34783205328E+01
 0.36163862434E+01 0.37844991030E+01 0.40300384050E+01 0.44208575185E+01 0.49896936536E+01
 0.57297549161E+01 0.65954351343E+01 0.75070745583E+01 0.83610801953E+01 0.90461910792E+01
 0.94643604064E+01 0.95518547852E+01 0.92946174468E+01 0.87328532985E+01 0.11151820680E+02
 0.97747369551E+01 0.83367556120E+01 0.69984140512E+01 0.58804704794E+01 0.50454708204E+01
 0.44898042129E+01 0.41467698518E+01 0.39039497433E+01 0.36999570439E+01 0.35397836202E+01
 0.34250071876E+01 0.33535096624E+01 0.33225249154E+01 0.33306432877E+01 0.33782406752E+01
 0.34662979741E+01 0.35940290173E+01 0.37563261815E+01 0.39790397312E+01 0.43637061502E+01
 0.49896936536E+01 0.58898302829E+01 0.70467345152E+01 0.83932977250E+01 0.98174111188E+01
 0.11173026453E+02 0.12299496484E+02 0.13048337828E+02 0.13312440349E+02 0.13049882787E+02
 0.12294841450E+02 0.15708178986E+02 0.13785253993E+02 0.11672577107E+02 0.95991192022E+01
 0.77575601532E+01 0.62782296808E+01 0.52143060084E+01 0.45384246756E+01 0.41508387029E+01
 0.39016816689E+01 0.36999570439E+01 0.35487997338E+01 0.34507612778E+01 0.34048737637E+01
 0.34096788934E+01 0.34644622737E+01 0.35683188081E+01 0.37174949991E+01 0.39082940967E+01
 0.42239793668E+01 0.48003991825E+01 0.57297549161E+01 0.70467345152E+01 0.87242170506E+01
 0.10673350563E+02 0.12747763583E+02 0.14754765614E+02 0.16477031417E+02 0.17705126185E+02
 0.18275730273E+02 0.18105742428E+02 0.17211720244E+02 0.21629057232E+02 0.19153974799E+02
 0.16307289027E+02 0.13388493466E+02 0.10666871771E+02 0.83480265458E+01 0.65532677852E+01
 0.53106404132E+01 0.45568315269E+01 0.41508387029E+01 0.39039497433E+01 0.37116186830E+01
 0.35787758223E+01 0.35093069357E+01 0.35033954431E+01 0.35598502835E+01 0.36757743544E+01
 0.38438371335E+01 0.40742772929E+01 0.45099282308E+01 0.53141635322E+01 0.65954351343E+01
 0.83932977250E+01 0.10673350563E+02 0.13326785192E+02 0.16173554277E+02 0.18972680823E+02
 0.21445074674E+02 0.23311172219E+02 0.24338719816E+02 0.24389049120E+02 0.23447679871E+02
 0.28786488179E+02 0.25800298308E+02 0.22210732325E+02 0.18388760494E+02 0.14683073153E+02
 0.11378415407E+02 0.86700800179E+01 0.66513491613E+01 0.53106404132E+01 0.45384246756E+01
 0.41467698518E+01 0.39119705095E+01 0.37391125901E+01 0.36377464123E+01 0.36124521522E+01
 0.36630159082E+01 0.37850932203E+01 0.39677856140E+01 0.42451323069E+01 0.48098003310E+01
 0.58541313729E+01 0.75070745583E+01 0.98174111188E+01 0.12747763583E+02 0.16173554277E+02
 0.19884661602E+02 0.23593600507E+02 0.26957735768E+02 0.29620585375E+02 0.31269001736E+02
 0.31693271964E+02 0.30831976753E+02 0.36912023409E+02 0.33506876473E+02 0.29219689208E+02
 0.24492680162E+02 0.19756406934E+02 0.15377491929E+02 0.11627790935E+02 0.86700800179E+01
 0.65532677852E+01 0.52143060084E+01 0.44898042129E+01 0.41426118999E+01 0.39294463797E+01
 0.37899967571E+01 0.37365139377E+01 0.37721400231E+01 0.38924356957E+01 0.40840182146E+01
 0.44040158806E+01 0.50855359750E+01 0.63531281091E+01 0.83610801953E+01 0.11173026453E+02
 0.14754765614E+02 0.18972680823E+02 0.23593600507E+02 0.28289640368E+02 0.32657593681E+02
 0.36261469010E+02 0.38697703010E+02 0.39669889155E+02 0.39051006039E+02 0.45584075276E+02
 0.41909264553E+02 0.37031544774E+02 0.31460658906E+02 0.25710539639E+02 0.20232688100E+02
 0.15377491929E+02 0.11378415407E+02 0.83480265458E+01 0.62782296808E+01 0.50454708204E+01
 0.44280574080E+01 0.41421642641E+01 0.39624217959E+01 0.38733571206E+01 0.38845817946E+01
 0.39937141666E+01 0.41864136264E+01 0.45324279242E+01 0.52974182177E+01 0.67404940093E+01
 0.90461910792E+01 0.12299496484E+02 0.16477031417E+02 0.21445074674E+02 0.26957735768E+02
 0.32657593681E+02 0.38089926053E+02 0.42743113203E+02 0.46118916665E+02 0.47820962175E+02
 0.47636535015E+02 0.54222544903E+02 0.50486504991E+02 0.45195205847E+02 0.38914955704E+02
 0.32240549441E+02 0.25710539639E+02 0.19756406934E+02 0.14683073153E+02 0.10666871771E+02
 0.77575601532E+01 0.58804704794E+01 0.48454080632E+01 0.43727001349E+01 0.41473056314E+01
 0.40182564078E+01 0.39965860295E+01 0.40846813851E+01 0.42690037980E+01 0.46162326749E+01
 0.54142859994E+01 0.69573444504E+01 0.94643604064E+01 0.13048337828E+02 0.17705126185E+02
 0.23311172219E+02 0.29620585375E+02 0.36261469010E+02 0.42743113203E+02 0.48490448241E+02
 0.52914814740E+02 0.55512986648E+02 0.55968613506E+02 0.62115050492E+02 0.58574505637E+02
 0.53116036051E+02 0.46341226734E+02 0.38914955704E+02 0.31460658906E+02 0.24492680162E+02
 0.18388760494E+02 0.13388493466E+02 0.95991192022E+01 0.69984140512E+01 0.54380486206E+01
 0.46595707667E+01 0.43333054462E+01 0.41639269177E+01 0.41032217048E+01 0.41611077006E+01
 0.43274199444E+01 0.46498594424E+01 0.54219474221E+01 0.69706736114E+01 0.95518547852E+01
 0.13312440349E+02 0.18275730273E+02 0.24338719816E+02 0.31269001736E+02 0.38697703010E+02
 0.46118916665E+02 0.52914814740E+02 0.58421355171E+02 0.62032199261E+02 0.63316794867E+02
 0.68492926271E+02 0.65423836752E+02 0.60096527358E+02 0.53116036051E+02 0.45195205847E+02
 0.37031544774E+02 0.29219689208E+02 0.22210732325E+02 0.16307289027E+02 0.11672577107E+02
 0.83367556120E+01 0.61984269368E+01 0.50325199082E+01 0.45187838156E+01 0.43011640136E+01
 0.41986537500E+01 0.42190628346E+01 0.43584703355E+01 0.46371740211E+01 0.53270577447E+01
 0.67820599744E+01 0.92946174468E+01 0.13049882787E+02 0.18105742428E+02 0.24389049120E+02
 0.31693271964E+02 0.39669889155E+02 0.47820962175E+02 0.55512986648E+02 0.62032199261E+02
 0.66686075005E+02 0.68931760579E+02 0.72653682918E+02 0.70306883147E+02 0.65423836752E+02
 0.58574505637E+02 0.50486504991E+02 0.41909264553E+02 0.33506876473E+02 0.25800298308E+02
 0.19153974799E+02 0.13785253993E+02 0.97747369551E+01 0.70690311821E+01 0.54836537915E+01
 0.47218625826E+01 0.44200887993E+01 0.42767546463E+01 0.42552921067E+01 0.43599375034E+01
 0.45885194004E+01 0.51549000528E+01 0.64279085055E+01 0.87328532985E+01 0.12294841450E+02
 0.17211720244E+02 0.23447679871E+02 0.30831976753E+02 0.39051006039E+02 0.47636535015E+02
 0.55968613506E+02 0.63316794867E+02 0.68931760579E+02 0.72175408646E+02 0.72653682918E+02
 0.72175408646E+02 0.68931760579E+02 0.63316794867E+02 0.55968613506E+02 0.47636535015E+02
 0.39051006039E+02 0.30831976753E+02 0.23447679871E+02 0.17211720244E+02 0.12294841450E+02
 0.87328532985E+01 0.64279085055E+01 0.51549000528E+01 0.45885194004E+01 0.43599375034E+01
 0.42552921067E+01 0.42767546463E+01 0.44200887993E+01 0.47218625826E+01 0.54836537915E+01
 0.70690311821E+01 0.97747369551E+01 0.13785253993E+02 0.19153974799E+02 0.25800298308E+02
 0.33506876473E+02 0.41909264553E+02 0.50486504991E+02 0.58574505637E+02 0.65423836752E+02
 0.70306883147E+02 0.72175408646E+02 0.72653682920E+02 0.70306883151E+02 0.65423836759E+02
 0.58574505645E+02 0.50486505000E+02 0.41909264563E+02 0.33506876482E+02 0.25800298315E+02
 0.19153974800E+02 0.13785253989E+02 0.97747369447E+01 0.70690311666E+01 0.54836537732E+01
 0.47218625645E+01 0.44200887847E+01 0.42767546375E+01 0.42552921048E+01 0.43599375077E+01
 0.45885194091E+01 0.51549000627E+01 0.64279085135E+01 0.87328533020E+01 0.12294841448E+02
 0.17211720236E+02 0.23447679858E+02 0.30831976738E+02 0.39051006025E+02 0.47636535002E+02
 0.55968613496E+02 0.63316794861E+02 0.68931760577E+02 0.68931760579E+02 0.70306883151E+02
 0.68931760582E+02 0.64976963242E+02 0.58914095789E+02 0.51410759628E+02 0.43198789733E+02
 0.34958265586E+02 0.27244841336E+02 0.20463469349E+02 0.14871625270E+02 0.10589643239E+02
 0.76052188595E+01 0.57750533273E+01 0.48375972523E+01 0.44498115979E+01 0.42727243794E+01
 0.42100733575E+01 0.42727243914E+01 0.44498116188E+01 0.48375972767E+01 0.57750533492E+01
 0.76052188736E+01 0.10589643242E+02 0.14871625262E+02 0.20463469331E+02 0.27244841314E+02
 0.34958265563E+02 0.43198789713E+02 0.51410759613E+02 0.58914095780E+02 0.64976963237E+02
 0.63316794867E+02 0.65423836759E+02 0.64976963242E+02 0.62032199261E+02 0.56946721335E+02
 0.50298003838E+02 0.42765134686E+02 0.35012329187E+02 0.27606051158E+02 0.20976085565E+02
 0.15409962594E+02 0.11060470130E+02 0.79509335901E+01 0.59768122031E+01 0.49144474708E+01
 0.44502045688E+01 0.42431272839E+01 0.41442724481E+01 0.41650662784E+01 0.43020141580E+01
 0.45631960611E+01 0.51904425507E+01 0.65291946862E+01 0.88689951161E+01 0.12396544749E+02
 0.17173997741E+02 0.23133855101E+02 0.30076839873E+02 0.37665317368E+02 0.45418652350E+02
 0.52728733824E+02 0.58914095784E+02 0.55968613506E+02 0.58574505645E+02 0.58914095789E+02
 0.56946721335E+02 0.52914814736E+02 0.47288701460E+02 0.40667258389E+02 0.33668920486E+02
 0.26844931298E+02 0.20630499488E+02 0.15329773887E+02 0.11118359475E+02 0.80478553411E+01
 0.60476638312E+01 0.49313428339E+01 0.44195816231E+01 0.41895091004E+01 0.40620419123E+01
 0.40446698158E+01 0.41404746770E+01 0.43359191163E+01 0.47233242088E+01 0.56126729717E+01
 0.73084068685E+01 0.10034474486E+02 0.13902328053E+02 0.18898961957E+02 0.24884276748E+02
 0.31588216360E+02 0.38608132694E+02 0.45418652356E+02 0.51410759622E+02 0.47636535015E+02
 0.50486505000E+02 0.51410759628E+02 0.50298003838E+02 0.47288701460E+02 0.42743113198E+02
 0.37163930826E+02 0.31100742450E+02 0.25065805284E+02 0.19479579544E+02 0.14647518826E+02
 0.10756669960E+02 0.78781170117E+01 0.59686700072E+01 0.48758226164E+01 0.43559909017E+01
 0.41147850078E+01 0.39679487754E+01 0.39191867191E+01 0.39755845972E+01 0.41306704115E+01
 0.43814653621E+01 0.49153894566E+01 0.60328367187E+01 0.79837710427E+01 0.10924609722E+02
 0.14897000314E+02 0.19820942691E+02 0.25493312903E+02 0.31588216368E+02 0.37665317380E+02
 0.43198789727E+02 0.39051006039E+02 0.41909264563E+02 0.43198789733E+02 0.42765134686E+02
 0.40667258389E+02 0.37163930826E+02 0.32657593675E+02 0.27615421454E+02 0.22492702284E+02
 0.17677379294E+02 0.13461229581E+02 0.10030929863E+02 0.74676710037E+01 0.57482477708E+01
 0.47491154406E+01 0.42610804381E+01 0.40228824209E+01 0.38664681081E+01 0.37951904090E+01
 0.38175597207E+01 0.39325531473E+01 0.41289023735E+01 0.44396123857E+01 0.51000553119E+01
 0.63697773283E+01 0.84404875104E+01 0.11405237146E+02 0.15244195093E+02 0.19820942701E+02
 0.24884276765E+02 0.30076839892E+02 0.34958265582E+02 0.30831976753E+02 0.33506876482E+02
 0.34958265586E+02 0.35012329187E+02 0.33668920486E+02 0.31100742450E+02 0.27615421454E+02
 0.23593600498E+02 0.19423034067E+02 0.15446069206E+02 0.11928244358E+02 0.90451419524E+01
 0.68791686805E+01 0.54197080619E+01 0.45664738951E+01 0.41415391576E+01 0.39183625718E+01
 0.37616510872E+01 0.36775433932E+01 0.36738554916E+01 0.37521897814E+01 0.39084321568E+01
 0.41311183346E+01 0.44950084868E+01 0.52330562891E+01 0.65566927952E+01 0.86016575878E+01
 0.11405237157E+02 0.14897000334E+02 0.18898961981E+02 0.23133855125E+02 0.27244841334E+02
 0.23447679871E+02 0.25800298315E+02 0.27244841336E+02 0.27606051158E+02 0.26844931298E+02
 0.25065805284E+02 0.22492702284E+02 0.19423034067E+02 0.16173554261E+02 0.13033488605E+02
 0.10233298957E+02 0.79290681301E+01 0.61969821530E+01 0.50324687599E+01 0.43529277409E+01
 0.40077194204E+01 0.38060728752E+01 0.36569979217E+01 0.35692682529E+01 0.35486218301E+01
 0.35971040231E+01 0.37144318341E+01 0.38963922482E+01 0.41353989187E+01 0.45287646292E+01
 0.52813997474E+01 0.65566928066E+01 0.84404875317E+01 0.10924609749E+02 0.13902328081E+02
 0.17173997767E+02 0.20463469351E+02 0.17211720244E+02 0.19153974800E+02 0.20463469349E+02
 0.20976085565E+02 0.20630499488E+02 0.19479579544E+02 0.17677379294E+02 0.15446069206E+02
 0.13033488605E+02 0.10673350542E+02 0.85562611136E+01 0.68133148254E+01 0.55090898203E+01
 0.46399177103E+01 0.41360507226E+01 0.38700463164E+01 0.36908618526E+01 0.35554953303E+01
 0.34718583058E+01 0.34430263037E+01 0.34701514665E+01 0.35542697334E+01 0.36957576113E+01
 0.38915771700E+01 0.41375293287E+01 0.45287646395E+01 0.52330563100E+01 0.63697773570E+01
 0.79837710747E+01 0.10034474516E+02 0.12396544773E+02 0.14871625278E+02 0.12294841450E+02
 0.13785253989E+02 0.14871625270E+02 0.15409962594E+02 0.15329773887E+02 0.14647518826E+02
 0.13461229581E+02 0.11928244358E+02 0.10233298957E+02 0.85562611136E+01 0.70467344941E+01
 0.58082376503E+01 0.48905465388E+01 0.42873612837E+01 0.39379923228E+01 0.37345418018E+01
 0.35773787292E+01 0.34597510524E+01 0.33858515831E+01 0.33562004254E+01 0.33705223445E+01
 0.34296408979E+01 0.35356511481E+01 0.36902322692E+01 0.38915771772E+01 0.41353989356E+01
 0.44950085130E+01 0.51000553440E+01 0.60328367517E+01 0.73084068974E+01 0.88689951369E+01
 0.10589643253E+02 0.87328532985E+01 0.97747369447E+01 0.10589643239E+02 0.11060470130E+02
 0.11118359475E+02 0.10756669960E+02 0.10030929863E+02 0.90451419524E+01 0.79290681301E+01
 0.68133148254E+01 0.58082376503E+01 0.49896936393E+01 0.43914554041E+01 0.40025832362E+01
 0.37687370149E+01 0.36037362464E+01 0.34699593901E+01 0.33721612455E+01 0.33114692763E+01
 0.32864331956E+01 0.32954219292E+01 0.33383734282E+01 0.34173429506E+01 0.35356511506E+01
 0.36957576206E+01 0.38963922664E+01 0.41311183610E+01 0.44396124168E+01 0.49153894873E+01
 0.56126729971E+01 0.65291947026E+01 0.76052188795E+01 0.64279085055E+01 0.70690311666E+01
 0.76052188595E+01 0.79509335901E+01 0.80478553411E+01 0.78781170117E+01 0.74676710037E+01
 0.68791686805E+01 0.61969821530E+01 0.55090898203E+01 0.48905465388E+01 0.43914554041E+01
 0.40300384017E+01 0.37900190330E+01 0.36220767106E+01 0.34824671279E+01 0.33725657369E+01
 0.32950554982E+01 0.32491581981E+01 0.32322648717E+01 0.32418180640E+01 0.32767930319E+01
 0.33383734254E+01 0.34296408973E+01 0.35542697391E+01 0.37144318482E+01 0.39084321786E+01
 0.41289023999E+01 0.43814653884E+01 0.47233242300E+01 0.51904425632E+01 0.57750533511E+01
 0.51549000528E+01 0.54836537732E+01 0.57750533273E+01 0.59768122031E+01 0.60476638312E+01
 0.59686700072E+01 0.57482477708E+01 0.54197080619E+01 0.50324687599E+01 0.46399177103E+01
 0.42873612837E+01 0.40025832362E+01 0.37900190330E+01 0.36284976301E+01 0.34899551726E+01
 0.33754080617E+01 0.32887218267E+01 0.32307712971E+01 0.31999342109E+01 0.31932502951E+01
 0.32077919287E+01 0.32418180573E+01 0.32954219195E+01 0.33705223365E+01 0.34701514644E+01
 0.35971040292E+01 0.37521897957E+01 0.39325531673E+01 0.41306704329E+01 0.43359191342E+01
 0.45631960714E+01 0.48375972771E+01 0.45885194004E+01 0.47218625645E+01 0.48375972523E+01
 0.49144474708E+01 0.49313428339E+01 0.48758226164E+01 0.47491154406E+01 0.45664738951E+01
 0.43529277409E+01 0.41360507226E+01 0.39379923228E+01 0.37687370149E+01 0.36220767106E+01
 0.34899551726E+01 0.33767171741E+01 0.32864682818E+01 0.32214038459E+01 0.31816254832E+01
 0.31654775821E+01 0.31702847582E+01 0.31932502865E+01 0.32322648564E+01 0.32864331771E+01
 0.33562004082E+01 0.34430262921E+01 0.35486218271E+01 0.36738554979E+01 0.38175597345E+01
 0.39755846148E+01 0.41404746935E+01 0.43020141688E+01 0.44498116205E+01 0.43599375034E+01
 0.44200887847E+01 0.44498115979E+01 0.44502045688E+01 0.44195816231E+01 0.43559909017E+01
 0.42610804381E+01 0.41415391576E+01 0.40077194204E+01 0.38700463164E+01 0.37345418018E+01
 0.36037362464E+01 0.34824671279E+01 0.33754080617E+01 0.32864682818E+01 0.32184699654E+01
 0.31728872908E+01 0.31497803797E+01 0.31479791961E+01 0.31654775738E+01 0.31999341945E+01
 0.32491581753E+01 0.33114692504E+01 0.33858515583E+01 0.34718582866E+01 0.35692682427E+01
 0.36775433934E+01 0.37951904186E+01 0.39191867349E+01 0.40446698332E+01 0.41650662921E+01
 0.42727243973E+01 0.42552921067E+01 0.42767546375E+01 0.42727243794E+01 0.42431272839E+01
 0.41895091004E+01 0.41147850078E+01 0.40228824209E+01 0.39183625718E+01 0.38060728752E+01
 0.36908618526E+01 0.35773787292E+01 0.34699593901E+01 0.33725657369E+01 0.32887218267E+01
 0.32214038459E+01 0.31728872908E+01 0.31445993208E+01 0.31370358786E+01 0.31497803725E+01
 0.31816254687E+01 0.32307712757E+01 0.32950554716E+01 0.33721612165E+01 0.34597510248E+01
 0.35554953083E+01 0.36569979088E+01 0.37616510851E+01 0.38664681166E+01 0.39679487919E+01
 0.40620419323E+01 0.41442724665E+01 0.42100733692E+01 0.42767546463E+01 0.42552921048E+01
 0.42100733575E+01 0.41442724481E+01 0.40620419123E+01 0.39679487754E+01 0.38664681081E+01
 0.37616510872E+01 0.36569979217E+01 0.35554953303E+01 0.34597510524E+01 0.33721612455E+01
 0.32950554982E+01 0.32307712971E+01 0.31816254832E+01 0.31497803797E+01 0.31370358786E+01
 0.31445993142E+01 0.31728872783E+01 0.32214038282E+01 0.32887218047E+01 0.33725657119E+01
 0.34699593642E+01 0.35773787055E+01 0.36908618342E+01 0.38060728651E+01 0.39183625719E+01
 0.40228824313E+01 0.41147850267E+01 0.41895091239E+01 0.42431273071E+01 0.42727243973E+01
 0.44200887993E+01 0.43599375077E+01 0.42727243914E+01 0.41650662784E+01 0.40446698158E+01
 0.39191867191E+01 0.37951904090E+01 0.36775433932E+01 0.35692682529E+01 0.34718583058E+01
 0.33858515831E+01 0.33114692763E+01 0.32491581981E+01 0.31999342109E+01 0.31654775821E+01
 0.31479791961E+01 0.31497803725E+01 0.31728872783E+01 0.32184699495E+01 0.32864682641E+01
 0.33754080435E+01 0.34824671102E+01 0.36037362301E+01 0.37345417885E+01 0.38700463078E+01
 0.40077194184E+01 0.41415391637E+01 0.42610804527E+01 0.43559909235E+01 0.44195816494E+01