   1   1   1   0
  0.8788000E+01  0.2251666E-09  0.2251666E-09  0.2251666E-09  0.5000000E-15
  1.000000000000000E-004
  CAR 
 Fe FCC                                  
     57.30449627     -3.50537073  301      9.01685929      1.00000000
     -3.505  0.0000E+00  0.0000E+00  0.0000E+00  0.0000E+00
     -3.303  0.0000E+00  0.0000E+00  0.0000E+00  0.0000E+00
     -3.100  0.0000E+00  0.0000E+00  0.0000E+00  0.0000E+00
     -2.897  0.0000E+00  0.0000E+00  0.0000E+00  0.0000E+00
     -2.695  0.0000E+00  0.0000E+00  0.0000E+00  0.0000E+00
     -2.492  0.0000E+00  0.0000E+00  0.0000E+00  0.0000E+00
     -2.289  0.0000E+00  0.0000E+00  0.0000E+00  0.0000E+00
     -2.086  0.0000E+00  0.0000E+00  0.0000E+00  0.0000E+00
     -1.884  0.0000E+00  0.0000E+00  0.0000E+00  0.0000E+00
     -1.681  0.0000E+00  0.0000E+00  0.0000E+00  0.0000E+00
     -1.478  0.0000E+00  0.0000E+00  0.0000E+00  0.0000E+00
     -1.276  0.0000E+00  0.0000E+00  0.0000E+00  0.0000E+00
     -1.073  0.0000E+00  0.0000E+00  0.0000E+00  0.0000E+00
     -0.870  0.0000E+00  0.0000E+00  0.0000E+00  0.0000E+00
     -0.668  0.1003E-01  0.0000E+00  0.1314E-02  0.0000E+00
     -0.465  0.1524E-01  0.9571E-02  0.3888E-02  0.1209E-02
     -0.262  0.1972E-01  0.1462E-01  0.7444E-02  0.3673E-02
     -0.059  0.2346E-01  0.1892E-01  0.1183E-01  0.7085E-02
      0.143  0.2931E-01  0.2247E-01  0.1710E-01  0.1129E-01
      0.346  0.3544E-01  0.2758E-01  0.2368E-01  0.1628E-01
      0.549  0.4032E-01  0.3325E-01  0.3138E-01  0.2246E-01
      0.751  0.4248E-01  0.3766E-01  0.3982E-01  0.2967E-01
      0.954  0.4829E-01  0.3850E-01  0.4901E-01  0.3759E-01
      1.157  0.5477E-01  0.4280E-01  0.5944E-01  0.4583E-01
      1.359  0.6192E-01  0.4749E-01  0.7126E-01  0.5497E-01
      1.562  0.6975E-01  0.5256E-01  0.8459E-01  0.6511E-01
      1.765  0.7826E-01  0.5802E-01  0.9958E-01  0.7631E-01
      1.968  0.9669E-01  0.6387E-01  0.1169E+00  0.8866E-01
      2.170  0.1256E+00  0.6924E-01  0.1393E+00  0.1022E+00
      2.373  0.1757E+00  0.8134E-01  0.1685E+00  0.1175E+00
      2.576  0.4274E+00  0.9393E-01  0.2288E+00  0.1352E+00
      2.778  0.5030E+00  0.1062E+00  0.3253E+00  0.1555E+00
      2.981  0.6017E+00  0.1250E+00  0.4363E+00  0.1788E+00
      3.184  0.1801E+01  0.1520E+00  0.5861E+00  0.2067E+00
      3.386  0.8048E+00  0.1851E+00  0.7651E+00  0.2408E+00
      3.589  0.5773E+00  0.3386E+00  0.9088E+00  0.2879E+00
      3.792  0.4055E+00  0.3426E+00  0.1006E+01  0.3572E+00
      3.995  0.2977E+00  0.4355E+00  0.1078E+01  0.4342E+00
      4.197  0.2984E+00  0.5339E+00  0.1135E+01  0.5337E+00
      4.400  0.1682E+01  0.6055E+00  0.1247E+01  0.6465E+00
      4.603  0.1202E+01  0.6943E+00  0.1494E+01  0.7874E+00
      4.805  0.8905E+00  0.5338E+00  0.1708E+01  0.9134E+00
      5.008  0.4697E+00  0.3422E+00  0.1827E+01  0.9988E+00
      5.211  0.4942E+00  0.1888E+00  0.1922E+01  0.1056E+01
      5.413  0.6610E+00  0.1698E+00  0.2039E+01  0.1095E+01
      5.616  0.9827E+00  0.6222E+00  0.2200E+01  0.1156E+01
      5.819  0.1392E+01  0.1043E+01  0.2451E+01  0.1349E+01
      6.022  0.6068E+00  0.9763E+00  0.2667E+01  0.1564E+01
      6.224  0.3397E+00  0.7155E+00  0.2752E+01  0.1737E+01
      6.427  0.2903E+00  0.6178E+00  0.2815E+01  0.1869E+01
      6.630  0.2732E+00  0.6592E+00  0.2872E+01  0.1997E+01
      6.832  0.2776E+00  0.8035E+00  0.2928E+01  0.2139E+01
      7.035  0.5018E+00  0.1091E+01  0.2997E+01  0.2330E+01
      7.238  0.5087E+00  0.1042E+01  0.3088E+01  0.2559E+01
      7.440  0.8233E+00  0.5862E+00  0.3221E+01  0.2725E+01
      7.643  0.1216E+01  0.2630E+00  0.3426E+01  0.2800E+01
      7.846  0.1422E+01  0.2227E+00  0.3698E+01  0.2849E+01
      8.049  0.1151E+01  0.1921E+00  0.4004E+01  0.2891E+01
      8.251  0.1513E+01  0.1804E+00  0.4260E+01  0.2928E+01
      8.454  0.8709E+00  0.2001E+00  0.4512E+01  0.2967E+01
      8.657  0.6911E+00  0.2321E+00  0.4669E+01  0.3011E+01
      8.859  0.5864E+00  0.2942E+00  0.4794E+01  0.3064E+01
      9.062  0.5592E+00  0.3956E+00  0.4910E+01  0.3132E+01
      9.265  0.6422E+00  0.5676E+00  0.5031E+01  0.3231E+01
      9.467  0.4003E+00  0.7626E+00  0.5178E+01  0.3363E+01
      9.670  0.1754E+00  0.1003E+01  0.5233E+01  0.3544E+01
      9.873  0.1190E+00  0.1133E+01  0.5260E+01  0.3758E+01
     10.075  0.1328E+00  0.9406E+00  0.5286E+01  0.3987E+01
     10.278  0.1351E+00  0.8697E+00  0.5313E+01  0.4167E+01
     10.481  0.1351E+00  0.8903E+00  0.5341E+01  0.4354E+01
     10.684  0.1301E+00  0.1143E+01  0.5367E+01  0.4682E+01
     10.886  0.1250E+00  0.8601E+00  0.5393E+01  0.4872E+01
     11.089  0.1216E+00  0.8733E+00  0.5418E+01  0.5039E+01
     11.292  0.1214E+00  0.4062E+00  0.5443E+01  0.5187E+01
     11.494  0.1214E+00  0.1597E+00  0.5467E+01  0.5237E+01
     11.697  0.1215E+00  0.1817E+00  0.5492E+01  0.5272E+01
     11.900  0.1218E+00  0.1764E+00  0.5517E+01  0.5309E+01
     12.102  0.1220E+00  0.1679E+00  0.5541E+01  0.5344E+01
     12.305  0.1214E+00  0.1566E+00  0.5566E+01  0.5377E+01
     12.508  0.1199E+00  0.1449E+00  0.5591E+01  0.5407E+01
     12.711  0.1175E+00  0.1430E+00  0.5615E+01  0.5436E+01
     12.913  0.1223E+00  0.1418E+00  0.5639E+01  0.5465E+01
     13.116  0.1141E+00  0.1415E+00  0.5663E+01  0.5494E+01
     13.319  0.1106E+00  0.1413E+00  0.5686E+01  0.5523E+01
     13.521  0.1138E+00  0.1401E+00  0.5708E+01  0.5551E+01
     13.724  0.1064E+00  0.1376E+00  0.5732E+01  0.5579E+01
     13.927  0.1027E+00  0.1337E+00  0.5753E+01  0.5607E+01
     14.129  0.9893E-01  0.1380E+00  0.5774E+01  0.5634E+01
     14.332  0.9521E-01  0.1233E+00  0.5793E+01  0.5661E+01
     14.535  0.9150E-01  0.1219E+00  0.5812E+01  0.5686E+01
     14.738  0.8780E-01  0.1238E+00  0.5830E+01  0.5710E+01
     14.940  0.8385E-01  0.1148E+00  0.5848E+01  0.5736E+01
     15.143  0.7841E-01  0.1103E+00  0.5864E+01  0.5759E+01
     15.346  0.7301E-01  0.1059E+00  0.5880E+01  0.5781E+01
     15.548  0.6766E-01  0.1016E+00  0.5894E+01  0.5802E+01
     15.751  0.7120E-01  0.9730E-01  0.5908E+01  0.5822E+01
     15.954  0.6553E-01  0.9305E-01  0.5921E+01  0.5841E+01
     16.156  0.5658E-01  0.8825E-01  0.5934E+01  0.5859E+01
     16.359  0.4020E-01  0.8191E-01  0.5943E+01  0.5877E+01
     16.562  0.3699E-01  0.7562E-01  0.5951E+01  0.5893E+01
     16.765  0.3397E-01  0.7724E-01  0.5958E+01  0.5909E+01
     16.967  0.2862E-01  0.6914E-01  0.5966E+01  0.5924E+01
     17.170  0.2249E-01  0.5852E-01  0.5971E+01  0.5937E+01
     17.373  0.1802E-01  0.4326E-01  0.5975E+01  0.5946E+01
     17.575  0.1521E-01  0.3953E-01  0.5979E+01  0.5954E+01
     17.778  0.1404E-01  0.3617E-01  0.5982E+01  0.5963E+01
     17.981  0.1440E-01  0.2836E-01  0.5984E+01  0.5970E+01
     18.183  0.1627E-01  0.2227E-01  0.5987E+01  0.5975E+01
     18.386  0.1964E-01  0.1792E-01  0.5991E+01  0.5979E+01
     18.589  0.2452E-01  0.1530E-01  0.5996E+01  0.5982E+01
     18.792  0.3090E-01  0.1435E-01  0.6001E+01  0.5985E+01
     18.994  0.5325E-01  0.1489E-01  0.6010E+01  0.5988E+01
     19.197  0.9195E-01  0.1692E-01  0.6024E+01  0.5992E+01
     19.400  0.1599E+00  0.2292E-01  0.6051E+01  0.5996E+01
     19.602  0.2056E+00  0.2660E-01  0.6088E+01  0.6001E+01
     19.805  0.2495E+00  0.3127E-01  0.6135E+01  0.6007E+01
     20.008  0.2622E+00  0.3696E-01  0.6187E+01  0.6014E+01
     20.210  0.1881E+00  0.8156E-01  0.6240E+01  0.6025E+01
     20.413  0.1752E+00  0.1672E+00  0.6276E+01  0.6053E+01
     20.616  0.1703E+00  0.2197E+00  0.6311E+01  0.6093E+01
     20.819  0.1649E+00  0.2705E+00  0.6345E+01  0.6142E+01
     21.021  0.1590E+00  0.3098E+00  0.6378E+01  0.6202E+01
     21.224  0.1556E+00  0.2023E+00  0.6410E+01  0.6254E+01
     21.427  0.1823E+00  0.1897E+00  0.6442E+01  0.6293E+01
     21.629  0.1581E+00  0.1828E+00  0.6476E+01  0.6331E+01
     21.832  0.1346E+00  0.1875E+00  0.6506E+01  0.6368E+01
     22.035  0.1399E+00  0.1878E+00  0.6533E+01  0.6406E+01
     22.237  0.1540E+00  0.1464E+00  0.6563E+01  0.6444E+01
     22.440  0.1632E+00  0.1445E+00  0.6595E+01  0.6474E+01
     22.643  0.1726E+00  0.1471E+00  0.6631E+01  0.6503E+01
     22.846  0.1757E+00  0.1539E+00  0.6667E+01  0.6534E+01
     23.048  0.1799E+00  0.1696E+00  0.6703E+01  0.6567E+01
     23.251  0.1827E+00  0.1831E+00  0.6739E+01  0.6604E+01
     23.454  0.1856E+00  0.1846E+00  0.6777E+01  0.6641E+01
     23.656  0.1876E+00  0.1884E+00  0.6814E+01  0.6679E+01
     23.859  0.1885E+00  0.1919E+00  0.6853E+01  0.6718E+01
     24.062  0.1881E+00  0.1949E+00  0.6891E+01  0.6757E+01
     24.264  0.1864E+00  0.1969E+00  0.6929E+01  0.6797E+01
     24.467  0.1676E+00  0.1979E+00  0.6967E+01  0.6837E+01
     24.670  0.1707E+00  0.1973E+00  0.7002E+01  0.6877E+01
     24.873  0.1690E+00  0.1990E+00  0.7036E+01  0.6917E+01
     25.075  0.1682E+00  0.1751E+00  0.7070E+01  0.6955E+01
     25.278  0.1676E+00  0.1725E+00  0.7104E+01  0.6990E+01
     25.481  0.1670E+00  0.1765E+00  0.7138E+01  0.7027E+01
     25.683  0.1664E+00  0.1749E+00  0.7172E+01  0.7063E+01
     25.886  0.1722E+00  0.1747E+00  0.7206E+01  0.7098E+01
     26.089  0.1686E+00  0.1743E+00  0.7240E+01  0.7134E+01
     26.291  0.1652E+00  0.1738E+00  0.7274E+01  0.7169E+01
     26.494  0.1634E+00  0.1734E+00  0.7307E+01  0.7204E+01
     26.697  0.1618E+00  0.1802E+00  0.7340E+01  0.7240E+01
     26.900  0.1610E+00  0.1740E+00  0.7373E+01  0.7276E+01
     27.102  0.1606E+00  0.1715E+00  0.7406E+01  0.7311E+01
     27.305  0.1602E+00  0.1700E+00  0.7438E+01  0.7346E+01
     27.508  0.1597E+00  0.1697E+00  0.7471E+01  0.7380E+01
     27.710  0.1647E+00  0.1697E+00  0.7504E+01  0.7415E+01
     27.913  0.1670E+00  0.1696E+00  0.7537E+01  0.7449E+01
     28.116  0.1715E+00  0.1695E+00  0.7572E+01  0.7483E+01
     28.318  0.1765E+00  0.1693E+00  0.7607E+01  0.7518E+01
     28.521  0.1839E+00  0.1704E+00  0.7643E+01  0.7552E+01
     28.724  0.1974E+00  0.1777E+00  0.7682E+01  0.7588E+01
     28.927  0.1919E+00  0.1802E+00  0.7721E+01  0.7624E+01
     29.129  0.1999E+00  0.1837E+00  0.7762E+01  0.7661E+01
     29.332  0.2056E+00  0.1906E+00  0.7803E+01  0.7699E+01
     29.535  0.2130E+00  0.2085E+00  0.7845E+01  0.7739E+01
     29.737  0.2089E+00  0.2011E+00  0.7888E+01  0.7779E+01
     29.940  0.2121E+00  0.2027E+00  0.7931E+01  0.7821E+01
     30.143  0.2056E+00  0.2117E+00  0.7973E+01  0.7863E+01
     30.345  0.2057E+00  0.2176E+00  0.8015E+01  0.7906E+01
     30.548  0.2113E+00  0.2198E+00  0.8057E+01  0.7951E+01
     30.751  0.2200E+00  0.2135E+00  0.8101E+01  0.7995E+01
     30.954  0.2144E+00  0.2151E+00  0.8144E+01  0.8038E+01
     31.156  0.2165E+00  0.2231E+00  0.8188E+01  0.8082E+01
     31.359  0.2170E+00  0.2176E+00  0.8231E+01  0.8127E+01
     31.562  0.2265E+00  0.2174E+00  0.8276E+01  0.8171E+01
     31.764  0.2378E+00  0.2227E+00  0.8323E+01  0.8215E+01
     31.967  0.2505E+00  0.2275E+00  0.8373E+01  0.8261E+01
     32.170  0.2537E+00  0.2381E+00  0.8424E+01  0.8308E+01
     32.372  0.2636E+00  0.2501E+00  0.8476E+01  0.8357E+01
     32.575  0.2773E+00  0.2634E+00  0.8534E+01  0.8409E+01
     32.778  0.2564E+00  0.2647E+00  0.8588E+01  0.8462E+01
     32.981  0.2408E+00  0.2742E+00  0.8638E+01  0.8517E+01
     33.183  0.2306E+00  0.2763E+00  0.8686E+01  0.8577E+01
     33.386  0.2221E+00  0.2492E+00  0.8732E+01  0.8629E+01
     33.589  0.2124E+00  0.2405E+00  0.8776E+01  0.8679E+01
     33.791  0.2003E+00  0.2319E+00  0.8818E+01  0.8727E+01
     33.994  0.1857E+00  0.2208E+00  0.8857E+01  0.8773E+01
     34.197  0.1587E+00  0.2072E+00  0.8892E+01  0.8816E+01
     34.399  0.1482E+00  0.1838E+00  0.8923E+01  0.8856E+01
     34.602  0.1400E+00  0.1632E+00  0.8952E+01  0.8891E+01
     34.805  0.1305E+00  0.1462E+00  0.8980E+01  0.8923E+01
     35.008  0.1284E+00  0.1393E+00  0.9006E+01  0.8952E+01
     35.210  0.1335E+00  0.1346E+00  0.9033E+01  0.8980E+01
     35.413  0.1321E+00  0.1317E+00  0.9060E+01  0.9007E+01
     35.616  0.1680E+00  0.1372E+00  0.9091E+01  0.9034E+01
     35.818  0.1838E+00  0.1363E+00  0.9127E+01  0.9063E+01
     36.021  0.1334E+00  0.1407E+00  0.9158E+01  0.9091E+01
     36.224  0.1313E+00  0.2056E+00  0.9185E+01  0.9142E+01
     36.426  0.1224E+00  0.1410E+00  0.9212E+01  0.9176E+01
     36.629  0.1171E+00  0.1241E+00  0.9237E+01  0.9202E+01
     36.832  0.1130E+00  0.1109E+00  0.9260E+01  0.9226E+01
     37.035  0.1101E+00  0.1014E+00  0.9283E+01  0.9248E+01
     37.237  0.1123E+00  0.9580E-01  0.9306E+01  0.9268E+01
     37.440  0.1145E+00  0.9764E-01  0.9329E+01  0.9287E+01
     37.643  0.1368E+00  0.1028E+00  0.9353E+01  0.9307E+01
     37.845  0.1956E+00  0.1073E+00  0.9387E+01  0.9329E+01
     38.048  0.2492E+00  0.1403E+00  0.9432E+01  0.9353E+01
     38.251  0.4012E+00  0.2023E+00  0.9490E+01  0.9388E+01
     38.453  0.2516E+00  0.2657E+00  0.9564E+01  0.9436E+01
     38.656  0.2104E+00  0.3166E+00  0.9610E+01  0.9495E+01
     38.859  0.1806E+00  0.2378E+00  0.9649E+01  0.9576E+01
     39.062  0.1587E+00  0.2082E+00  0.9684E+01  0.9622E+01
     39.264  0.1494E+00  0.1829E+00  0.9715E+01  0.9661E+01
     39.467  0.1416E+00  0.1621E+00  0.9744E+01  0.9696E+01
     39.670  0.1340E+00  0.1473E+00  0.9772E+01  0.9727E+01
     39.872  0.1266E+00  0.1366E+00  0.9799E+01  0.9756E+01
     40.075  0.1195E+00  0.1268E+00  0.9823E+01  0.9783E+01
     40.278  0.1236E+00  0.1178E+00  0.9847E+01  0.9807E+01
     40.480  0.1352E+00  0.1094E+00  0.9874E+01  0.9830E+01
     40.683  0.1438E+00  0.1109E+00  0.9902E+01  0.9853E+01
     40.886  0.1469E+00  0.1137E+00  0.9932E+01  0.9876E+01
     41.089  0.1423E+00  0.1765E+00  0.9961E+01  0.9902E+01
     41.291  0.1322E+00  0.1423E+00  0.9994E+01  0.9933E+01
     41.494  0.1751E+00  0.1349E+00  0.1002E+02  0.9961E+01
     41.697  0.2242E+00  0.1262E+00  0.1006E+02  0.9987E+01
     41.899  0.2548E+00  0.1682E+00  0.1011E+02  0.1002E+02
     42.102  0.2812E+00  0.2156E+00  0.1017E+02  0.1006E+02
     42.305  0.3025E+00  0.2600E+00  0.1023E+02  0.1010E+02
     42.507  0.2949E+00  0.2834E+00  0.1029E+02  0.1016E+02
     42.710  0.2850E+00  0.3011E+00  0.1035E+02  0.1022E+02
     42.913  0.2729E+00  0.2947E+00  0.1041E+02  0.1028E+02
     43.116  0.2586E+00  0.2859E+00  0.1046E+02  0.1034E+02
     43.318  0.2573E+00  0.2749E+00  0.1051E+02  0.1040E+02
     43.521  0.2468E+00  0.2619E+00  0.1056E+02  0.1045E+02
     43.724  0.2355E+00  0.2467E+00  0.1061E+02  0.1050E+02
     43.926  0.2310E+00  0.2491E+00  0.1066E+02  0.1055E+02
     44.129  0.2267E+00  0.2377E+00  0.1070E+02  0.1060E+02
     44.332  0.2223E+00  0.2361E+00  0.1075E+02  0.1065E+02
     44.534  0.2156E+00  0.2341E+00  0.1079E+02  0.1070E+02
     44.737  0.2176E+00  0.2314E+00  0.1084E+02  0.1074E+02
     44.940  0.2264E+00  0.2284E+00  0.1088E+02  0.1079E+02
     45.143  0.2168E+00  0.2231E+00  0.1093E+02  0.1084E+02
     45.345  0.1925E+00  0.2213E+00  0.1097E+02  0.1088E+02
     45.548  0.1957E+00  0.2143E+00  0.1101E+02  0.1093E+02
     45.751  0.2055E+00  0.2231E+00  0.1105E+02  0.1097E+02
     45.953  0.2101E+00  0.2094E+00  0.1109E+02  0.1102E+02
     46.156  0.2173E+00  0.2066E+00  0.1113E+02  0.1106E+02
     46.359  0.2260E+00  0.2049E+00  0.1118E+02  0.1110E+02
     46.561  0.2401E+00  0.2077E+00  0.1123E+02  0.1114E+02
     46.764  0.2700E+00  0.2133E+00  0.1128E+02  0.1118E+02
     46.967  0.2548E+00  0.2102E+00  0.1133E+02  0.1123E+02
     47.170  0.2533E+00  0.2375E+00  0.1138E+02  0.1127E+02
     47.372  0.2423E+00  0.2345E+00  0.1143E+02  0.1132E+02
     47.575  0.2163E+00  0.2369E+00  0.1148E+02  0.1137E+02
     47.778  0.1926E+00  0.2359E+00  0.1152E+02  0.1142E+02
     47.980  0.1860E+00  0.2316E+00  0.1156E+02  0.1146E+02
     48.183  0.1797E+00  0.2083E+00  0.1160E+02  0.1151E+02
     48.386  0.1737E+00  0.1902E+00  0.1163E+02  0.1155E+02
     48.588  0.1676E+00  0.1843E+00  0.1167E+02  0.1159E+02
     48.791  0.1604E+00  0.1786E+00  0.1170E+02  0.1162E+02
     48.994  0.1645E+00  0.1714E+00  0.1173E+02  0.1166E+02
     49.197  0.1562E+00  0.1683E+00  0.1177E+02  0.1169E+02
     49.399  0.1462E+00  0.1667E+00  0.1180E+02  0.1173E+02
     49.602  0.1401E+00  0.1569E+00  0.1183E+02  0.1176E+02
     49.805  0.1230E+00  0.1463E+00  0.1185E+02  0.1179E+02
     50.007  0.8951E-01  0.1389E+00  0.1188E+02  0.1182E+02
     50.210  0.7603E-01  0.1214E+00  0.1189E+02  0.1185E+02
     50.413  0.5935E-01  0.9058E-01  0.1191E+02  0.1187E+02
     50.615  0.5506E-01  0.7841E-01  0.1192E+02  0.1189E+02
     50.818  0.5095E-01  0.7041E-01  0.1193E+02  0.1190E+02
     51.021  0.4700E-01  0.6369E-01  0.1194E+02  0.1191E+02
     51.224  0.4323E-01  0.5255E-01  0.1195E+02  0.1193E+02
     51.426  0.3964E-01  0.4841E-01  0.1196E+02  0.1194E+02
     51.629  0.3200E-01  0.4447E-01  0.1196E+02  0.1195E+02
     51.832  0.2923E-01  0.3650E-01  0.1197E+02  0.1196E+02
     52.034  0.2660E-01  0.3339E-01  0.1198E+02  0.1196E+02
     52.237  0.2412E-01  0.3045E-01  0.1198E+02  0.1197E+02
     52.440  0.2179E-01  0.2767E-01  0.1199E+02  0.1197E+02
     52.642  0.1960E-01  0.2505E-01  0.1199E+02  0.1198E+02
     52.845  0.1553E-01  0.2259E-01  0.1199E+02  0.1199E+02
     53.048  0.1048E-01  0.2030E-01  0.1200E+02  0.1199E+02
     53.251  0.4468E-02  0.1438E-01  0.1200E+02  0.1199E+02
     53.453  0.1976E-02  0.8194E-02  0.1200E+02  0.1200E+02
     53.656  0.4862E-03  0.5424E-02  0.1200E+02  0.1200E+02
     53.859  0.0000E+00  0.3223E-02  0.1200E+02  0.1200E+02
     54.061  0.0000E+00  0.1591E-02  0.1200E+02  0.1200E+02
     54.264  0.0000E+00  0.5296E-03  0.1200E+02  0.1200E+02
     54.467  0.0000E+00  0.3766E-04  0.1200E+02  0.1200E+02
     54.669  0.0000E+00  0.0000E+00  0.1200E+02  0.1200E+02
     54.872  0.0000E+00  0.0000E+00  0.1200E+02  0.1200E+02
     55.075  0.0000E+00  0.0000E+00  0.1200E+02  0.1200E+02
     55.278  0.0000E+00  0.0000E+00  0.1200E+02  0.1200E+02
     55.480  0.0000E+00  0.0000E+00  0.1200E+02  0.1200E+02
     55.683  0.0000E+00  0.0000E+00  0.1200E+02  0.1200E+02
     55.886  0.0000E+00  0.0000E+00  0.1200E+02  0.1200E+02
     56.088  0.0000E+00  0.0000E+00  0.1200E+02  0.1200E+02
     56.291  0.0000E+00  0.0000E+00  0.1200E+02  0.1200E+02
     56.494  0.0000E+00  0.0000E+00  0.1200E+02  0.1200E+02
     56.696  0.0000E+00  0.0000E+00  0.1200E+02  0.1200E+02
     56.899  0.0000E+00  0.0000E+00  0.1200E+02  0.1200E+02
     57.102  0.0000E+00  0.0000E+00  0.1200E+02  0.1200E+02
     57.304  0.0000E+00  0.0000E+00  0.1200E+02  0.1200E+02
     57.30449627     -3.50537073  301      9.01685929      1.00000000
     -3.505  0.0000E+00  0.0000E+00  0.0000E+00  0.0000E+00  0.0000E+00  0.0000E+00  0.0000E+00  0.0000E+00  0.0000E+00  0.0000E+00  0.0000E+00  0.0000E+00  0.0000E+00  0.0000E+00  0.0000E+00  0.0000E+00  0.0000E+00  0.0000E+00
     -3.303  0.0000E+00  0.0000E+00  0.0000E+00  0.0000E+00  0.0000E+00  0.0000E+00  0.0000E+00  0.0000E+00  0.0000E+00  0.0000E+00  0.0000E+00  0.0000E+00  0.0000E+00  0.0000E+00  0.0000E+00  0.0000E+00  0.0000E+00  0.0000E+00
     -3.100  0.0000E+00  0.0000E+00  0.0000E+00  0.0000E+00  0.0000E+00  0.0000E+00  0.0000E+00  0.0000E+00  0.0000E+00  0.0000E+00  0.0000E+00  0.0000E+00  0.0000E+00  0.0000E+00  0.0000E+00  0.0000E+00  0.0000E+00  0.0000E+00
     -2.897  0.0000E+00  0.0000E+00  0.0000E+00  0.0000E+00  0.0000E+00  0.0000E+00  0.0000E+00  0.0000E+00  0.0000E+00  0.0000E+00  0.0000E+00  0.0000E+00  0.0000E+00  0.0000E+00  0.0000E+00  0.0000E+00  0.0000E+00  0.0000E+00
     -2.695  0.0000E+00  0.0000E+00  0.0000E+00  0.0000E+00  0.0000E+00  0.0000E+00  0.0000E+00  0.0000E+00  0.0000E+00  0.0000E+00  0.0000E+00  0.0000E+00  0.0000E+00  0.0000E+00  0.0000E+00  0.0000E+00  0.0000E+00  0.0000E+00
     -2.492  0.0000E+00  0.0000E+00  0.0000E+00  0.0000E+00  0.0000E+00  0.0000E+00  0.0000E+00  0.0000E+00  0.0000E+00  0.0000E+00  0.0000E+00  0.0000E+00  0.0000E+00  0.0000E+00  0.0000E+00  0.0000E+00  0.0000E+00  0.0000E+00
     -2.289  0.0000E+00  0.0000E+00  0.0000E+00  0.0000E+00  0.0000E+00  0.0000E+00  0.0000E+00  0.0000E+00  0.0000E+00  0.0000E+00  0.0000E+00  0.0000E+00  0.0000E+00  0.0000E+00  0.0000E+00  0.0000E+00  0.0000E+00  0.0000E+00
     -2.086  0.0000E+00  0.0000E+00  0.0000E+00  0.0000E+00  0.0000E+00  0.0000E+00  0.0000E+00  0.0000E+00  0.0000E+00  0.0000E+00  0.0000E+00  0.0000E+00  0.0000E+00  0.0000E+00  0.0000E+00  0.0000E+00  0.0000E+00  0.0000E+00
     -1.884  0.0000E+00  0.0000E+00  0.0000E+00  0.0000E+00  0.0000E+00  0.0000E+00  0.0000E+00  0.0000E+00  0.0000E+00  0.0000E+00  0.0000E+00  0.0000E+00  0.0000E+00  0.0000E+00  0.0000E+00  0.0000E+00  0.0000E+00  0.0000E+00
     -1.681  0.0000E+00  0.0000E+00  0.0000E+00  0.0000E+00  0.0000E+00  0.0000E+00  0.0000E+00  0.0000E+00  0.0000E+00  0.0000E+00  0.0000E+00  0.0000E+00  0.0000E+00  0.0000E+00  0.0000E+00  0.0000E+00  0.0000E+00  0.0000E+00
     -1.478  0.0000E+00  0.0000E+00  0.0000E+00  0.0000E+00  0.0000E+00  0.0000E+00  0.0000E+00  0.0000E+00  0.0000E+00  0.0000E+00  0.0000E+00  0.0000E+00  0.0000E+00  0.0000E+00  0.0000E+00  0.0000E+00  0.0000E+00  0.0000E+00
     -1.276  0.0000E+00  0.0000E+00  0.0000E+00  0.0000E+00  0.0000E+00  0.0000E+00  0.0000E+00  0.0000E+00  0.0000E+00  0.0000E+00  0.0000E+00  0.0000E+00  0.0000E+00  0.0000E+00  0.0000E+00  0.0000E+00  0.0000E+00  0.0000E+00
     -1.073  0.0000E+00  0.0000E+00  0.0000E+00  0.0000E+00  0.0000E+00  0.0000E+00  0.0000E+00  0.0000E+00  0.0000E+00  0.0000E+00  0.0000E+00  0.0000E+00  0.0000E+00  0.0000E+00  0.0000E+00  0.0000E+00  0.0000E+00  0.0000E+00
     -0.870  0.0000E+00  0.0000E+00  0.0000E+00  0.0000E+00  0.0000E+00  0.0000E+00  0.0000E+00  0.0000E+00  0.0000E+00  0.0000E+00  0.0000E+00  0.0000E+00  0.0000E+00  0.0000E+00  0.0000E+00  0.0000E+00  0.0000E+00  0.0000E+00
     -0.668  0.9320E-02  0.0000E+00  0.1071E-03  0.0000E+00  0.7331E-04  0.0000E+00  0.4673E-03  0.0000E+00  0.3445E-04  0.0000E+00  0.8651E-05  0.0000E+00  0.1238E-04  0.0000E+00  0.8221E-05  0.0000E+00  0.1322E-04  0.0000E+00
     -0.465  0.1388E-01  0.9007E-02  0.2310E-03  0.1016E-03  0.1467E-03  0.6932E-04  0.8253E-03  0.4480E-03  0.8309E-04  0.2418E-04  0.2367E-04  0.6383E-05  0.3079E-04  0.8229E-05  0.1763E-04  0.6177E-05  0.3265E-04  0.9450E-05
     -0.262  0.1764E-01  0.1349E-01  0.3582E-03  0.2244E-03  0.2074E-03  0.1423E-03  0.1224E-02  0.7961E-03  0.1441E-03  0.5915E-04  0.4528E-04  0.1698E-04  0.5646E-04  0.2047E-04  0.2712E-04  0.1342E-04  0.6267E-04  0.2271E-04
     -0.059  0.2058E-01  0.1717E-01  0.4887E-03  0.3503E-03  0.2557E-03  0.2031E-03  0.1664E-02  0.1182E-02  0.2175E-03  0.1026E-03  0.7348E-04  0.3157E-04  0.8940E-04  0.3745E-04  0.3671E-04  0.2054E-04  0.1033E-03  0.4292E-04
      0.143  0.2514E-01  0.2004E-01  0.7183E-03  0.4795E-03  0.3695E-03  0.2517E-03  0.2305E-02  0.1606E-02  0.3351E-03  0.1545E-03  0.1475E-03  0.5016E-04  0.1419E-03  0.5917E-04  0.5775E-04  0.2755E-04  0.1676E-03  0.7007E-04
      0.346  0.2963E-01  0.2409E-01  0.1005E-02  0.6905E-03  0.5446E-03  0.3518E-03  0.2982E-02  0.2198E-02  0.4997E-03  0.2329E-03  0.2945E-03  0.9372E-04  0.2191E-03  0.9158E-04  0.1006E-03  0.4120E-04  0.2606E-03  0.1108E-03
      0.549  0.3273E-01  0.2841E-01  0.1302E-02  0.9687E-03  0.7487E-03  0.5190E-03  0.3598E-02  0.2847E-02  0.6991E-03  0.3422E-03  0.5039E-03  0.1834E-03  0.3169E-03  0.1373E-03  0.1628E-03  0.6947E-04  0.3780E-03  0.1684E-03
      0.751  0.3246E-01  0.3139E-01  0.1593E-02  0.1256E-02  0.1013E-02  0.7142E-03  0.4278E-02  0.3433E-02  0.9953E-03  0.4711E-03  0.8371E-03  0.3107E-03  0.5022E-03  0.1931E-03  0.2848E-03  0.1099E-03  0.6446E-03  0.2393E-03
      0.954  0.3548E-01  0.3046E-01  0.1879E-02  0.1538E-02  0.1237E-02  0.9779E-03  0.5102E-02  0.3990E-02  0.1512E-02  0.6242E-03  0.1105E-02  0.5234E-03  0.8146E-03  0.2786E-03  0.4117E-03  0.1871E-03  0.8948E-03  0.3923E-03
      1.157  0.3872E-01  0.3284E-01  0.2178E-02  0.1801E-02  0.1473E-02  0.1183E-02  0.6031E-02  0.4687E-02  0.2145E-02  0.9164E-03  0.1423E-02  0.6738E-03  0.1206E-02  0.4287E-03  0.5713E-03  0.2612E-03  0.1192E-02  0.5341E-03
      1.359  0.4218E-01  0.3535E-01  0.2490E-02  0.2075E-02  0.1721E-02  0.1398E-02  0.7065E-02  0.5464E-02  0.2893E-02  0.1267E-02  0.1791E-02  0.8486E-03  0.1677E-02  0.6127E-03  0.7635E-03  0.3522E-03  0.1536E-02  0.6996E-03
      1.562  0.4585E-01  0.3800E-01  0.2817E-02  0.2358E-02  0.1982E-02  0.1621E-02  0.8202E-02  0.6322E-02  0.3757E-02  0.1675E-02  0.2209E-02  0.1048E-02  0.2227E-02  0.8307E-03  0.9883E-03  0.4601E-03  0.1926E-02  0.8887E-03
      1.765  0.4975E-01  0.4078E-01  0.3156E-02  0.2650E-02  0.2256E-02  0.1854E-02  0.9445E-02  0.7260E-02  0.4737E-02  0.2142E-02  0.2676E-02  0.1272E-02  0.2856E-02  0.1083E-02  0.1246E-02  0.5850E-03  0.2364E-02  0.1102E-02
      1.968  0.5672E-01  0.4369E-01  0.3978E-02  0.2953E-02  0.3069E-02  0.2095E-02  0.1147E-01  0.8278E-02  0.7056E-02  0.2666E-02  0.4741E-02  0.1520E-02  0.4491E-02  0.1368E-02  0.2109E-02  0.7268E-03  0.3334E-02  0.1338E-02
      2.170  0.6608E-01  0.4583E-01  0.4981E-02  0.3220E-02  0.4119E-02  0.2351E-02  0.1462E-01  0.9305E-02  0.1140E-01  0.3253E-02  0.8258E-02  0.1848E-02  0.7850E-02  0.1714E-02  0.3363E-02  0.9674E-03  0.5221E-02  0.1594E-02
      2.373  0.7847E-01  0.5061E-01  0.5823E-02  0.3899E-02  0.4923E-02  0.3041E-02  0.2002E-01  0.1099E-01  0.2215E-01  0.4603E-02  0.1450E-01  0.3048E-02  0.1614E-01  0.2545E-02  0.4980E-02  0.1427E-02  0.8962E-02  0.2156E-02
      2.576  0.1155E+00  0.5460E-01  0.7337E-02  0.4475E-02  0.6429E-02  0.3697E-02  0.3033E-01  0.1290E-01  0.7732E-01  0.6285E-02  0.4617E-01  0.4481E-02  0.8755E-01  0.3693E-02  0.7077E-02  0.1959E-02  0.4711E-01  0.2955E-02
      2.778  0.1137E+00  0.5699E-01  0.7634E-02  0.4830E-02  0.7566E-02  0.4212E-02  0.3551E-01  0.1494E-01  0.8618E-01  0.8461E-02  0.5401E-01  0.6112E-02  0.1190E+00  0.5276E-02  0.1003E-01  0.2541E-02  0.6465E-01  0.4001E-02
      2.981  0.1120E+00  0.6161E-01  0.8485E-02  0.5250E-02  0.8427E-02  0.4690E-02  0.4222E-01  0.1754E-01  0.9526E-01  0.1240E-01  0.6246E-01  0.8374E-02  0.1625E+00  0.7926E-02  0.1404E-01  0.3162E-02  0.8855E-01  0.5365E-02
      3.184  0.3161E+00  0.6850E-01  0.1447E-01  0.5764E-02  0.1886E-01  0.5214E-02  0.1894E+00  0.2060E-01  0.3709E+00  0.1884E-01  0.7676E-01  0.1158E-01  0.5716E+00  0.1217E-01  0.3560E-01  0.3834E-02  0.1823E+00  0.7045E-02
      3.386  0.9702E-01  0.7644E-01  0.1085E-01  0.6284E-02  0.1071E-01  0.5791E-02  0.6472E-01  0.2402E-01  0.1127E+00  0.2729E-01  0.8485E-01  0.1569E-01  0.2353E+00  0.1779E-01  0.3909E-01  0.4600E-02  0.1364E+00  0.9065E-02
      3.589  0.5512E-01  0.1098E+00  0.8966E-02  0.7711E-02  0.7168E-02  0.7693E-02  0.4147E-01  0.3116E-01  0.7836E-01  0.6918E-01  0.9052E-01  0.4593E-01  0.1281E+00  0.4562E-01  0.4907E-01  0.5775E-02  0.1110E+00  0.1920E-01
      3.792  0.2976E-01  0.1026E+00  0.7931E-02  0.7333E-02  0.4773E-02  0.8459E-02  0.2382E-01  0.3405E-01  0.4980E-01  0.6893E-01  0.8414E-01  0.4751E-01  0.6743E-01  0.4902E-01  0.4403E-01  0.7954E-02  0.8924E-01  0.1976E-01
      3.995  0.1433E-01  0.1028E+00  0.7638E-02  0.7535E-02  0.2995E-02  0.9554E-02  0.1734E-01  0.4323E-01  0.2677E-01  0.7774E-01  0.6235E-01  0.5599E-01  0.4552E-01  0.8148E-01  0.3199E-01  0.1111E-01  0.8418E-01  0.4696E-01
      4.197  0.5097E-02  0.9990E-01  0.1138E-01  0.7960E-02  0.4461E-02  0.1053E-01  0.1522E-01  0.5294E-01  0.1603E-01  0.8883E-01  0.4963E-01  0.6496E-01  0.5825E-01  0.1171E+00  0.3450E-01  0.1685E-01  0.9711E-01  0.7331E-01
      4.400  0.1525E-02  0.8555E-01  0.6321E-01  0.8700E-02  0.4034E-01  0.9926E-02  0.3696E-01  0.5901E-01  0.4688E+00  0.8565E-01  0.1562E+00  0.6369E-01  0.1112E+00  0.1596E+00  0.6310E+00  0.2227E-01  0.1815E+00  0.1054E+00
      4.603  0.3202E-02  0.7609E-01  0.3560E-01  0.1048E-01  0.1727E-01  0.1042E-01  0.2311E-01  0.6932E-01  0.1783E+00  0.8936E-01  0.2225E+00  0.7050E-01  0.1098E+00  0.2128E+00  0.4532E+00  0.3028E-01  0.1587E+00  0.1162E+00
      4.805  0.4289E-02  0.5188E-01  0.2503E-01  0.1065E-01  0.8705E-02  0.9440E-02  0.1960E-01  0.4650E-01  0.8850E-01  0.7095E-01  0.1670E+00  0.7379E-01  0.1035E+00  0.1447E+00  0.3104E+00  0.3396E-01  0.1568E+00  0.8642E-01
      5.008  0.5805E-02  0.2958E-01  0.1173E-01  0.8849E-02  0.1312E-01  0.6452E-02  0.5330E-02  0.2552E-01  0.1025E+00  0.4426E-01  0.6800E-01  0.6749E-01  0.5960E-01  0.6468E-01  0.1595E+00  0.3218E-01  0.4197E-01  0.6114E-01
      5.211  0.1037E-01  0.9591E-02  0.2024E-01  0.7474E-02  0.2847E-01  0.3413E-02  0.1197E-01  0.1509E-01  0.1194E+00  0.9171E-02  0.8852E-01  0.4358E-01  0.4660E-01  0.3193E-01  0.1280E+00  0.1015E-01  0.3958E-01  0.5556E-01
      5.413  0.1575E-01  0.4747E-02  0.3239E-01  0.8562E-02  0.4011E-01  0.2935E-02  0.2133E-01  0.1280E-01  0.1540E+00  0.6663E-02  0.1410E+00  0.2497E-01  0.4991E-01  0.3467E-01  0.1404E+00  0.7603E-02  0.6399E-01  0.6258E-01
      5.616  0.2351E-01  0.5075E-03  0.4677E-01  0.3721E-01  0.4654E-01  0.1787E-01  0.3825E-01  0.2120E-01  0.2234E+00  0.1346E+00  0.2417E+00  0.4655E-01  0.5991E-01  0.6052E-01  0.1989E+00  0.1955E+00  0.1007E+00  0.1095E+00
      5.819  0.3269E-01  0.1565E-02  0.6876E-01  0.4726E-01  0.5095E-01  0.2239E-01  0.6064E-01  0.2736E-01  0.3485E+00  0.1849E+00  0.2920E+00  0.1552E+00  0.7201E-01  0.9609E-01  0.2973E+00  0.3852E+00  0.1615E+00  0.1296E+00
      6.022  0.1680E-01  0.2823E-02  0.3755E-01  0.3964E-01  0.2967E-01  0.2160E-01  0.2531E-01  0.2202E-01  0.1114E+00  0.1370E+00  0.1230E+00  0.1794E+00  0.2505E-01  0.9752E-01  0.1568E+00  0.3576E+00  0.7626E-01  0.1223E+00
      6.224  0.1023E-01  0.3599E-02  0.2652E-01  0.3143E-01  0.2027E-01  0.2391E-01  0.1567E-01  0.1545E-01  0.4932E-01  0.1256E+00  0.7118E-01  0.1162E+00  0.1392E-01  0.7841E-01  0.7526E-01  0.2326E+00  0.5377E-01  0.8852E-01
      6.427  0.7316E-02  0.4918E-02  0.2143E-01  0.3220E-01  0.1597E-01  0.3663E-01  0.1216E-01  0.1207E-01  0.4117E-01  0.1554E+00  0.6500E-01  0.8982E-01  0.1211E-01  0.6220E-01  0.6757E-01  0.1761E+00  0.4458E-01  0.4982E-01
      6.630  0.5421E-02  0.7842E-02  0.1803E-01  0.3949E-01  0.1356E-01  0.4647E-01  0.9476E-02  0.2111E-01  0.4318E-01  0.1744E+00  0.6358E-01  0.1161E+00  0.1346E-01  0.4803E-01  0.6599E-01  0.1587E+00  0.3778E-01  0.4905E-01