 running on    4 total cores
 distrk:  each k-point on    4 cores,    1 groups
 distr:  one band on    1 cores,    4 groups
 using from now: INCAR     
 vasp.5.4.1 24Jun15 (build Jul 19 2016 16:50:41) complex                        
  
 POSCAR found type information on POSCAR  Fe
 POSCAR found :  1 types and       1 ions
 LDA part: xc-table for Pade appr. of Perdew
 POSCAR, INCAR and KPOINTS ok, starting setup
 WARNING: small aliasing (wrap around) errors must be expected
 FFT: planning ...
 WAVECAR not read
 entering main loop
       N       E                     dE             d eps       ncg     rms          rms(c)
DAV:   1     0.182468661387E+02    0.18247E+02   -0.36030E+03  1416   0.800E+02
DAV:   2    -0.718580741996E+01   -0.25433E+02   -0.23433E+02  1308   0.124E+02
DAV:   3    -0.769480817088E+01   -0.50900E+00   -0.50642E+00  1468   0.195E+01
DAV:   4    -0.769615246765E+01   -0.13443E-02   -0.13417E-02  1388   0.906E-01
DAV:   5    -0.769615773227E+01   -0.52646E-05   -0.52353E-05  1460   0.586E-02    0.181E+01
DAV:   6    -0.771051940979E+01   -0.14362E-01   -0.49682E+00  1416   0.313E+01    0.394E+00
DAV:   7    -0.769834529496E+01    0.12174E-01   -0.51095E-02  1568   0.231E+00    0.236E+00
DAV:   8    -0.768344001445E+01    0.14905E-01   -0.15945E-02  1596   0.114E+00    0.147E+00
DAV:   9    -0.767832844326E+01    0.51116E-02   -0.16706E-03  1536   0.296E-01    0.314E-01
DAV:  10    -0.767859268571E+01   -0.26424E-03   -0.80433E-04  1568   0.298E-01    0.958E-02
DAV:  11    -0.767872499086E+01   -0.13231E-03   -0.16166E-05  1452   0.522E-02    0.217E-02
DAV:  12    -0.767873761323E+01   -0.12622E-04   -0.90113E-07  1116   0.108E-02    0.133E-02
DAV:  13    -0.767871982000E+01    0.17793E-04   -0.62059E-07   744   0.796E-03    0.233E-03
DAV:  14    -0.767872164898E+01   -0.18290E-05   -0.47803E-08   684   0.199E-03    0.758E-04
DAV:  15    -0.767872115809E+01    0.49089E-06   -0.59100E-09   696   0.816E-04
   1 F= -.76787212E+01 E0= -.76787212E+01  d E =0.000000E+00  mag=     1.7696
 writing wavefunctions
