Fe BCC                                  
   2.60000000000000     
    -0.500000    0.500000    0.500000
     0.500000   -0.500000    0.500000
     0.500000    0.500000   -0.500000
   Fe
     1
Direct
  0.000000  0.000000  0.000000
 
   32   32   32
  73.822      72.381      68.235      61.878      54.009      45.394      36.749      28.656      21.538      15.659    
  11.143      7.9742      6.0080      4.9815      4.5496      4.3612      4.2948      4.3612      4.5496      4.9815    
  6.0080      7.9742      11.143      15.659      21.538      28.656      36.749      45.394      54.009      61.878    
  68.235      72.381      72.381      71.905      68.674      63.080      55.755      47.448      38.888      30.699    
  23.351      17.155      12.278      8.7480      6.4624      5.1951      4.6248      4.3898      4.2817      4.3038    
  4.4519      4.7601      5.5233      7.0985      9.7801      13.755      19.083      25.690      33.362      41.736    
  50.288      58.352      65.178      70.043      68.235      68.674      66.442      61.810      55.318      47.653    
  39.528      31.579      24.306      18.057      13.036      9.3095      6.8157      5.3671      4.6737      4.3876    
  4.2431      4.2219      4.3280      4.5526      5.0717      6.2346      8.3575      11.666      16.265      22.131    
  29.106      36.887      45.023      52.917      59.872      65.178      61.878      63.080      61.810      58.226    
  52.752      45.988      38.596      31.193      24.288      18.250      13.313      9.5742      7.0073      5.4628    
  4.6861      4.3550      4.1818      4.1214      4.1843      4.3602      4.6946      5.4767      7.0309      9.6140    
  13.376      18.344      24.415      31.351      38.774      46.171      52.917      58.352      54.009      55.755    
  55.318      52.752      48.367      42.658      36.210      29.595      23.305      17.715      13.073      9.5014    
  7.0012      5.4577      4.6525      4.2948      4.1015      4.0088      4.0310      4.1654      4.3998      4.8810    
  5.9184      7.7881      10.680      14.671      19.715      25.637      32.134      38.774      45.023      50.288    
  45.394      47.448      47.653      45.988      42.658      38.051      32.657      26.984      21.488      16.528    
  12.355      9.1023      6.7945      5.3450      4.5693      4.2104      4.0066      3.8907      3.8779      3.9708    
  4.1589      4.4557      5.0816      6.3161      8.3785      11.392      15.367      20.193      25.637      31.351    
  36.887      41.736      36.749      38.888      39.528      38.596      36.210      32.657      28.332      23.665    
  19.058      14.843      11.256      8.4360      6.4176      5.1375      4.4416      4.1064      3.9016      3.7723    
  3.7329      3.7883      3.9348      4.1588      4.5180      5.2511      6.5917      8.7012      11.642      15.367    
  19.715      24.415      29.106      33.362      28.656      30.699      31.579      31.193      29.595      26.984    
  23.665      19.986      16.289      12.862      9.9215      7.5962      5.9266      4.8651      4.2830      3.9886    
  3.7909      3.6577      3.6013      3.6264      3.7329      3.9155      4.1630      4.5672      5.3480      6.6900    
  8.7012      11.392      14.671      18.344      22.131      25.690      21.538      23.351      24.306      24.288    
  23.305      21.488      19.058      16.289      13.455      10.800      8.5070      6.6910      5.3900      4.5661    
  4.1113      3.8626      3.6783      3.5498      3.4856      3.4892      3.5619      3.7027      3.9067      4.1672    
  4.5859      5.3480      6.5917      8.3785      10.680      13.376      16.265      19.083      15.659      17.155    
  18.057      18.250      17.715      16.528      14.843      12.862      10.800      8.8484      7.1586      5.8236    
  4.8742      4.2779      3.9428      3.7335      3.5676      3.4502      3.3864      3.3776      3.4246      3.5286    
  3.6898      3.9042      4.1672      4.5672      5.2511      6.3161      7.7881      9.6140      11.666      13.755    
  11.143      12.278      13.036      13.313      13.073      12.355      11.256      9.9215      8.5070      7.1586    
  5.9910      5.0749      4.4308      4.0276      3.7865      3.6062      3.4620      3.3604      3.3031      3.2898    
  3.3203      3.3958      3.5186      3.6898      3.9067      4.1630      4.5180      5.0816      5.9184      7.0309    
  8.3575      9.7801      7.9742      8.7480      9.3095      9.5742      9.5014      9.1023      8.4360      7.5962    
  6.6910      5.8236      5.0749      4.4930      4.0869      3.8252      3.6403      3.4856      3.3650      3.2816    
  3.2352      3.2237      3.2460      3.3026      3.3958      3.5286      3.7027      3.9155      4.1588      4.4557    
  4.8810      5.4767      6.2346      7.0985      6.0080      6.4624      6.8157      7.0073      7.0012      6.7945    
  6.4176      5.9266      5.3900      4.8742      4.4308      4.0869      3.8406      3.6593      3.5043      3.3762    
  3.2797      3.2157      3.1825      3.1776      3.1990      3.2460      3.3203      3.4246      3.5619      3.7329    
  3.9348      4.1589      4.3998      4.6946      5.0717      5.5233      4.9815      5.1951      5.3671      5.4628    
  5.4577      5.3450      5.1375      4.8651      4.5661      4.2779      4.0276      3.8252      3.6593      3.5112    
  3.3838      3.2823      3.2093      3.1645      3.1462      3.1514      3.1776      3.2237      3.2898      3.3776    
  3.4892      3.6264      3.7883      3.9708      4.1654      4.3602      4.5526      4.7601      4.5496      4.6248    
  4.6737      4.6861      4.6525      4.5693      4.4416      4.2830      4.1113      3.9428      3.7865      3.6403    
  3.5043      3.3838      3.2838      3.2075      3.1566      3.1307      3.1280      3.1462      3.1825      3.2352    
  3.3031      3.3864      3.4856      3.6013      3.7329      3.8779      4.0310      4.1843      4.3280      4.4519    
  4.3612      4.3898      4.3876      4.3550      4.2948      4.2104      4.1064      3.9886      3.8626      3.7335    
  3.6062      3.4856      3.3762      3.2823      3.2075      3.1543      3.1240      3.1165      3.1307      3.1645    
  3.2157      3.2816      3.3604      3.4502      3.5498      3.6577      3.7723      3.8907      4.0088      4.1214    
  4.2219      4.3038      4.2948      4.2817      4.2431      4.1818      4.1015      4.0066      3.9016      3.7909    
  3.6783      3.5676      3.4620      3.3650      3.2797      3.2093      3.1566      3.1240      3.1129      3.1240    
  3.1566      3.2093      3.2797      3.3650      3.4620      3.5676      3.6783      3.7909      3.9016      4.0066    
  4.1015      4.1818      4.2431      4.2817      4.3612      4.3038      4.2219      4.1214      4.0088      3.8907    
  3.7723      3.6577      3.5498      3.4502      3.3604      3.2816      3.2157      3.1645      3.1307      3.1165    
  3.1240      3.1543      3.2075      3.2823      3.3762      3.4856      3.6062      3.7335      3.8626      3.9886    
  4.1064      4.2104      4.2948      4.3550      4.3876      4.3898      4.5496      4.4519      4.3280      4.1843    
  4.0310      3.8779      3.7329      3.6013      3.4856      3.3864      3.3031      3.2352      3.1825      3.1462    
  3.1280      3.1307      3.1566      3.2075      3.2838      3.3838      3.5043      3.6403      3.7865      3.9428    
  4.1113      4.2830      4.4416      4.5693      4.6525      4.6861      4.6737      4.6248      4.9815      4.7601    
  4.5526      4.3602      4.1654      3.9708      3.7883      3.6264      3.4892      3.3776      3.2898      3.2237    
  3.1776      3.1514      3.1462      3.1645      3.2093      3.2823      3.3838      3.5112      3.6593      3.8252    
  4.0276      4.2779      4.5661      4.8651      5.1375      5.3450      5.4577      5.4628      5.3671      5.1951    
  6.0080      5.5233      5.0717      4.6946      4.3998      4.1589      3.9348      3.7329      3.5619      3.4246    
  3.3203      3.2460      3.1990      3.1776      3.1825      3.2157      3.2797      3.3762      3.5043      3.6593    
  3.8406      4.0869      4.4308      4.8742      5.3900      5.9266      6.4176      6.7945      7.0012      7.0073    
  6.8157      6.4624      7.9742      7.0985      6.2346      5.4767      4.8810      4.4557      4.1588      3.9155    
  3.7027      3.5286      3.3958      3.3026      3.2460      3.2237      3.2352      3.2816      3.3650      3.4856    
  3.6403      3.8252      4.0869      4.4930      5.0749      5.8236      6.6910      7.5962      8.4360      9.1023    
  9.5014      9.5742      9.3095      8.7480      11.143      9.7801      8.3575      7.0309      5.9184      5.0816    
  4.5180      4.1630      3.9067      3.6898      3.5186      3.3958      3.3203      3.2898      3.3031      3.3604    
  3.4620      3.6062      3.7865      4.0276      4.4308      5.0749      5.9910      7.1586      8.5070      9.9215    
  11.256      12.355      13.073      13.313      13.036      12.278      15.659      13.755      11.666      9.6140    
  7.7881      6.3161      5.2511      4.5672      4.1672      3.9042      3.6898      3.5286      3.4246      3.3776    
  3.3864      3.4502      3.5676      3.7335      3.9428      4.2779      4.8742      5.8236      7.1586      8.8484    
  10.800      12.862      14.843      16.528      17.715      18.250      18.057      17.155      21.538      19.083    
  16.265      13.376      10.680      8.3785      6.5917      5.3480      4.5859      4.1672      3.9067      3.7027    
  3.5619      3.4892      3.4856      3.5498      3.6783      3.8626      4.1113      4.5661      5.3900      6.6910    
  8.5070      10.800      13.455      16.289      19.058      21.488      23.305      24.288      24.306      23.351    
  28.656      25.690      22.131      18.344      14.671      11.392      8.7012      6.6900      5.3480      4.5672    
  4.1630      3.9155      3.7329      3.6264      3.6013      3.6577      3.7909      3.9886      4.2830      4.8651    
  5.9266      7.5962      9.9215      12.862      16.289      19.986      23.665      26.984      29.595      31.193    
  31.579      30.699      36.749      33.362      29.106      24.415      19.715      15.367      11.642      8.7012    
  6.5917      5.2511      4.5180      4.1588      3.9348      3.7883      3.7329      3.7723      3.9016      4.1064    
  4.4416      5.1375      6.4176      8.4360      11.256      14.843      19.058      23.665      28.332      32.657    
  36.210      38.596      39.528      38.888      45.394      41.736      36.887      31.351      25.637      20.193    
  15.367      11.392      8.3785      6.3161      5.0816      4.4557      4.1589      3.9708      3.8779      3.8907    
  4.0066      4.2104      4.5693      5.3450      6.7945      9.1023      12.355      16.528      21.488      26.984    
  32.657      38.051      42.658      45.988      47.653      47.448      54.009      50.288      45.023      38.774    
  32.134      25.637      19.715      14.671      10.680      7.7881      5.9184      4.8810      4.3998      4.1654    
  4.0310      4.0088      4.1015      4.2948      4.6525      5.4577      7.0012      9.5014      13.073      17.715    
  23.305      29.595      36.210      42.658      48.367      52.752      55.318      55.755      61.878      58.352    
  52.917      46.171      38.774      31.351      24.415      18.344      13.376      9.6140      7.0309      5.4767    
  4.6946      4.3602      4.1843      4.1214      4.1818      4.3550      4.6861      5.4628      7.0073      9.5742    
  13.313      18.250      24.288      31.193      38.596      45.988      52.752      58.226      61.810      63.080    
  68.235      65.178      59.872      52.917      45.023      36.887      29.106      22.131      16.265      11.666    
  8.3575      6.2346      5.0717      4.5526      4.3280      4.2219      4.2431      4.3876      4.6737      5.3671    
  6.8157      9.3095      13.036      18.057      24.306      31.579      39.528      47.653      55.318      61.810    
  66.442      68.674      72.381      70.043      65.178      58.352      50.288      41.736      33.362      25.690    
  19.083      13.755      9.7801      7.0985      5.5233      4.7601      4.4519      4.3038      4.2817      4.3898    
  4.6248      5.1951      6.4624      8.7480      12.278      17.155      23.351      30.699      38.888      47.448    
  55.755      63.080      68.674      71.905      72.381      71.905      68.674      63.080      55.755      47.448    
  38.888      30.699      23.351      17.155      12.278      8.7480      6.4624      5.1951      4.6248      4.3898    
  4.2817      4.3038      4.4519      4.7601      5.5233      7.0985      9.7801      13.755      19.083      25.690    
  33.362      41.736      50.288      58.352      65.178      70.043      71.905      72.381      70.043      65.178    
  58.352      50.288      41.736      33.362      25.690      19.083      13.755      9.7801      7.0985      5.5233    
  4.7601      4.4519      4.3038      4.2817      4.3898      4.6248      5.1951      6.4624      8.7480      12.278    
  17.155      23.351      30.699      38.888      47.448      55.755      63.080      68.674      68.674      70.043    
  68.674      64.737      58.697      51.220      43.034      34.821      27.139      20.393      14.839      10.591    
  7.6317      5.8136      4.8763      4.4821      4.2990      4.2341      4.2990      4.4821      4.8763      5.8136    
  7.6317      10.591      14.839      20.393      27.139      34.821      43.034      51.220      58.697      64.737    
  63.080      65.178      64.737      61.810      56.752      50.133      42.629      34.903      27.524      20.924    
  15.388      11.067      7.9791      6.0157      4.9532      4.4820      4.2674      4.1646      4.1861      4.3283    
  4.5973      5.2296      6.5645      8.8887      12.390      17.136      23.062      29.974      37.533      45.257    
  52.539      58.697      55.755      58.352      58.697      56.752      52.752      47.161      40.573      33.604    
  26.804      20.612      15.332      11.140      8.0835      6.0895      4.9708      4.4505      4.2111      4.0778    
  4.0593      4.1591      4.3624      4.7586      5.6514      7.3413      10.051      13.895      18.862      24.817    
  31.490      38.478      45.257      51.220      47.448      50.288      51.220      50.133      47.161      42.658    
  37.118      31.087      25.074      19.503      14.682      10.800      7.9260      6.0161      4.9168      4.3861    
  4.1335      3.9787      3.9268      3.9854      4.1476      4.4086      4.9514      6.0716      8.0162      10.942    
  14.892      19.788      25.429      31.490      37.533      43.034      38.888      41.736      43.034      42.629    
  40.573      37.118      32.657      27.650      22.549      17.744      13.530      10.098      7.5299      5.8026    
  4.7923      4.2906      4.0389      3.8723      3.7957      3.8183      3.9388      4.1450      4.4675      5.1369    
  6.4091      8.4737      11.424      15.240      19.788      24.817      29.974      34.821      30.699      33.362    
  34.821      34.903      33.604      31.087      27.650      23.665      19.516      15.547      12.025      9.1326    
  6.9540      5.4804      4.6117      4.1704      3.9318      3.7629      3.6713      3.6656      3.7476      3.9124    
  4.1471      4.5236      5.2707      6.5967      8.6354      11.424      14.892      18.862      23.062      27.139    
  23.351      25.690      27.139      27.524      26.804      25.074      22.549      19.516      16.289      13.154    
  10.348      8.0293      6.2797      5.0968      4.3989      4.0356      3.8170      3.6541      3.5569      3.5322    
  3.5823      3.7064      3.8992      4.1516      4.5579      5.3194      6.5967      8.4737      10.942      13.895    
  17.136      20.393      17.155      19.083      20.393      20.924      20.612      19.503      17.744      15.547    
  13.154      10.800      8.6750      6.9166      5.5932      4.7041      4.1808      3.8959      3.6991      3.5488    
  3.4543      3.4197      3.4463      3.5352      3.6858      3.8939      4.1538      4.5579      5.2707      6.4091    
  8.0162      10.051      12.390      14.839      12.278      13.755      14.839      15.388      15.332      14.682    
  13.530      12.025      10.348      8.6750      7.1586      5.9057      4.9698      4.3475      3.9791      3.7571    
  3.5823      3.4494      3.3640      3.3273      3.3395      3.4013      3.5145      3.6797      3.8939      4.1516    
  4.5236      5.1369      6.0716      7.3413      8.8887      10.591      8.7480      9.7801      10.591      11.067    
  11.140      10.800      10.098      9.1326      8.0293      6.9166      5.9057      5.0749      4.4610      4.0552    
  3.8039      3.6214      3.4709      3.3584      3.2863      3.2537      3.2594      3.3034      3.3875      3.5145    
  3.6858      3.8992      4.1471      4.4675      4.9514      5.6514      6.5645      7.6317      6.4624      7.0985    
  7.6317      7.9791      8.0835      7.9260      7.5299      6.9540      6.2797      5.5932      4.9698      4.4610    
  4.0869      3.8326      3.6493      3.4939      3.3689      3.2781      3.2216      3.1975      3.2033      3.2383    
  3.3034      3.4013      3.5352      3.7064      3.9124      4.1450      4.4086      4.7586      5.2296      5.8136    
  5.1951      5.5233      5.8136      6.0157      6.0895      6.0161      5.8026      5.4804      5.0968      4.7041    
  4.3475      4.0552      3.8326      3.6593      3.5076      3.3796      3.2802      3.2111      3.1713      3.1584    
  3.1697      3.2033      3.2594      3.3395      3.4463      3.5823      3.7476      3.9388      4.1476      4.3624    
  4.5973      4.8763      4.6248      4.7601      4.8763      4.9532      4.9708      4.9168      4.7923      4.6117    
  4.3989      4.1808      3.9791      3.8039      3.6493      3.5076      3.3838      3.2830      3.2081      3.1599    
  3.1372      3.1376      3.1584      3.1975      3.2537      3.3273      3.4197      3.5322      3.6656      3.8183    
  3.9854      4.1591      4.3283      4.4821      4.3898      4.4519      4.4821      4.4820      4.4505      4.3861    
  4.2906      4.1704      4.0356      3.8959      3.7571      3.6214      3.4939      3.3796      3.2830      3.2075    
  3.1554      3.1270      3.1216      3.1372      3.1713      3.2216      3.2863      3.3640      3.4543      3.5569    
  3.6713      3.7957      3.9268      4.0593      4.1861      4.2990      4.2817      4.3038      4.2990      4.2674    
  4.2111      4.1335      4.0389      3.9318      3.8170      3.6991      3.5823      3.4709      3.3689      3.2802    
  3.2081      3.1554      3.1240      3.1146      3.1270      3.1599      3.2111      3.2781      3.3584      3.4494    
  3.5488      3.6541      3.7629      3.8723      3.9787      4.0778      4.1646      4.2341      4.3038      4.2817    
  4.2341      4.1646      4.0778      3.9787      3.8723      3.7629      3.6541      3.5488      3.4494      3.3584    
  3.2781      3.2111      3.1599      3.1270      3.1146      3.1240      3.1554      3.2081      3.2802      3.3689    
  3.4709      3.5823      3.6991      3.8170      3.9318      4.0389      4.1335      4.2111      4.2674      4.2990    
  4.4519      4.3898      4.2990      4.1861      4.0593      3.9268      3.7957      3.6713      3.5569      3.4543    
  3.3640      3.2863      3.2216      3.1713      3.1372      3.1216      3.1270      3.1554      3.2075      3.2830    
  3.3796      3.4939      3.6214      3.7571      3.8959      4.0356      4.1704      4.2906      4.3861      4.4505    
  4.4820      4.4821      4.7601      4.6248      4.4821      4.3283      4.1591      3.9854      3.8183      3.6656    
  3.5322      3.4197      3.3273      3.2537      3.1975      3.1584      3.1376      3.1372      3.1599      3.2081    
  3.2830      3.3838      3.5076      3.6493      3.8039      3.9791      4.1808      4.3989      4.6117      4.7923    
  4.9168      4.9708      4.9532      4.8763      5.5233      5.1951      4.8763      4.5973      4.3624      4.1476    
  3.9388      3.7476      3.5823      3.4463      3.3395      3.2594      3.2033      3.1697      3.1584      3.1713    
  3.2111      3.2802      3.3796      3.5076      3.6593      3.8326      4.0552      4.3475      4.7041      5.0968    
  5.4804      5.8026      6.0161      6.0895      6.0157      5.8136      7.0985      6.4624      5.8136      5.2296    
  4.7586      4.4086      4.1450      3.9124      3.7064      3.5352      3.4013      3.3034      3.2383      3.2033    
  3.1975      3.2216      3.2781      3.3689      3.4939      3.6493      3.8326      4.0869      4.4610      4.9698    
  5.5932      6.2797      6.9540      7.5299      7.9260      8.0835      7.9791      7.6317      9.7801      8.7480    
  7.6317      6.5645      5.6514      4.9514      4.4675      4.1471      3.8992      3.6858      3.5145      3.3875    
  3.3034      3.2594      3.2537      3.2863      3.3584      3.4709      3.6214      3.8039      4.0552      4.4610    
  5.0749      5.9057      6.9166      8.0293      9.1326      10.098      10.800      11.140      11.067      10.591    
  13.755      12.278      10.591      8.8887      7.3413      6.0716      5.1369      4.5236      4.1516      3.8939    
  3.6797      3.5145      3.4013      3.3395      3.3273      3.3640      3.4494      3.5823      3.7571      3.9791    
  4.3475      4.9698      5.9057      7.1586      8.6750      10.348      12.025      13.530      14.682      15.332    
  15.388      14.839      19.083      17.155      14.839      12.390      10.051      8.0162      6.4091      5.2707    
  4.5579      4.1538      3.8939      3.6858      3.5352      3.4463      3.4197      3.4543      3.5488      3.6991    
  3.8959      4.1808      4.7041      5.5932      6.9166      8.6750      10.800      13.154      15.547      17.744    
  19.503      20.612      20.924      20.393      25.690      23.351      20.393      17.136      13.895      10.942    
  8.4737      6.5967      5.3194      4.5579      4.1516      3.8992      3.7064      3.5823      3.5322      3.5569    
  3.6541      3.8170      4.0356      4.3989      5.0968      6.2797      8.0293      10.348      13.154      16.289    
  19.516      22.549      25.074      26.804      27.524      27.139      33.362      30.699      27.139      23.062    
  18.862      14.892      11.424      8.6354      6.5967      5.2707      4.5236      4.1471      3.9124      3.7476    
  3.6656      3.6713      3.7629      3.9318      4.1704      4.6117      5.4804      6.9540      9.1326      12.025    
  15.547      19.516      23.665      27.650      31.087      33.604      34.903      34.821      41.736      38.888    
  34.821      29.974      24.817      19.788      15.240      11.424      8.4737      6.4091      5.1369      4.4675    
  4.1450      3.9388      3.8183      3.7957      3.8723      4.0389      4.2906      4.7923      5.8026      7.5299    
  10.098      13.530      17.744      22.549      27.650      32.657      37.118      40.573      42.629      43.034    
  50.288      47.448      43.034      37.533      31.490      25.429      19.788      14.892      10.942      8.0162    
  6.0716      4.9514      4.4086      4.1476      3.9854      3.9268      3.9787      4.1335      4.3861      4.9168    
  6.0161      7.9260      10.800      14.682      19.503      25.074      31.087      37.118      42.658      47.161    
  50.133      51.220      58.352      55.755      51.220      45.257      38.478      31.490      24.817      18.862    
  13.895      10.051      7.3413      5.6514      4.7586      4.3624      4.1591      4.0593      4.0778      4.2111    
  4.4505      4.9708      6.0895      8.0835      11.140      15.332      20.612      26.804      33.604      40.573    
  47.161      52.752      56.752      58.697      65.178      63.080      58.697      52.539      45.257      37.533    
  29.974      23.062      17.136      12.390      8.8887      6.5645      5.2296      4.5973      4.3283      4.1861    
  4.1646      4.2674      4.4820      4.9532      6.0157      7.9791      11.067      15.388      20.924      27.524    
  34.903      42.629      50.133      56.752      61.810      64.737      70.043      68.674      64.737      58.697    
  51.220      43.034      34.821      27.139      20.393      14.839      10.591      7.6317      5.8136      4.8763    
  4.4821      4.2990      4.2341      4.2990      4.4821      4.8763      5.8136      7.6317      10.591      14.839    
  20.393      27.139      34.821      43.034      51.220      58.697      64.737      68.674      68.235      68.674    
  66.442      61.810      55.318      47.653      39.528      31.579      24.306      18.057      13.036      9.3095    
  6.8157      5.3671      4.6737      4.3876      4.2431      4.2219      4.3280      4.5526      5.0717      6.2346    
  8.3575      11.666      16.265      22.131      29.106      36.887      45.023      52.917      59.872      65.178    
  68.674      70.043      68.674      64.737      58.697      51.220      43.034      34.821      27.139      20.393    
  14.839      10.591      7.6317      5.8136      4.8763      4.4821      4.2990      4.2341      4.2990      4.4821    
  4.8763      5.8136      7.6317      10.591      14.839      20.393      27.139      34.821      43.034      51.220    
  58.697      64.737      66.442      68.674      68.235      65.178      59.872      52.917      45.023      36.887    
  29.106      22.131      16.265      11.666      8.3575      6.2346      5.0717      4.5526      4.3280      4.2219    
  4.2431      4.3876      4.6737      5.3671      6.8157      9.3095      13.036      18.057      24.306      31.579    
  39.528      47.653      55.318      61.810      61.810      64.737      65.178      63.080      58.697      52.539    
  45.257      37.533      29.974      23.062      17.136      12.390      8.8887      6.5645      5.2296      4.5973    
  4.3283      4.1861      4.1646      4.2674      4.4820      4.9532      6.0157      7.9791      11.067      15.388    
  20.924      27.524      34.903      42.629      50.133      56.752      55.318      58.697      59.872      58.697    
  55.318      50.133      43.711      36.682      29.639      23.072      17.339      12.665      9.1445      6.7460    
  5.3182      4.6081      4.2997      4.1291      4.0690      4.1291      4.2997      4.6081      5.3182      6.7460    
  9.1445      12.665      17.339      23.072      29.639      36.682      43.711      50.133      47.653      51.220    
  52.917      52.539      50.133      45.988      40.573      34.444      28.150      22.165      16.853      12.454    
  9.0850      6.7445      5.3145      4.5766      4.2444      4.0541      3.9624      3.9824      4.1118      4.3359    
  4.7730      5.7186      7.4432      10.136      13.876      18.625      24.221      30.376      36.682      42.629    
  39.528      43.034      45.023      45.257      43.711      40.573      36.210      31.087      25.690      20.460    
  15.745      11.788      8.7189      6.5564      5.2117      4.4995      4.1658      3.9652      3.8507      3.8366    
  3.9250      4.1064      4.3837      4.9513      6.0808      7.9882      10.799      14.528      19.074      24.221    
  29.639      34.903      31.579      34.821      36.887      37.533      36.682      34.444      31.087      26.984    
  22.549      18.168      14.162      10.762      8.1007      6.2094      5.0215      4.3816      4.0684      3.8665    
  3.7390      3.6990      3.7507      3.8908      4.1067      4.4370      5.1028      6.3324      8.2865      11.032    
  14.528      18.625      23.072      27.524      24.306      27.139      29.106      29.974      29.639      28.150    
  25.690      22.549      19.058      15.547      12.295      9.5103      7.3184      5.7556      4.7712      4.2351    
  3.9571      3.7620      3.6308      3.5743      3.5966      3.6976      3.8725      4.1097      4.4793      5.1895    
  6.4223      8.2865      10.799      13.876      17.339      20.924      18.057      20.393      22.131      23.062    
  23.072      22.165      20.460      18.168      15.547      12.862      10.348      8.1820      6.4742      5.2591    
  4.4962      4.0761      3.8373      3.6554      3.5288      3.4649      3.4665      3.5346      3.6685      3.8640    
  4.1127      4.4953      5.1895      6.3324      7.9882      10.136      12.665      15.388      13.036      14.839    
  16.265      17.136      17.339      16.853      15.745      14.162      12.295      10.348      8.5070      6.9166    
  5.6658      4.7822      4.2308      3.9188      3.7139      3.5502      3.4346      3.3712      3.3610      3.4044    
  3.5026      3.6560      3.8616      4.1127      4.4793      5.1028      6.0808      7.4432      9.1445      11.067    
  9.3095      10.591      11.666      12.390      12.665      12.454      11.788      10.762      9.5103      8.1820    
  6.9166      5.8236      4.9698      4.3728      3.9995      3.7703      3.5918      3.4497      3.3496      3.2927    
  3.2783      3.3059      3.3767      3.4929      3.6560      3.8640      4.1097      4.4370      4.9513      5.7186    
  6.7460      7.9791      6.8157      7.6317      8.3575      8.8887      9.1445      9.0850      8.7189      8.1007    
  7.3184      6.4742      5.6658      4.9698      4.4308      4.0552      3.8099      3.6286      3.4759      3.3572    