Fe BCC                                  
   2.60000000000000     
    -0.500000    0.500000    0.500000
     0.500000   -0.500000    0.500000
     0.500000    0.500000   -0.500000
   Fe
     1
Direct
  0.000000  0.000000  0.000000
 
   32   32   32
 0.73821659581E+02 0.72380502218E+02 0.68235078930E+02 0.61878176914E+02 0.54008652551E+02
 0.45394175366E+02 0.36749015596E+02 0.28656065952E+02 0.21537731634E+02 0.15659468350E+02
 0.11142940500E+02 0.79741968790E+01 0.60080407783E+01 0.49815288412E+01 0.45496447273E+01
 0.43611984898E+01 0.42947967867E+01 0.43611984898E+01 0.45496447273E+01 0.49815288412E+01
 0.60080407783E+01 0.79741968790E+01 0.11142940500E+02 0.15659468350E+02 0.21537731634E+02
 0.28656065952E+02 0.36749015596E+02 0.45394175366E+02 0.54008652551E+02 0.61878176914E+02
 0.68235078930E+02 0.72380502218E+02 0.72380502218E+02 0.71904564589E+02 0.68674240142E+02
 0.63079932363E+02 0.55755446498E+02 0.47447801469E+02 0.38888222059E+02 0.30699274241E+02
 0.23350924013E+02 0.17155273460E+02 0.12277953886E+02 0.87480149257E+01 0.64624218823E+01
 0.51951300373E+01 0.46248096289E+01 0.43897907778E+01 0.42816529501E+01 0.43038275275E+01
 0.44518752117E+01 0.47600827140E+01 0.55232558989E+01 0.70985103373E+01 0.97801468153E+01
 0.13755180614E+02 0.19083079675E+02 0.25689809824E+02 0.33362095645E+02 0.41735823932E+02
 0.50287760937E+02 0.58351604806E+02 0.65178169714E+02 0.70043010493E+02 0.68235078930E+02
 0.68674240142E+02 0.66441640886E+02 0.61810240982E+02 0.55317803235E+02 0.47652881676E+02
 0.39528270289E+02 0.31579207129E+02 0.24305853042E+02 0.18056846805E+02 0.13035515208E+02
 0.93094880244E+01 0.68157260873E+01 0.53670895756E+01 0.46736532712E+01 0.43876046009E+01
 0.42431417407E+01 0.42219183067E+01 0.43280456859E+01 0.45525829030E+01 0.50717151365E+01
 0.62346314765E+01 0.83574908981E+01 0.11665751748E+02 0.16265132632E+02 0.22131333802E+02
 0.29105648136E+02 0.36886900456E+02 0.45022772864E+02 0.52916906073E+02 0.59871975678E+02
 0.65178169714E+02 0.61878176914E+02 0.63079932363E+02 0.61810240982E+02 0.58225961217E+02
 0.52751683083E+02 0.45987922071E+02 0.38595586876E+02 0.31192758780E+02 0.24287527175E+02
 0.18250347697E+02 0.13312716311E+02 0.95741918299E+01 0.70073135139E+01 0.54628068134E+01
 0.46861179019E+01 0.43550287819E+01 0.41818450717E+01 0.41213684691E+01 0.41843048804E+01
 0.43601599449E+01 0.46945587643E+01 0.54766769100E+01 0.70309262012E+01 0.96140002101E+01
 0.13376271594E+02 0.18344280516E+02 0.24414966564E+02 0.31350937049E+02 0.38774493962E+02
 0.46170687744E+02 0.52916906073E+02 0.58351604806E+02 0.54008652551E+02 0.55755446498E+02
 0.55317803235E+02 0.52751683083E+02 0.48366637323E+02 0.42658250738E+02 0.36209734190E+02
 0.29594520226E+02 0.23304919214E+02 0.17715473285E+02 0.13073440532E+02 0.95014415286E+01
 0.70011899815E+01 0.54577312810E+01 0.46525308337E+01 0.42947906658E+01 0.41015423782E+01
 0.40088154821E+01 0.40309779997E+01 0.41654328727E+01 0.43998253770E+01 0.48810166997E+01
 0.59183821875E+01 0.77880959480E+01 0.10680040224E+02 0.14671124247E+02 0.19714701686E+02
 0.25636806830E+02 0.32133641849E+02 0.38774493962E+02 0.45022772864E+02 0.50287760937E+02
 0.45394175366E+02 0.47447801469E+02 0.47652881676E+02 0.45987922071E+02 0.42658250738E+02
 0.38051092460E+02 0.32657086590E+02 0.26984175849E+02 0.21487641360E+02 0.16528040102E+02
 0.12354506990E+02 0.91023140695E+01 0.67944741620E+01 0.53449594066E+01 0.45692625043E+01
 0.42104417301E+01 0.40066361824E+01 0.38906553831E+01 0.38778785629E+01 0.39707863666E+01
 0.41589273388E+01 0.44556665539E+01 0.50816351360E+01 0.63161218567E+01 0.83785112850E+01
 0.11392403437E+02 0.15367408888E+02 0.20192810551E+02 0.25636806830E+02 0.31350937049E+02
 0.36886900456E+02 0.41735823932E+02 0.36749015596E+02 0.38888222059E+02 0.39528270289E+02
 0.38595586876E+02 0.36209734190E+02 0.32657086590E+02 0.28331975332E+02 0.23664849591E+02
 0.19058159151E+02 0.14842796653E+02 0.11256362020E+02 0.84360288831E+01 0.64176012088E+01
 0.51375476590E+01 0.44415961257E+01 0.41064432517E+01 0.39016470935E+01 0.37722855863E+01
 0.37329060464E+01 0.37882864420E+01 0.39347863999E+01 0.41588491485E+01 0.45180408158E+01
 0.52511310442E+01 0.65916601804E+01 0.87011765255E+01 0.11642471467E+02 0.15367408888E+02
 0.19714701686E+02 0.24414966564E+02 0.29105648136E+02 0.33362095645E+02 0.28656065952E+02
 0.30699274241E+02 0.31579207129E+02 0.31192758780E+02 0.29594520226E+02 0.26984175849E+02
 0.23664849591E+02 0.19986132503E+02 0.16288585023E+02 0.12862056633E+02 0.99214655878E+01
 0.75961594269E+01 0.59265895127E+01 0.48651214747E+01 0.42830186958E+01 0.39885803894E+01
 0.37908846216E+01 0.36577490677E+01 0.36012888603E+01 0.36263546940E+01 0.37329399348E+01
 0.39155361506E+01 0.41629945450E+01 0.45672312141E+01 0.53479632462E+01 0.66900368005E+01
 0.87011765255E+01 0.11392403437E+02 0.14671124247E+02 0.18344280516E+02 0.22131333802E+02
 0.25689809824E+02 0.21537731634E+02 0.23350924013E+02 0.24305853042E+02 0.24287527175E+02
 0.23304919214E+02 0.21487641360E+02 0.19058159151E+02 0.16288585023E+02 0.13454910546E+02
 0.10799543428E+02 0.85069528038E+01 0.66910292925E+01 0.53899831048E+01 0.45660866191E+01
 0.41113219014E+01 0.38626185616E+01 0.36783106278E+01 0.35497925360E+01 0.34855968732E+01
 0.34892254419E+01 0.35618569440E+01 0.37026939701E+01 0.39066763202E+01 0.41671829404E+01
 0.45858723512E+01 0.53479632462E+01 0.65916601804E+01 0.83785112850E+01 0.10680040224E+02
 0.13376271594E+02 0.16265132632E+02 0.19083079675E+02 0.15659468350E+02 0.17155273460E+02
 0.18056846805E+02 0.18250347697E+02 0.17715473285E+02 0.16528040102E+02 0.14842796653E+02
 0.12862056633E+02 0.10799543428E+02 0.88484322000E+01 0.71586299471E+01 0.58235927590E+01
 0.48742233160E+01 0.42778573571E+01 0.39428414519E+01 0.37334927423E+01 0.35675542792E+01
 0.34502219699E+01 0.33863768059E+01 0.33775622970E+01 0.34246204126E+01 0.35286393186E+01
 0.36897533768E+01 0.39041745984E+01 0.41671829404E+01 0.45672312141E+01 0.52511310442E+01
 0.63161218567E+01 0.77880959480E+01 0.96140002101E+01 0.11665751748E+02 0.13755180614E+02
 0.11142940500E+02 0.12277953886E+02 0.13035515208E+02 0.13312716311E+02 0.13073440532E+02
 0.12354506990E+02 0.11256362020E+02 0.99214655878E+01 0.85069528038E+01 0.71586299471E+01
 0.59910464477E+01 0.50749177739E+01 0.44307824732E+01 0.40275944132E+01 0.37865003654E+01
 0.36061991834E+01 0.34620146465E+01 0.33603875020E+01 0.33031072383E+01 0.32898048863E+01
 0.33203064076E+01 0.33958246901E+01 0.35185623545E+01 0.36897533768E+01 0.39066763202E+01
 0.41629945450E+01 0.45180408158E+01 0.50816351360E+01 0.59183821875E+01 0.70309262012E+01
 0.83574908981E+01 0.97801468153E+01 0.79741968790E+01 0.87480149257E+01 0.93094880244E+01
 0.95741918299E+01 0.95014415286E+01 0.91023140695E+01 0.84360288831E+01 0.75961594269E+01
 0.66910292925E+01 0.58235927590E+01 0.50749177739E+01 0.44930299300E+01 0.40869391789E+01
 0.38251813233E+01 0.36403022052E+01 0.34855687749E+01 0.33649791670E+01 0.32816416599E+01
 0.32351571047E+01 0.32237105245E+01 0.32460413524E+01 0.33026386391E+01 0.33958246901E+01
 0.35286393186E+01 0.37026939701E+01 0.39155361506E+01 0.41588491485E+01 0.44556665539E+01
 0.48810166997E+01 0.54766769100E+01 0.62346314765E+01 0.70985103373E+01 0.60080407783E+01
 0.64624218823E+01 0.68157260873E+01 0.70073135139E+01 0.70011899815E+01 0.67944741620E+01
 0.64176012088E+01 0.59265895127E+01 0.53899831048E+01 0.48742233160E+01 0.44307824732E+01
 0.40869391789E+01 0.38406267713E+01 0.36592595243E+01 0.35042520409E+01 0.33762093492E+01
 0.32796849503E+01 0.32156555510E+01 0.31825134033E+01 0.31776434388E+01 0.31989741441E+01
 0.32460413524E+01 0.33203064076E+01 0.34246204126E+01 0.35618569440E+01 0.37329399348E+01
 0.39347863999E+01 0.41589273388E+01 0.43998253770E+01 0.46945587643E+01 0.50717151365E+01
 0.55232558989E+01 0.49815288412E+01 0.51951300373E+01 0.53670895756E+01 0.54628068134E+01
 0.54577312810E+01 0.53449594066E+01 0.51375476590E+01 0.48651214747E+01 0.45660866191E+01
 0.42778573571E+01 0.40275944132E+01 0.38251813233E+01 0.36592595243E+01 0.35111531271E+01
 0.33838181604E+01 0.32823455807E+01 0.32092672418E+01 0.31645260143E+01 0.31461521019E+01
 0.31513527308E+01 0.31776434388E+01 0.32237105245E+01 0.32898048863E+01 0.33775622970E+01
 0.34892254419E+01 0.36263546940E+01 0.37882864420E+01 0.39707863666E+01 0.41654328727E+01
 0.43601599449E+01 0.45525829030E+01 0.47600827140E+01 0.45496447273E+01 0.46248096289E+01
 0.46736532712E+01 0.46861179019E+01 0.46525308337E+01 0.45692625043E+01 0.44415961257E+01
 0.42830186958E+01 0.41113219014E+01 0.39428414519E+01 0.37865003654E+01 0.36403022052E+01
 0.35042520409E+01 0.33838181604E+01 0.32837873423E+01 0.32075281345E+01 0.31565832767E+01
 0.31306589990E+01 0.31280192086E+01 0.31461521019E+01 0.31825134033E+01 0.32351571047E+01
 0.33031072383E+01 0.33863768059E+01 0.34855968732E+01 0.36012888603E+01 0.37329060464E+01
 0.38778785629E+01 0.40309779997E+01 0.41843048804E+01 0.43280456859E+01 0.44518752117E+01
 0.43611984898E+01 0.43897907778E+01 0.43876046009E+01 0.43550287819E+01 0.42947906658E+01
 0.42104417301E+01 0.41064432517E+01 0.39885803894E+01 0.38626185616E+01 0.37334927423E+01
 0.36061991834E+01 0.34855687749E+01 0.33762093492E+01 0.32823455807E+01 0.32075281345E+01
 0.31543006958E+01 0.31239540011E+01 0.31164663533E+01 0.31306589990E+01 0.31645260143E+01
 0.32156555510E+01 0.32816416599E+01 0.33603875020E+01 0.34502219699E+01 0.35497925360E+01
 0.36577490677E+01 0.37722855863E+01 0.38906553831E+01 0.40088154821E+01 0.41213684691E+01
 0.42219183067E+01 0.43038275275E+01 0.42947967867E+01 0.42816529501E+01 0.42431417407E+01
 0.41818450717E+01 0.41015423782E+01 0.40066361824E+01 0.39016470935E+01 0.37908846216E+01
 0.36783106278E+01 0.35675542792E+01 0.34620146465E+01 0.33649791670E+01 0.32796849503E+01
 0.32092672418E+01 0.31565832767E+01 0.31239540011E+01 0.31129008156E+01 0.31239540011E+01
 0.31565832767E+01 0.32092672418E+01 0.32796849503E+01 0.33649791670E+01 0.34620146465E+01
 0.35675542792E+01 0.36783106278E+01 0.37908846216E+01 0.39016470935E+01 0.40066361824E+01
 0.41015423782E+01 0.41818450717E+01 0.42431417407E+01 0.42816529501E+01 0.43611984898E+01
 0.43038275275E+01 0.42219183067E+01 0.41213684691E+01 0.40088154821E+01 0.38906553831E+01
 0.37722855863E+01 0.36577490677E+01 0.35497925360E+01 0.34502219699E+01 0.33603875020E+01
 0.32816416599E+01 0.32156555510E+01 0.31645260143E+01 0.31306589990E+01 0.31164663533E+01
 0.31239540011E+01 0.31543006958E+01 0.32075281345E+01 0.32823455807E+01 0.33762093492E+01
 0.34855687749E+01 0.36061991834E+01 0.37334927423E+01 0.38626185616E+01 0.39885803894E+01
 0.41064432517E+01 0.42104417301E+01 0.42947906658E+01 0.43550287819E+01 0.43876046009E+01
 0.43897907778E+01 0.45496447273E+01 0.44518752117E+01 0.43280456859E+01 0.41843048804E+01
 0.40309779997E+01 0.38778785629E+01 0.37329060464E+01 0.36012888603E+01 0.34855968732E+01
 0.33863768059E+01 0.33031072383E+01 0.32351571047E+01 0.31825134033E+01 0.31461521019E+01
 0.31280192086E+01 0.31306589990E+01 0.31565832767E+01 0.32075281345E+01 0.32837873423E+01
 0.33838181604E+01 0.35042520409E+01 0.36403022052E+01 0.37865003654E+01 0.39428414519E+01
 0.41113219014E+01 0.42830186958E+01 0.44415961257E+01 0.45692625043E+01 0.46525308337E+01
 0.46861179019E+01 0.46736532712E+01 0.46248096289E+01 0.49815288412E+01 0.47600827140E+01
 0.45525829030E+01 0.43601599449E+01 0.41654328727E+01 0.39707863666E+01 0.37882864420E+01
 0.36263546940E+01 0.34892254419E+01 0.33775622970E+01 0.32898048863E+01 0.32237105245E+01
 0.31776434388E+01 0.31513527308E+01 0.31461521019E+01 0.31645260143E+01 0.32092672418E+01
 0.32823455807E+01 0.33838181604E+01 0.35111531271E+01 0.36592595243E+01 0.38251813233E+01
 0.40275944132E+01 0.42778573571E+01 0.45660866191E+01 0.48651214747E+01 0.51375476590E+01
 0.53449594066E+01 0.54577312810E+01 0.54628068134E+01 0.53670895756E+01 0.51951300373E+01
 0.60080407783E+01 0.55232558989E+01 0.50717151365E+01 0.46945587643E+01 0.43998253770E+01
 0.41589273388E+01 0.39347863999E+01 0.37329399348E+01 0.35618569440E+01 0.34246204126E+01
 0.33203064076E+01 0.32460413524E+01 0.31989741441E+01 0.31776434388E+01 0.31825134033E+01
 0.32156555510E+01 0.32796849503E+01 0.33762093492E+01 0.35042520409E+01 0.36592595243E+01
 0.38406267713E+01 0.40869391789E+01 0.44307824732E+01 0.48742233160E+01 0.53899831048E+01
 0.59265895127E+01 0.64176012088E+01 0.67944741620E+01 0.70011899815E+01 0.70073135139E+01
 0.68157260873E+01 0.64624218823E+01 0.79741968790E+01 0.70985103373E+01 0.62346314765E+01
 0.54766769100E+01 0.48810166997E+01 0.44556665539E+01 0.41588491485E+01 0.39155361506E+01
 0.37026939701E+01 0.35286393186E+01 0.33958246901E+01 0.33026386391E+01 0.32460413524E+01
 0.32237105245E+01 0.32351571047E+01 0.32816416599E+01 0.33649791670E+01 0.34855687749E+01
 0.36403022052E+01 0.38251813233E+01 0.40869391789E+01 0.44930299300E+01 0.50749177739E+01
 0.58235927590E+01 0.66910292925E+01 0.75961594269E+01 0.84360288831E+01 0.91023140695E+01
 0.95014415286E+01 0.95741918299E+01 0.93094880244E+01 0.87480149257E+01 0.11142940500E+02
 0.97801468153E+01 0.83574908981E+01 0.70309262012E+01 0.59183821875E+01 0.50816351360E+01
 0.45180408158E+01 0.41629945450E+01 0.39066763202E+01 0.36897533768E+01 0.35185623545E+01
 0.33958246901E+01 0.33203064076E+01 0.32898048863E+01 0.33031072383E+01 0.33603875020E+01
 0.34620146465E+01 0.36061991834E+01 0.37865003654E+01 0.40275944132E+01 0.44307824732E+01
 0.50749177739E+01 0.59910464477E+01 0.71586299471E+01 0.85069528038E+01 0.99214655878E+01
 0.11256362020E+02 0.12354506990E+02 0.13073440532E+02 0.13312716311E+02 0.13035515208E+02
 0.12277953886E+02 0.15659468350E+02 0.13755180614E+02 0.11665751748E+02 0.96140002101E+01
 0.77880959480E+01 0.63161218567E+01 0.52511310442E+01 0.45672312141E+01 0.41671829404E+01
 0.39041745984E+01 0.36897533768E+01 0.35286393186E+01 0.34246204126E+01 0.33775622970E+01
 0.33863768059E+01 0.34502219699E+01 0.35675542792E+01 0.37334927423E+01 0.39428414519E+01
 0.42778573571E+01 0.48742233160E+01 0.58235927590E+01 0.71586299471E+01 0.88484322000E+01
 0.10799543428E+02 0.12862056633E+02 0.14842796653E+02 0.16528040102E+02 0.17715473285E+02
 0.18250347697E+02 0.18056846805E+02 0.17155273460E+02 0.21537731634E+02 0.19083079675E+02
 0.16265132632E+02 0.13376271594E+02 0.10680040224E+02 0.83785112850E+01 0.65916601804E+01
 0.53479632462E+01 0.45858723512E+01 0.41671829404E+01 0.39066763202E+01 0.37026939701E+01
 0.35618569440E+01 0.34892254419E+01 0.34855968732E+01 0.35497925360E+01 0.36783106278E+01
 0.38626185616E+01 0.41113219014E+01 0.45660866191E+01 0.53899831048E+01 0.66910292925E+01
 0.85069528038E+01 0.10799543428E+02 0.13454910546E+02 0.16288585023E+02 0.19058159151E+02
 0.21487641360E+02 0.23304919214E+02 0.24287527175E+02 0.24305853042E+02 0.23350924013E+02
 0.28656065952E+02 0.25689809824E+02 0.22131333802E+02 0.18344280516E+02 0.14671124247E+02
 0.11392403437E+02 0.87011765255E+01 0.66900368005E+01 0.53479632462E+01 0.45672312141E+01
 0.41629945450E+01 0.39155361506E+01 0.37329399348E+01 0.36263546940E+01 0.36012888603E+01
 0.36577490677E+01 0.37908846216E+01 0.39885803894E+01 0.42830186958E+01 0.48651214747E+01
 0.59265895127E+01 0.75961594269E+01 0.99214655878E+01 0.12862056633E+02 0.16288585023E+02
 0.19986132503E+02 0.23664849591E+02 0.26984175849E+02 0.29594520226E+02 0.31192758780E+02
 0.31579207129E+02 0.30699274241E+02 0.36749015596E+02 0.33362095645E+02 0.29105648136E+02
 0.24414966564E+02 0.19714701686E+02 0.15367408888E+02 0.11642471467E+02 0.87011765255E+01
 0.65916601804E+01 0.52511310442E+01 0.45180408158E+01 0.41588491485E+01 0.39347863999E+01
 0.37882864420E+01 0.37329060464E+01 0.37722855863E+01 0.39016470935E+01 0.41064432517E+01
 0.44415961257E+01 0.51375476590E+01 0.64176012088E+01 0.84360288831E+01 0.11256362020E+02
 0.14842796653E+02 0.19058159151E+02 0.23664849591E+02 0.28331975332E+02 0.32657086590E+02
 0.36209734190E+02 0.38595586876E+02 0.39528270289E+02 0.38888222059E+02 0.45394175366E+02
 0.41735823932E+02 0.36886900456E+02 0.31350937049E+02 0.25636806830E+02 0.20192810551E+02
 0.15367408888E+02 0.11392403437E+02 0.83785112850E+01 0.63161218567E+01 0.50816351360E+01
 0.44556665539E+01 0.41589273388E+01 0.39707863666E+01 0.38778785629E+01 0.38906553831E+01
 0.40066361824E+01 0.42104417301E+01 0.45692625043E+01 0.53449594066E+01 0.67944741620E+01
 0.91023140695E+01 0.12354506990E+02 0.16528040102E+02 0.21487641360E+02 0.26984175849E+02
 0.32657086590E+02 0.38051092460E+02 0.42658250738E+02 0.45987922071E+02 0.47652881676E+02
 0.47447801469E+02 0.54008652551E+02 0.50287760937E+02 0.45022772864E+02 0.38774493962E+02
 0.32133641849E+02 0.25636806830E+02 0.19714701686E+02 0.14671124247E+02 0.10680040224E+02
 0.77880959480E+01 0.59183821875E+01 0.48810166997E+01 0.43998253770E+01 0.41654328727E+01
 0.40309779997E+01 0.40088154821E+01 0.41015423782E+01 0.42947906658E+01 0.46525308337E+01
 0.54577312810E+01 0.70011899815E+01 0.95014415286E+01 0.13073440532E+02 0.17715473285E+02
 0.23304919214E+02 0.29594520226E+02 0.36209734190E+02 0.42658250738E+02 0.48366637323E+02
 0.52751683083E+02 0.55317803235E+02 0.55755446498E+02 0.61878176914E+02 0.58351604806E+02
 0.52916906073E+02 0.46170687744E+02 0.38774493962E+02 0.31350937049E+02 0.24414966564E+02
 0.18344280516E+02 0.13376271594E+02 0.96140002101E+01 0.70309262012E+01 0.54766769100E+01
 0.46945587643E+01 0.43601599449E+01 0.41843048804E+01 0.41213684691E+01 0.41818450717E+01
 0.43550287819E+01 0.46861179019E+01 0.54628068134E+01 0.70073135139E+01 0.95741918299E+01
 0.13312716311E+02 0.18250347697E+02 0.24287527175E+02 0.31192758780E+02 0.38595586876E+02
 0.45987922071E+02 0.52751683083E+02 0.58225961217E+02 0.61810240982E+02 0.63079932363E+02
 0.68235078930E+02 0.65178169714E+02 0.59871975678E+02 0.52916906073E+02 0.45022772864E+02
 0.36886900456E+02 0.29105648136E+02 0.22131333802E+02 0.16265132632E+02 0.11665751748E+02
 0.83574908981E+01 0.62346314765E+01 0.50717151365E+01 0.45525829030E+01 0.43280456859E+01
 0.42219183067E+01 0.42431417407E+01 0.43876046009E+01 0.46736532712E+01 0.53670895756E+01
 0.68157260873E+01 0.93094880244E+01 0.13035515208E+02 0.18056846805E+02 0.24305853042E+02
 0.31579207129E+02 0.39528270289E+02 0.47652881676E+02 0.55317803235E+02 0.61810240982E+02
 0.66441640886E+02 0.68674240142E+02 0.72380502218E+02 0.70043010493E+02 0.65178169714E+02
 0.58351604806E+02 0.50287760937E+02 0.41735823932E+02 0.33362095645E+02 0.25689809824E+02
 0.19083079675E+02 0.13755180614E+02 0.97801468153E+01 0.70985103373E+01 0.55232558989E+01
 0.47600827140E+01 0.44518752117E+01 0.43038275275E+01 0.42816529501E+01 0.43897907778E+01
 0.46248096289E+01 0.51951300373E+01 0.64624218823E+01 0.87480149257E+01 0.12277953886E+02
 0.17155273460E+02 0.23350924013E+02 0.30699274241E+02 0.38888222059E+02 0.47447801469E+02
 0.55755446498E+02 0.63079932363E+02 0.68674240142E+02 0.71904564589E+02 0.72380502218E+02
 0.71904564589E+02 0.68674240142E+02 0.63079932363E+02 0.55755446498E+02 0.47447801469E+02
 0.38888222059E+02 0.30699274241E+02 0.23350924013E+02 0.17155273460E+02 0.12277953886E+02
 0.87480149257E+01 0.64624218823E+01 0.51951300373E+01 0.46248096289E+01 0.43897907778E+01
 0.42816529501E+01 0.43038275275E+01 0.44518752117E+01 0.47600827140E+01 0.55232558989E+01
 0.70985103373E+01 0.97801468153E+01 0.13755180614E+02 0.19083079675E+02 0.25689809824E+02
 0.33362095645E+02 0.41735823932E+02 0.50287760937E+02 0.58351604806E+02 0.65178169714E+02
 0.70043010493E+02 0.71904564589E+02 0.72380502015E+02 0.70043010107E+02 0.65178169189E+02
 0.58351604201E+02 0.50287760316E+02 0.41735823350E+02 0.33362095142E+02 0.25689809420E+02
 0.19083079369E+02 0.13755180395E+02 0.97801466627E+01 0.70985102317E+01 0.55232558253E+01
 0.47600826639E+01 0.44518751819E+01 0.43038275180E+01 0.42816529619E+01 0.43897908115E+01
 0.46248096856E+01 0.51951301204E+01 0.64624219996E+01 0.87480150898E+01 0.12277954113E+02
 0.17155273763E+02 0.23350924399E+02 0.30699274701E+02 0.38888222569E+02 0.47447801985E+02
 0.55755446964E+02 0.63079932720E+02 0.68674240337E+02 0.68674240142E+02 0.70043010107E+02
 0.68674239791E+02 0.64736645547E+02 0.58697425130E+02 0.51219888249E+02 0.43034042957E+02
 0.34821050753E+02 0.27138836687E+02 0.20393142265E+02 0.14838966111E+02 0.10591244496E+02
 0.76317150731E+01 0.58135948059E+01 0.48763116011E+01 0.44821000221E+01 0.42989816313E+01
 0.42341174324E+01 0.42989816677E+01 0.44821000940E+01 0.48763117094E+01 0.58135949587E+01
 0.76317152890E+01 0.10591244804E+02 0.14838966544E+02 0.20393142850E+02 0.27138837433E+02
 0.34821051641E+02 0.43034043930E+02 0.51219889222E+02 0.58697425996E+02 0.64736646199E+02
 0.63079932363E+02 0.65178169189E+02 0.64736645547E+02 0.61810240586E+02 0.56751572868E+02
 0.50132566655E+02 0.42628542544E+02 0.34903093719E+02 0.27524371859E+02 0.20923811164E+02
 0.15388334493E+02 0.11067276752E+02 0.79791172749E+01 0.60157031665E+01 0.49532437776E+01
 0.44820096129E+01 0.42673941453E+01 0.41646226399E+01 0.41861390336E+01 0.43282511363E+01
 0.45973121434E+01 0.52295904185E+01 0.65644776362E+01 0.88886887763E+01 0.12390237054E+02
 0.17135602007E+02 0.23062141225E+02 0.29973586140E+02 0.37532590832E+02 0.45257202358E+02
 0.52538674157E+02 0.58697425823E+02 0.55755446498E+02 0.58351604201E+02 0.58697425130E+02
 0.56751572868E+02 0.52751682753E+02 0.47161250815E+02 0.40573309694E+02 0.33603602576E+02
 0.26803962352E+02 0.20611691497E+02 0.15332154059E+02 0.11139877773E+02 0.80835051631E+01
 0.60895140429E+01 0.49707500248E+01 0.44505040629E+01 0.42111138429E+01 0.40777761968E+01
 0.40593426002E+01 0.41590529036E+01 0.43624458446E+01 0.47585535997E+01 0.56514425726E+01
 0.73412984218E+01 0.10051166594E+02 0.13894683490E+02 0.18862416258E+02 0.24817185304E+02
 0.31490099239E+02 0.38478431485E+02 0.45257202219E+02 0.51219888920E+02 0.47447801469E+02
 0.50287760316E+02 0.51219888249E+02 0.50132566655E+02 0.47161250815E+02 0.42658250556E+02
 0.37118455777E+02 0.31086588694E+02 0.25074021483E+02 0.19503254645E+02 0.14682424591E+02
 0.10799881919E+02 0.79260414318E+01 0.60160923361E+01 0.49167892779E+01 0.43861016794E+01
 0.41335376774E+01 0.39786800376E+01 0.39267978669E+01 0.39854288023E+01 0.41475670692E+01
 0.44085612019E+01 0.49514323604E+01 0.60715813968E+01 0.80162209518E+01 0.10941717463E+02
 0.14891509562E+02 0.19787773930E+02 0.25428927675E+02 0.31490099140E+02 0.37532590601E+02
 0.43034043553E+02 0.38888222059E+02 0.41735823350E+02 0.43034042957E+02 0.42628542544E+02
 0.40573309694E+02 0.37118455777E+02 0.32657086579E+02 0.27649543204E+02 0.22548595525E+02
 0.17743690144E+02 0.13530168346E+02 0.10097980463E+02 0.75298760394E+01 0.58026090627E+01
 0.47922969426E+01 0.42905934027E+01 0.40389041695E+01 0.38722685148E+01 0.37956570711E+01
 0.38182528852E+01 0.39388215755E+01 0.41450150178E+01 0.44674535284E+01 0.51369491409E+01
 0.64091233847E+01 0.84737234116E+01 0.11423674371E+02 0.15240071977E+02 0.19787773871E+02
 0.24817185152E+02 0.29973585869E+02 0.34821051242E+02 0.30699274241E+02 0.33362095142E+02
 0.34821050753E+02 0.34903093719E+02 0.33603602576E+02 0.31086588694E+02 0.27649543204E+02
 0.23664849710E+02 0.19516235836E+02 0.15546661936E+02 0.12025430577E+02 0.91326470121E+01
 0.69540228197E+01 0.54803700435E+01 0.46116665239E+01 0.41704480225E+01 0.39318410089E+01
 0.37628717164E+01 0.36712563961E+01 0.36656293820E+01 0.37476373319E+01 0.39124421374E+01
 0.41471241233E+01 0.45236158393E+01 0.52707305909E+01 0.65966748914E+01 0.86354027739E+01
 0.11423674346E+02 0.14891509482E+02 0.18862416093E+02 0.23062140955E+02 0.27138837057E+02
 0.23350924013E+02 0.25689809420E+02 0.27138836687E+02 0.27524371859E+02 0.26803962352E+02
 0.25074021483E+02 0.22548595525E+02 0.19516235836E+02 0.16288585191E+02 0.13154467700E+02
 0.10347697266E+02 0.80292810040E+01 0.62796940898E+01 0.50968262120E+01 0.43988952043E+01
 0.40355658586E+01 0.38170379411E+01 0.36540651245E+01 0.35569242690E+01 0.35322458774E+01
 0.35823052585E+01 0.37063892586E+01 0.38992236967E+01 0.41515760002E+01 0.45578762465E+01
 0.53194023814E+01 0.65966748890E+01 0.84737233863E+01 0.10941717388E+02 0.13894683341E+02
 0.17135601768E+02 0.20393142525E+02 0.17155273460E+02 0.19083079369E+02 0.20393142265E+02
 0.20923811164E+02 0.20611691497E+02 0.19503254645E+02 0.17743690144E+02 0.15546661936E+02
 0.13154467700E+02 0.10799543568E+02 0.86750323756E+01 0.69165845694E+01 0.55932173635E+01
 0.47041477525E+01 0.41807658805E+01 0.38958859563E+01 0.36990595912E+01 0.35487609391E+01
 0.34543041121E+01 0.34196656428E+01 0.34463455408E+01 0.35351738624E+01 0.36857919853E+01
 0.38939486314E+01 0.41538097611E+01 0.45578762541E+01 0.52707305972E+01 0.64091233716E+01
 0.80162208961E+01 0.10051166475E+02 0.12390236861E+02 0.14838966283E+02 0.12277953886E+02
 0.13755180395E+02 0.14838966111E+02 0.15388334493E+02 0.15332154059E+02 0.14682424591E+02
 0.13530168346E+02 0.12025430577E+02 0.10347697266E+02 0.86750323756E+01 0.71586300163E+01
 0.59056658071E+01 0.49698050440E+01 0.43474603127E+01 0.39790976137E+01 0.37570550543E+01
 0.35822795386E+01 0.34494425705E+01 0.33639925913E+01 0.33273000639E+01 0.33394911891E+01
 0.34013390314E+01 0.35144589254E+01 0.36796622093E+01 0.38939486383E+01 0.41515760151E+01
 0.45236158545E+01 0.51369491408E+01 0.60715813618E+01 0.73412983346E+01 0.88886886297E+01
 0.10591244606E+02 0.87480149257E+01 0.97801466627E+01 0.10591244496E+02 0.11067276752E+02
 0.11139877773E+02 0.10799881919E+02 0.10097980463E+02 0.91326470121E+01 0.80292810040E+01
 0.69165845694E+01 0.59056658071E+01 0.50749177739E+01 0.44610283411E+01 0.40551742293E+01
 0.38039431693E+01 0.36214174894E+01 0.34708903991E+01 0.33584365899E+01 0.32862576380E+01
 0.32536521394E+01 0.32593828691E+01 0.33034261381E+01 0.33875419493E+01 0.35144589256E+01
 0.36857919922E+01 0.38992237118E+01 0.41471241407E+01 0.44674535350E+01 0.49514323400E+01
 0.56514425114E+01 0.65644775289E+01 0.76317151430E+01 0.64624218823E+01 0.70985102317E+01
 0.76317150731E+01 0.79791172749E+01 0.80835051631E+01 0.79260414318E+01 0.75298760394E+01
 0.69540228197E+01 0.62796940898E+01 0.55932173635E+01 0.49698050440E+01 0.44610283411E+01
 0.40869391403E+01 0.38326119864E+01 0.36493256779E+01 0.34939119115E+01 0.33689189946E+01
 0.32781300204E+01 0.32216411480E+01 0.31974509275E+01 0.32033319344E+01 0.32383221438E+01
 0.33034261313E+01 0.34013390244E+01 0.35351738614E+01 0.37063892657E+01 0.39124421486E+01
 0.41450150229E+01 0.44085611880E+01 0.47585535558E+01 0.52295903406E+01 0.58135948530E+01
 0.51951300373E+01 0.55232558253E+01 0.58135948059E+01 0.60157031665E+01 0.60895140429E+01
 0.60160923361E+01 0.58026090627E+01 0.54803700435E+01 0.50968262120E+01 0.47041477525E+01
 0.43474603127E+01 0.40551742293E+01 0.38326119864E+01 0.36592594815E+01 0.35075893032E+01
 0.33795972314E+01 0.32801705742E+01 0.32110629769E+01 0.31713218943E+01 0.31584264244E+01
 0.31696678988E+01 0.32033319247E+01 0.32593828524E+01 0.33394911713E+01 0.34463455278E+01
 0.35823052532E+01 0.37476373320E+01 0.39388215736E+01 0.41475670557E+01 0.43624458112E+01
 0.45973120867E+01 0.48763116336E+01 0.46248096289E+01 0.47600826639E+01 0.48763116011E+01
 0.49532437776E+01 0.49707500248E+01 0.49167892779E+01 0.47922969426E+01 0.46116665239E+01
 0.43988952043E+01 0.41807658805E+01 0.39790976137E+01 0.38039431693E+01 0.36493256779E+01
 0.35075893032E+01 0.33838181328E+01 0.32829716241E+01 0.32080616349E+01 0.31598615876E+01
 0.31371851362E+01 0.31376144318E+01 0.31584264175E+01 0.31974509114E+01 0.32536521161E+01
 0.33273000384E+01 0.34196656204E+01 0.35322458612E+01 0.36656293714E+01 0.38182528758E+01
 0.39854287876E+01 0.41590528775E+01 0.43282510960E+01 0.44821000417E+01 0.43897907778E+01
 0.44518751819E+01 0.44821000221E+01 0.44820096129E+01 0.44505040629E+01 0.43861016794E+01
 0.42905934027E+01 0.41704480225E+01 0.40355658586E+01 0.38958859563E+01 0.37570550543E+01
 0.36214174894E+01 0.34939119115E+01 0.33795972314E+01 0.32829716241E+01 0.32075281243E+01
 0.31553660341E+01 0.31270237698E+01 0.31216081281E+01 0.31371851358E+01 0.31713218884E+01
 0.32216411344E+01 0.32862576175E+01 0.33639925670E+01 0.34543040880E+01 0.35569242482E+01
 0.36712563794E+01 0.37956570569E+01 0.39267978519E+01 0.40593425808E+01 0.41861390078E+01
 0.42989816361E+01 0.42816529501E+01 0.43038275180E+01 0.42989816313E+01 0.42673941453E+01
 0.42111138429E+01 0.41335376774E+01 0.40389041695E+01 0.39318410089E+01 0.38170379411E+01
 0.36990595912E+01 0.35822795386E+01 0.34708903991E+01 0.33689189946E+01 0.32801705742E+01
 0.32080616349E+01 0.31553660341E+01 0.31239540025E+01 0.31146149879E+01 0.31270237759E+01
 0.31598615956E+01 0.32110629828E+01 0.32781300211E+01 0.33584365839E+01 0.34494425583E+01
 0.35487609226E+01 0.36540651062E+01 0.37628716985E+01 0.38722684987E+01 0.39786800234E+01
 0.40777761838E+01 0.41646226274E+01 0.42341174199E+01 0.43038275275E+01 0.42816529619E+01
 0.42341174324E+01 0.41646226399E+01 0.40777761968E+01 0.39786800376E+01 0.38722685148E+01
 0.37628717164E+01 0.36540651245E+01 0.35487609391E+01 0.34494425705E+01 0.33584365899E+01
 0.32781300204E+01 0.32110629769E+01 0.31598615876E+01 0.31270237698E+01 0.31146149879E+01
 0.31239540111E+01 0.31553660518E+01 0.32080616595E+01 0.32801706017E+01 0.33689190196E+01
 0.34708904169E+01 0.35822795461E+01 0.36990595876E+01 0.38170379282E+01 0.39318409905E+01
 0.40389041504E+01 0.41335376618E+01 0.42111138337E+01 0.42673941435E+01 0.42989816361E+01
 0.44518752117E+01 0.43897908115E+01 0.42989816677E+01 0.41861390336E+01 0.40593426002E+01
 0.39267978669E+01 0.37956570711E+01 0.36712563961E+01 0.35569242690E+01 0.34543041121E+01
 0.33639925913E+01 0.32862576380E+01 0.32216411480E+01 0.31713218943E+01 0.31371851362E+01
 0.31216081281E+01 0.31270237759E+01 0.31553660518E+01 0.32075281566E+01 0.32829716697E+01
 0.33795972849E+01 0.34939119645E+01 0.36214175328E+01 0.37570550807E+01 0.38958859623E+01
 0.40355658458E+01 0.41704479969E+01 0.42905933733E+01 0.43861016555E+01 0.44505040517E+01