   1   1   1   0
  0.8788000E+01  0.2251666E-09  0.2251666E-09  0.2251666E-09  0.5000000E-15
  1.000000000000000E-004
  CAR 
 Fe BCC                                  
     56.88951563     -3.61413469  301      8.89073065      1.00000000
     -3.614  0.0000E+00  0.0000E+00  0.0000E+00  0.0000E+00
     -3.412  0.0000E+00  0.0000E+00  0.0000E+00  0.0000E+00
     -3.211  0.0000E+00  0.0000E+00  0.0000E+00  0.0000E+00
     -3.009  0.0000E+00  0.0000E+00  0.0000E+00  0.0000E+00
     -2.807  0.0000E+00  0.0000E+00  0.0000E+00  0.0000E+00
     -2.606  0.0000E+00  0.0000E+00  0.0000E+00  0.0000E+00
     -2.404  0.0000E+00  0.0000E+00  0.0000E+00  0.0000E+00
     -2.202  0.0000E+00  0.0000E+00  0.0000E+00  0.0000E+00
     -2.001  0.0000E+00  0.0000E+00  0.0000E+00  0.0000E+00
     -1.799  0.0000E+00  0.0000E+00  0.0000E+00  0.0000E+00
     -1.597  0.0000E+00  0.0000E+00  0.0000E+00  0.0000E+00
     -1.396  0.0000E+00  0.0000E+00  0.0000E+00  0.0000E+00
     -1.194  0.0000E+00  0.0000E+00  0.0000E+00  0.0000E+00
     -0.992  0.0000E+00  0.0000E+00  0.0000E+00  0.0000E+00
     -0.791  0.1001E-01  0.0000E+00  0.1310E-02  0.0000E+00
     -0.589  0.1520E-01  0.0000E+00  0.3865E-02  0.0000E+00
     -0.387  0.1965E-01  0.1120E-01  0.7392E-02  0.1842E-02
     -0.186  0.2337E-01  0.1605E-01  0.1174E-01  0.4602E-02
      0.016  0.2910E-01  0.2015E-01  0.1695E-01  0.8265E-02
      0.218  0.3519E-01  0.2352E-01  0.2345E-01  0.1268E-01
      0.419  0.4005E-01  0.2959E-01  0.3106E-01  0.1801E-01
      0.621  0.4204E-01  0.3499E-01  0.3941E-01  0.2454E-01
      0.823  0.4767E-01  0.3915E-01  0.4845E-01  0.3204E-01
      1.024  0.5393E-01  0.4039E-01  0.5868E-01  0.4008E-01
      1.226  0.6084E-01  0.4505E-01  0.7025E-01  0.4868E-01
      1.428  0.6838E-01  0.5015E-01  0.8327E-01  0.5828E-01
      1.630  0.7656E-01  0.5567E-01  0.9787E-01  0.6894E-01
      1.831  0.9232E-01  0.6163E-01  0.1145E+00  0.8076E-01
      2.033  0.1185E+00  0.6802E-01  0.1357E+00  0.9383E-01
      2.235  0.1525E+00  0.7643E-01  0.1626E+00  0.1082E+00
      2.436  0.3540E+00  0.9085E-01  0.2038E+00  0.1251E+00
      2.638  0.4700E+00  0.1060E+00  0.2908E+00  0.1449E+00
      2.840  0.5291E+00  0.1237E+00  0.3907E+00  0.1679E+00
      3.041  0.6728E+00  0.1557E+00  0.5095E+00  0.1959E+00
      3.243  0.8637E+00  0.1972E+00  0.6864E+00  0.2313E+00
      3.445  0.7021E+00  0.3608E+00  0.8471E+00  0.2856E+00
      3.646  0.4682E+00  0.3923E+00  0.9642E+00  0.3588E+00
      3.848  0.3436E+00  0.4808E+00  0.1044E+01  0.4455E+00
      4.050  0.2600E+00  0.6117E+00  0.1101E+01  0.5577E+00
      4.251  0.2947E+00  0.7808E+00  0.1160E+01  0.6943E+00
      4.453  0.1203E+01  0.6463E+00  0.1365E+01  0.8381E+00
      4.655  0.1027E+01  0.4181E+00  0.1600E+01  0.9514E+00
      4.856  0.6060E+00  0.3134E+00  0.1769E+01  0.1025E+01
      5.058  0.4671E+00  0.1955E+00  0.1870E+01  0.1075E+01
      5.260  0.5630E+00  0.2157E+00  0.1972E+01  0.1117E+01
      5.461  0.7674E+00  0.1096E+01  0.2104E+01  0.1235E+01
      5.663  0.1229E+01  0.1188E+01  0.2295E+01  0.1450E+01
      5.865  0.1235E+01  0.8791E+00  0.2562E+01  0.1651E+01
      6.066  0.4005E+00  0.6018E+00  0.2708E+01  0.1796E+01
      6.268  0.3097E+00  0.5957E+00  0.2779E+01  0.1915E+01
      6.470  0.2732E+00  0.6374E+00  0.2837E+01  0.2038E+01
      6.671  0.2654E+00  0.8692E+00  0.2891E+01  0.2189E+01
      6.873  0.2797E+00  0.1166E+01  0.2945E+01  0.2404E+01
      7.075  0.4071E+00  0.9097E+00  0.3018E+01  0.2628E+01
      7.277  0.4993E+00  0.3288E+00  0.3106E+01  0.2753E+01
      7.478  0.8197E+00  0.2546E+00  0.3237E+01  0.2809E+01
      7.680  0.1149E+01  0.2226E+00  0.3434E+01  0.2857E+01
      7.882  0.1352E+01  0.2062E+00  0.3697E+01  0.2900E+01
      8.083  0.1191E+01  0.2072E+00  0.3980E+01  0.2942E+01
      8.285  0.1395E+01  0.2573E+00  0.4212E+01  0.2988E+01
      8.487  0.9250E+00  0.2931E+00  0.4502E+01  0.3045E+01
      8.688  0.7218E+00  0.3699E+00  0.4666E+01  0.3110E+01
      8.890  0.6008E+00  0.5794E+00  0.4795E+01  0.3204E+01
      9.092  0.5724E+00  0.7719E+00  0.4913E+01  0.3338E+01
      9.293  0.6680E+00  0.1054E+01  0.5036E+01  0.3522E+01
      9.495  0.3938E+00  0.1194E+01  0.5181E+01  0.3749E+01
      9.697  0.1775E+00  0.1005E+01  0.5236E+01  0.3971E+01
      9.898  0.1356E+00  0.1017E+01  0.5263E+01  0.4172E+01
     10.100  0.1347E+00  0.1501E+01  0.5290E+01  0.4385E+01
     10.302  0.1374E+00  0.9394E+00  0.5317E+01  0.4680E+01
     10.503  0.1363E+00  0.7255E+00  0.5345E+01  0.4843E+01
     10.705  0.1311E+00  0.7214E+00  0.5372E+01  0.4988E+01
     10.907  0.1254E+00  0.7970E+00  0.5398E+01  0.5150E+01
     11.108  0.1230E+00  0.1749E+00  0.5423E+01  0.5230E+01
     11.310  0.1227E+00  0.1643E+00  0.5448E+01  0.5260E+01
     11.512  0.1227E+00  0.1620E+00  0.5472E+01  0.5293E+01
     11.713  0.1229E+00  0.1614E+00  0.5497E+01  0.5326E+01
     11.915  0.1233E+00  0.1538E+00  0.5522E+01  0.5358E+01
     12.117  0.1233E+00  0.1452E+00  0.5547E+01  0.5388E+01
     12.318  0.1224E+00  0.1383E+00  0.5572E+01  0.5417E+01
     12.520  0.1206E+00  0.1371E+00  0.5596E+01  0.5444E+01
     12.722  0.1179E+00  0.1364E+00  0.5620E+01  0.5472E+01
     12.924  0.1210E+00  0.1363E+00  0.5645E+01  0.5499E+01
     13.125  0.1127E+00  0.1362E+00  0.5669E+01  0.5527E+01
     13.327  0.1120E+00  0.1352E+00  0.5691E+01  0.5554E+01
     13.529  0.1155E+00  0.1330E+00  0.5714E+01  0.5581E+01
     13.730  0.1065E+00  0.1295E+00  0.5738E+01  0.5608E+01
     13.932  0.1027E+00  0.1333E+00  0.5759E+01  0.5635E+01
     14.134  0.9891E-01  0.1214E+00  0.5779E+01  0.5660E+01
     14.335  0.9514E-01  0.1189E+00  0.5799E+01  0.5684E+01
     14.537  0.9140E-01  0.1204E+00  0.5817E+01  0.5708E+01
     14.739  0.8768E-01  0.1150E+00  0.5835E+01  0.5733E+01
     14.940  0.8332E-01  0.1088E+00  0.5853E+01  0.5756E+01
     15.142  0.7781E-01  0.1046E+00  0.5869E+01  0.5777E+01
     15.344  0.7234E-01  0.1005E+00  0.5884E+01  0.5798E+01
     15.545  0.6692E-01  0.9636E-01  0.5898E+01  0.5818E+01
     15.747  0.7039E-01  0.9227E-01  0.5912E+01  0.5837E+01
     15.949  0.6330E-01  0.8799E-01  0.5926E+01  0.5855E+01
     16.150  0.4306E-01  0.8190E-01  0.5938E+01  0.5872E+01
     16.352  0.3967E-01  0.7586E-01  0.5946E+01  0.5888E+01
     16.554  0.3647E-01  0.7777E-01  0.5954E+01  0.5904E+01
     16.755  0.3346E-01  0.7084E-01  0.5961E+01  0.5919E+01
     16.957  0.2712E-01  0.6150E-01  0.5968E+01  0.5932E+01
     17.159  0.2134E-01  0.4404E-01  0.5973E+01  0.5943E+01
     17.360  0.1722E-01  0.4036E-01  0.5977E+01  0.5951E+01
     17.562  0.1476E-01  0.3690E-01  0.5980E+01  0.5959E+01
     17.764  0.1394E-01  0.3164E-01  0.5983E+01  0.5967E+01
     17.966  0.1464E-01  0.2478E-01  0.5986E+01  0.5973E+01
     18.167  0.1684E-01  0.1961E-01  0.5989E+01  0.5977E+01
     18.369  0.2054E-01  0.1615E-01  0.5993E+01  0.5981E+01
     18.571  0.2576E-01  0.1439E-01  0.5997E+01  0.5984E+01
     18.772  0.3554E-01  0.1421E-01  0.6004E+01  0.5987E+01
     18.974  0.5828E-01  0.1555E-01  0.6013E+01  0.5990E+01
     19.176  0.1017E+00  0.1842E-01  0.6029E+01  0.5993E+01
     19.377  0.1725E+00  0.2495E-01  0.6059E+01  0.5998E+01
     19.579  0.2177E+00  0.2938E-01  0.6098E+01  0.6004E+01
     19.781  0.2619E+00  0.3483E-01  0.6147E+01  0.6010E+01
     19.982  0.2862E+00  0.6303E-01  0.6201E+01  0.6019E+01
     20.184  0.1865E+00  0.1465E+00  0.6250E+01  0.6041E+01
     20.386  0.1768E+00  0.1973E+00  0.6286E+01  0.6076E+01
     20.587  0.1715E+00  0.2467E+00  0.6321E+01  0.6121E+01
     20.789  0.1657E+00  0.2946E+00  0.6355E+01  0.6175E+01
     20.991  0.1594E+00  0.2715E+00  0.6388E+01  0.6234E+01
     21.192  0.1626E+00  0.1898E+00  0.6420E+01  0.6275E+01
     21.394  0.1735E+00  0.1836E+00  0.6456E+01  0.6313E+01
     21.596  0.1353E+00  0.1773E+00  0.6487E+01  0.6349E+01
     21.797  0.1382E+00  0.1851E+00  0.6515E+01  0.6386E+01
     21.999  0.1447E+00  0.2807E+00  0.6543E+01  0.6428E+01
     22.201  0.1591E+00  0.1442E+00  0.6575E+01  0.6458E+01
     22.402  0.1740E+00  0.1447E+00  0.6609E+01  0.6487E+01
     22.604  0.1761E+00  0.1489E+00  0.6644E+01  0.6516E+01
     22.806  0.1796E+00  0.1623E+00  0.6680E+01  0.6548E+01
     23.007  0.1829E+00  0.1708E+00  0.6717E+01  0.6581E+01
     23.209  0.1859E+00  0.1828E+00  0.6754E+01  0.6619E+01
     23.411  0.1886E+00  0.1850E+00  0.6792E+01  0.6656E+01
     23.613  0.1901E+00  0.1888E+00  0.6830E+01  0.6693E+01
     23.814  0.1903E+00  0.1919E+00  0.6868E+01  0.6732E+01
     24.016  0.1892E+00  0.1944E+00  0.6907E+01  0.6771E+01
     24.218  0.1770E+00  0.1962E+00  0.6946E+01  0.6810E+01
     24.419  0.1676E+00  0.1967E+00  0.6980E+01  0.6850E+01
     24.621  0.1714E+00  0.1957E+00  0.7016E+01  0.6889E+01
     24.823  0.1697E+00  0.1866E+00  0.7050E+01  0.6929E+01
     25.024  0.1692E+00  0.1730E+00  0.7085E+01  0.6965E+01
     25.226  0.1686E+00  0.1769E+00  0.7119E+01  0.7002E+01
     25.428  0.1680E+00  0.1753E+00  0.7153E+01  0.7038E+01
     25.629  0.1674E+00  0.1736E+00  0.7186E+01  0.7073E+01
     25.831  0.1723E+00  0.1735E+00  0.7221E+01  0.7108E+01
     26.033  0.1690E+00  0.1731E+00  0.7255E+01  0.7143E+01
     26.234  0.1655E+00  0.1726E+00  0.7289E+01  0.7178E+01
     26.436  0.1641E+00  0.1725E+00  0.7322E+01  0.7213E+01
     26.638  0.1624E+00  0.1776E+00  0.7355E+01  0.7248E+01
     26.839  0.1621E+00  0.1716E+00  0.7388E+01  0.7284E+01
     27.041  0.1617E+00  0.1698E+00  0.7420E+01  0.7318E+01
     27.243  0.1613E+00  0.1682E+00  0.7453E+01  0.7352E+01
     27.444  0.1608E+00  0.1681E+00  0.7485E+01  0.7386E+01
     27.646  0.1659E+00  0.1680E+00  0.7519E+01  0.7420E+01
     27.848  0.1686E+00  0.1678E+00  0.7552E+01  0.7454E+01
     28.049  0.1734E+00  0.1676E+00  0.7587E+01  0.7488E+01
     28.251  0.1784E+00  0.1674E+00  0.7622E+01  0.7521E+01
     28.453  0.1866E+00  0.1682E+00  0.7659E+01  0.7555E+01
     28.654  0.2017E+00  0.1746E+00  0.7698E+01  0.7590E+01
     28.856  0.1936E+00  0.1770E+00  0.7737E+01  0.7625E+01
     29.058  0.2032E+00  0.1804E+00  0.7778E+01  0.7661E+01
     29.260  0.2106E+00  0.1855E+00  0.7819E+01  0.7698E+01
     29.461  0.2078E+00  0.2025E+00  0.7863E+01  0.7737E+01
     29.663  0.2135E+00  0.2001E+00  0.7905E+01  0.7777E+01
     29.865  0.2081E+00  0.2025E+00  0.7948E+01  0.7819E+01
     30.066  0.2084E+00  0.2125E+00  0.7990E+01  0.7861E+01
     30.268  0.2119E+00  0.2187E+00  0.8033E+01  0.7904E+01
     30.470  0.2169E+00  0.2211E+00  0.8076E+01  0.7949E+01
     30.671  0.2156E+00  0.2156E+00  0.8120E+01  0.7992E+01
     30.873  0.2190E+00  0.2179E+00  0.8164E+01  0.8036E+01
     31.075  0.2191E+00  0.2225E+00  0.8208E+01  0.8080E+01
     31.276  0.2256E+00  0.2215E+00  0.8253E+01  0.8126E+01
     31.478  0.2363E+00  0.2220E+00  0.8299E+01  0.8170E+01
     31.680  0.2483E+00  0.2252E+00  0.8348E+01  0.8215E+01
     31.881  0.2617E+00  0.2345E+00  0.8400E+01  0.8262E+01
     32.083  0.2638E+00  0.2453E+00  0.8452E+01  0.8310E+01
     32.285  0.2866E+00  0.2571E+00  0.8508E+01  0.8361E+01
     32.486  0.2647E+00  0.2700E+00  0.8564E+01  0.8414E+01
     32.688  0.2477E+00  0.2735E+00  0.8616E+01  0.8468E+01
     32.890  0.2365E+00  0.2947E+00  0.8664E+01  0.8527E+01
     33.091  0.2263E+00  0.2627E+00  0.8711E+01  0.8583E+01
     33.293  0.2177E+00  0.2472E+00  0.8756E+01  0.8635E+01
     33.495  0.2068E+00  0.2360E+00  0.8799E+01  0.8683E+01
     33.696  0.1933E+00  0.2280E+00  0.8839E+01  0.8730E+01
     33.898  0.1736E+00  0.2174E+00  0.8876E+01  0.8775E+01
     34.100  0.1533E+00  0.2042E+00  0.8909E+01  0.8818E+01
     34.301  0.1442E+00  0.1871E+00  0.8939E+01  0.8857E+01
     34.503  0.1370E+00  0.1606E+00  0.8967E+01  0.8892E+01
     34.705  0.1274E+00  0.1491E+00  0.8994E+01  0.8923E+01
     34.907  0.1310E+00  0.1372E+00  0.9020E+01  0.8952E+01
     35.108  0.1377E+00  0.1326E+00  0.9047E+01  0.8980E+01
     35.310  0.1551E+00  0.1311E+00  0.9076E+01  0.9006E+01
     35.512  0.1748E+00  0.1364E+00  0.9109E+01  0.9033E+01
     35.713  0.1549E+00  0.1351E+00  0.9145E+01  0.9061E+01
     35.915  0.1331E+00  0.1887E+00  0.9172E+01  0.9090E+01
     36.117  0.1319E+00  0.1974E+00  0.9199E+01  0.9133E+01
     36.318  0.1200E+00  0.1480E+00  0.9225E+01  0.9166E+01
     36.520  0.1153E+00  0.1281E+00  0.9249E+01  0.9195E+01
     36.722  0.1118E+00  0.1177E+00  0.9272E+01  0.9220E+01
     36.923  0.1097E+00  0.1096E+00  0.9294E+01  0.9243E+01
     37.125  0.1128E+00  0.1039E+00  0.9317E+01  0.9264E+01
     37.327  0.1228E+00  0.1006E+00  0.9341E+01  0.9285E+01
     37.528  0.1690E+00  0.1033E+00  0.9369E+01  0.9305E+01
     37.730  0.2251E+00  0.1105E+00  0.9409E+01  0.9327E+01
     37.932  0.2785E+00  0.1403E+00  0.9460E+01  0.9352E+01
     38.133  0.3895E+00  0.1943E+00  0.9532E+01  0.9386E+01
     38.335  0.2295E+00  0.2469E+00  0.9589E+01  0.9430E+01
     38.537  0.1939E+00  0.3076E+00  0.9631E+01  0.9486E+01
     38.738  0.1671E+00  0.2496E+00  0.9668E+01  0.9569E+01
     38.940  0.1531E+00  0.2134E+00  0.9699E+01  0.9616E+01
     39.142  0.1452E+00  0.1838E+00  0.9730E+01  0.9656E+01
     39.343  0.1375E+00  0.1608E+00  0.9758E+01  0.9690E+01
     39.545  0.1301E+00  0.1491E+00  0.9785E+01  0.9721E+01
     39.747  0.1230E+00  0.1400E+00  0.9811E+01  0.9751E+01
     39.948  0.1161E+00  0.1313E+00  0.9835E+01  0.9778E+01
     40.150  0.1301E+00  0.1230E+00  0.9860E+01  0.9804E+01
     40.352  0.1388E+00  0.1152E+00  0.9887E+01  0.9828E+01
     40.554  0.1507E+00  0.1161E+00  0.9916E+01  0.9851E+01
     40.755  0.1451E+00  0.1325E+00  0.9946E+01  0.9875E+01
     40.957  0.1988E+00  0.1497E+00  0.9977E+01  0.9904E+01
     41.159  0.1491E+00  0.1426E+00  0.1001E+02  0.9933E+01
     41.360  0.2098E+00  0.1387E+00  0.1004E+02  0.9961E+01
     41.562  0.2413E+00  0.1570E+00  0.1009E+02  0.9990E+01
     41.764  0.2727E+00  0.1625E+00  0.1014E+02  0.1002E+02
     41.965  0.3586E+00  0.2240E+00  0.1020E+02  0.1006E+02
     42.167  0.3034E+00  0.2568E+00  0.1026E+02  0.1011E+02
     42.369  0.2941E+00  0.2838E+00  0.1032E+02  0.1017E+02
     42.570  0.2823E+00  0.3150E+00  0.1038E+02  0.1023E+02
     42.772  0.2682E+00  0.2986E+00  0.1044E+02  0.1029E+02
     42.974  0.2517E+00  0.2889E+00  0.1049E+02  0.1035E+02
     43.175  0.2529E+00  0.2769E+00  0.1054E+02  0.1040E+02
     43.377  0.2380E+00  0.2625E+00  0.1059E+02  0.1046E+02
     43.579  0.2332E+00  0.2594E+00  0.1064E+02  0.1051E+02
     43.780  0.2284E+00  0.2500E+00  0.1068E+02  0.1056E+02
     43.982  0.2238E+00  0.2391E+00  0.1073E+02  0.1061E+02
     44.184  0.2159E+00  0.2354E+00  0.1077E+02  0.1066E+02
     44.385  0.2140E+00  0.2317E+00  0.1082E+02  0.1070E+02
     44.587  0.2139E+00  0.2278E+00  0.1086E+02  0.1075E+02
     44.789  0.2335E+00  0.2219E+00  0.1091E+02  0.1080E+02
     44.990  0.1916E+00  0.2218E+00  0.1095E+02  0.1084E+02
     45.192  0.1947E+00  0.2217E+00  0.1099E+02  0.1089E+02
     45.394  0.2059E+00  0.2183E+00  0.1103E+02  0.1093E+02
     45.596  0.2090E+00  0.1984E+00  0.1107E+02  0.1097E+02
     45.797  0.2160E+00  0.2075E+00  0.1111E+02  0.1101E+02
     45.999  0.2242E+00  0.2072E+00  0.1116E+02  0.1106E+02
     46.201  0.2340E+00  0.2093E+00  0.1120E+02  0.1110E+02
     46.402  0.2531E+00  0.2145E+00  0.1125E+02  0.1114E+02
     46.604  0.2574E+00  0.2218E+00  0.1131E+02  0.1119E+02
     46.806  0.2585E+00  0.2200E+00  0.1136E+02  0.1123E+02
     47.007  0.2547E+00  0.2551E+00  0.1141E+02  0.1128E+02
     47.209  0.2415E+00  0.2495E+00  0.1146E+02  0.1133E+02
     47.411  0.1987E+00  0.2448E+00  0.1150E+02  0.1138E+02
     47.612  0.1917E+00  0.2421E+00  0.1154E+02  0.1143E+02
     47.814  0.1851E+00  0.2339E+00  0.1158E+02  0.1148E+02
     48.016  0.1788E+00  0.1990E+00  0.1162E+02  0.1152E+02
     48.217  0.1728E+00  0.1902E+00  0.1165E+02  0.1156E+02
     48.419  0.1658E+00  0.1841E+00  0.1169E+02  0.1160E+02
     48.621  0.1672E+00  0.1782E+00  0.1172E+02  0.1163E+02
     48.822  0.1619E+00  0.1710E+00  0.1176E+02  0.1167E+02
     49.024  0.1519E+00  0.1682E+00  0.1179E+02  0.1170E+02
     49.226  0.1458E+00  0.1662E+00  0.1182E+02  0.1174E+02
     49.427  0.1284E+00  0.1562E+00  0.1185E+02  0.1177E+02
     49.629  0.9482E-01  0.1529E+00  0.1187E+02  0.1180E+02
     49.831  0.7951E-01  0.1348E+00  0.1189E+02  0.1183E+02
     50.032  0.6124E-01  0.1188E+00  0.1190E+02  0.1185E+02
     50.234  0.5683E-01  0.8649E-01  0.1191E+02  0.1188E+02
     50.436  0.5260E-01  0.7608E-01  0.1192E+02  0.1189E+02
     50.637  0.4855E-01  0.6834E-01  0.1193E+02  0.1191E+02
     50.839  0.4467E-01  0.5546E-01  0.1194E+02  0.1192E+02
     51.041  0.4097E-01  0.5122E-01  0.1195E+02  0.1193E+02
     51.243  0.3300E-01  0.4717E-01  0.1196E+02  0.1194E+02
     51.444  0.3015E-01  0.4330E-01  0.1197E+02  0.1195E+02
     51.646  0.2744E-01  0.3524E-01  0.1197E+02  0.1196E+02
     51.848  0.2488E-01  0.3222E-01  0.1198E+02  0.1196E+02
     52.049  0.2248E-01  0.2935E-01  0.1198E+02  0.1197E+02
     52.251  0.2022E-01  0.2663E-01  0.1199E+02  0.1198E+02
     52.453  0.1704E-01  0.2407E-01  0.1199E+02  0.1198E+02
     52.654  0.1164E-01  0.2166E-01  0.1200E+02  0.1199E+02
     52.856  0.5306E-02  0.1941E-01  0.1200E+02  0.1199E+02
     53.058  0.2521E-02  0.1428E-01  0.1200E+02  0.1200E+02
     53.259  0.7602E-03  0.7719E-02  0.1200E+02  0.1200E+02
     53.461  0.2434E-04  0.4587E-02  0.1200E+02  0.1200E+02
     53.663  0.0000E+00  0.2265E-02  0.1200E+02  0.1200E+02
     53.864  0.0000E+00  0.7538E-03  0.1200E+02  0.1200E+02
     54.066  0.0000E+00  0.5360E-04  0.1200E+02  0.1200E+02
     54.268  0.0000E+00  0.0000E+00  0.1200E+02  0.1200E+02
     54.469  0.0000E+00  0.0000E+00  0.1200E+02  0.1200E+02
     54.671  0.0000E+00  0.0000E+00  0.1200E+02  0.1200E+02
     54.873  0.0000E+00  0.0000E+00  0.1200E+02  0.1200E+02
     55.074  0.0000E+00  0.0000E+00  0.1200E+02  0.1200E+02
     55.276  0.0000E+00  0.0000E+00  0.1200E+02  0.1200E+02
     55.478  0.0000E+00  0.0000E+00  0.1200E+02  0.1200E+02
     55.679  0.0000E+00  0.0000E+00  0.1200E+02  0.1200E+02
     55.881  0.0000E+00  0.0000E+00  0.1200E+02  0.1200E+02
     56.083  0.0000E+00  0.0000E+00  0.1200E+02  0.1200E+02
     56.284  0.0000E+00  0.0000E+00  0.1200E+02  0.1200E+02
     56.486  0.0000E+00  0.0000E+00  0.1200E+02  0.1200E+02
     56.688  0.0000E+00  0.0000E+00  0.1200E+02  0.1200E+02
     56.890  0.0000E+00  0.0000E+00  0.1200E+02  0.1200E+02
     56.88951563     -3.61413469  301      8.89073065      1.00000000
     -3.614  0.0000E+00  0.0000E+00  0.0000E+00  0.0000E+00  0.0000E+00  0.0000E+00  0.0000E+00  0.0000E+00  0.0000E+00  0.0000E+00  0.0000E+00  0.0000E+00  0.0000E+00  0.0000E+00  0.0000E+00  0.0000E+00  0.0000E+00  0.0000E+00
     -3.412  0.0000E+00  0.0000E+00  0.0000E+00  0.0000E+00  0.0000E+00  0.0000E+00  0.0000E+00  0.0000E+00  0.0000E+00  0.0000E+00  0.0000E+00  0.0000E+00  0.0000E+00  0.0000E+00  0.0000E+00  0.0000E+00  0.0000E+00  0.0000E+00
     -3.211  0.0000E+00  0.0000E+00  0.0000E+00  0.0000E+00  0.0000E+00  0.0000E+00  0.0000E+00  0.0000E+00  0.0000E+00  0.0000E+00  0.0000E+00  0.0000E+00  0.0000E+00  0.0000E+00  0.0000E+00  0.0000E+00  0.0000E+00  0.0000E+00
     -3.009  0.0000E+00  0.0000E+00  0.0000E+00  0.0000E+00  0.0000E+00  0.0000E+00  0.0000E+00  0.0000E+00  0.0000E+00  0.0000E+00  0.0000E+00  0.0000E+00  0.0000E+00  0.0000E+00  0.0000E+00  0.0000E+00  0.0000E+00  0.0000E+00
     -2.807  0.0000E+00  0.0000E+00  0.0000E+00  0.0000E+00  0.0000E+00  0.0000E+00  0.0000E+00  0.0000E+00  0.0000E+00  0.0000E+00  0.0000E+00  0.0000E+00  0.0000E+00  0.0000E+00  0.0000E+00  0.0000E+00  0.0000E+00  0.0000E+00
     -2.606  0.0000E+00  0.0000E+00  0.0000E+00  0.0000E+00  0.0000E+00  0.0000E+00  0.0000E+00  0.0000E+00  0.0000E+00  0.0000E+00  0.0000E+00  0.0000E+00  0.0000E+00  0.0000E+00  0.0000E+00  0.0000E+00  0.0000E+00  0.0000E+00
     -2.404  0.0000E+00  0.0000E+00  0.0000E+00  0.0000E+00  0.0000E+00  0.0000E+00  0.0000E+00  0.0000E+00  0.0000E+00  0.0000E+00  0.0000E+00  0.0000E+00  0.0000E+00  0.0000E+00  0.0000E+00  0.0000E+00  0.0000E+00  0.0000E+00
     -2.202  0.0000E+00  0.0000E+00  0.0000E+00  0.0000E+00  0.0000E+00  0.0000E+00  0.0000E+00  0.0000E+00  0.0000E+00  0.0000E+00  0.0000E+00  0.0000E+00  0.0000E+00  0.0000E+00  0.0000E+00  0.0000E+00  0.0000E+00  0.0000E+00
     -2.001  0.0000E+00  0.0000E+00  0.0000E+00  0.0000E+00  0.0000E+00  0.0000E+00  0.0000E+00  0.0000E+00  0.0000E+00  0.0000E+00  0.0000E+00  0.0000E+00  0.0000E+00  0.0000E+00  0.0000E+00  0.0000E+00  0.0000E+00  0.0000E+00
     -1.799  0.0000E+00  0.0000E+00  0.0000E+00  0.0000E+00  0.0000E+00  0.0000E+00  0.0000E+00  0.0000E+00  0.0000E+00  0.0000E+00  0.0000E+00  0.0000E+00  0.0000E+00  0.0000E+00  0.0000E+00  0.0000E+00  0.0000E+00  0.0000E+00
     -1.597  0.0000E+00  0.0000E+00  0.0000E+00  0.0000E+00  0.0000E+00  0.0000E+00  0.0000E+00  0.0000E+00  0.0000E+00  0.0000E+00  0.0000E+00  0.0000E+00  0.0000E+00  0.0000E+00  0.0000E+00  0.0000E+00  0.0000E+00  0.0000E+00
     -1.396  0.0000E+00  0.0000E+00  0.0000E+00  0.0000E+00  0.0000E+00  0.0000E+00  0.0000E+00  0.0000E+00  0.0000E+00  0.0000E+00  0.0000E+00  0.0000E+00  0.0000E+00  0.0000E+00  0.0000E+00  0.0000E+00  0.0000E+00  0.0000E+00
     -1.194  0.0000E+00  0.0000E+00  0.0000E+00  0.0000E+00  0.0000E+00  0.0000E+00  0.0000E+00  0.0000E+00  0.0000E+00  0.0000E+00  0.0000E+00  0.0000E+00  0.0000E+00  0.0000E+00  0.0000E+00  0.0000E+00  0.0000E+00  0.0000E+00
     -0.992  0.0000E+00  0.0000E+00  0.0000E+00  0.0000E+00  0.0000E+00  0.0000E+00  0.0000E+00  0.0000E+00  0.0000E+00  0.0000E+00  0.0000E+00  0.0000E+00  0.0000E+00  0.0000E+00  0.0000E+00  0.0000E+00  0.0000E+00  0.0000E+00
     -0.791  0.9300E-02  0.0000E+00  0.1066E-03  0.0000E+00  0.7298E-04  0.0000E+00  0.4655E-03  0.0000E+00  0.3388E-04  0.0000E+00  0.8529E-05  0.0000E+00  0.1191E-04  0.0000E+00  0.8115E-05  0.0000E+00  0.1277E-04  0.0000E+00
     -0.589  0.1383E-01  0.0000E+00  0.2295E-03  0.0000E+00  0.1458E-03  0.0000E+00  0.8203E-03  0.0000E+00  0.8148E-04  0.0000E+00  0.2318E-04  0.0000E+00  0.2949E-04  0.0000E+00  0.1735E-04  0.0000E+00  0.3133E-04  0.0000E+00
     -0.387  0.1757E-01  0.1045E-01  0.3557E-03  0.1369E-03  0.2062E-03  0.9182E-04  0.1215E-02  0.5453E-03  0.1411E-03  0.3634E-04  0.4416E-04  0.9721E-05  0.5396E-04  0.1236E-04  0.2665E-04  0.8854E-05  0.5991E-04  0.1354E-04
     -0.186  0.2050E-01  0.1469E-01  0.4850E-03  0.2591E-03  0.2542E-03  0.1605E-03  0.1651E-02  0.9020E-03  0.2127E-03  0.7667E-04  0.7146E-04  0.2244E-04  0.8534E-04  0.2718E-04  0.3602E-04  0.1650E-04  0.9854E-04  0.3003E-04
      0.016  0.2497E-01  0.1814E-01  0.7098E-03  0.3845E-03  0.3648E-03  0.2171E-03  0.2281E-02  0.1297E-02  0.3263E-03  0.1262E-03  0.1418E-03  0.3960E-04  0.1348E-03  0.4716E-04  0.5612E-04  0.2406E-04  0.1592E-03  0.5405E-04
      0.218  0.2944E-01  0.2079E-01  0.9937E-03  0.5130E-03  0.5377E-03  0.2617E-03  0.2952E-02  0.1729E-02  0.4857E-03  0.1849E-03  0.2825E-03  0.6121E-04  0.2074E-03  0.7230E-04  0.9737E-04  0.3153E-04  0.2469E-03  0.8559E-04
      0.419  0.3255E-01  0.2560E-01  0.1288E-02  0.7639E-03  0.7392E-03  0.3948E-03  0.3563E-02  0.2385E-02  0.6784E-03  0.2842E-03  0.4833E-03  0.1268E-03  0.2992E-03  0.1135E-03  0.1572E-03  0.5151E-04  0.3574E-03  0.1367E-03
      0.621  0.3221E-01  0.2958E-01  0.1576E-02  0.1043E-02  0.1002E-02  0.5689E-03  0.4224E-02  0.3016E-02  0.9547E-03  0.4098E-03  0.8061E-03  0.2379E-03  0.4667E-03  0.1678E-03  0.2743E-03  0.8595E-04  0.6060E-03  0.2043E-03
      0.823  0.3516E-01  0.3223E-01  0.1857E-02  0.1331E-02  0.1222E-02  0.7707E-03  0.5029E-02  0.3585E-02  0.1447E-02  0.5578E-03  0.1062E-02  0.3909E-03  0.7545E-03  0.2338E-03  0.3953E-03  0.1338E-03  0.8397E-03  0.2869E-03
      1.024  0.3831E-01  0.3150E-01  0.2151E-02  0.1602E-02  0.1454E-02  0.1029E-02  0.5935E-02  0.4193E-02  0.2050E-02  0.7728E-03  0.1364E-02  0.6236E-03  0.1115E-02  0.3574E-03  0.5473E-03  0.2247E-03  0.1117E-02  0.4743E-03
      1.226  0.4168E-01  0.3403E-01  0.2458E-02  0.1869E-02  0.1698E-02  0.1237E-02  0.6942E-02  0.4927E-02  0.2762E-02  0.1121E-02  0.1714E-02  0.8013E-03  0.1547E-02  0.5436E-03  0.7303E-03  0.3127E-03  0.1437E-02  0.6405E-03
      1.428  0.4525E-01  0.3671E-01  0.2778E-02  0.2145E-02  0.1954E-02  0.1456E-02  0.8050E-02  0.5745E-02  0.3583E-02  0.1537E-02  0.2111E-02  0.1008E-02  0.2052E-02  0.7703E-03  0.9444E-03  0.4202E-03  0.1801E-02  0.8338E-03
      1.630  0.4903E-01  0.3954E-01  0.3111E-02  0.2432E-02  0.2222E-02  0.1683E-02  0.9259E-02  0.6646E-02  0.4514E-02  0.2021E-02  0.2555E-02  0.1242E-02  0.2630E-02  0.1038E-02  0.1189E-02  0.5471E-03  0.2208E-02  0.1054E-02
      1.831  0.5507E-01  0.4252E-01  0.3826E-02  0.2730E-02  0.2926E-02  0.1920E-02  0.1106E-01  0.7631E-02  0.6470E-02  0.2571E-02  0.4265E-02  0.1505E-02  0.3954E-02  0.1346E-02  0.1935E-02  0.6935E-03  0.3008E-02  0.1302E-02
      2.033  0.6386E-01  0.4565E-01  0.4791E-02  0.3037E-02  0.3931E-02  0.2167E-02  0.1396E-01  0.8699E-02  0.1030E-01  0.3189E-02  0.7431E-02  0.1797E-02  0.6787E-02  0.1694E-02  0.3066E-02  0.8593E-03  0.4635E-02  0.1577E-02
      2.235  0.7192E-01  0.4891E-01  0.5464E-02  0.3472E-02  0.4708E-02  0.2606E-02  0.1805E-01  0.9972E-02  0.1691E-01  0.4150E-02  0.1187E-01  0.2549E-02  0.1194E-01  0.2289E-02  0.4484E-02  0.1251E-02  0.7354E-02  0.1972E-02
      2.436  0.1119E+00  0.5420E-01  0.6807E-02  0.4169E-02  0.5779E-02  0.3337E-02  0.2761E-01  0.1190E-01  0.7455E-01  0.5943E-02  0.3444E-01  0.4114E-02  0.6605E-01  0.3480E-02  0.6153E-02  0.1834E-02  0.2009E-01  0.2753E-02
      2.638  0.1150E+00  0.5857E-01  0.7486E-02  0.4741E-02  0.7462E-02  0.4020E-02  0.3332E-01  0.1410E-01  0.8328E-01  0.8179E-02  0.5435E-01  0.5981E-02  0.1030E+00  0.5101E-02  0.8792E-02  0.2510E-02  0.5384E-01  0.3831E-02
      2.840  0.1112E+00  0.6203E-01  0.7631E-02  0.5068E-02  0.8142E-02  0.4486E-02  0.3836E-01  0.1671E-01  0.8931E-01  0.1182E-01  0.5886E-01  0.8337E-02  0.1325E+00  0.7766E-02  0.1211E-01  0.3246E-02  0.6566E-01  0.5342E-02
      3.041  0.1119E+00  0.7036E-01  0.8959E-02  0.5641E-02  0.9754E-02  0.5025E-02  0.4724E-01  0.2016E-01  0.1102E+00  0.1945E-01  0.6842E-01  0.1215E-01  0.2055E+00  0.1293E-01  0.1693E-01  0.4029E-02  0.8455E-01  0.7354E-02
      3.243  0.1112E+00  0.8025E-01  0.1081E-01  0.6219E-02  0.1127E-01  0.5634E-02  0.7188E-01  0.2407E-01  0.1257E+00  0.3022E-01  0.8105E-01  0.1739E-01  0.2702E+00  0.2035E-01  0.3291E-01  0.4932E-02  0.1342E+00  0.9890E-02
      3.445  0.7526E-01  0.1131E+00  0.1003E-01  0.7465E-02  0.9561E-02  0.7573E-02  0.5478E-01  0.3138E-01  0.9827E-01  0.7216E-01  0.8864E-01  0.5285E-01  0.1846E+00  0.5096E-01  0.4359E-01  0.6423E-02  0.1268E+00  0.2218E-01
      3.646  0.3984E-01  0.1044E+00  0.7944E-02  0.7117E-02  0.6011E-02  0.8159E-02  0.3037E-01  0.3461E-01  0.6635E-01  0.7284E-01  0.8836E-01  0.4996E-01  0.8131E-01  0.7133E-01  0.4444E-01  0.8686E-02  0.9842E-01  0.3670E-01
      3.848  0.2113E-01  0.1046E+00  0.7264E-02  0.7372E-02  0.3965E-02  0.8995E-02  0.2024E-01  0.4363E-01  0.4155E-01  0.8182E-01  0.7280E-01  0.5893E-01  0.4789E-01  0.1033E+00  0.3548E-01  0.1176E-01  0.8904E-01  0.6004E-01
      4.050  0.6516E-02  0.1043E+00  0.9278E-02  0.8098E-02  0.3495E-02  0.1036E-01  0.1514E-01  0.5713E-01  0.1628E-01  0.9802E-01  0.4709E-01  0.7119E-01  0.4401E-01  0.1521E+00  0.2091E-01  0.1979E-01  0.9144E-01  0.8792E-01
      4.251  0.2216E-02  0.9396E-01  0.1273E-01  0.9612E-02  0.5719E-02  0.1019E-01  0.1246E-01  0.7441E-01  0.1803E-01  0.1030E+00  0.3322E-01  0.7145E-01  0.6494E-01  0.2569E+00  0.3797E-01  0.2671E-01  0.9963E-01  0.1250E+00
      4.453  0.2169E-02  0.6726E-01  0.3746E-01  0.9419E-02  0.2668E-01  0.8849E-02  0.2240E-01  0.5885E-01  0.2313E+00  0.8613E-01  0.1805E+00  0.7979E-01  0.1141E+00  0.1870E+00  0.4426E+00  0.3365E-01  0.1470E+00  0.1088E+00
      4.655  0.3393E-02  0.3833E-01  0.2860E-01  0.7810E-02  0.1703E-01  0.6398E-02  0.1862E-01  0.3031E-01  0.1319E+00  0.5941E-01  0.1926E+00  0.8159E-01  0.1105E+00  0.8425E-01  0.3764E+00  0.3681E-01  0.1450E+00  0.7147E-01
      4.856  0.3684E-02  0.2216E-01  0.1517E-01  0.7041E-02  0.7505E-02  0.4159E-02  0.9406E-02  0.2171E-01  0.8397E-01  0.3745E-01  0.9961E-01  0.7057E-01  0.8425E-01  0.5167E-01  0.2126E+00  0.3016E-01  0.8518E-01  0.6693E-01
      5.058  0.7934E-02  0.6329E-02  0.1692E-01  0.6484E-02  0.1848E-01  0.2066E-02  0.8497E-02  0.1464E-01  0.1076E+00  0.9359E-02  0.7279E-01  0.4647E-01  0.5072E-01  0.3270E-01  0.1437E+00  0.1002E-01  0.3915E-01  0.6449E-01
      5.260  0.1253E-01  0.1866E-02  0.2913E-01  0.1180E-01  0.3219E-01  0.3647E-02  0.1813E-01  0.1283E-01  0.1299E+00  0.1012E-01  0.1093E+00  0.2251E-01  0.4173E-01  0.4590E-01  0.1367E+00  0.1515E-01  0.5233E-01  0.8615E-01
      5.461  0.1845E-01  0.1053E-02  0.4065E-01  0.5313E-01  0.4080E-01  0.4106E-01  0.2953E-01  0.2228E-01  0.1741E+00  0.2533E+00  0.1792E+00  0.8212E-01  0.4872E-01  0.1354E+00  0.1536E+00  0.3709E+00  0.8002E-01  0.1420E+00
      5.663  0.2944E-01  0.2602E-02  0.6235E-01  0.3989E-01  0.4924E-01  0.2711E-01  0.5857E-01  0.2110E-01  0.2752E+00  0.1993E+00  0.2974E+00  0.2132E+00  0.6290E-01  0.1064E+00  0.2501E+00  0.4618E+00  0.1387E+00  0.1278E+00
      5.865  0.2869E-01  0.5408E-02  0.7198E-01  0.3384E-01  0.5243E-01  0.1899E-01  0.5314E-01  0.2086E-01  0.3126E+00  0.1095E+00  0.2273E+00  0.1644E+00  0.5964E-01  0.9383E-01  0.2784E+00  0.3117E+00  0.1437E+00  0.1224E+00
      6.066  0.1251E-01  0.7490E-02  0.3188E-01  0.2697E-01  0.2405E-01  0.2181E-01  0.1967E-01  0.1272E-01  0.6748E-01  0.1157E+00  0.7445E-01  0.9310E-01  0.1680E-01  0.6847E-01  0.9121E-01  0.1933E+00  0.5841E-01  0.6294E-01
      6.268  0.8612E-02  0.9074E-02  0.2492E-01  0.3383E-01  0.1817E-01  0.3421E-01  0.1481E-01  0.1746E-01  0.4332E-01  0.1424E+00  0.6707E-01  0.9775E-01  0.1204E-01  0.4972E-01  0.7008E-01  0.1643E+00  0.4742E-01  0.4877E-01
      6.470  0.6177E-02  0.1183E-01  0.2035E-01  0.4103E-01  0.1469E-01  0.4263E-01  0.1159E-01  0.2564E-01  0.3899E-01  0.1524E+00  0.6290E-01  0.1289E+00  0.1134E-01  0.3312E-01  0.6467E-01  0.1525E+00  0.3971E-01  0.5226E-01