    1    1    1    2
  0.8788000E+01  0.2251666E-09  0.2251666E-09  0.2251666E-09  0.5000000E-15
  1.000000000000000E-004
  CAR 
 Fe BCC                                  
      8     26     12
 
  0.6250000E-01  0.6250000E-01  0.6250000E-01  0.1562500E-01
    1       -0.114459      0.245589   1.000000   1.000000
    2        5.633888      6.872707   1.000000   1.000000
    3        5.633888      6.872707   1.000000   1.000000
    4        6.855512      8.156413   1.000000   1.029367
    5        7.857565      9.617793   1.000000  -0.004581
    6        7.857565      9.617793   1.001001   0.000000
    7       33.058680     33.502445   0.000000   0.000000
    8       33.058680     33.502445   0.000000   0.000000
    9       37.217542     37.402385   0.000000   0.000000
   10       39.954801     40.652099   0.000000   0.000000
   11       44.600391     45.022612   0.000000   0.000000
   12       44.600391     45.022612   0.000000   0.000000
 
  0.1875000E+00  0.6250000E-01  0.6250000E-01  0.4687500E-01
    1        1.718301      2.153272   1.000000   1.000000
    2        5.004013      6.189552   1.000000   1.000000
    3        5.332350      6.493989   1.000000   1.000000
    4        7.753052      9.445663   1.000000   0.049363
    5        8.064661      9.708460   1.002650  -0.003667
    6        8.375142      9.852380   0.748164   0.000000
    7       27.756659     28.424867   0.000000   0.000000
    8       30.663098     31.159617   0.000000   0.000000
    9       35.248930     35.889040   0.000000   0.000000
   10       38.179039     38.475179   0.000000   0.000000
   11       44.859731     45.477075   0.000000   0.000000
   12       45.229728     45.647606   0.000000   0.000000
 
  0.3125000E+00  0.6250000E-01  0.6250000E-01  0.4687500E-01
    1        2.661017      3.466686   1.000000   1.000000
    2        4.475664      5.615734   1.000000   1.000000
    3        6.474854      7.296252   1.000000   1.000000
    4        7.974086      9.640094   1.000000  -0.018124
    5        8.236141     10.058120   0.994888   0.000000
    6       10.337164     11.617632  -0.048041   0.000000
    7       22.072215     22.922593   0.000000   0.000000
    8       28.651148     29.113802   0.000000   0.000000
    9       32.274660     32.858951   0.000000   0.000000
   10       38.245513     38.698998   0.000000   0.000000
   11       44.133555     44.747950   0.000000   0.000000
   12       48.815174     49.204245   0.000000   0.000000
 
  0.4375000E+00  0.6250000E-01  0.6250000E-01  0.2343750E-01
    1        2.575127      3.509250   1.000000   1.000000
    2        4.275356      5.398691   1.000000   1.000000
    3        7.788519      8.568880   1.000000   1.000000
    4        8.085656      9.759544   1.000000  -0.002030
    5        8.309287     10.148298   0.924025   0.000000
    6       11.801961     12.878359  -0.001542   0.000000
    7       18.899991     19.918062   0.000000   0.000000
    8       27.872333     28.310577   0.000000   0.000000
    9       31.150873     31.701965   0.000000   0.000000
   10       38.186569     38.692048   0.000000   0.000000
   11       44.166449     44.807749   0.000000   0.000000
   12       48.193621     48.513781   0.000000   0.000000
 
 -0.6250000E-01  0.6250000E-01  0.6250000E-01  0.1171875E-01
    1       -0.863969     -0.512023   1.000000   1.000000
    2        5.952590      7.213970   1.000000   1.000000
    3        5.952590      7.213970   1.000000   1.000000
    4        6.087024      7.361796   1.000000   1.012572
    5        7.732393      9.484572   1.000000  -0.009759
    6        8.062180      9.857945   1.000000   0.000000
    7       34.560578     34.869854   0.000000   0.000000
    8       36.130375     36.378687   0.000000   0.000000
    9       36.130375     36.378687   0.000000   0.000000
   10       41.199555     41.682363   0.000000   0.000000
   11       44.850678     45.542870   0.000000   0.000000
   12       44.850678     45.542870   0.000000   0.000000
 
  0.1875000E+00  0.1875000E+00  0.6250000E-01  0.4687500E-01
    1        3.303730      3.948646   1.000000   1.000000
    2        4.585316      5.721334   1.000000   1.000000
    3        4.935850      5.967346   1.000000   1.000000
    4        7.881390      9.577125   1.000000  -0.018798
    5        8.281624     10.075127   1.005145   0.000000
    6       10.650294     11.921653  -0.065053   0.000000
    7       24.905316     25.648798   0.000000   0.000000
    8       26.128843     26.756511   0.000000   0.000000
    9       31.018178     31.595744   0.000000   0.000000
   10       40.456813     40.745038   0.000000   0.000000
   11       45.664566     46.120714   0.000000   0.000000
   12       48.505525     48.988827   0.000000   0.000000
 
  0.3125000E+00  0.1875000E+00  0.6250000E-01  0.9375000E-01
    1        3.457663      4.410169   1.000000   1.000000
    2        4.346244      5.436106   1.000000   1.000000
    3        5.861265      6.781323   1.000000   1.000000
    4        8.105393      9.804751   1.000000  -0.001523
    5        8.419163     10.196135   0.997993   0.000000
    6       13.574856     14.633001  -0.000846   0.000000
    7       20.125988     21.008770   0.000000   0.000000
    8       24.258953     24.903961   0.000000   0.000000
    9       29.306825     29.858168   0.000000   0.000000
   10       41.247042     41.616320   0.000000   0.000000
   11       46.348482     46.716724   0.000000   0.000000
   12       49.583680     50.136382   0.000000   0.000000
 
 -0.1875000E+00  0.1875000E+00  0.6250000E-01  0.4687500E-01
    1        0.564171      0.942018   1.000000   1.000000
    2        5.534046      6.759134   1.000000   1.000000
    3        5.824973      7.059529   1.000000   1.000000
    4        7.008392      8.323456   1.000000   0.993156
    5        7.335303      8.997392   1.000000   0.038954
    6        8.226289     10.029131   0.985513   0.000000
    7       30.625210     31.199486   0.000000   0.000000
    8       33.939831     34.318862   0.000000   0.000000
    9       35.560762     36.014594   0.000000   0.000000
   10       40.549699     40.997040   0.000000   0.000000
   11       41.420344     42.030619   0.000000   0.000000
   12       42.987523     43.542551   0.000000   0.000000
 
  0.3125000E+00  0.3125000E+00  0.6250000E-01  0.1562500E-01
    1        3.842524      4.868332   1.000000   1.000000
    2        4.919444      5.933322   1.000000   1.000000
    3        4.919444      5.933322   1.000000   1.000000
    4        8.323225     10.052958   1.000000   0.000000
    5        8.323225     10.052958   1.030760   0.000000
    6       17.631952     18.540564   0.000000   0.000000
    7       17.631952     18.540564   0.000000   0.000000
    8       21.206511     21.935424   0.000000   0.000000
    9       28.732765     29.301509   0.000000   0.000000
   10       43.986496     44.331300   0.000000   0.000000
   11       43.986496     44.331300   0.000000   0.000000
   12       53.504932     54.139350   0.000000   0.000000
 
 -0.3125000E+00  0.3125000E+00  0.6250000E-01  0.4687500E-01
    1        2.240747      2.848088   1.000000   1.000000
    2        4.924780      6.102261   1.000000   1.000000
    3        5.943133      6.987820   1.000000   1.000000
    4        7.634793      9.195302   1.000000   0.124207
    5        8.494262      9.931377   0.955207  -0.008802
    6        8.536234     10.252254   0.490892   0.000000
    7       24.821304     25.598492   0.000000   0.000000
    8       31.130104     31.507574   0.000000   0.000000
    9       34.018990     34.617625   0.000000   0.000000
   10       38.837454     39.394770   0.000000   0.000000
   11       41.268451     41.835641   0.000000   0.000000
   12       44.091876     44.548943   0.000000   0.000000
 
 -0.1875000E+00  0.3125000E+00  0.6250000E-01  0.4687500E-01
    1        2.190740      2.674190   1.000000   1.000000
    2        5.191200      6.434007   1.000000   1.000000
    3        5.518514      6.679263   1.000000   1.000000
    4        7.118398      8.668117   1.000000   0.698403
    5        8.159689      9.564994   1.010341  -0.007672
    6        8.755333     10.455578   0.503876   0.000000
    7       27.715457     28.428176   0.000000   0.000000
    8       29.253776     29.822727   0.000000   0.000000
    9       35.783931     36.239307   0.000000   0.000000
   10       37.131076     37.651392   0.000000   0.000000
   11       41.126342     41.629068   0.000000   0.000000
   12       46.319716     46.813527   0.000000   0.000000
 
 -0.4375000E+00  0.4375000E+00  0.6250000E-01  0.4687500E-01
    1        2.435993      3.346997   1.000000   1.000000
    2        4.518298      5.666530   1.000000   1.000000
    3        7.090378      8.201160   1.000000   1.000000
    4        7.926094      9.530668   1.000000  -0.027631
    5        9.784378     11.070702  -0.078364   0.000000
    6        9.879578     11.259859  -0.004803   0.000000
    7       19.833845     20.805355   0.000000   0.000000
    8       29.456201     29.804658   0.000000   0.000000
    9       32.254417     32.823992   0.000000   0.000000
   10       38.000361     38.593662   0.000000   0.000000
   11       41.950494     42.593438   0.000000   0.000000
   12       45.347869     45.730640   0.000000   0.000000
 
 -0.3125000E+00  0.4375000E+00  0.6250000E-01  0.9375000E-01
    1        3.111035      3.956404   1.000000   1.000000
    2        4.747060      5.910841   1.000000   1.000000
    3        5.641317      6.715687   1.000000   1.000000
    4        7.580831      9.105411   1.000000   0.076671
    5        8.791259     10.386146   0.757313  -0.000910
    6       10.965164     12.231092  -0.035573   0.000000
    7       22.436599     23.274865   0.000000   0.000000
    8       26.607601     27.227261   0.000000   0.000000
    9       33.804374     34.265770   0.000000   0.000000
   10       37.488361     38.017674   0.000000   0.000000
   11       41.539215     42.021638   0.000000   0.000000
   12       47.250990     47.805292   0.000000   0.000000
 
 -0.4375000E+00 -0.4375000E+00  0.6250000E-01  0.4687500E-01
    1        3.007638      3.997022   1.000000   1.000000
    2        4.723733      5.868071   1.000000   1.000000
    3        5.894546      7.020077   1.000000   1.000000
    4        7.762667      9.326712   1.000000  -0.018600
    5        9.264224     10.779730   0.129083   0.000000
    6       13.151945     14.171597  -0.000494   0.000000
    7       18.925721     19.916537   0.000000   0.000000
    8       25.780668     26.391954   0.000000   0.000000
    9       32.753299     33.192678   0.000000   0.000000
   10       38.129008     38.720980   0.000000   0.000000
   11       42.003890     42.395921   0.000000   0.000000
   12       46.592037     47.190625   0.000000   0.000000
 
 -0.3125000E+00 -0.4375000E+00  0.6250000E-01  0.4687500E-01
    1        3.990100      4.999120   1.000000   1.000000
    2        4.322846      5.465903   1.000000   1.000000
    3        5.127135      6.245254   1.000000   1.000006
    4        8.031783      9.556356   1.000163  -0.024543
    5        8.731124     10.283943   0.718572   0.000000
    6       14.866558     15.900972  -0.000030   0.000000
    7       19.974801     20.883293   0.000000   0.000000
    8       22.000167     22.695389   0.000000   0.000000
    9       34.698460     35.207934   0.000000   0.000000
   10       37.337336     37.799192   0.000000   0.000000
   11       39.982930     40.440297   0.000000   0.000000
   12       49.984853     50.712701   0.000000   0.000000
 
  0.1875000E+00  0.1875000E+00  0.1875000E+00  0.1562500E-01
    1        4.330041      5.392405   1.000000   1.000000
    2        4.330041      5.392405   1.000000   1.000000
    3        4.750734      5.504267   1.000000   1.000000
    4        8.260182     10.064226   1.000000   0.000000
    5        8.260182     10.064226   1.000000   0.000000
    6       13.679808     14.775849  -0.001485   0.000000
    7       23.033852     23.774357   0.000000   0.000000
    8       23.033852     23.774357   0.000000   0.000000
    9       25.714638     26.278985   0.000000   0.000000
   10       45.524655     45.714271   0.000000   0.000000
   11       49.557117     49.953809   0.000000   0.000000
   12       49.557117     49.953809   0.000000   0.000000
 
  0.3125000E+00  0.1875000E+00  0.1875000E+00  0.2343750E-01
    1        4.209786      5.187933   1.000000   1.000000
    2        4.279635      5.314043   1.000000   1.000000
    3        5.272672      6.210185   1.000000   1.000000
    4        8.314050     10.118360   1.000000   0.000000
    5        8.351781     10.197107   1.000691   0.000000
    6       16.767312     17.661438   0.000000   0.000000
    7       19.234210     20.103353   0.000000   0.000000
    8       22.379387     23.114239   0.000000   0.000000
    9       24.479156     25.045738   0.000000   0.000000
   10       47.106288     47.371988   0.000000   0.000000
   11       51.222570     51.561284   0.000000   0.000000
   12       52.423370     52.921370   0.000000   0.000000
 
 -0.1875000E+00  0.1875000E+00  0.1875000E+00  0.1171875E-01
    1        1.773455      2.205067   1.000000   1.000000
    2        6.076457      7.389859   1.000000   1.000000
    3        6.157950      7.389859   1.000000   1.000000
    4        6.157950      7.619226   1.000000   1.078321
    5        7.018876      8.339756   1.001233   0.537430
    6        8.797380     10.567599   0.625409   0.000000
    7       30.301999     30.939226   0.000000   0.000000
    8       32.678276     33.276145   0.000000   0.000000
    9       32.678276     33.276145   0.000000   0.000000
   10       34.578139     35.002064   0.000000   0.000000
   11       45.259975     45.716742   0.000000   0.000000
   12       45.259975     45.716742   0.000000   0.000000
 
 -0.3125000E+00  0.3125000E+00  0.1875000E+00  0.4687500E-01
    1        3.102036      3.791910   1.000000   1.000000
    2        4.907338      6.222912   1.000000   1.000000
    3        5.937976      7.151373   1.000000   1.000000
    4        6.959504      8.297349   1.000000   1.094070
    5        8.350911      9.734211   1.003207  -0.008053
    6        9.918703     11.414933  -0.046730   0.000000
    7       25.747421     26.511319   0.000000   0.000000
    8       29.858312     30.487730   0.000000   0.000000
    9       30.249752     30.837836   0.000000   0.000000
   10       35.185995     35.678223   0.000000   0.000000
   11       44.411055     44.943458   0.000000   0.000000
   12       46.517797     47.039727   0.000000   0.000000
 
 -0.4375000E+00  0.4375000E+00  0.1875000E+00  0.4687500E-01
    1        3.143053      4.176029   1.000000   1.000000
    2        4.859656      6.032395   1.000000   1.000000
    3        5.635485      6.827921   1.000000   1.001051
    4        7.316277      8.738104   1.000798   0.438572
    5        9.656708     11.123796  -0.091603   0.000000
    6       12.756772     13.807750  -0.004033   0.000000
    7       20.256972     21.158762   0.000000   0.000000
    8       27.933150     28.526683   0.000000   0.000000
    9       29.260224     29.861045   0.000000   0.000000
   10       37.629496     38.105716   0.000000   0.000000
   11       43.361346     43.909670   0.000000   0.000000
   12       44.636945     45.257287   0.000000   0.000000
 
 -0.3125000E+00  0.4375000E+00  0.1875000E+00  0.4687500E-01
    1        3.685492      4.654134   1.000000   1.000000
    2        3.962531      5.223760   1.000000   1.000000
    3        6.058920      7.276883   1.000219   1.006123
    4        7.550309      8.894139   1.003733   0.349695
    5        9.014168     10.460881   0.255413  -0.001015
    6       12.771242     13.879677  -0.004174   0.000000
    7       23.259787     24.098381   0.000000   0.000000
    8       24.195285     24.840960   0.000000   0.000000
    9       31.964704     32.601857   0.000000   0.000000
   10       33.997387     34.494257   0.000000   0.000000
   11       43.121517     43.682231   0.000000   0.000000
   12       47.376848     48.052188   0.000000   0.000000
 
 -0.4375000E+00 -0.4375000E+00  0.1875000E+00  0.4687500E-01
    1        3.466581      4.628605   1.000000   1.000000
    2        4.036543      5.213719   1.000000   1.000000
    3        5.768385      6.939376   1.000492   1.018362
    4        8.032016      9.414451   1.005090  -0.040589
    5        9.359216     10.813517  -0.043812   0.000000
    6       16.150042     17.066465   0.000000   0.000000
    7       19.179813     20.069156   0.000000   0.000000
    8       22.948717     23.627505   0.000000   0.000000
    9       32.010006     32.615562   0.000000   0.000000
   10       35.353312     35.886974   0.000000   0.000000
   11       40.915546     41.504925   0.000000   0.000000
   12       46.241196     46.902465   0.000000   0.000000
 
 -0.3125000E+00  0.3125000E+00  0.3125000E+00  0.1171875E-01
    1        3.404640      4.360540   1.000000   1.000000
    2        3.870165      5.189283   1.000000   1.000000
    3        7.305608      8.567384   1.000625   0.974495
    4        7.305608      8.567384   1.008750   0.904811
    5        8.402056      9.797835   0.842376  -0.001969
    6       12.014375     13.148038  -0.004298   0.000000
    7       26.370933     26.988130   0.000000   0.000000
    8       26.370933     26.988130   0.000000   0.000000
    9       28.262327     29.164824   0.000000   0.000000
   10       31.072849     31.619890   0.000000   0.000000
   11       45.695980     46.390072   0.000000   0.000000
   12       49.700351     50.214221   0.000000   0.000000
 
 -0.4375000E+00  0.4375000E+00  0.3125000E+00  0.4687500E-01
    1        3.055930      4.239982   1.000000   1.000000
    2        3.261433      4.450072   1.000000   1.000000
    3        7.513660      8.800548   1.010348   0.846096
    4        7.948810      9.253578   1.038082  -0.012224
    5        9.480986     10.937056  -0.014091   0.000000
    6       15.596552     16.444831   0.000000   0.000000
    7       21.282150     22.006020   0.000000   0.000000
    8       24.093367     24.653071   0.000000   0.000000
    9       28.673684     29.520885   0.000000   0.000000
   10       31.890766     32.535388   0.000000   0.000000
   11       40.994672     41.701470   0.000000   0.000000
   12       49.065566     49.566645   0.000000   0.000000
 
 -0.4375000E+00 -0.4375000E+00  0.3125000E+00  0.1562500E-01
    1        2.834960      4.031045   1.000000   1.000000
    2        2.834960      4.031045   1.000000   1.000000
    3        7.673360      8.950062   1.028799   0.573100
    4        9.231625     10.654563   0.588796  -0.018457
    5        9.231625     10.654563   0.000563   0.000000
    6       19.454350     20.165366   0.000000   0.000000
    7       19.454350     20.165366   0.000000   0.000000
    8       21.006002     21.590011   0.000000   0.000000
    9       30.191084     30.966459   0.000000   0.000000
   10       30.191084     30.966459   0.000000   0.000000
   11       38.623235     39.335886   0.000000   0.000000
   12       49.762289     50.258210   0.000000   0.000000
 
 -0.4375000E+00  0.4375000E+00  0.4375000E+00  0.1171875E-01
    1        2.421977      3.623693   1.000000   1.000000
    2        2.449211      3.628676   1.000000   1.000000
    3        9.165066     10.576850   0.706153  -0.246388
    4        9.165066     10.576850   0.380485  -0.014424
    5        9.428161     10.884749  -0.002891   0.000000
    6       18.656153     19.244767   0.000000   0.000000
    7       21.487468     21.952393   0.000000   0.000000
    8       21.487468     21.952393   0.000000   0.000000
    9       27.600531     28.637859   0.000000   0.000000
   10       28.889696     29.771725   0.000000   0.000000
   11       37.031122     37.762010   0.000000   0.000000
   12       52.699959     53.109536   0.000000   0.000000
