 vasp.5.4.1 24Jun15 (build Jul 19 2016 16:50:41) complex                        
  
 executed on           IFC91_ompi date 2019.10.17  12:21:23
 running on    4 total cores
 distrk:  each k-point on    4 cores,    1 groups
 distr:  one band on NCORES_PER_BAND=   1 cores,    4 groups


--------------------------------------------------------------------------------------------------------


 INCAR:
 POTCAR:    PAW Fe 03Mar1998                      
 POTCAR:    PAW Fe 03Mar1998                      
   VRHFIN =Fe:  d7 s1                                                           
   LEXCH  = CA                                                                  
   EATOM  =   597.3608 eV,   43.9048 Ry                                         
                                                                                
   TITEL  = PAW Fe 03Mar1998                                                    
   LULTRA =        F    use ultrasoft PP ?                                      
   IUNSCR =        1    unscreen: 0-lin 1-nonlin 2-no                           
   RPACOR =    2.000    partial core radius                                     
   POMASS =   55.847; ZVAL   =    8.000    mass and valenz                      
   RCORE  =    2.300    outmost cutoff radius                                   
   RWIGS  =    2.460; RWIGS  =    1.302    wigner-seitz radius (au A)           
   ENMAX  =  267.969; ENMIN  =  200.977 eV                                      
   RCLOC  =    1.701    cutoff for local pot                                    
   LCOR   =        T    correct aug charges                                     
   LPAW   =        T    paw PP                                                  
   EAUG   =  511.368                                                            
   DEXC   =    0.000                                                            
   RMAX   =    2.356    core radius for proj-oper                               
   RAUG   =    1.300    factor for augmentation sphere                          
   RDEP   =    2.442    radius for radial grids                                 
   RDEPT  =    1.890    core radius for aug-charge                              
                                                                                
   Atomic configuration                                                         
    9 entries                                                                   
     n  l   j            E        occ.                                          
     1  0  0.50     -6959.8071   2.0000                                         
     2  0  0.50      -811.1996   2.0000                                         
     2  1  1.50      -692.1696   6.0000                                         
     3  0  0.50       -88.7875   2.0000                                         
     3  1  1.50       -55.4703   6.0000                                         
     3  2  2.50        -4.0733   7.0000                                         
     4  0  0.50        -4.4654   1.0000                                         
     4  1  1.50        -3.4015   0.0000                                         
     4  3  2.50        -1.3606   0.0000                                         
   Description                                                                  
     l       E           TYP  RCUT    TYP  RCUT                                 
     2     -4.0732951     23  2.300                                             
     2     -5.4338777     23  2.300                                             
     0     -4.4654423     23  2.300                                             
     0      6.8656597     23  2.300                                             
     1     -2.7211652     23  2.300                                             
     1     18.0064603     23  2.300                                             
  local pseudopotential read in
  partial core-charges read in
  partial kinetic energy density read in
  atomic valenz-charges read in
  non local Contribution for L=           2  read in
    real space projection operators read in
  non local Contribution for L=           2  read in
    real space projection operators read in
  non local Contribution for L=           0  read in
    real space projection operators read in
  non local Contribution for L=           0  read in
    real space projection operators read in
  non local Contribution for L=           1  read in
    real space projection operators read in
  non local Contribution for L=           1  read in
    real space projection operators read in
    PAW grid and wavefunctions read in
 
   number of l-projection  operators is LMAX  =           6
   number of lm-projection operators is LMMAX =          18
 
  PAW Fe 03Mar1998                      :
 energy of atom  1       EATOM= -597.3608
 kinetic energy error for atom=    0.0089 (will be added to EATOM!!)
 
 
 POSCAR: Fe BCC                                  
  positions in direct lattice
  velocities in cartesian coordinates
  No initial velocities read in
 exchange correlation table for  LEXCH =        2
   RHO(1)=    0.500       N(1)  =     2000
   RHO(2)=  100.500       N(2)  =     4000
 


--------------------------------------------------------------------------------------------------------


 ion  position               nearest neighbor table
   1  0.000  0.000  0.000-
 
  LATTYP: Found a body centered cubic cell.
 ALAT       =     2.6000000000
  
  Lattice vectors:
  
 A1 = (  -1.3000000000,   1.3000000000,   1.3000000000)
 A2 = (   1.3000000000,  -1.3000000000,   1.3000000000)
 A3 = (   1.3000000000,   1.3000000000,  -1.3000000000)


Analysis of symmetry for initial positions (statically):
=====================================================================
 Subroutine PRICEL returns:
 Original cell was already a primitive cell.
 

 Routine SETGRP: Setting up the symmetry group for a 
 body centered cubic supercell.


 Subroutine GETGRP returns: Found 48 space group operations
 (whereof 48 operations were pure point group operations)
 out of a pool of 48 trial point group operations.


The static configuration has the point symmetry O_h .


Analysis of symmetry for dynamics (positions and initial velocities):
=====================================================================
 Subroutine PRICEL returns:
 Original cell was already a primitive cell.
 

 Routine SETGRP: Setting up the symmetry group for a 
 body centered cubic supercell.


 Subroutine GETGRP returns: Found 48 space group operations
 (whereof 48 operations were pure point group operations)
 out of a pool of 48 trial point group operations.


The dynamic configuration has the point symmetry O_h .


Analysis of structural, dynamic, and magnetic symmetry:
=====================================================================
 Subroutine PRICEL returns:
 Original cell was already a primitive cell.
 

 Routine SETGRP: Setting up the symmetry group for a 
 body centered cubic supercell.


 Subroutine GETGRP returns: Found 48 space group operations
 (whereof 48 operations were pure point group operations)
 out of a pool of 48 trial point group operations.


The magnetic configuration has the point symmetry O_h .


 Subroutine INISYM returns: Found 48 space group operations
 (whereof 48 operations are pure point group operations),
 and found     1 'primitive' translations

 
 
 KPOINTS: K-Points                                

Automatic generation of k-mesh.
Space group operators:
 irot       det(A)        alpha          n_x          n_y          n_z        tau_x        tau_y        tau_z
    1     1.000000     0.000000     1.000000     0.000000     0.000000     0.000000     0.000000     0.000000
    2    -1.000000     0.000000     1.000000     0.000000     0.000000     0.000000     0.000000     0.000000
    3     1.000000   120.000000    -0.577350    -0.577350    -0.577350     0.000000     0.000000     0.000000
    4    -1.000000   120.000000    -0.577350    -0.577350    -0.577350     0.000000     0.000000     0.000000
    5     1.000000   120.000000     0.577350     0.577350     0.577350     0.000000     0.000000     0.000000
    6    -1.000000   120.000000     0.577350     0.577350     0.577350     0.000000     0.000000     0.000000
    7     1.000000    90.000000     0.000000     0.000000    -1.000000     0.000000     0.000000     0.000000
    8    -1.000000    90.000000     0.000000     0.000000    -1.000000     0.000000     0.000000     0.000000
    9     1.000000   180.000000     0.000000     0.707107     0.707107     0.000000     0.000000     0.000000
   10    -1.000000   180.000000     0.000000     0.707107     0.707107     0.000000     0.000000     0.000000
   11     1.000000    90.000000     0.000000     1.000000     0.000000     0.000000     0.000000     0.000000
   12    -1.000000    90.000000     0.000000     1.000000     0.000000     0.000000     0.000000     0.000000
   13     1.000000   180.000000     0.000000     0.000000     1.000000     0.000000     0.000000     0.000000
   14    -1.000000   180.000000     0.000000     0.000000     1.000000     0.000000     0.000000     0.000000
   15     1.000000   120.000000    -0.577350     0.577350     0.577350     0.000000     0.000000     0.000000
   16    -1.000000   120.000000    -0.577350     0.577350     0.577350     0.000000     0.000000     0.000000
   17     1.000000   120.000000    -0.577350     0.577350    -0.577350     0.000000     0.000000     0.000000
   18    -1.000000   120.000000    -0.577350     0.577350    -0.577350     0.000000     0.000000     0.000000
   19     1.000000    90.000000     0.000000     0.000000     1.000000     0.000000     0.000000     0.000000
   20    -1.000000    90.000000     0.000000     0.000000     1.000000     0.000000     0.000000     0.000000
   21     1.000000    90.000000    -1.000000     0.000000     0.000000     0.000000     0.000000     0.000000
   22    -1.000000    90.000000    -1.000000     0.000000     0.000000     0.000000     0.000000     0.000000
   23     1.000000   180.000000     0.707107     0.000000     0.707107     0.000000     0.000000     0.000000
   24    -1.000000   180.000000     0.707107     0.000000     0.707107     0.000000     0.000000     0.000000
   25     1.000000   120.000000     0.577350    -0.577350     0.577350     0.000000     0.000000     0.000000
   26    -1.000000   120.000000     0.577350    -0.577350     0.577350     0.000000     0.000000     0.000000
   27     1.000000   120.000000    -0.577350    -0.577350     0.577350     0.000000     0.000000     0.000000
   28    -1.000000   120.000000    -0.577350    -0.577350     0.577350     0.000000     0.000000     0.000000
   29     1.000000   180.000000     1.000000     0.000000     0.000000     0.000000     0.000000     0.000000
   30    -1.000000   180.000000     1.000000     0.000000     0.000000     0.000000     0.000000     0.000000
   31     1.000000    90.000000     0.000000    -1.000000     0.000000     0.000000     0.000000     0.000000
   32    -1.000000    90.000000     0.000000    -1.000000     0.000000     0.000000     0.000000     0.000000
   33     1.000000   180.000000     0.707107     0.707107     0.000000     0.000000     0.000000     0.000000
   34    -1.000000   180.000000     0.707107     0.707107     0.000000     0.000000     0.000000     0.000000
   35     1.000000    90.000000     1.000000     0.000000     0.000000     0.000000     0.000000     0.000000
   36    -1.000000    90.000000     1.000000     0.000000     0.000000     0.000000     0.000000     0.000000
   37     1.000000   120.000000     0.577350    -0.577350    -0.577350     0.000000     0.000000     0.000000
   38    -1.000000   120.000000     0.577350    -0.577350    -0.577350     0.000000     0.000000     0.000000
   39     1.000000   180.000000     0.000000     1.000000     0.000000     0.000000     0.000000     0.000000
   40    -1.000000   180.000000     0.000000     1.000000     0.000000     0.000000     0.000000     0.000000
   41     1.000000   120.000000     0.577350     0.577350    -0.577350     0.000000     0.000000     0.000000
   42    -1.000000   120.000000     0.577350     0.577350    -0.577350     0.000000     0.000000     0.000000
   43     1.000000   180.000000     0.000000    -0.707107     0.707107     0.000000     0.000000     0.000000
   44    -1.000000   180.000000     0.000000    -0.707107     0.707107     0.000000     0.000000     0.000000
   45     1.000000   180.000000     0.707107    -0.707107     0.000000     0.000000     0.000000     0.000000
   46    -1.000000   180.000000     0.707107    -0.707107     0.000000     0.000000     0.000000     0.000000
   47     1.000000   180.000000     0.707107     0.000000    -0.707107     0.000000     0.000000     0.000000
   48    -1.000000   180.000000     0.707107     0.000000    -0.707107     0.000000     0.000000     0.000000
 
 Subroutine IBZKPT returns following result:
 ===========================================
 
 Found     26 irreducible k-points:
 
 Following reciprocal coordinates:
            Coordinates               Weight
  0.062500  0.062500  0.062500      8.000000
  0.187500  0.062500  0.062500     24.000000
  0.312500  0.062500  0.062500     24.000000
  0.437500  0.062500  0.062500     12.000000
 -0.062500  0.062500  0.062500      6.000000
  0.187500  0.187500  0.062500     24.000000
  0.312500  0.187500  0.062500     48.000000
 -0.187500  0.187500  0.062500     24.000000
  0.312500  0.312500  0.062500      8.000000
 -0.312500  0.312500  0.062500     24.000000
 -0.187500  0.312500  0.062500     24.000000
 -0.437500  0.437500  0.062500     24.000000
 -0.312500  0.437500  0.062500     48.000000
 -0.437500 -0.437500  0.062500     24.000000
 -0.312500 -0.437500  0.062500     24.000000
  0.187500  0.187500  0.187500      8.000000
  0.312500  0.187500  0.187500     12.000000
 -0.187500  0.187500  0.187500      6.000000
 -0.312500  0.312500  0.187500     24.000000
 -0.437500  0.437500  0.187500     24.000000
 -0.312500  0.437500  0.187500     24.000000
 -0.437500 -0.437500  0.187500     24.000000
 -0.312500  0.312500  0.312500      6.000000
 -0.437500  0.437500  0.312500     24.000000
 -0.437500 -0.437500  0.312500      8.000000
 -0.437500  0.437500  0.437500      6.000000
 
 Following cartesian coordinates:
            Coordinates               Weight
  0.125000  0.125000  0.125000      8.000000
  0.125000  0.250000  0.250000     24.000000
  0.125000  0.375000  0.375000     24.000000
  0.125000  0.500000  0.500000     12.000000
  0.125000  0.000000  0.000000      6.000000
  0.250000  0.250000  0.375000     24.000000
  0.250000  0.375000  0.500000     48.000000
  0.250000 -0.125000  0.000000     24.000000
  0.375000  0.375000  0.625000      8.000000
  0.375000 -0.250000  0.000000     24.000000
  0.375000 -0.125000  0.125000     24.000000
  0.500000 -0.375000  0.000000     24.000000
  0.500000 -0.250000  0.125000     48.000000
 -0.375000 -0.375000 -0.875000     24.000000
 -0.375000 -0.250000 -0.750000     24.000000
  0.375000  0.375000  0.375000      8.000000
  0.375000  0.500000  0.500000     12.000000
  0.375000  0.000000  0.000000      6.000000
  0.500000 -0.125000  0.000000     24.000000
  0.625000 -0.250000  0.000000     24.000000
  0.625000 -0.125000  0.125000     24.000000
 -0.250000 -0.250000 -0.875000     24.000000
  0.625000  0.000000  0.000000      6.000000
  0.750000 -0.125000  0.000000     24.000000
 -0.125000 -0.125000 -0.875000      8.000000
  0.875000  0.000000  0.000000      6.000000
 
 TETIRR: Found    534 inequivalent tetrahedra from     3072


--------------------------------------------------------------------------------------------------------




 Dimension of arrays:
   k-points           NKPTS =     26   k-points in BZ     NKDIM =     26   number of bands    NBANDS=     12
   number of dos      NEDOS =    301   number of ions     NIONS =      1
   non local maximal  LDIM  =      6   non local SUM 2l+1 LMDIM =     18
   total plane-waves  NPLWV =   4096
   max r-space proj   IRMAX =      1   max aug-charges    IRDMAX=  16801
   dimension x,y,z NGX =    16 NGY =   16 NGZ =   16
   dimension x,y,z NGXF=    32 NGYF=   32 NGZF=   32
   support grid    NGXF=    32 NGYF=   32 NGZF=   32
   ions per type =               1
 NGX,Y,Z   is equivalent  to a cutoff of  11.81, 11.81, 11.81 a.u.
 NGXF,Y,Z  is equivalent  to a cutoff of  23.63, 23.63, 23.63 a.u.


 I would recommend the setting:
   dimension x,y,z NGX =    15 NGY =   15 NGZ =   15
 SYSTEM =  Fe BCC                                  
 POSCAR =  Fe BCC                                  

 Startparameter for this run:
   NWRITE =      2    write-flag & timer
   PREC   = accura    normal or accurate (medium, high low for compatibility)
   ISTART =      0    job   : 0-new  1-cont  2-samecut
   ICHARG =      2    charge: 1-file 2-atom 10-const
   ISPIN  =      2    spin polarized calculation?
   LNONCOLLINEAR =      F non collinear calculations
   LSORBIT =      F    spin-orbit coupling
   INIWAV =      1    electr: 0-lowe 1-rand  2-diag
   LASPH  =      F    aspherical Exc in radial PAW
   METAGGA=      F    non-selfconsistent MetaGGA calc.

 Electronic Relaxation 1
   ENCUT  =  400.0 eV  29.40 Ry    5.42 a.u.   3.67  3.67  3.67*2*pi/ulx,y,z
   ENINI  =  400.0     initial cutoff
   ENAUG  =  511.4 eV  augmentation charge cutoff
   NELM   =     60;   NELMIN=  2; NELMDL= -5     # of ELM steps 
   EDIFF  = 0.1E-05   stopping-criterion for ELM
   LREAL  =      F    real-space projection
   NLSPLINE    = F    spline interpolate recip. space projectors
   LCOMPAT=      F    compatible to vasp.4.4
   GGA_COMPAT  = T    GGA compatible to vasp.4.4-vasp.4.6
   LMAXPAW     = -100 max onsite density
   LMAXMIX     =    2 max onsite mixed and CHGCAR
   VOSKOWN=      0    Vosko Wilk Nusair interpolation
   ROPT   =    0.00000
 Ionic relaxation
   EDIFFG = 0.1E-04   stopping-criterion for IOM
   NSW    =      0    number of steps for IOM
   NBLOCK =      1;   KBLOCK =      1    inner block; outer block 
   IBRION =     -1    ionic relax: 0-MD 1-quasi-New 2-CG
   NFREE  =      0    steps in history (QN), initial steepest desc. (CG)
   ISIF   =      2    stress and relaxation
   IWAVPR =     10    prediction:  0-non 1-charg 2-wave 3-comb
   ISYM   =      2    0-nonsym 1-usesym 2-fastsym
   LCORR  =      T    Harris-Foulkes like correction to forces

   POTIM  = 0.5000    time-step for ionic-motion
   TEIN   =    0.0    initial temperature
   TEBEG  =    0.0;   TEEND  =   0.0 temperature during run
   SMASS  =  -3.00    Nose mass-parameter (am)
   estimated Nose-frequenzy (Omega)   =  0.10E-29 period in steps =****** mass=  -0.116E-27a.u.
   SCALEE = 1.0000    scale energy and forces
   NPACO  =    256;   APACO  = 16.0  distance and # of slots for P.C.
   PSTRESS=    0.0 pullay stress

  Mass of Ions in am
   POMASS =  55.85
  Ionic Valenz
   ZVAL   =   8.00
  Atomic Wigner-Seitz radii
   RWIGS  =  -1.00
  virtual crystal weights 
   VCA    =   1.00
   NELECT =       8.0000    total number of electrons
   NUPDOWN=      -1.0000    fix difference up-down

 DOS related values:
   EMIN   =  10.00;   EMAX   =-10.00  energy-range for DOS
   EFERMI =   0.00
   ISMEAR =    -5;   SIGMA  =   0.20  broadening in eV -4-tet -1-fermi 0-gaus

 Electronic relaxation 2 (details)
   IALGO  =     38    algorithm
   LDIAG  =      T    sub-space diagonalisation (order eigenvalues)
   LSUBROT=      F    optimize rotation matrix (better conditioning)
   TURBO    =      0    0=normal 1=particle mesh
   IRESTART =      0    0=no restart 2=restart with 2 vectors
   NREBOOT  =      0    no. of reboots
   NMIN     =      0    reboot dimension
   EREF     =   0.00    reference energy to select bands
   IMIX   =      4    mixing-type and parameters
     AMIX     =   0.40;   BMIX     =  1.00
     AMIX_MAG =   1.60;   BMIX_MAG =  1.00
     AMIN     =   0.10
     WC   =   100.;   INIMIX=   1;  MIXPRE=   1;  MAXMIX= -45

 Intra band minimization:
   WEIMIN = 0.0000     energy-eigenvalue tresh-hold
   EBREAK =  0.21E-07  absolut break condition
   DEPER  =   0.30     relativ break condition  

   TIME   =   0.40     timestep for ELM

  volume/ion in A,a.u.               =       8.79        59.30
  Fermi-wavevector in a.u.,A,eV,Ry     =   1.586627  2.998290 34.251101  2.517385
  Thomas-Fermi vector in A             =   2.685909
 
 Write flags
   LWAVE  =      T    write WAVECAR
   LCHARG =      T    write CHGCAR
   LVTOT  =      F    write LOCPOT, total local potential
   LVHAR  =      F    write LOCPOT, Hartree potential only
   LELF   =      F    write electronic localiz. function (ELF)
   LORBIT =     11    0 simple, 1 ext, 2 COOP (PROOUT)


 Dipole corrections
   LMONO  =      F    monopole corrections only (constant potential shift)
   LDIPOL =      F    correct potential (dipole corrections)
   IDIPOL =      0    1-x, 2-y, 3-z, 4-all directions 
   EPSILON=  1.0000000 bulk dielectric constant

 Exchange correlation treatment:
   GGA     =    --    GGA type
   LEXCH   =     2    internal setting for exchange type
   VOSKOWN=      0    Vosko Wilk Nusair interpolation
   LHFCALC =     F    Hartree Fock is set to
   LHFONE  =     F    Hartree Fock one center treatment
   AEXX    =    0.0000 exact exchange contribution

 Linear response parameters
   LEPSILON=     F    determine dielectric tensor
   LRPA    =     F    only Hartree local field effects (RPA)
   LNABLA  =     F    use nabla operator in PAW spheres
   LVEL    =     F    velocity operator in full k-point grid
   LINTERFAST=   F  fast interpolation
   KINTER  =     0    interpolate to denser k-point grid
   CSHIFT  =0.1000    complex shift for real part using Kramers Kronig
   OMEGAMAX=  -1.0    maximum frequency
   DEG_THRESHOLD= 0.2000000E-02 threshold for treating states as degnerate
   RTIME   =    0.100 relaxation time in fs

 Orbital magnetization related:
   ORBITALMAG=     F  switch on orbital magnetization
   LCHIMAG   =     F  perturbation theory with respect to B field
   DQ        =  0.001000  dq finite difference perturbation B field



--------------------------------------------------------------------------------------------------------


 Static calculation
 charge density and potential will be updated during run
 spin polarized calculation
 Variant of blocked Davidson
 Davidson routine will perform the subspace rotation
 perform sub-space diagonalisation
    after iterative eigenvector-optimisation
 modified Broyden-mixing scheme, WC =      100.0
 initial mixing is a Kerker type mixing with AMIX =  0.4000 and BMIX =      1.0000
 Hartree-type preconditioning will be used
 using additional bands            8
 reciprocal scheme for non local part
 use partial core corrections
 calculate Harris-corrections to forces 
   (improved forces if not selfconsistent)
 use of overlap-Matrix (Vanderbilt PP)
 Fermi weights with tetrahedron method with Bloechl corrections


--------------------------------------------------------------------------------------------------------


  energy-cutoff  :      400.00
  volume of cell :        8.79
      direct lattice vectors                 reciprocal lattice vectors
    -1.300000000  1.300000000  1.300000000     0.000000000  0.384615385  0.384615385
     1.300000000 -1.300000000  1.300000000     0.384615385  0.000000000  0.384615385
     1.300000000  1.300000000 -1.300000000     0.384615385  0.384615385  0.000000000

  length of vectors
     2.251666050  2.251666050  2.251666050     0.543928293  0.543928293  0.543928293


 
 k-points in units of 2pi/SCALE and weight: K-Points                                
   0.12500000  0.12500000  0.12500000       0.016
   0.12500000  0.25000000  0.25000000       0.047
   0.12500000  0.37500000  0.37500000       0.047
   0.12500000  0.50000000  0.50000000       0.023
   0.12500000  0.00000000  0.00000000       0.012
   0.25000000  0.25000000  0.37500000       0.047
   0.25000000  0.37500000  0.50000000       0.094
   0.25000000 -0.12500000  0.00000000       0.047
   0.37500000  0.37500000  0.62500000       0.016
   0.37500000 -0.25000000  0.00000000       0.047
   0.37500000 -0.12500000  0.12500000       0.047
   0.50000000 -0.37500000  0.00000000       0.047
   0.50000000 -0.25000000  0.12500000       0.094
  -0.37500000 -0.37500000 -0.87500000       0.047
  -0.37500000 -0.25000000 -0.75000000       0.047
   0.37500000  0.37500000  0.37500000       0.016
   0.37500000  0.50000000  0.50000000       0.023
   0.37500000  0.00000000  0.00000000       0.012
   0.50000000 -0.12500000  0.00000000       0.047
   0.62500000 -0.25000000  0.00000000       0.047
   0.62500000 -0.12500000  0.12500000       0.047
  -0.25000000 -0.25000000 -0.87500000       0.047
   0.62500000  0.00000000  0.00000000       0.012
   0.75000000 -0.12500000  0.00000000       0.047
  -0.12500000 -0.12500000 -0.87500000       0.016
   0.87500000  0.00000000  0.00000000       0.012
 
 k-points in reciprocal lattice and weights: K-Points                                
   0.06250000  0.06250000  0.06250000       0.016
   0.18750000  0.06250000  0.06250000       0.047
   0.31250000  0.06250000  0.06250000       0.047
   0.43750000  0.06250000  0.06250000       0.023
  -0.06250000  0.06250000  0.06250000       0.012
   0.18750000  0.18750000  0.06250000       0.047
   0.31250000  0.18750000  0.06250000       0.094
  -0.18750000  0.18750000  0.06250000       0.047
   0.31250000  0.31250000  0.06250000       0.016
  -0.31250000  0.31250000  0.06250000       0.047
  -0.18750000  0.31250000  0.06250000       0.047
  -0.43750000  0.43750000  0.06250000       0.047
  -0.31250000  0.43750000  0.06250000       0.094
  -0.43750000 -0.43750000  0.06250000       0.047
  -0.31250000 -0.43750000  0.06250000       0.047
   0.18750000  0.18750000  0.18750000       0.016
   0.31250000  0.18750000  0.18750000       0.023
  -0.18750000  0.18750000  0.18750000       0.012
  -0.31250000  0.31250000  0.18750000       0.047
  -0.43750000  0.43750000  0.18750000       0.047
  -0.31250000  0.43750000  0.18750000       0.047
  -0.43750000 -0.43750000  0.18750000       0.047
  -0.31250000  0.31250000  0.31250000       0.012
  -0.43750000  0.43750000  0.31250000       0.047
  -0.43750000 -0.43750000  0.31250000       0.016
  -0.43750000  0.43750000  0.43750000       0.012
 
 position of ions in fractional coordinates (direct lattice) 
   0.00000000  0.00000000  0.00000000
 
 position of ions in cartesian coordinates  (Angst):
   0.00000000  0.00000000  0.00000000
 


--------------------------------------------------------------------------------------------------------


 k-point  1 :   0.0625 0.0625 0.0625  plane waves:     156
 k-point  2 :   0.1875 0.0625 0.0625  plane waves:     159
 k-point  3 :   0.3125 0.0625 0.0625  plane waves:     165
 k-point  4 :   0.4375 0.0625 0.0625  plane waves:     158
 k-point  5 :  -0.0625 0.0625 0.0625  plane waves:     157
 k-point  6 :   0.1875 0.1875 0.0625  plane waves:     162
 k-point  7 :   0.3125 0.1875 0.0625  plane waves:     159
 k-point  8 :  -0.1875 0.1875 0.0625  plane waves:     159
 k-point  9 :   0.3125 0.3125 0.0625  plane waves:     158
 k-point 10 :  -0.3125 0.3125 0.0625  plane waves:     161
 k-point 11 :  -0.1875 0.3125 0.0625  plane waves:     161
 k-point 12 :  -0.4375 0.4375 0.0625  plane waves:     160
 k-point 13 :  -0.3125 0.4375 0.0625  plane waves:     162
 k-point 14 :  -0.4375-0.4375 0.0625  plane waves:     158
 k-point 15 :  -0.3125-0.4375 0.0625  plane waves:     155
 k-point 16 :   0.1875 0.1875 0.1875  plane waves:     156
 k-point 17 :   0.3125 0.1875 0.1875  plane waves:     156
 k-point 18 :  -0.1875 0.1875 0.1875  plane waves:     160
 k-point 19 :  -0.3125 0.3125 0.1875  plane waves:     161
 k-point 20 :  -0.4375 0.4375 0.1875  plane waves:     162
 k-point 21 :  -0.3125 0.4375 0.1875  plane waves:     159
 k-point 22 :  -0.4375-0.4375 0.1875  plane waves:     156
 k-point 23 :  -0.3125 0.3125 0.3125  plane waves:     156
 k-point 24 :  -0.4375 0.4375 0.3125  plane waves:     157
 k-point 25 :  -0.4375-0.4375 0.3125  plane waves:     161
 k-point 26 :  -0.4375 0.4375 0.4375  plane waves:     160

 maximum and minimum number of plane-waves per node :       165      155

 maximum number of plane-waves:       165
 maximum index in each direction: 
   IXMAX=    4   IYMAX=    4   IZMAX=    3
   IXMIN=   -4   IYMIN=   -4   IZMIN=   -4

 WARNING: aliasing errors must be expected set NGX to  18 to avoid them
 WARNING: aliasing errors must be expected set NGY to  18 to avoid them
 NGZ is ok and might be reduce to  16
 aliasing errors are usually negligible using standard VASP settings
 and one can safely disregard these warnings

 serial   3D FFT for wavefunctions
 parallel 3D FFT for charge:
    minimum data exchange during FFTs selected (reduces bandwidth)


 total amount of memory used by VASP on root node    32387. kBytes
========================================================================

   base      :      30000. kBytes
   nonl-proj :        631. kBytes
   fftplans  :        302. kBytes
   grid      :        954. kBytes
   one-center:         31. kBytes
   wavefun   :        469. kBytes
 
     INWAV:  cpu time    0.0000: real time    0.0000
 Broyden mixing: mesh for mixing (old mesh)
   NGX =  7   NGY =  7   NGZ =  7
  (NGX  = 32   NGY  = 32   NGZ  = 32)
  gives a total of    343 points

 initial charge density was supplied:
 charge density of overlapping atoms calculated
 number of electron       8.0000000 magnetization       4.0000000
 keeping initial charge density in first step


--------------------------------------------------------------------------------------------------------


 Maximum index for augmentation-charges         4037 (set IRDMAX)


--------------------------------------------------------------------------------------------------------


 First call to EWALD:  gamma=   0.859
 Maximum number of real-space cells 3x 3x 3
 Maximum number of reciprocal cells 3x 3x 3

 FEWALD executed in parallel
    FEWALD:  cpu time    0.0070: real time    0.0073


----------------------------------------- Iteration    1(   1)  ---------------------------------------


    POTLOK:  cpu time    0.0100: real time    0.0109
    SETDIJ:  cpu time    0.0270: real time    0.0269
     EDDAV:  cpu time    2.4346: real time    2.5644
 BZINTS: Fermi energy: 16.002387;  8.000000 electrons
         Band energy:  82.420390;  BLOECHL correction: -0.367055
       DOS:  cpu time    0.0710: real time    0.0709
    --------------------------------------------
      LOOP:  cpu time    2.5496: real time    2.6821

 eigenvalue-minimisations  :  1432
 total energy-change (2. order) : 0.1684116E+02  (-0.3573241E+03)
 number of electron       8.0000000 magnetization       4.0000000
 augmentation part        8.0000000 magnetization       4.0000000

 Free energy of the ion-electron system (eV)
  ---------------------------------------------------
  alpha Z        PSCENC =        76.21351388
  Ewald energy   TEWEN  =      -644.97461067
  -Hartree energ DENC   =       -91.98284098
  -exchange      EXHF   =         0.00000000
  -V(xc)+E(xc)   XCENC  =         7.24561788
  PAW double counting   =       552.76102510     -562.19386350
  entropy T*S    EENTRO =         0.00000000
  eigenvalues    EBANDS =        82.42039049
  atomic energy  EATOM  =       597.35192723
  Solvation  Ediel_sol  =         0.00000000
  ---------------------------------------------------
  free energy    TOTEN  =        16.84115943 eV

  energy without entropy =       16.84115943  energy(sigma->0) =       16.84115943


--------------------------------------------------------------------------------------------------------




----------------------------------------- Iteration    1(   2)  ---------------------------------------


     EDDAV:  cpu time    1.3218: real time    1.3247
 BZINTS: Fermi energy: 10.854050;  8.000000 electrons
         Band energy:  56.905061;  BLOECHL correction: -0.084783
       DOS:  cpu time    0.0590: real time    0.0599
    --------------------------------------------
      LOOP:  cpu time    1.4008: real time    1.4047

 eigenvalue-minimisations  :  1308
 total energy-change (2. order) :-0.2551533E+02  (-0.2342863E+02)
 number of electron       8.0000000 magnetization       4.0000000
 augmentation part        8.0000000 magnetization       4.0000000

 Free energy of the ion-electron system (eV)
  ---------------------------------------------------
  alpha Z        PSCENC =        76.21351388
  Ewald energy   TEWEN  =      -644.97461067
  -Hartree energ DENC   =       -91.98284098
  -exchange      EXHF   =         0.00000000
  -V(xc)+E(xc)   XCENC  =         7.24561788
  PAW double counting   =       552.76102510     -562.19386350
  entropy T*S    EENTRO =         0.00000000
  eigenvalues    EBANDS =        56.90506053
  atomic energy  EATOM  =       597.35192723
  Solvation  Ediel_sol  =         0.00000000
  ---------------------------------------------------
  free energy    TOTEN  =        -8.67417053 eV

  energy without entropy =       -8.67417053  energy(sigma->0) =       -8.67417053


--------------------------------------------------------------------------------------------------------




----------------------------------------- Iteration    1(   3)  ---------------------------------------


     EDDAV:  cpu time    1.3708: real time    1.3729
 BZINTS: Fermi energy: 10.763223;  8.000000 electrons
         Band energy:  56.371496;  BLOECHL correction: -0.084784
       DOS:  cpu time    0.0700: real time    0.0706
    --------------------------------------------
      LOOP:  cpu time    1.4868: real time    1.4894

 eigenvalue-minimisations  :  1468
 total energy-change (2. order) :-0.5335649E+00  (-0.5314727E+00)
 number of electron       8.0000000 magnetization       4.0000000
 augmentation part        8.0000000 magnetization       4.0000000

 Free energy of the ion-electron system (eV)
  ---------------------------------------------------
  alpha Z        PSCENC =        76.21351388
  Ewald energy   TEWEN  =      -644.97461067
  -Hartree energ DENC   =       -91.98284098
  -exchange      EXHF   =         0.00000000
  -V(xc)+E(xc)   XCENC  =         7.24561788
  PAW double counting   =       552.76102510     -562.19386350
  entropy T*S    EENTRO =         0.00000000
  eigenvalues    EBANDS =        56.37149564
  atomic energy  EATOM  =       597.35192723
  Solvation  Ediel_sol  =         0.00000000
  ---------------------------------------------------
  free energy    TOTEN  =        -9.20773542 eV

  energy without entropy =       -9.20773542  energy(sigma->0) =       -9.20773542


--------------------------------------------------------------------------------------------------------




----------------------------------------- Iteration    1(   4)  ---------------------------------------


     EDDAV:  cpu time    1.6897: real time    1.6928
 BZINTS: Fermi energy: 10.762948;  8.000000 electrons
         Band energy:  56.369905;  BLOECHL correction: -0.084781
       DOS:  cpu time    0.0680: real time    0.0687
    --------------------------------------------
      LOOP:  cpu time    1.7687: real time    1.7724

 eigenvalue-minimisations  :  1400
 total energy-change (2. order) :-0.1590206E-02  (-0.1588862E-02)
 number of electron       8.0000000 magnetization       4.0000000
 augmentation part        8.0000000 magnetization       4.0000000

 Free energy of the ion-electron system (eV)
  ---------------------------------------------------
  alpha Z        PSCENC =        76.21351388
  Ewald energy   TEWEN  =      -644.97461067
  -Hartree energ DENC   =       -91.98284098
  -exchange      EXHF   =         0.00000000
  -V(xc)+E(xc)   XCENC  =         7.24561788
  PAW double counting   =       552.76102510     -562.19386350
  entropy T*S    EENTRO =         0.00000000
  eigenvalues    EBANDS =        56.36990543
  atomic energy  EATOM  =       597.35192723
  Solvation  Ediel_sol  =         0.00000000
  ---------------------------------------------------
  free energy    TOTEN  =        -9.20932563 eV

  energy without entropy =       -9.20932563  energy(sigma->0) =       -9.20932563


--------------------------------------------------------------------------------------------------------




----------------------------------------- Iteration    1(   5)  ---------------------------------------


     EDDAV:  cpu time    1.6348: real time    1.6382
 BZINTS: Fermi energy: 10.762946;  8.000000 electrons
         Band energy:  56.369898;  BLOECHL correction: -0.084781
       DOS:  cpu time    0.0650: real time    0.0638
    CHARGE:  cpu time    0.0410: real time    0.0338
    MIXING:  cpu time    0.0020: real time    0.0010
    --------------------------------------------
      LOOP:  cpu time    1.7597: real time    1.7530

 eigenvalue-minimisations  :  1464
 total energy-change (2. order) :-0.7798769E-05  (-0.7758812E-05)
 number of electron       7.9999995 magnetization       1.2118562
 augmentation part        3.7014704 magnetization       0.6490538

 Broyden mixing:
  rms(total) = 0.18487E+01    rms(broyden)= 0.18485E+01
  rms(prec ) = 0.35244E+01
  weight for this iteration     100.00

 Free energy of the ion-electron system (eV)
  ---------------------------------------------------
  alpha Z        PSCENC =        76.21351388
  Ewald energy   TEWEN  =      -644.97461067
  -Hartree energ DENC   =       -91.98284098
  -exchange      EXHF   =         0.00000000
  -V(xc)+E(xc)   XCENC  =         7.24561788
  PAW double counting   =       552.76102510     -562.19386350
  entropy T*S    EENTRO =         0.00000000
  eigenvalues    EBANDS =        56.36989764
  atomic energy  EATOM  =       597.35192723
  Solvation  Ediel_sol  =         0.00000000
  ---------------------------------------------------
  free energy    TOTEN  =        -9.20933342 eV

  energy without entropy =       -9.20933342  energy(sigma->0) =       -9.20933342


--------------------------------------------------------------------------------------------------------




----------------------------------------- Iteration    1(   6)  ---------------------------------------


    POTLOK:  cpu time    0.0090: real time    0.0066
    SETDIJ:  cpu time    0.0270: real time    0.0220
     EDDAV:  cpu time    2.9156: real time    2.6718
 BZINTS: Fermi energy:  8.750235;  8.000000 electrons
         Band energy:  44.907386;  BLOECHL correction: -0.116328
       DOS:  cpu time    0.0830: real time    0.0849
    CHARGE:  cpu time    0.0260: real time    0.0209
    MIXING:  cpu time    0.0010: real time    0.0014
    --------------------------------------------
      LOOP:  cpu time    3.0635: real time    2.8103

 eigenvalue-minimisations  :  1412
 total energy-change (2. order) : 0.1833326E+00  (-0.5332410E+00)
 number of electron       7.9999994 magnetization       1.6902788
 augmentation part        4.1208931 magnetization       1.4456819

 Broyden mixing:
  rms(total) = 0.33201E+00    rms(broyden)= 0.33184E+00
  rms(prec ) = 0.40000E+00
  weight for this iteration     100.00

 eigenvalues of (default mixing * dielectric matrix)
  average eigenvalue GAMMA=   1.0081
  1.0081

 Free energy of the ion-electron system (eV)
  ---------------------------------------------------
  alpha Z        PSCENC =        76.21351388
  Ewald energy   TEWEN  =      -644.97461067
  -Hartree energ DENC   =       -78.91647615
  -exchange      EXHF   =         0.00000000
  -V(xc)+E(xc)   XCENC  =         4.88814968
  PAW double counting   =       688.59914318     -697.09503415
  entropy T*S    EENTRO =         0.00000000
  eigenvalues    EBANDS =        44.90738621
  atomic energy  EATOM  =       597.35192723
  Solvation  Ediel_sol  =         0.00000000
  ---------------------------------------------------
  free energy    TOTEN  =        -9.02600078 eV

  energy without entropy =       -9.02600078  energy(sigma->0) =       -9.02600078


--------------------------------------------------------------------------------------------------------




----------------------------------------- Iteration    1(   7)  ---------------------------------------


    POTLOK:  cpu time    0.0080: real time    0.0066
    SETDIJ:  cpu time    0.0240: real time    0.0219
     EDDAV:  cpu time    2.5826: real time    2.2710
 BZINTS: Fermi energy:  8.889270;  8.000000 electrons
         Band energy:  45.669719;  BLOECHL correction: -0.115139
       DOS:  cpu time    0.0950: real time    0.0823
    CHARGE:  cpu time    0.0240: real time    0.0192
    MIXING:  cpu time    0.0020: real time    0.0014
    --------------------------------------------
      LOOP:  cpu time    2.7366: real time    2.4051

 eigenvalue-minimisations  :  1528
 total energy-change (2. order) : 0.2428377E-01  (-0.8130966E-02)
 number of electron       7.9999994 magnetization       1.5217662
 augmentation part        4.1013563 magnetization       1.2137085

 Broyden mixing:
  rms(total) = 0.19170E+00    rms(broyden)= 0.19169E+00
  rms(prec ) = 0.27731E+00
  weight for this iteration     100.00

 eigenvalues of (default mixing * dielectric matrix)
  average eigenvalue GAMMA=   1.2118
  0.8468  1.5767

 Free energy of the ion-electron system (eV)
  ---------------------------------------------------
  alpha Z        PSCENC =        76.21351388
  Ewald energy   TEWEN  =      -644.97461067
  -Hartree energ DENC   =       -78.08363823
  -exchange      EXHF   =         0.00000000
  -V(xc)+E(xc)   XCENC  =         4.93168613
  PAW double counting   =       760.93543352     -771.04574763
  entropy T*S    EENTRO =         0.00000000
  eigenvalues    EBANDS =        45.66971876
  atomic energy  EATOM  =       597.35192723
  Solvation  Ediel_sol  =         0.00000000
  ---------------------------------------------------
  free energy    TOTEN  =        -9.00171701 eV

  energy without entropy =       -9.00171701  energy(sigma->0) =       -9.00171701


--------------------------------------------------------------------------------------------------------




----------------------------------------- Iteration    1(   8)  ---------------------------------------


    POTLOK:  cpu time    0.0060: real time    0.0067
    SETDIJ:  cpu time    0.0250: real time    0.0217
     EDDAV:  cpu time    3.7294: real time    3.2416
 BZINTS: Fermi energy:  8.893749;  8.000000 electrons
         Band energy:  45.746524;  BLOECHL correction: -0.116253
       DOS:  cpu time    0.0710: real time    0.0686
    CHARGE:  cpu time    0.0280: real time    0.0289
    MIXING:  cpu time    0.0020: real time    0.0013
    --------------------------------------------
      LOOP:  cpu time    3.8644: real time    3.3711

 eigenvalue-minimisations  :  1592
 total energy-change (2. order) : 0.1773819E-01  (-0.1435592E-02)
 number of electron       7.9999994 magnetization       1.5752908
 augmentation part        4.1051573 magnetization       1.2848832

 Broyden mixing:
  rms(total) = 0.89783E-01    rms(broyden)= 0.89780E-01
  rms(prec ) = 0.11493E+00
  weight for this iteration     100.00

 eigenvalues of (default mixing * dielectric matrix)
  average eigenvalue GAMMA=   1.0749
  1.8294  0.8902  0.5050

 Free energy of the ion-electron system (eV)
  ---------------------------------------------------
  alpha Z        PSCENC =        76.21351388
  Ewald energy   TEWEN  =      -644.97461067
  -Hartree energ DENC   =       -76.90162050
  -exchange      EXHF   =         0.00000000
  -V(xc)+E(xc)   XCENC  =         4.84222903
  PAW double counting   =       827.17366036     -838.43560201
  entropy T*S    EENTRO =         0.00000000
  eigenvalues    EBANDS =        45.74652388
  atomic energy  EATOM  =       597.35192723
  Solvation  Ediel_sol  =         0.00000000
  ---------------------------------------------------
  free energy    TOTEN  =        -8.98397881 eV

  energy without entropy =       -8.98397881  energy(sigma->0) =       -8.98397881


--------------------------------------------------------------------------------------------------------




----------------------------------------- Iteration    1(   9)  ---------------------------------------


    POTLOK:  cpu time    0.0070: real time    0.0068
    SETDIJ:  cpu time    0.0140: real time    0.0156
     EDDAV:  cpu time    3.5505: real time    3.2676
 BZINTS: Fermi energy:  8.887486;  8.000000 electrons
         Band energy:  45.735168;  BLOECHL correction: -0.116162
       DOS:  cpu time    0.0850: real time    0.0839
    CHARGE:  cpu time    0.0310: real time    0.0324
    MIXING:  cpu time    0.0020: real time    0.0013
    --------------------------------------------
      LOOP:  cpu time    3.6924: real time    3.4109

 eigenvalue-minimisations  :  1600
 total energy-change (2. order) : 0.2969340E-02  (-0.1323171E-03)
 number of electron       7.9999994 magnetization       1.5932981
 augmentation part        4.1086538 magnetization       1.2990958

 Broyden mixing:
  rms(total) = 0.22993E-01    rms(broyden)= 0.22992E-01
  rms(prec ) = 0.27358E-01
  weight for this iteration     100.00

 eigenvalues of (default mixing * dielectric matrix)
  average eigenvalue GAMMA=   1.1909
  2.4184  0.9425  0.7758  0.6267

 Free energy of the ion-electron system (eV)
  ---------------------------------------------------
  alpha Z        PSCENC =        76.21351388
  Ewald energy   TEWEN  =      -644.97461067
  -Hartree energ DENC   =       -76.45031812
  -exchange      EXHF   =         0.00000000
  -V(xc)+E(xc)   XCENC  =         4.84725189
  PAW double counting   =       853.76383532     -865.46777679
  entropy T*S    EENTRO =         0.00000000
  eigenvalues    EBANDS =        45.73516778
  atomic energy  EATOM  =       597.35192723
  Solvation  Ediel_sol  =         0.00000000
  ---------------------------------------------------
  free energy    TOTEN  =        -8.98100947 eV

  energy without entropy =       -8.98100947  energy(sigma->0) =       -8.98100947


--------------------------------------------------------------------------------------------------------




----------------------------------------- Iteration    1(  10)  ---------------------------------------


    POTLOK:  cpu time    0.0070: real time    0.0068
    SETDIJ:  cpu time    0.0130: real time    0.0157
     EDDAV:  cpu time    4.0124: real time    3.5324
 BZINTS: Fermi energy:  8.890825;  8.000000 electrons
         Band energy:  45.761087;  BLOECHL correction: -0.116085
       DOS:  cpu time    0.0700: real time    0.0485
    CHARGE:  cpu time    0.0690: real time    0.0575
    MIXING:  cpu time    0.0050: real time    0.0061
    --------------------------------------------
      LOOP:  cpu time    4.1794: real time    3.6701

 eigenvalue-minimisations  :  1584
 total energy-change (2. order) : 0.1768286E-03  (-0.2719076E-04)
 number of electron       7.9999994 magnetization       1.5927873
 augmentation part        4.1089347 magnetization       1.2954845

 Broyden mixing:
  rms(total) = 0.29710E-02    rms(broyden)= 0.29702E-02
  rms(prec ) = 0.45715E-02
  weight for this iteration     100.00

 eigenvalues of (default mixing * dielectric matrix)
  average eigenvalue GAMMA=   1.1566
  2.4641  0.9766  0.9766  0.7482  0.6174

 Free energy of the ion-electron system (eV)
  ---------------------------------------------------
  alpha Z        PSCENC =        76.21351388
  Ewald energy   TEWEN  =      -644.97461067
  -Hartree energ DENC   =       -76.28948909
  -exchange      EXHF   =         0.00000000
  -V(xc)+E(xc)   XCENC  =         4.83966217
  PAW double counting   =       865.57122048     -877.45414402
  entropy T*S    EENTRO =         0.00000000
  eigenvalues    EBANDS =        45.76108736
  atomic energy  EATOM  =       597.35192723
  Solvation  Ediel_sol  =         0.00000000
  ---------------------------------------------------
  free energy    TOTEN  =        -8.98083264 eV

  energy without entropy =       -8.98083264  energy(sigma->0) =       -8.98083264


--------------------------------------------------------------------------------------------------------




----------------------------------------- Iteration    1(  11)  ---------------------------------------


    POTLOK:  cpu time    0.0080: real time    0.0064
    SETDIJ:  cpu time    0.0250: real time    0.0235
     EDDAV:  cpu time    2.7996: real time    2.6084
 BZINTS: Fermi energy:  8.891388;  8.000000 electrons
         Band energy:  45.765819;  BLOECHL correction: -0.116153
       DOS:  cpu time    0.0480: real time    0.0392
    CHARGE:  cpu time    0.0400: real time    0.0428
    MIXING:  cpu time    0.0020: real time    0.0011
    --------------------------------------------
      LOOP:  cpu time    2.9256: real time    2.7243

 eigenvalue-minimisations  :  1548
 total energy-change (2. order) :-0.6767970E-04  (-0.8653239E-06)
 number of electron       7.9999994 magnetization       1.5891548
 augmentation part        4.1087698 magnetization       1.2918998

 Broyden mixing:
  rms(total) = 0.28186E-02    rms(broyden)= 0.28186E-02
  rms(prec ) = 0.34313E-02
  weight for this iteration     100.00

 eigenvalues of (default mixing * dielectric matrix)
  average eigenvalue GAMMA=   1.3792
  2.5838  2.5838  0.9785  0.6121  0.7882  0.7289

 Free energy of the ion-electron system (eV)
  ---------------------------------------------------
  alpha Z        PSCENC =        76.21351388
  Ewald energy   TEWEN  =      -644.97461067
  -Hartree energ DENC   =       -76.29763331
  -exchange      EXHF   =         0.00000000
  -V(xc)+E(xc)   XCENC  =         4.83926655
  PAW double counting   =       867.14663608     -879.02581899
  entropy T*S    EENTRO =         0.00000000
  eigenvalues    EBANDS =        45.76581890
  atomic energy  EATOM  =       597.35192723
  Solvation  Ediel_sol  =         0.00000000
  ---------------------------------------------------
  free energy    TOTEN  =        -8.98090032 eV

  energy without entropy =       -8.98090032  energy(sigma->0) =       -8.98090032


--------------------------------------------------------------------------------------------------------




----------------------------------------- Iteration    1(  12)  ---------------------------------------


    POTLOK:  cpu time    0.0080: real time    0.0067
    SETDIJ:  cpu time    0.0220: real time    0.0204
     EDDAV:  cpu time    2.1897: real time    2.1026
 BZINTS: Fermi energy:  8.890871;  8.000000 electrons
         Band energy:  45.762278;  BLOECHL correction: -0.116171
       DOS:  cpu time    0.0640: real time    0.0577
    CHARGE:  cpu time    0.0490: real time    0.0556
    MIXING:  cpu time    0.0020: real time    0.0012
    --------------------------------------------
      LOOP:  cpu time    2.3366: real time    2.2469

 eigenvalue-minimisations  :   928
 total energy-change (2. order) :-0.2006400E-04  (-0.3561799E-07)
 number of electron       7.9999994 magnetization       1.5895183
 augmentation part        4.1087447 magnetization       1.2924906

 Broyden mixing:
  rms(total) = 0.73728E-03    rms(broyden)= 0.73726E-03
  rms(prec ) = 0.91518E-03
  weight for this iteration     100.00

 eigenvalues of (default mixing * dielectric matrix)
  average eigenvalue GAMMA=   1.2160
  2.5645  2.5645  0.9709  0.6110  0.7870  0.7213  0.2928

 Free energy of the ion-electron system (eV)
  ---------------------------------------------------
  alpha Z        PSCENC =        76.21351388
  Ewald energy   TEWEN  =      -644.97461067
  -Hartree energ DENC   =       -76.32312271
  -exchange      EXHF   =         0.00000000
  -V(xc)+E(xc)   XCENC  =         4.83828299
  PAW double counting   =       866.74913160     -878.59832117
  entropy T*S    EENTRO =         0.00000000
  eigenvalues    EBANDS =        45.76227846
  atomic energy  EATOM  =       597.35192723
  Solvation  Ediel_sol  =         0.00000000
  ---------------------------------------------------
  free energy    TOTEN  =        -8.98092039 eV

  energy without entropy =       -8.98092039  energy(sigma->0) =       -8.98092039


--------------------------------------------------------------------------------------------------------




----------------------------------------- Iteration    1(  13)  ---------------------------------------


    POTLOK:  cpu time    0.0160: real time    0.0167
    SETDIJ:  cpu time    0.0270: real time    0.0288
     EDDAV:  cpu time    1.8667: real time    1.8336
 BZINTS: Fermi energy:  8.890805;  8.000000 electrons
         Band energy:  45.761809;  BLOECHL correction: -0.116168
       DOS:  cpu time    0.0720: real time    0.0688
    CHARGE:  cpu time    0.0390: real time    0.0399
    MIXING:  cpu time    0.0020: real time    0.0017
    --------------------------------------------
      LOOP:  cpu time    2.0257: real time    1.9935

 eigenvalue-minimisations  :   668
 total energy-change (2. order) : 0.4209280E-05  (-0.3095001E-08)
 number of electron       7.9999994 magnetization       1.5904524
 augmentation part        4.1087682 magnetization       1.2934085

 Broyden mixing:
  rms(total) = 0.52284E-03    rms(broyden)= 0.52284E-03
  rms(prec ) = 0.61787E-03
  weight for this iteration     100.00

 eigenvalues of (default mixing * dielectric matrix)
  average eigenvalue GAMMA=   1.3047
  2.6375  2.4592  1.4575  1.0120  0.8465  0.7820  0.5981  0.6445

 Free energy of the ion-electron system (eV)
  ---------------------------------------------------
  alpha Z        PSCENC =        76.21351388
  Ewald energy   TEWEN  =      -644.97461067
  -Hartree energ DENC   =       -76.32180245
  -exchange      EXHF   =         0.00000000
  -V(xc)+E(xc)   XCENC  =         4.83849950
  PAW double counting   =       866.78077715     -878.63102986
  entropy T*S    EENTRO =         0.00000000
  eigenvalues    EBANDS =        45.76180905
  atomic energy  EATOM  =       597.35192723
  Solvation  Ediel_sol  =         0.00000000
  ---------------------------------------------------
  free energy    TOTEN  =        -8.98091618 eV

  energy without entropy =       -8.98091618  energy(sigma->0) =       -8.98091618


--------------------------------------------------------------------------------------------------------




----------------------------------------- Iteration    1(  14)  ---------------------------------------


    POTLOK:  cpu time    0.0080: real time    0.0084
    SETDIJ:  cpu time    0.0170: real time    0.0152
     EDDAV:  cpu time    1.7657: real time    1.7334
 BZINTS: Fermi energy:  8.890724;  8.000000 electrons
         Band energy:  45.760881;  BLOECHL correction: -0.116154
       DOS:  cpu time    0.0780: real time    0.0755
    CHARGE:  cpu time    0.0330: real time    0.0328
    MIXING:  cpu time    0.0020: real time    0.0020
    --------------------------------------------
      LOOP:  cpu time    1.9057: real time    1.8700

 eigenvalue-minimisations  :   684
 total energy-change (2. order) : 0.1551283E-04  (-0.1620389E-07)
 number of electron       7.9999994 magnetization       1.5904775
 augmentation part        4.1088118 magnetization       1.2933724

 Broyden mixing:
  rms(total) = 0.71608E-04    rms(broyden)= 0.71575E-04
  rms(prec ) = 0.71870E-04
  weight for this iteration     100.00

 eigenvalues of (default mixing * dielectric matrix)
  average eigenvalue GAMMA=   1.2372
  2.6391  2.4411  1.4718  1.0299  0.8818  0.7866  0.6000  0.6423  0.6423

 Free energy of the ion-electron system (eV)
  ---------------------------------------------------
  alpha Z        PSCENC =        76.21351388
  Ewald energy   TEWEN  =      -644.97461067
  -Hartree energ DENC   =       -76.32013481
  -exchange      EXHF   =         0.00000000
  -V(xc)+E(xc)   XCENC  =         4.83914497
  PAW double counting   =       866.91318257     -878.76480492
  entropy T*S    EENTRO =         0.00000000
  eigenvalues    EBANDS =        45.76088108
  atomic energy  EATOM  =       597.35192723
  Solvation  Ediel_sol  =         0.00000000
  ---------------------------------------------------
  free energy    TOTEN  =        -8.98090067 eV

  energy without entropy =       -8.98090067  energy(sigma->0) =       -8.98090067


--------------------------------------------------------------------------------------------------------




----------------------------------------- Iteration    1(  15)  ---------------------------------------


    POTLOK:  cpu time    0.0090: real time    0.0092
    SETDIJ:  cpu time    0.0240: real time    0.0240
     EDDAV:  cpu time    1.9017: real time    1.8048
 BZINTS: Fermi energy:  8.890731;  8.000000 electrons
         Band energy:  45.760917;  BLOECHL correction: -0.116154
       DOS:  cpu time    0.1070: real time    0.0903
    --------------------------------------------
      LOOP:  cpu time    2.0437: real time    1.9308

 eigenvalue-minimisations  :   660
 total energy-change (2. order) : 0.3393171E-06  (-0.3121849E-09)
 number of electron       7.9999994 magnetization       1.5904775
 augmentation part        4.1088118 magnetization       1.2933724

 Free energy of the ion-electron system (eV)
  ---------------------------------------------------
  alpha Z        PSCENC =        76.21351388
  Ewald energy   TEWEN  =      -644.97461067
  -Hartree energ DENC   =       -76.32003797
  -exchange      EXHF   =         0.00000000
  -V(xc)+E(xc)   XCENC  =         4.83916521
  PAW double counting   =       866.92838924     -878.78016415
  entropy T*S    EENTRO =         0.00000000
  eigenvalues    EBANDS =        45.76091690
  atomic energy  EATOM  =       597.35192723
  Solvation  Ediel_sol  =         0.00000000
  ---------------------------------------------------
  free energy    TOTEN  =        -8.98090033 eV

  energy without entropy =       -8.98090033  energy(sigma->0) =       -8.98090033


--------------------------------------------------------------------------------------------------------




 average (electrostatic) potential at core
  the test charge radii are     1.0103
  (the norm of the test charge is              1.0000)
       1 -41.2302
 
 
 
 E-fermi :   8.8907     XC(G=0): -14.9252     alpha+bet :-17.5424


 spin component 1

 k-point     1 :       0.0625    0.0625    0.0625
  band No.  band energies     occupation 
      1      -0.1145      1.00000
      2       5.6339      1.00000
      3       5.6339      1.00000
      4       6.8555      1.00000
      5       7.8576      1.00000
      6       7.8576      1.00100
      7      33.0587      0.00000
      8      33.0587      0.00000
      9      37.2175      0.00000
     10      39.9548      0.00000
     11      44.6004      0.00000
     12      44.6004      0.00000

 k-point     2 :       0.1875    0.0625    0.0625
  band No.  band energies     occupation 
      1       1.7183      1.00000
      2       5.0040      1.00000
      3       5.3324      1.00000
      4       7.7531      1.00000
      5       8.0647      1.00265
      6       8.3751      0.74816
      7      27.7567      0.00000
      8      30.6631      0.00000
      9      35.2489      0.00000
     10      38.1790      0.00000
     11      44.8597      0.00000
     12      45.2297      0.00000

 k-point     3 :       0.3125    0.0625    0.0625
  band No.  band energies     occupation 
      1       2.6610      1.00000
      2       4.4757      1.00000
      3       6.4749      1.00000
      4       7.9741      1.00000
      5       8.2361      0.99489
      6      10.3372     -0.04804
      7      22.0722      0.00000
      8      28.6511      0.00000
      9      32.2747      0.00000
     10      38.2455      0.00000
     11      44.1336      0.00000
     12      48.8152      0.00000

 k-point     4 :       0.4375    0.0625    0.0625
  band No.  band energies     occupation 
      1       2.5751      1.00000
      2       4.2754      1.00000
      3       7.7885      1.00000
      4       8.0857      1.00000
      5       8.3093      0.92403
      6      11.8020     -0.00154
      7      18.9000      0.00000
      8      27.8723      0.00000
      9      31.1509      0.00000
     10      38.1866      0.00000
     11      44.1664      0.00000
     12      48.1936      0.00000

 k-point     5 :      -0.0625    0.0625    0.0625
  band No.  band energies     occupation 
      1      -0.8640      1.00000
      2       5.9526      1.00000
      3       5.9526      1.00000
      4       6.0870      1.00000
      5       7.7324      1.00000
      6       8.0622      1.00000
      7      34.5606      0.00000
      8      36.1304      0.00000
      9      36.1304      0.00000
     10      41.1996      0.00000
     11      44.8507      0.00000
     12      44.8507      0.00000

 k-point     6 :       0.1875    0.1875    0.0625
  band No.  band energies     occupation 
      1       3.3037      1.00000
      2       4.5853      1.00000
      3       4.9358      1.00000
      4       7.8814      1.00000
      5       8.2816      1.00514
      6      10.6503     -0.06505
      7      24.9053      0.00000
      8      26.1288      0.00000
      9      31.0182      0.00000
     10      40.4568      0.00000
     11      45.6646      0.00000
     12      48.5055      0.00000

 k-point     7 :       0.3125    0.1875    0.0625
  band No.  band energies     occupation 
      1       3.4577      1.00000
      2       4.3462      1.00000
      3       5.8613      1.00000
      4       8.1054      1.00000
      5       8.4192      0.99799
      6      13.5749     -0.00085
      7      20.1260      0.00000
      8      24.2590      0.00000
      9      29.3068      0.00000
     10      41.2470      0.00000
     11      46.3485      0.00000
     12      49.5837      0.00000

 k-point     8 :      -0.1875    0.1875    0.0625
  band No.  band energies     occupation 
      1       0.5642      1.00000
      2       5.5340      1.00000
      3       5.8250      1.00000
      4       7.0084      1.00000
      5       7.3353      1.00000
      6       8.2263      0.98551
      7      30.6252      0.00000
      8      33.9398      0.00000
      9      35.5608      0.00000
     10      40.5497      0.00000
     11      41.4203      0.00000
     12      42.9875      0.00000

 k-point     9 :       0.3125    0.3125    0.0625
  band No.  band energies     occupation 
      1       3.8425      1.00000
      2       4.9194      1.00000
      3       4.9194      1.00000
      4       8.3232      1.00000
      5       8.3232      1.03076
      6      17.6320      0.00000
      7      17.6320      0.00000
      8      21.2065      0.00000
      9      28.7328      0.00000
     10      43.9865      0.00000
     11      43.9865      0.00000
     12      53.5049      0.00000

 k-point    10 :      -0.3125    0.3125    0.0625
  band No.  band energies     occupation 
      1       2.2407      1.00000
      2       4.9248      1.00000
      3       5.9431      1.00000
      4       7.6348      1.00000
      5       8.4943      0.95521
      6       8.5362      0.49089
      7      24.8213      0.00000
      8      31.1301      0.00000
      9      34.0190      0.00000
     10      38.8375      0.00000
     11      41.2685      0.00000
     12      44.0919      0.00000

 k-point    11 :      -0.1875    0.3125    0.0625
  band No.  band energies     occupation 
      1       2.1907      1.00000
      2       5.1912      1.00000
      3       5.5185      1.00000
      4       7.1184      1.00000
      5       8.1597      1.01034
      6       8.7553      0.50388
      7      27.7155      0.00000
      8      29.2538      0.00000
      9      35.7839      0.00000
     10      37.1311      0.00000
     11      41.1263      0.00000
     12      46.3197      0.00000

 k-point    12 :      -0.4375    0.4375    0.0625
  band No.  band energies     occupation 
      1       2.4360      1.00000
      2       4.5183      1.00000
      3       7.0904      1.00000
      4       7.9261      1.00000
      5       9.7844     -0.07836
      6       9.8796     -0.00480
      7      19.8338      0.00000
      8      29.4562      0.00000
      9      32.2544      0.00000
     10      38.0004      0.00000
     11      41.9505      0.00000
     12      45.3479      0.00000

 k-point    13 :      -0.3125    0.4375    0.0625
  band No.  band energies     occupation 
      1       3.1110      1.00000
      2       4.7471      1.00000
      3       5.6413      1.00000
      4       7.5808      1.00000
      5       8.7913      0.75731
      6      10.9652     -0.03557
      7      22.4366      0.00000
      8      26.6076      0.00000
      9      33.8044      0.00000
     10      37.4884      0.00000
     11      41.5392      0.00000
     12      47.2510      0.00000

 k-point    14 :      -0.4375   -0.4375    0.0625
  band No.  band energies     occupation 
      1       3.0076      1.00000
      2       4.7237      1.00000
      3       5.8945      1.00000
      4       7.7627      1.00000
      5       9.2642      0.12908
      6      13.1519     -0.00049
      7      18.9257      0.00000
      8      25.7807      0.00000
      9      32.7533      0.00000
     10      38.1290      0.00000
     11      42.0039      0.00000
     12      46.5920      0.00000

 k-point    15 :      -0.3125   -0.4375    0.0625
  band No.  band energies     occupation 
      1       3.9901      1.00000
      2       4.3228      1.00000
      3       5.1271      1.00000
      4       8.0318      1.00016
      5       8.7311      0.71857
      6      14.8666     -0.00003
      7      19.9748      0.00000
      8      22.0002      0.00000
      9      34.6985      0.00000
     10      37.3373      0.00000
     11      39.9829      0.00000
     12      49.9849      0.00000

 k-point    16 :       0.1875    0.1875    0.1875
  band No.  band energies     occupation 
      1       4.3300      1.00000
      2       4.3300      1.00000
      3       4.7507      1.00000
      4       8.2602      1.00000
      5       8.2602      1.00000
      6      13.6798     -0.00149
      7      23.0339      0.00000
      8      23.0339      0.00000
      9      25.7146      0.00000
     10      45.5247      0.00000
     11      49.5571      0.00000
     12      49.5571      0.00000

 k-point    17 :       0.3125    0.1875    0.1875
  band No.  band energies     occupation 
      1       4.2098      1.00000
      2       4.2796      1.00000
      3       5.2727      1.00000
      4       8.3140      1.00000
      5       8.3518      1.00069
      6      16.7673      0.00000
      7      19.2342      0.00000
      8      22.3794      0.00000
      9      24.4792      0.00000
     10      47.1063      0.00000
     11      51.2226      0.00000
     12      52.4234      0.00000

 k-point    18 :      -0.1875    0.1875    0.1875
  band No.  band energies     occupation 
      1       1.7735      1.00000
      2       6.0765      1.00000
      3       6.1580      1.00000
      4       6.1580      1.00000
      5       7.0189      1.00123
      6       8.7974      0.62541
      7      30.3020      0.00000
      8      32.6783      0.00000
      9      32.6783      0.00000
     10      34.5781      0.00000
     11      45.2600      0.00000
     12      45.2600      0.00000

 k-point    19 :      -0.3125    0.3125    0.1875
  band No.  band energies     occupation 
      1       3.1020      1.00000
      2       4.9073      1.00000
      3       5.9380      1.00000
      4       6.9595      1.00000
      5       8.3509      1.00321
      6       9.9187     -0.04673
      7      25.7474      0.00000
      8      29.8583      0.00000
      9      30.2498      0.00000
     10      35.1860      0.00000
     11      44.4111      0.00000
     12      46.5178      0.00000

 k-point    20 :      -0.4375    0.4375    0.1875
  band No.  band energies     occupation 
      1       3.1431      1.00000
      2       4.8597      1.00000
      3       5.6355      1.00000
      4       7.3163      1.00080
      5       9.6567     -0.09160
      6      12.7568     -0.00403
      7      20.2570      0.00000
      8      27.9332      0.00000
      9      29.2602      0.00000
     10      37.6295      0.00000
     11      43.3613      0.00000
     12      44.6369      0.00000

 k-point    21 :      -0.3125    0.4375    0.1875
  band No.  band energies     occupation 
      1       3.6855      1.00000
      2       3.9625      1.00000
      3       6.0589      1.00022
      4       7.5503      1.00373
      5       9.0142      0.25541
      6      12.7712     -0.00417
      7      23.2598      0.00000
      8      24.1953      0.00000
      9      31.9647      0.00000
     10      33.9974      0.00000
     11      43.1215      0.00000
     12      47.3768      0.00000

 k-point    22 :      -0.4375   -0.4375    0.1875
  band No.  band energies     occupation 
      1       3.4666      1.00000
      2       4.0365      1.00000
      3       5.7684      1.00049
      4       8.0320      1.00509
      5       9.3592     -0.04381
      6      16.1500      0.00000
      7      19.1798      0.00000
      8      22.9487      0.00000
      9      32.0100      0.00000
     10      35.3533      0.00000
     11      40.9155      0.00000
     12      46.2412      0.00000

 k-point    23 :      -0.3125    0.3125    0.3125
  band No.  band energies     occupation 
      1       3.4046      1.00000
      2       3.8702      1.00000
      3       7.3056      1.00062
      4       7.3056      1.00875
      5       8.4021      0.84238
      6      12.0144     -0.00430
      7      26.3709      0.00000
      8      26.3709      0.00000
      9      28.2623      0.00000
     10      31.0728      0.00000
     11      45.6960      0.00000
     12      49.7004      0.00000

 k-point    24 :      -0.4375    0.4375    0.3125
  band No.  band energies     occupation 
      1       3.0559      1.00000
      2       3.2614      1.00000
      3       7.5137      1.01035
      4       7.9488      1.03808
      5       9.4810     -0.01409
      6      15.5966      0.00000
      7      21.2821      0.00000
      8      24.0934      0.00000
      9      28.6737      0.00000
     10      31.8908      0.00000
     11      40.9947      0.00000
     12      49.0656      0.00000

 k-point    25 :      -0.4375   -0.4375    0.3125
  band No.  band energies     occupation 
      1       2.8350      1.00000
      2       2.8350      1.00000
      3       7.6734      1.02880
      4       9.2316      0.58880
      5       9.2316      0.00056
      6      19.4544      0.00000
      7      19.4544      0.00000
      8      21.0060      0.00000
      9      30.1911      0.00000
     10      30.1911      0.00000
     11      38.6232      0.00000
     12      49.7623      0.00000

 k-point    26 :      -0.4375    0.4375    0.4375
  band No.  band energies     occupation 
      1       2.4220      1.00000
      2       2.4492      1.00000
      3       9.1651      0.70615
      4       9.1651      0.38048
      5       9.4282     -0.00289
      6      18.6562      0.00000
      7      21.4875      0.00000
      8      21.4875      0.00000
      9      27.6005      0.00000
     10      28.8897      0.00000
     11      37.0311      0.00000
     12      52.7000      0.00000

 spin component 2

 k-point     1 :       0.0625    0.0625    0.0625
  band No.  band energies     occupation 
      1       0.2456      1.00000
      2       6.8727      1.00000
      3       6.8727      1.00000
      4       8.1564      1.02937
      5       9.6178     -0.00458
      6       9.6178      0.00000
      7      33.5024      0.00000
      8      33.5024      0.00000
      9      37.4024      0.00000
     10      40.6521      0.00000
     11      45.0226      0.00000
     12      45.0226      0.00000

 k-point     2 :       0.1875    0.0625    0.0625
  band No.  band energies     occupation 
      1       2.1533      1.00000
      2       6.1896      1.00000
      3       6.4940      1.00000
      4       9.4457      0.04936
      5       9.7085     -0.00367
      6       9.8524      0.00000
      7      28.4249      0.00000
      8      31.1596      0.00000
      9      35.8890      0.00000
     10      38.4752      0.00000
     11      45.4771      0.00000
     12      45.6476      0.00000

 k-point     3 :       0.3125    0.0625    0.0625
  band No.  band energies     occupation 
      1       3.4667      1.00000
      2       5.6157      1.00000
      3       7.2963      1.00000
      4       9.6401     -0.01812
      5      10.0581      0.00000
      6      11.6176      0.00000
      7      22.9226      0.00000
      8      29.1138      0.00000
      9      32.8590      0.00000
     10      38.6990      0.00000
     11      44.7480      0.00000
     12      49.2042      0.00000

 k-point     4 :       0.4375    0.0625    0.0625
  band No.  band energies     occupation 
      1       3.5093      1.00000
      2       5.3987      1.00000
      3       8.5689      1.00000
      4       9.7595     -0.00203
      5      10.1483      0.00000
      6      12.8784      0.00000
      7      19.9181      0.00000
      8      28.3106      0.00000
      9      31.7020      0.00000
     10      38.6920      0.00000
     11      44.8077      0.00000
     12      48.5138      0.00000

 k-point     5 :      -0.0625    0.0625    0.0625
  band No.  band energies     occupation 
      1      -0.5120      1.00000
      2       7.2140      1.00000
      3       7.2140      1.00000
      4       7.3618      1.01257
      5       9.4846     -0.00976
      6       9.8579      0.00000
      7      34.8699      0.00000
      8      36.3787      0.00000
      9      36.3787      0.00000
     10      41.6824      0.00000
     11      45.5429      0.00000
     12      45.5429      0.00000

 k-point     6 :       0.1875    0.1875    0.0625
  band No.  band energies     occupation 
      1       3.9486      1.00000
      2       5.7213      1.00000
      3       5.9673      1.00000
      4       9.5771     -0.01880
      5      10.0751      0.00000
      6      11.9217      0.00000
      7      25.6488      0.00000
      8      26.7565      0.00000
      9      31.5957      0.00000
     10      40.7450      0.00000
     11      46.1207      0.00000
     12      48.9888      0.00000

 k-point     7 :       0.3125    0.1875    0.0625
  band No.  band energies     occupation 
      1       4.4102      1.00000
      2       5.4361      1.00000
      3       6.7813      1.00000
      4       9.8048     -0.00152
      5      10.1961      0.00000
      6      14.6330      0.00000
      7      21.0088      0.00000
      8      24.9040      0.00000
      9      29.8582      0.00000
     10      41.6163      0.00000
     11      46.7167      0.00000
     12      50.1364      0.00000

 k-point     8 :      -0.1875    0.1875    0.0625
  band No.  band energies     occupation 
      1       0.9420      1.00000
      2       6.7591      1.00000
      3       7.0595      1.00000
      4       8.3235      0.99316
      5       8.9974      0.03895
      6      10.0291      0.00000
      7      31.1995      0.00000
      8      34.3189      0.00000
      9      36.0146      0.00000
     10      40.9970      0.00000
     11      42.0306      0.00000
     12      43.5426      0.00000

 k-point     9 :       0.3125    0.3125    0.0625
  band No.  band energies     occupation 
      1       4.8683      1.00000
      2       5.9333      1.00000
      3       5.9333      1.00000
      4      10.0530      0.00000
      5      10.0530      0.00000
      6      18.5406      0.00000
      7      18.5406      0.00000
      8      21.9354      0.00000
      9      29.3015      0.00000
     10      44.3313      0.00000
     11      44.3313      0.00000
     12      54.1393      0.00000

 k-point    10 :      -0.3125    0.3125    0.0625
  band No.  band energies     occupation 
      1       2.8481      1.00000
      2       6.1023      1.00000
      3       6.9878      1.00000
      4       9.1953      0.12421
      5       9.9314     -0.00880
      6      10.2523      0.00000
      7      25.5985      0.00000
      8      31.5076      0.00000
      9      34.6176      0.00000
     10      39.3948      0.00000
     11      41.8356      0.00000
     12      44.5489      0.00000

 k-point    11 :      -0.1875    0.3125    0.0625
  band No.  band energies     occupation 
      1       2.6742      1.00000
      2       6.4340      1.00000
      3       6.6793      1.00000
      4       8.6681      0.69840
      5       9.5650     -0.00767
      6      10.4556      0.00000
      7      28.4282      0.00000
      8      29.8227      0.00000
      9      36.2393      0.00000
     10      37.6514      0.00000
     11      41.6291      0.00000
     12      46.8135      0.00000

 k-point    12 :      -0.4375    0.4375    0.0625
  band No.  band energies     occupation 
      1       3.3470      1.00000
      2       5.6665      1.00000
      3       8.2012      1.00000
      4       9.5307     -0.02763
      5      11.0707      0.00000
      6      11.2599      0.00000
      7      20.8054      0.00000
      8      29.8047      0.00000
      9      32.8240      0.00000
     10      38.5937      0.00000
     11      42.5934      0.00000
     12      45.7306      0.00000

 k-point    13 :      -0.3125    0.4375    0.0625
  band No.  band energies     occupation 
      1       3.9564      1.00000
      2       5.9108      1.00000
      3       6.7157      1.00000
      4       9.1054      0.07667
      5      10.3861     -0.00091
      6      12.2311      0.00000
      7      23.2749      0.00000
      8      27.2273      0.00000
      9      34.2658      0.00000
     10      38.0177      0.00000
     11      42.0216      0.00000
     12      47.8053      0.00000

 k-point    14 :      -0.4375   -0.4375    0.0625
  band No.  band energies     occupation 
      1       3.9970      1.00000
      2       5.8681      1.00000
      3       7.0201      1.00000
      4       9.3267     -0.01860
      5      10.7797      0.00000
      6      14.1716      0.00000
      7      19.9165      0.00000
      8      26.3920      0.00000
      9      33.1927      0.00000
     10      38.7210      0.00000
     11      42.3959      0.00000
     12      47.1906      0.00000

 k-point    15 :      -0.3125   -0.4375    0.0625
  band No.  band energies     occupation 
      1       4.9991      1.00000
      2       5.4659      1.00000
      3       6.2453      1.00001
      4       9.5564     -0.02454
      5      10.2839      0.00000
      6      15.9010      0.00000
      7      20.8833      0.00000
      8      22.6954      0.00000
      9      35.2079      0.00000
     10      37.7992      0.00000
     11      40.4403      0.00000
     12      50.7127      0.00000

 k-point    16 :       0.1875    0.1875    0.1875
  band No.  band energies     occupation 
      1       5.3924      1.00000
      2       5.3924      1.00000
      3       5.5043      1.00000
      4      10.0642      0.00000
      5      10.0642      0.00000
      6      14.7758      0.00000
      7      23.7744      0.00000
      8      23.7744      0.00000
      9      26.2790      0.00000
     10      45.7143      0.00000
     11      49.9538      0.00000
     12      49.9538      0.00000

 k-point    17 :       0.3125    0.1875    0.1875
  band No.  band energies     occupation 
      1       5.1879      1.00000
      2       5.3140      1.00000
      3       6.2102      1.00000
      4      10.1184      0.00000
      5      10.1971      0.00000
      6      17.6614      0.00000
      7      20.1034      0.00000
      8      23.1142      0.00000
      9      25.0457      0.00000
     10      47.3720      0.00000
     11      51.5613      0.00000
     12      52.9214      0.00000

 k-point    18 :      -0.1875    0.1875    0.1875
  band No.  band energies     occupation 
      1       2.2051      1.00000
      2       7.3899      1.00000
      3       7.3899      1.00000
      4       7.6192      1.07832
      5       8.3398      0.53743
      6      10.5676      0.00000
      7      30.9392      0.00000
      8      33.2761      0.00000
      9      33.2761      0.00000
     10      35.0021      0.00000
     11      45.7167      0.00000
     12      45.7167      0.00000

 k-point    19 :      -0.3125    0.3125    0.1875
  band No.  band energies     occupation 
      1       3.7919      1.00000
      2       6.2229      1.00000
      3       7.1514      1.00000
      4       8.2973      1.09407
      5       9.7342     -0.00805
      6      11.4149      0.00000
      7      26.5113      0.00000
      8      30.4877      0.00000
      9      30.8378      0.00000
     10      35.6782      0.00000
     11      44.9435      0.00000
     12      47.0397      0.00000

 k-point    20 :      -0.4375    0.4375    0.1875
  band No.  band energies     occupation 
      1       4.1760      1.00000
      2       6.0324      1.00000
      3       6.8279      1.00105
      4       8.7381      0.43857
      5      11.1238      0.00000
      6      13.8077      0.00000
      7      21.1588      0.00000
      8      28.5267      0.00000
      9      29.8610      0.00000
     10      38.1057      0.00000
     11      43.9097      0.00000
     12      45.2573      0.00000

 k-point    21 :      -0.3125    0.4375    0.1875
  band No.  band energies     occupation 
      1       4.6541      1.00000
      2       5.2238      1.00000
      3       7.2769      1.00612
      4       8.8941      0.34970
      5      10.4609     -0.00101
      6      13.8797      0.00000
      7      24.0984      0.00000
      8      24.8410      0.00000
      9      32.6019      0.00000
     10      34.4943      0.00000
     11      43.6822      0.00000
     12      48.0522      0.00000

 k-point    22 :      -0.4375   -0.4375    0.1875
  band No.  band energies     occupation 
      1       4.6286      1.00000
      2       5.2137      1.00000
      3       6.9394      1.01836
      4       9.4145     -0.04059
      5      10.8135      0.00000
      6      17.0665      0.00000
      7      20.0692      0.00000
      8      23.6275      0.00000
      9      32.6156      0.00000
     10      35.8870      0.00000
     11      41.5049      0.00000
     12      46.9025      0.00000

 k-point    23 :      -0.3125    0.3125    0.3125
  band No.  band energies     occupation 
      1       4.3605      1.00000
      2       5.1893      1.00000
      3       8.5674      0.97449
      4       8.5674      0.90481
      5       9.7978     -0.00197
      6      13.1480      0.00000
      7      26.9881      0.00000
      8      26.9881      0.00000
      9      29.1648      0.00000
     10      31.6199      0.00000
     11      46.3901      0.00000
     12      50.2142      0.00000

 k-point    24 :      -0.4375    0.4375    0.3125
  band No.  band energies     occupation 
      1       4.2400      1.00000
      2       4.4501      1.00000
      3       8.8005      0.84610
      4       9.2536     -0.01222
      5      10.9371      0.00000
      6      16.4448      0.00000
      7      22.0060      0.00000
      8      24.6531      0.00000
      9      29.5209      0.00000
     10      32.5354      0.00000
     11      41.7015      0.00000
     12      49.5666      0.00000

 k-point    25 :      -0.4375   -0.4375    0.3125
  band No.  band energies     occupation 
      1       4.0310      1.00000
      2       4.0310      1.00000
      3       8.9501      0.57310
      4      10.6546     -0.01846
      5      10.6546      0.00000
      6      20.1654      0.00000
      7      20.1654      0.00000
      8      21.5900      0.00000
      9      30.9665      0.00000
     10      30.9665      0.00000
     11      39.3359      0.00000
     12      50.2582      0.00000

 k-point    26 :      -0.4375    0.4375    0.4375
  band No.  band energies     occupation 
      1       3.6237      1.00000
      2       3.6287      1.00000
      3      10.5768     -0.24639
      4      10.5768     -0.01442
      5      10.8847      0.00000
      6      19.2448      0.00000
      7      21.9524      0.00000
      8      21.9524      0.00000
      9      28.6379      0.00000
     10      29.7717      0.00000
     11      37.7620      0.00000
     12      53.1095      0.00000


--------------------------------------------------------------------------------------------------------


 soft charge-density along one line, spin component           1
         0         1         2         3         4         5         6         7         8         9
 total charge-density along one line
 
 soft charge-density along one line, spin component           2
         0         1         2         3         4         5         6         7         8         9
 total charge-density along one line
 
 pseudopotential strength for first ion, spin component:           1
 -3.731  -0.000   0.000  -0.000  -0.000  -4.312  -0.000   0.000
 -0.000  -3.731  -0.000  -0.000   0.000  -0.000  -4.312  -0.000
  0.000  -0.000  -3.865  -0.000   0.000   0.000  -0.000  -4.442
 -0.000  -0.000  -0.000  -3.731  -0.000  -0.000  -0.000  -0.000
 -0.000   0.000   0.000  -0.000  -3.865  -0.000   0.000   0.000
 -4.312  -0.000   0.000  -0.000  -0.000  -4.850  -0.000   0.000
 -0.000  -4.312  -0.000  -0.000   0.000  -0.000  -4.850  -0.000
  0.000  -0.000  -4.442  -0.000   0.000   0.000  -0.000  -4.974
 -0.000  -0.000  -0.000  -4.312  -0.000  -0.000  -0.000  -0.000
 -0.000   0.000   0.000  -0.000  -4.442  -0.000   0.000   0.000
  0.000   0.000  -0.000   0.000   0.000   0.000   0.000  -0.000
  0.000   0.000  -0.000   0.000   0.000   0.000   0.000  -0.000
 -0.000  -0.000   0.000   0.000   0.000  -0.000  -0.000   0.000
  0.000  -0.000  -0.000  -0.000  -0.000   0.000  -0.000  -0.000
 -0.000   0.000   0.000  -0.000  -0.000  -0.000   0.000   0.000
 -0.000  -0.000   0.000   0.000   0.000  -0.000  -0.000   0.000
  0.000  -0.000  -0.000  -0.000  -0.000   0.000  -0.000  -0.000
 -0.000   0.000   0.000  -0.000  -0.000  -0.000   0.000   0.000
 pseudopotential strength for first ion, spin component:           2
 -2.793  -0.000   0.000  -0.000  -0.000  -3.406  -0.000   0.000
 -0.000  -2.793  -0.000  -0.000   0.000  -0.000  -3.406  -0.000
  0.000  -0.000  -2.631  -0.000   0.000   0.000  -0.000  -3.249
 -0.000  -0.000  -0.000  -2.793  -0.000  -0.000  -0.000  -0.000
 -0.000   0.000   0.000  -0.000  -2.631  -0.000   0.000   0.000
 -3.406  -0.000   0.000  -0.000  -0.000  -3.974  -0.000   0.000
 -0.000  -3.406  -0.000  -0.000   0.000  -0.000  -3.974  -0.000
  0.000  -0.000  -3.249  -0.000   0.000   0.000  -0.000  -3.822
 -0.000  -0.000  -0.000  -3.406  -0.000  -0.000  -0.000  -0.000
 -0.000   0.000   0.000  -0.000  -3.249  -0.000   0.000   0.000
  0.000   0.000  -0.000   0.000   0.000   0.000   0.000  -0.000
  0.000   0.000  -0.000   0.000   0.000   0.000   0.000  -0.000
 -0.000   0.000   0.000   0.000   0.000  -0.000   0.000   0.000
  0.000  -0.000  -0.000  -0.000  -0.000   0.000  -0.000  -0.000
 -0.000   0.000   0.000  -0.000  -0.000  -0.000   0.000   0.000
 -0.000   0.000   0.000   0.000   0.000  -0.000   0.000   0.000
  0.000  -0.000  -0.000  -0.000  -0.000   0.000  -0.000  -0.000
 -0.000   0.000   0.000  -0.000  -0.000  -0.000   0.000   0.000
 total augmentation occupancy for first ion, spin component:           1
  2.213   0.000   0.000   0.000   0.000  -1.852  -0.000  -0.000  -0.000  -0.000   0.000  -0.000   0.000   0.000   0.000   0.000
  0.000   2.213  -0.000   0.000   0.000  -0.000  -1.852  -0.000   0.000  -0.000   0.000   0.000   0.000   0.000   0.000   0.000
 -0.000  -0.000   4.434  -0.000   0.000   0.000  -0.000  -3.617  -0.000   0.000  -0.000   0.000   0.000   0.000   0.000   0.000
  0.000   0.000  -0.000   2.213   0.000  -0.000   0.000   0.000  -1.852   0.000   0.000   0.000   0.000   0.000   0.000   0.000
  0.000   0.000   0.000  -0.000   4.434   0.000   0.000   0.000  -0.000  -3.617   0.000   0.000   0.000   0.000   0.000   0.000
 -1.852  -0.000  -0.000  -0.000   0.000   2.901  -0.000   0.000  -0.000   0.000   0.000   0.000   0.000   0.000   0.000   0.000
  0.000  -1.852  -0.000   0.000  -0.000  -0.000   2.901  -0.000   0.000   0.000  -0.000   0.000   0.000   0.000   0.000   0.000
  0.000   0.000  -3.617   0.000   0.000   0.000   0.000   4.110   0.000   0.000   0.000  -0.000   0.000   0.000   0.000   0.000
 -0.000   0.000  -0.000  -1.852  -0.000  -0.000   0.000  -0.000   2.901  -0.000   0.000  -0.000   0.000   0.000   0.000   0.000
 -0.000   0.000   0.000  -0.000  -3.617   0.000   0.000   0.000   0.000   4.110   0.000   0.000   0.000   0.000   0.000   0.000
 -0.000   0.000  -0.000   0.000   0.000   0.000  -0.000   0.000   0.000   0.000   3.025  -0.365   0.000   0.000   0.000   0.000
 -0.000   0.000   0.000   0.000   0.000  -0.000   0.000  -0.000   0.000  -0.000  -0.365   0.051   0.000   0.000   0.000   0.000
  0.000   0.000   0.000   0.000   0.000   0.000   0.000   0.000   0.000   0.000   0.000   0.000   0.423   0.000   0.000  -0.033
  0.000   0.000   0.000   0.000   0.000   0.000   0.000   0.000   0.000   0.000   0.000   0.000   0.000   0.423  -0.000   0.000
  0.000   0.000   0.000   0.000   0.000   0.000   0.000   0.000   0.000   0.000   0.000   0.000   0.000  -0.000   0.423   0.000
  0.000   0.000   0.000   0.000   0.000   0.000   0.000   0.000   0.000   0.000   0.000   0.000  -0.033   0.000  -0.000   0.003
  0.000   0.000   0.000   0.000   0.000   0.000   0.000   0.000   0.000   0.000   0.000   0.000  -0.000  -0.033   0.000   0.000
  0.000   0.000   0.000   0.000   0.000   0.000   0.000   0.000   0.000   0.000   0.000   0.000   0.000   0.000  -0.033   0.000
 total augmentation occupancy for first ion, spin component:           2
  1.102   0.000   0.000   0.000  -0.000  -0.396  -0.000   0.000  -0.000  -0.000  -0.000   0.000   0.000   0.000   0.000   0.000
 -0.000   1.102  -0.000  -0.000   0.000  -0.000  -0.396   0.000   0.000  -0.000  -0.000  -0.000   0.000   0.000   0.000   0.000
  0.000   0.000   2.969   0.000   0.000   0.000  -0.000  -1.449   0.000   0.000   0.000  -0.000   0.000   0.000   0.000   0.000
 -0.000  -0.000   0.000   1.102  -0.000  -0.000  -0.000  -0.000  -0.396   0.000   0.000   0.000   0.000   0.000   0.000   0.000
  0.000   0.000   0.000  -0.000   2.969  -0.000   0.000   0.000   0.000  -1.449   0.000   0.000   0.000   0.000   0.000   0.000
 -0.396   0.000   0.000  -0.000  -0.000  -0.077   0.000   0.000  -0.000   0.000  -0.000  -0.000   0.000   0.000   0.000   0.000
 -0.000  -0.396  -0.000  -0.000   0.000  -0.000  -0.077  -0.000  -0.000   0.000   0.000  -0.000   0.000   0.000   0.000   0.000
  0.000   0.000  -1.449  -0.000   0.000   0.000   0.000   0.511  -0.000   0.000  -0.000   0.000   0.000   0.000   0.000   0.000
 -0.000   0.000   0.000  -0.396   0.000  -0.000   0.000   0.000  -0.077   0.000   0.000   0.000   0.000   0.000   0.000   0.000
 -0.000  -0.000   0.000   0.000  -1.449   0.000  -0.000   0.000   0.000   0.511   0.000  -0.000   0.000   0.000   0.000   0.000
 -0.000   0.000   0.000   0.000   0.000  -0.000   0.000  -0.000   0.000   0.000  -0.205   0.064   0.000   0.000   0.000   0.000
 -0.000  -0.000  -0.000  -0.000   0.000  -0.000  -0.000   0.000   0.000   0.000   0.064  -0.011   0.000   0.000   0.000   0.000
  0.000   0.000   0.000   0.000   0.000   0.000   0.000   0.000   0.000   0.000   0.000   0.000  -0.021   0.000   0.000   0.002
  0.000   0.000   0.000   0.000   0.000   0.000   0.000   0.000   0.000   0.000   0.000   0.000   0.000  -0.021   0.000   0.000
  0.000   0.000   0.000   0.000   0.000   0.000   0.000   0.000   0.000   0.000   0.000   0.000   0.000   0.000  -0.021   0.000
  0.000   0.000   0.000   0.000   0.000   0.000   0.000   0.000   0.000   0.000   0.000   0.000   0.002   0.000   0.000  -0.000
  0.000   0.000   0.000   0.000   0.000   0.000   0.000   0.000   0.000   0.000   0.000   0.000   0.000   0.002   0.000   0.000
  0.000   0.000   0.000   0.000   0.000   0.000   0.000   0.000   0.000   0.000   0.000   0.000   0.000   0.000   0.002   0.000


------------------------ aborting loop because EDIFF is reached ----------------------------------------


 


 total charge     
 
# of ion     s       p       d       tot
----------------------------------------
  1        0.613   0.800   6.539   7.952
 


 magnetization (x)
 
# of ion     s       p       d       tot
----------------------------------------
  1       -0.007  -0.037   1.592   1.548
 
    CHARGE:  cpu time    0.0310: real time    0.0273
    FORLOC:  cpu time    0.0000: real time    0.0002
    FORNL :  cpu time    0.0590: real time    0.0576
    STRESS:  cpu time    0.0630: real time    0.1441
    FORCOR:  cpu time    0.0030: real time    0.0060
    FORHAR:  cpu time    0.0010: real time    0.0031
    MIXING:  cpu time    0.0000: real time    0.0014
    OFIELD:  cpu time    0.0000: real time    0.0000

  FORCE on cell =-STRESS in cart. coord.  units (eV):
  Direction    XX          YY          ZZ          XY          YZ          ZX
  --------------------------------------------------------------------------------------
  Alpha Z    76.21351    76.21351    76.21351
  Ewald    -214.99153  -214.99153  -214.99153    -0.00000     0.00000    -0.00000
  Hartree    25.44003    25.44003    25.44003    -0.00000    -0.00000    -0.00000
  E(xc)     -40.48871   -40.48871   -40.48871    -0.00000    -0.00000    -0.00000
  Local      65.25122    65.25122    65.25122    -0.00000    -0.00000    -0.00000
  n-local   -24.82055   -22.89510   -21.71982     1.22910    -1.35390    -2.02576
  augment    37.37163    37.37163    37.37163     0.00000     0.00000     0.00000
  Kinetic    77.19645    77.87230    77.85934    -0.57495     2.40898     1.01615
  Fock        0.00000     0.00000     0.00000     0.00000     0.00000     0.00000
  -------------------------------------------------------------------------------------
  Total       3.29369     3.29369     3.29369     0.00000     0.00000    -0.00000
  in kB     600.48664   600.48664   600.48664     0.00000     0.00000    -0.00000
  external pressure =      600.49 kB  Pullay stress =        0.00 kB


 VOLUME and BASIS-vectors are now :
 -----------------------------------------------------------------------------
  energy-cutoff  :      400.00
  volume of cell :        8.79
      direct lattice vectors                 reciprocal lattice vectors
    -1.300000000  1.300000000  1.300000000     0.000000000  0.384615385  0.384615385
     1.300000000 -1.300000000  1.300000000     0.384615385  0.000000000  0.384615385
     1.300000000  1.300000000 -1.300000000     0.384615385  0.384615385  0.000000000

  length of vectors
     2.251666050  2.251666050  2.251666050     0.543928293  0.543928293  0.543928293


 FORCES acting on ions
    electron-ion (+dipol)            ewald-force                    non-local-force                 convergence-correction
 -----------------------------------------------------------------------------------------------
   0.415E-14 0.319E-14 -.781E-14   -.360E-15 -.313E-15 -.209E-14   0.129E-25 -.129E-25 -.129E-25   0.472E-14 0.698E-14 0.896E-14
 -----------------------------------------------------------------------------------------------
   0.415E-14 0.319E-14 -.781E-14   -.360E-15 -.313E-15 -.209E-14   0.129E-25 -.129E-25 -.129E-25   0.472E-14 0.698E-14 0.896E-14
 
 
 POSITION                                       TOTAL-FORCE (eV/Angst)
 -----------------------------------------------------------------------------------
      0.00000      0.00000      0.00000        -0.000000     -0.000000      0.000000
 -----------------------------------------------------------------------------------
    total drift:                                0.000000      0.000000     -0.000000


--------------------------------------------------------------------------------------------------------



  FREE ENERGIE OF THE ION-ELECTRON SYSTEM (eV)
  ---------------------------------------------------
  free  energy   TOTEN  =        -8.98090033 eV

  energy  without entropy=       -8.98090033  energy(sigma->0) =       -8.98090033
 


--------------------------------------------------------------------------------------------------------


    POTLOK:  cpu time    0.0060: real time    0.0220


--------------------------------------------------------------------------------------------------------


 writing wavefunctions
     LOOP+:  cpu time   38.0232: real time   36.0792
    4ORBIT:  cpu time    0.0000: real time    0.0000
 


 total charge     
 
# of ion     s       p       d       tot
----------------------------------------
  1        0.613   0.800   6.539   7.952
 


 magnetization (x)
 
# of ion     s       p       d       tot
----------------------------------------
  1       -0.007  -0.037   1.592   1.548
 
 BZINTS: Fermi energy:  8.890731;  8.000000 electrons
         Band energy:  45.760917;  BLOECHL correction: -0.116154

 total amount of memory used by VASP on root node    32387. kBytes
========================================================================

   base      :      30000. kBytes
   nonl-proj :        631. kBytes
   fftplans  :        302. kBytes
   grid      :        954. kBytes
   one-center:         31. kBytes
   wavefun   :        469. kBytes
 
  
  
 General timing and accounting informations for this job:
 ========================================================
  
                  Total CPU time used (sec):       38.644
                            User time (sec):       36.367
                          System time (sec):        2.277
                         Elapsed time (sec):       38.232
  
                   Maximum memory used (kb):       34248.
                   Average memory used (kb):           0.
  
                          Minor page faults:        22881
                          Major page faults:            6
                 Voluntary context switches:          502
