 running on    4 total cores
 distrk:  each k-point on    4 cores,    1 groups
 distr:  one band on    1 cores,    4 groups
 using from now: INCAR     
 vasp.5.4.1 24Jun15 (build Jul 19 2016 16:50:41) complex                        
  
 POSCAR found type information on POSCAR  Fe
 POSCAR found :  1 types and       1 ions
 LDA part: xc-table for Ceperly-Alder, standard interpolation
 POSCAR, INCAR and KPOINTS ok, starting setup
 WARNING: small aliasing (wrap around) errors must be expected
 FFT: planning ...
 WAVECAR not read
 entering main loop
       N       E                     dE             d eps       ncg     rms          rms(c)
DAV:   1     0.168411594346E+02    0.16841E+02   -0.35732E+03  1432   0.823E+02
DAV:   2    -0.867417053384E+01   -0.25515E+02   -0.23429E+02  1308   0.124E+02
DAV:   3    -0.920773541902E+01   -0.53356E+00   -0.53147E+00  1468   0.202E+01
DAV:   4    -0.920932562513E+01   -0.15902E-02   -0.15889E-02  1400   0.978E-01
DAV:   5    -0.920933342390E+01   -0.77988E-05   -0.77588E-05  1464   0.710E-02    0.185E+01
DAV:   6    -0.902600077991E+01    0.18333E+00   -0.53324E+00  1412   0.348E+01    0.332E+00
DAV:   7    -0.900171700672E+01    0.24284E-01   -0.81310E-02  1528   0.335E+00    0.192E+00
DAV:   8    -0.898397881296E+01    0.17738E-01   -0.14356E-02  1592   0.119E+00    0.898E-01
DAV:   9    -0.898100947309E+01    0.29693E-02   -0.13232E-03  1600   0.245E-01    0.230E-01
DAV:  10    -0.898083264453E+01    0.17683E-03   -0.27191E-04  1584   0.180E-01    0.297E-02
DAV:  11    -0.898090032424E+01   -0.67680E-04   -0.86532E-06  1548   0.376E-02    0.282E-02
DAV:  12    -0.898092038823E+01   -0.20064E-04   -0.35618E-07   928   0.410E-03    0.737E-03
DAV:  13    -0.898091617895E+01    0.42093E-05   -0.30950E-08   668   0.197E-03    0.523E-03
DAV:  14    -0.898090066612E+01    0.15513E-04   -0.16204E-07   684   0.465E-03    0.716E-04
DAV:  15    -0.898090032681E+01    0.33932E-06   -0.31218E-09   660   0.550E-04
   1 F= -.89809003E+01 E0= -.89809003E+01  d E =0.000000E+00  mag=     1.5906
 writing wavefunctions
