PROCAR lm decomposed
# of k-points:   26         # of bands:  12         # of ions:   1

 k-point    1 :    0.06250000 0.06250000 0.06250000     weight = 0.01562500

band   1 # energy   -0.11445931 # occ.  1.00000000
 
ion      s     py     pz     px    dxy    dyz    dz2    dxz    dx2    tot
  1  0.890  0.033  0.033  0.033  0.004  0.004  0.000  0.004  0.000  1.001
 
band   2 # energy    5.63388770 # occ.  1.00000000
 
ion      s     py     pz     px    dxy    dyz    dz2    dxz    dx2    tot
  1  0.000  0.001  0.002  0.002  0.346  0.434  0.013  0.203  0.012  1.013
 
band   3 # energy    5.63388770 # occ.  1.00000000
 
ion      s     py     pz     px    dxy    dyz    dz2    dxz    dx2    tot
  1  0.000  0.003  0.002  0.001  0.309  0.221  0.012  0.452  0.013  1.013
 
band   4 # energy    6.85551208 # occ.  1.00000000
 
ion      s     py     pz     px    dxy    dyz    dz2    dxz    dx2    tot
  1  0.003  0.006  0.006  0.006  0.328  0.328  0.000  0.328  0.000  1.005
 
band   5 # energy    7.85756535 # occ.  1.00000000
 
ion      s     py     pz     px    dxy    dyz    dz2    dxz    dx2    tot
  1  0.000  0.000  0.000  0.000  0.011  0.002  0.573  0.015  0.370  0.972
 
band   6 # energy    7.85756535 # occ.  1.00100130
 
ion      s     py     pz     px    dxy    dyz    dz2    dxz    dx2    tot
  1  0.000  0.000  0.000  0.000  0.007  0.017  0.370  0.004  0.573  0.972
 
band   7 # energy   33.05867979 # occ.  0.00000000
 
ion      s     py     pz     px    dxy    dyz    dz2    dxz    dx2    tot
  1  0.000  0.019  0.020  0.041  0.084  0.173  0.109  0.082  0.185  0.714
 
band   8 # energy   33.05867979 # occ.  0.00000000
 
ion      s     py     pz     px    dxy    dyz    dz2    dxz    dx2    tot
  1  0.000  0.034  0.034  0.013  0.142  0.053  0.185  0.144  0.109  0.714
 
band   9 # energy   37.21754174 # occ.  0.00000000
 
ion      s     py     pz     px    dxy    dyz    dz2    dxz    dx2    tot
  1  0.000  0.000  0.000  0.000  0.000  0.000  0.000  0.000  0.000  0.000
 
band  10 # energy   39.95480114 # occ.  0.00000000
 
ion      s     py     pz     px    dxy    dyz    dz2    dxz    dx2    tot
  1  0.074  0.159  0.159  0.159  0.273  0.273  0.000  0.273  0.000  1.368
 
band  11 # energy   44.60039139 # occ.  0.00000000
 
ion      s     py     pz     px    dxy    dyz    dz2    dxz    dx2    tot
  1  0.000  0.106  0.016  0.064  0.020  0.080  0.027  0.133  0.183  0.629
 
band  12 # energy   44.60039139 # occ.  0.00000000
 
ion      s     py     pz     px    dxy    dyz    dz2    dxz    dx2    tot
  1  0.000  0.018  0.109  0.060  0.136  0.075  0.183  0.022  0.027  0.629
 

 k-point    2 :    0.18750000 0.06250000 0.06250000     weight = 0.04687500

band   1 # energy    1.71830140 # occ.  1.00000000
 
ion      s     py     pz     px    dxy    dyz    dz2    dxz    dx2    tot
  1  0.656  0.092  0.092  0.029  0.008  0.098  0.006  0.008  0.017  1.004
 
band   2 # energy    5.00401325 # occ.  1.00000000
 
ion      s     py     pz     px    dxy    dyz    dz2    dxz    dx2    tot
  1  0.000  0.004  0.004  0.000  0.490  0.000  0.019  0.490  0.006  1.015
 
band   3 # energy    5.33235004 # occ.  1.00000000
 
ion      s     py     pz     px    dxy    dyz    dz2    dxz    dx2    tot
  1  0.024  0.036  0.036  0.004  0.098  0.551  0.037  0.098  0.112  0.996
 
band   4 # energy    7.75305208 # occ.  1.00000000
 
ion      s     py     pz     px    dxy    dyz    dz2    dxz    dx2    tot
  1  0.002  0.000  0.000  0.000  0.017  0.153  0.197  0.017  0.592  0.979
 
band   5 # energy    8.06466067 # occ.  1.00264953
 
ion      s     py     pz     px    dxy    dyz    dz2    dxz    dx2    tot
  1  0.000  0.000  0.000  0.000  0.015  0.000  0.712  0.015  0.237  0.979
 
band   6 # energy    8.37514154 # occ.  0.74816408
 
ion      s     py     pz     px    dxy    dyz    dz2    dxz    dx2    tot
  1  0.018  0.020  0.020  0.019  0.369  0.178  0.000  0.369  0.000  0.992
 
band   7 # energy   27.75665927 # occ.  0.00000000
 
ion      s     py     pz     px    dxy    dyz    dz2    dxz    dx2    tot
  1  0.047  0.102  0.102  0.034  0.015  0.443  0.066  0.015  0.199  1.022
 
band   8 # energy   30.66309825 # occ.  0.00000000
 
ion      s     py     pz     px    dxy    dyz    dz2    dxz    dx2    tot
  1  0.000  0.097  0.097  0.000  0.202  0.000  0.134  0.202  0.045  0.776
 
band   9 # energy   35.24893020 # occ.  0.00000000
 
ion      s     py     pz     px    dxy    dyz    dz2    dxz    dx2    tot
  1  0.137  0.071  0.071  0.370  0.182  0.021  0.012  0.182  0.036  1.083
 
band  10 # energy   38.17903922 # occ.  0.00000000
 
ion      s     py     pz     px    dxy    dyz    dz2    dxz    dx2    tot
  1  0.000  0.000  0.000  0.000  0.223  0.000  0.017  0.223  0.006  0.470
 
band  11 # energy   44.85973051 # occ.  0.00000000
 
ion      s     py     pz     px    dxy    dyz    dz2    dxz    dx2    tot
  1  0.033  0.056  0.056  0.145  0.121  0.275  0.144  0.121  0.433  1.382
 
band  12 # energy   45.22972836 # occ.  0.00000000
 
ion      s     py     pz     px    dxy    dyz    dz2    dxz    dx2    tot
  1  0.000  0.088  0.088  0.000  0.243  0.000  0.000  0.243  0.000  0.663
 

 k-point    3 :    0.31250000 0.06250000 0.06250000     weight = 0.04687500

band   1 # energy    2.66101749 # occ.  1.00000000
 
ion      s     py     pz     px    dxy    dyz    dz2    dxz    dx2    tot
  1  0.260  0.027  0.027  0.027  0.000  0.461  0.050  0.000  0.150  1.003
 
band   2 # energy    4.47566367 # occ.  1.00000000
 
ion      s     py     pz     px    dxy    dyz    dz2    dxz    dx2    tot
  1  0.000  0.006  0.006  0.000  0.500  0.000  0.006  0.500  0.002  1.021
 
band   3 # energy    6.47485416 # occ.  1.00000000
 
ion      s     py     pz     px    dxy    dyz    dz2    dxz    dx2    tot
  1  0.111  0.204  0.204  0.000  0.147  0.082  0.024  0.147  0.072  0.990
 
band   4 # energy    7.97408650 # occ.  1.00000000
 
ion      s     py     pz     px    dxy    dyz    dz2    dxz    dx2    tot
  1  0.005  0.002  0.002  0.001  0.013  0.291  0.165  0.013  0.496  0.989
 
band   5 # energy    8.23614067 # occ.  0.99488805
 
ion      s     py     pz     px    dxy    dyz    dz2    dxz    dx2    tot
  1  0.000  0.000  0.000  0.000  0.005  0.000  0.733  0.005  0.244  0.987
 
band   6 # energy   10.33716433 # occ. -0.04804119
 
ion      s     py     pz     px    dxy    dyz    dz2    dxz    dx2    tot
  1  0.045  0.081  0.081  0.015  0.337  0.095  0.001  0.337  0.002  0.993
 
band   7 # energy   22.07221513 # occ.  0.00000000
 
ion      s     py     pz     px    dxy    dyz    dz2    dxz    dx2    tot
  1  0.223  0.106  0.106  0.020  0.006  0.455  0.040  0.006  0.119  1.081
 
band   8 # energy   28.65114790 # occ.  0.00000000
 
ion      s     py     pz     px    dxy    dyz    dz2    dxz    dx2    tot
  1  0.000  0.133  0.133  0.000  0.176  0.000  0.038  0.176  0.013  0.669
 
band   9 # energy   32.27465966 # occ.  0.00000000
 
ion      s     py     pz     px    dxy    dyz    dz2    dxz    dx2    tot
  1  0.140  0.013  0.013  0.557  0.063  0.008  0.018  0.063  0.054  0.929
 
band  10 # energy   38.24551307 # occ.  0.00000000
 
ion      s     py     pz     px    dxy    dyz    dz2    dxz    dx2    tot
  1  0.000  0.002  0.002  0.000  0.560  0.000  0.007  0.560  0.002  1.132
 
band  11 # energy   44.13355541 # occ.  0.00000000
 
ion      s     py     pz     px    dxy    dyz    dz2    dxz    dx2    tot
  1  0.110  0.028  0.028  0.123  0.031  0.027  0.224  0.031  0.672  1.274
 
band  12 # energy   48.81517399 # occ.  0.00000000
 
ion      s     py     pz     px    dxy    dyz    dz2    dxz    dx2    tot
  1  0.075  0.012  0.010  0.016  0.006  0.330  0.006  0.005  0.017  0.476
 

 k-point    4 :    0.43750000 0.06250000 0.06250000     weight = 0.02343750

band   1 # energy    2.57512728 # occ.  1.00000000
 
ion      s     py     pz     px    dxy    dyz    dz2    dxz    dx2    tot
  1  0.162  0.000  0.000  0.026  0.000  0.537  0.069  0.000  0.208  1.003
 
band   2 # energy    4.27535557 # occ.  1.00000000
 
ion      s     py     pz     px    dxy    dyz    dz2    dxz    dx2    tot
  1  0.000  0.007  0.007  0.000  0.505  0.000  0.000  0.505  0.000  1.025
 
band   3 # energy    7.78851858 # occ.  1.00000000
 
ion      s     py     pz     px    dxy    dyz    dz2    dxz    dx2    tot
  1  0.000  0.256  0.256  0.000  0.240  0.000  0.000  0.240  0.000  0.992
 
band   4 # energy    8.08565588 # occ.  1.00000000
 
ion      s     py     pz     px    dxy    dyz    dz2    dxz    dx2    tot
  1  0.015  0.000  0.000  0.001  0.000  0.300  0.169  0.000  0.507  0.992
 
band   5 # energy    8.30928708 # occ.  0.92402529
 
ion      s     py     pz     px    dxy    dyz    dz2    dxz    dx2    tot
  1  0.000  0.000  0.000  0.000  0.000  0.000  0.743  0.000  0.248  0.991
 
band   6 # energy   11.80196084 # occ. -0.00154191
 
ion      s     py     pz     px    dxy    dyz    dz2    dxz    dx2    tot
  1  0.000  0.222  0.222  0.000  0.273  0.000  0.000  0.273  0.000  0.989
 
band   7 # energy   18.89999133 # occ.  0.00000000
 
ion      s     py     pz     px    dxy    dyz    dz2    dxz    dx2    tot
  1  0.428  0.000  0.000  0.024  0.000  0.509  0.033  0.000  0.099  1.093
 
band   8 # energy   27.87233299 # occ.  0.00000000
 
ion      s     py     pz     px    dxy    dyz    dz2    dxz    dx2    tot
  1  0.000  0.145  0.145  0.000  0.164  0.000  0.000  0.164  0.000  0.618
 
band   9 # energy   31.15087341 # occ.  0.00000000
 
ion      s     py     pz     px    dxy    dyz    dz2    dxz    dx2    tot
  1  0.136  0.000  0.000  0.634  0.000  0.023  0.017  0.000  0.051  0.861
 
band  10 # energy   38.18656917 # occ.  0.00000000
 
ion      s     py     pz     px    dxy    dyz    dz2    dxz    dx2    tot
  1  0.000  0.002  0.002  0.000  0.672  0.000  0.000  0.672  0.000  1.348
 
band  11 # energy   44.16644865 # occ.  0.00000000
 
ion      s     py     pz     px    dxy    dyz    dz2    dxz    dx2    tot
  1  0.170  0.000  0.000  0.117  0.000  0.001  0.269  0.000  0.806  1.361
 
band  12 # energy   48.19362140 # occ.  0.00000000
 
ion      s     py     pz     px    dxy    dyz    dz2    dxz    dx2    tot
  1  0.000  0.045  0.045  0.000  0.011  0.000  0.000  0.011  0.000  0.112
 

 k-point    5 :   -0.06250000 0.06250000 0.06250000     weight = 0.01171875

band   1 # energy   -0.86396877 # occ.  1.00000000
 
ion      s     py     pz     px    dxy    dyz    dz2    dxz    dx2    tot
  1  0.963  0.000  0.000  0.036  0.000  0.000  0.000  0.000  0.001  1.000
 
band   2 # energy    5.95258995 # occ.  1.00000000
 
ion      s     py     pz     px    dxy    dyz    dz2    dxz    dx2    tot
  1  0.000  0.002  0.002  0.000  0.506  0.000  0.000  0.506  0.000  1.017
 
band   3 # energy    5.95259001 # occ.  1.00000000
 
ion      s     py     pz     px    dxy    dyz    dz2    dxz    dx2    tot
  1  0.000  0.002  0.002  0.000  0.506  0.000  0.000  0.506  0.000  1.017
 
band   4 # energy    6.08702365 # occ.  1.00000000
 
ion      s     py     pz     px    dxy    dyz    dz2    dxz    dx2    tot
  1  0.000  0.000  0.000  0.000  0.000  1.015  0.000  0.000  0.000  1.015
 
band   5 # energy    7.73239350 # occ.  1.00000000
 
ion      s     py     pz     px    dxy    dyz    dz2    dxz    dx2    tot
  1  0.000  0.000  0.000  0.000  0.000  0.000  0.725  0.000  0.242  0.967
 
band   6 # energy    8.06217956 # occ.  1.00000000
 
ion      s     py     pz     px    dxy    dyz    dz2    dxz    dx2    tot
  1  0.001  0.000  0.000  0.000  0.000  0.000  0.244  0.000  0.731  0.976
 
band   7 # energy   34.56057791 # occ.  0.00000000
 
ion      s     py     pz     px    dxy    dyz    dz2    dxz    dx2    tot
  1  0.000  0.000  0.000  0.000  0.000  0.000  0.256  0.000  0.085  0.341
 
band   8 # energy   36.13037530 # occ.  0.00000000
 
ion      s     py     pz     px    dxy    dyz    dz2    dxz    dx2    tot
  1  0.000  0.004  0.004  0.000  0.120  0.000  0.000  0.120  0.000  0.249
 
band   9 # energy   36.13037530 # occ.  0.00000000
 
ion      s     py     pz     px    dxy    dyz    dz2    dxz    dx2    tot
  1  0.000  0.004  0.004  0.000  0.120  0.000  0.000  0.120  0.000  0.249
 
band  10 # energy   41.19955523 # occ.  0.00000000
 
ion      s     py     pz     px    dxy    dyz    dz2    dxz    dx2    tot
  1  0.012  0.000  0.000  0.204  0.000  0.000  0.144  0.000  0.432  0.793
 
band  11 # energy   44.85067786 # occ.  0.00000000
 
ion      s     py     pz     px    dxy    dyz    dz2    dxz    dx2    tot
  1  0.000  0.017  0.391  0.000  0.048  0.000  0.000  1.086  0.000  1.542
 
band  12 # energy   44.85067789 # occ.  0.00000000
 
ion      s     py     pz     px    dxy    dyz    dz2    dxz    dx2    tot
  1  0.000  0.391  0.017  0.000  1.086  0.000  0.000  0.048  0.000  1.542
 

 k-point    6 :    0.18750000 0.18750000 0.06250000     weight = 0.04687500

band   1 # energy    3.30372983 # occ.  1.00000000
 
ion      s     py     pz     px    dxy    dyz    dz2    dxz    dx2    tot
  1  0.343  0.064  0.084  0.064  0.008  0.195  0.054  0.195  0.000  1.007
 
band   2 # energy    4.58531564 # occ.  1.00000000
 
ion      s     py     pz     px    dxy    dyz    dz2    dxz    dx2    tot
  1  0.000  0.036  0.000  0.036  0.000  0.363  0.000  0.363  0.200  0.999
 
band   3 # energy    4.93584977 # occ.  1.00000000
 
ion      s     py     pz     px    dxy    dyz    dz2    dxz    dx2    tot
  1  0.062  0.009  0.125  0.009  0.681  0.060  0.004  0.060  0.000  1.011
 
band   4 # energy    7.88139016 # occ.  1.00000000
 
ion      s     py     pz     px    dxy    dyz    dz2    dxz    dx2    tot
  1  0.000  0.001  0.000  0.001  0.000  0.111  0.000  0.111  0.759  0.983
 
band   5 # energy    8.28162445 # occ.  1.00514491
 
ion      s     py     pz     px    dxy    dyz    dz2    dxz    dx2    tot
  1  0.007  0.000  0.001  0.000  0.000  0.035  0.910  0.035  0.000  0.989
 
band   6 # energy   10.65029431 # occ. -0.06505258
 
ion      s     py     pz     px    dxy    dyz    dz2    dxz    dx2    tot
  1  0.069  0.045  0.083  0.045  0.313  0.212  0.019  0.212  0.000  0.997
 
band   7 # energy   24.90531623 # occ.  0.00000000
 
ion      s     py     pz     px    dxy    dyz    dz2    dxz    dx2    tot
  1  0.000  0.173  0.000  0.173  0.000  0.244  0.000  0.244  0.218  1.053
 
band   8 # energy   26.12884327 # occ.  0.00000000
 
ion      s     py     pz     px    dxy    dyz    dz2    dxz    dx2    tot
  1  0.161  0.003  0.271  0.003  0.146  0.158  0.043  0.158  0.000  0.942
 
band   9 # energy   31.01817808 # occ.  0.00000000
 
ion      s     py     pz     px    dxy    dyz    dz2    dxz    dx2    tot
  1  0.204  0.227  0.000  0.227  0.211  0.000  0.036  0.000  0.000  0.906
 
band  10 # energy   40.45681309 # occ.  0.00000000
 
ion      s     py     pz     px    dxy    dyz    dz2    dxz    dx2    tot
  1  0.000  0.010  0.000  0.010  0.000  0.130  0.000  0.130  0.131  0.412
 
band  11 # energy   45.66456645 # occ.  0.00000000
 
ion      s     py     pz     px    dxy    dyz    dz2    dxz    dx2    tot
  1  0.019  0.017  0.018  0.017  0.593  0.224  0.015  0.224  0.000  1.127
 
band  12 # energy   48.50552545 # occ.  0.00000000
 
ion      s     py     pz     px    dxy    dyz    dz2    dxz    dx2    tot
  1  0.000  0.095  0.000  0.095  0.000  0.125  0.000  0.125  0.527  0.966
 

 k-point    7 :    0.31250000 0.18750000 0.06250000     weight = 0.09375000

band   1 # energy    3.45766345 # occ.  1.00000000
 
ion      s     py     pz     px    dxy    dyz    dz2    dxz    dx2    tot
  1  0.113  0.002  0.006  0.074  0.044  0.563  0.056  0.045  0.104  1.008
 
band   2 # energy    4.34624366 # occ.  1.00000000
 
ion      s     py     pz     px    dxy    dyz    dz2    dxz    dx2    tot
  1  0.000  0.038  0.017  0.021  0.340  0.028  0.001  0.495  0.074  1.014
 
band   3 # energy    5.86126521 # occ.  1.00000000
 
ion      s     py     pz     px    dxy    dyz    dz2    dxz    dx2    tot
  1  0.029  0.141  0.197  0.001  0.356  0.008  0.072  0.142  0.051  0.997
 
band   4 # energy    8.10539301 # occ.  1.00000000
 
ion      s     py     pz     px    dxy    dyz    dz2    dxz    dx2    tot
  1  0.003  0.002  0.000  0.003  0.000  0.213  0.046  0.047  0.675  0.989
 
band   5 # energy    8.41916327 # occ.  0.99799338
 
ion      s     py     pz     px    dxy    dyz    dz2    dxz    dx2    tot
  1  0.005  0.005  0.008  0.000  0.047  0.015  0.789  0.072  0.052  0.993
 
band   6 # energy   13.57485639 # occ. -0.00084565
 
ion      s     py     pz     px    dxy    dyz    dz2    dxz    dx2    tot
  1  0.060  0.151  0.221  0.023  0.236  0.076  0.036  0.204  0.000  1.008
 
band   7 # energy   20.12598781 # occ.  0.00000000
 
ion      s     py     pz     px    dxy    dyz    dz2    dxz    dx2    tot
  1  0.231  0.125  0.021  0.105  0.012  0.423  0.009  0.027  0.104  1.057
 
band   8 # energy   24.25895341 # occ.  0.00000000
 
ion      s     py     pz     px    dxy    dyz    dz2    dxz    dx2    tot
  1  0.176  0.063  0.131  0.116  0.156  0.000  0.000  0.259  0.035  0.936
 
band   9 # energy   29.30682495 # occ.  0.00000000
 
ion      s     py     pz     px    dxy    dyz    dz2    dxz    dx2    tot
  1  0.190  0.108  0.039  0.300  0.128  0.047  0.013  0.035  0.007  0.867
 
band  10 # energy   41.24704190 # occ.  0.00000000
 
ion      s     py     pz     px    dxy    dyz    dz2    dxz    dx2    tot
  1  0.006  0.003  0.000  0.019  0.207  0.017  0.012  0.328  0.164  0.757
 
band  11 # energy   46.34848221 # occ.  0.00000000
 
ion      s     py     pz     px    dxy    dyz    dz2    dxz    dx2    tot
  1  0.004  0.055  0.005  0.000  0.221  0.079  0.142  0.007  0.103  0.617
 
band  12 # energy   49.58368041 # occ.  0.00000000
 
ion      s     py     pz     px    dxy    dyz    dz2    dxz    dx2    tot
  1  0.064  0.014  0.006  0.161  0.095  0.014  0.306  0.034  0.479  1.173
 

 k-point    8 :   -0.18750000 0.18750000 0.06250000     weight = 0.04687500

band   1 # energy    0.56417089 # occ.  1.00000000
 
ion      s     py     pz     px    dxy    dyz    dz2    dxz    dx2    tot
  1  0.811  0.028  0.000  0.126  0.022  0.000  0.009  0.000  0.007  1.002
 
band   2 # energy    5.53404595 # occ.  1.00000000
 
ion      s     py     pz     px    dxy    dyz    dz2    dxz    dx2    tot
  1  0.000  0.000  0.004  0.000  0.000  0.393  0.000  0.618  0.000  1.015
 
band   3 # energy    5.82497319 # occ.  1.00000000
 
ion      s     py     pz     px    dxy    dyz    dz2    dxz    dx2    tot
  1  0.008  0.023  0.000  0.013  0.835  0.000  0.107  0.000  0.012  0.999
 
band   4 # energy    7.00839239 # occ.  1.00000000
 
ion      s     py     pz     px    dxy    dyz    dz2    dxz    dx2    tot
  1  0.000  0.000  0.012  0.000  0.000  0.610  0.000  0.378  0.000  1.000
 
band   5 # energy    7.33530341 # occ.  1.00000000
 
ion      s     py     pz     px    dxy    dyz    dz2    dxz    dx2    tot
  1  0.000  0.001  0.000  0.000  0.129  0.000  0.655  0.000  0.181  0.965
 
band   6 # energy    8.22628921 # occ.  0.98551318
 
ion      s     py     pz     px    dxy    dyz    dz2    dxz    dx2    tot
  1  0.008  0.000  0.000  0.002  0.005  0.000  0.189  0.000  0.778  0.981
 
band   7 # energy   30.62520971 # occ.  0.00000000
 
ion      s     py     pz     px    dxy    dyz    dz2    dxz    dx2    tot
  1  0.017  0.095  0.000  0.036  0.346  0.000  0.382  0.000  0.037  0.913
 
band   8 # energy   33.93983068 # occ.  0.00000000
 
ion      s     py     pz     px    dxy    dyz    dz2    dxz    dx2    tot
  1  0.020  0.000  0.000  0.115  0.125  0.000  0.027  0.000  0.208  0.494
 
band   9 # energy   35.56076175 # occ.  0.00000000
 
ion      s     py     pz     px    dxy    dyz    dz2    dxz    dx2    tot
  1  0.000  0.000  0.103  0.000  0.000  0.074  0.000  0.779  0.000  0.955
 
band  10 # energy   40.54969920 # occ.  0.00000000
 
ion      s     py     pz     px    dxy    dyz    dz2    dxz    dx2    tot
  1  0.008  0.150  0.000  0.105  0.320  0.000  0.086  0.000  0.015  0.684
 
band  11 # energy   41.42034430 # occ.  0.00000000
 
ion      s     py     pz     px    dxy    dyz    dz2    dxz    dx2    tot
  1  0.000  0.000  0.425  0.000  0.000  0.624  0.000  0.136  0.000  1.185
 
band  12 # energy   42.98752296 # occ.  0.00000000
 
ion      s     py     pz     px    dxy    dyz    dz2    dxz    dx2    tot
  1  0.094  0.231  0.000  0.097  0.131  0.000  0.190  0.000  0.002  0.745
 

 k-point    9 :    0.31250000 0.31250000 0.06250000     weight = 0.01562500

band   1 # energy    3.84252404 # occ.  1.00000000
 
ion      s     py     pz     px    dxy    dyz    dz2    dxz    dx2    tot
  1  0.054  0.012  0.012  0.012  0.310  0.310  0.000  0.310  0.000  1.021
 
band   2 # energy    4.91944423 # occ.  1.00000000
 
ion      s     py     pz     px    dxy    dyz    dz2    dxz    dx2    tot
  1  0.000  0.040  0.159  0.040  0.367  0.092  0.209  0.092  0.000  0.999
 
band   3 # energy    4.91944427 # occ.  1.00000000
 
ion      s     py     pz     px    dxy    dyz    dz2    dxz    dx2    tot
  1  0.000  0.119  0.000  0.119  0.000  0.276  0.000  0.276  0.209  0.999
 
band   4 # energy    8.32322515 # occ.  1.00000000
 
ion      s     py     pz     px    dxy    dyz    dz2    dxz    dx2    tot
  1  0.000  0.002  0.007  0.002  0.157  0.039  0.746  0.039  0.000  0.992
 
band   5 # energy    8.32322517 # occ.  1.03076015
 
ion      s     py     pz     px    dxy    dyz    dz2    dxz    dx2    tot
  1  0.000  0.005  0.000  0.005  0.000  0.117  0.000  0.117  0.746  0.992
 
band   6 # energy   17.63195179 # occ.  0.00000000
 
ion      s     py     pz     px    dxy    dyz    dz2    dxz    dx2    tot
  1  0.000  0.085  0.340  0.085  0.292  0.073  0.086  0.073  0.000  1.034
 
band   7 # energy   17.63195181 # occ.  0.00000000
 
ion      s     py     pz     px    dxy    dyz    dz2    dxz    dx2    tot
  1  0.000  0.255  0.000  0.255  0.000  0.219  0.000  0.219  0.086  1.034
 
band   8 # energy   21.20651100 # occ.  0.00000000
 
ion      s     py     pz     px    dxy    dyz    dz2    dxz    dx2    tot
  1  0.573  0.004  0.004  0.004  0.126  0.126  0.000  0.126  0.000  0.964
 
band   9 # energy   28.73276511 # occ.  0.00000000
 
ion      s     py     pz     px    dxy    dyz    dz2    dxz    dx2    tot
  1  0.183  0.138  0.138  0.138  0.105  0.105  0.000  0.105  0.000  0.910
 
band  10 # energy   43.98649578 # occ.  0.00000000
 
ion      s     py     pz     px    dxy    dyz    dz2    dxz    dx2    tot
  1  0.000  0.009  0.034  0.008  0.108  0.027  0.345  0.027  0.000  0.558
 
band  11 # energy   43.98649578 # occ.  0.00000000
 
ion      s     py     pz     px    dxy    dyz    dz2    dxz    dx2    tot
  1  0.000  0.025  0.000  0.025  0.000  0.081  0.000  0.080  0.345  0.558
 
band  12 # energy   53.50493235 # occ.  0.00000000
 
ion      s     py     pz     px    dxy    dyz    dz2    dxz    dx2    tot
  1  0.013  0.068  0.068  0.068  0.490  0.490  0.000  0.490  0.000  1.686
 

 k-point   10 :   -0.31250000 0.31250000 0.06250000     weight = 0.04687500

band   1 # energy    2.24074686 # occ.  1.00000000
 
ion      s     py     pz     px    dxy    dyz    dz2    dxz    dx2    tot
  1  0.450  0.033  0.000  0.121  0.263  0.000  0.126  0.000  0.009  1.003
 
band   2 # energy    4.92478016 # occ.  1.00000000
 
ion      s     py     pz     px    dxy    dyz    dz2    dxz    dx2    tot
  1  0.000  0.000  0.004  0.000  0.000  0.460  0.000  0.554  0.000  1.018
 
band   3 # energy    5.94313270 # occ.  1.00000000
 
ion      s     py     pz     px    dxy    dyz    dz2    dxz    dx2    tot
  1  0.094  0.116  0.000  0.130  0.250  0.000  0.243  0.000  0.141  0.974
 
band   4 # energy    7.63479250 # occ.  1.00000000
 
ion      s     py     pz     px    dxy    dyz    dz2    dxz    dx2    tot
  1  0.001  0.016  0.000  0.018  0.438  0.000  0.479  0.000  0.034  0.986
 
band   5 # energy    8.49426179 # occ.  0.95520684
 
ion      s     py     pz     px    dxy    dyz    dz2    dxz    dx2    tot
  1  0.041  0.012  0.000  0.027  0.001  0.000  0.108  0.000  0.800  0.989
 
band   6 # energy    8.53623398 # occ.  0.49089169
 
ion      s     py     pz     px    dxy    dyz    dz2    dxz    dx2    tot
  1  0.000  0.000  0.016  0.000  0.000  0.539  0.000  0.433  0.000  0.989
 
band   7 # energy   24.82130443 # occ.  0.00000000
 
ion      s     py     pz     px    dxy    dyz    dz2    dxz    dx2    tot
  1  0.134  0.171  0.000  0.087  0.457  0.000  0.222  0.000  0.012  1.085
 
band   8 # energy   31.13010373 # occ.  0.00000000
 
ion      s     py     pz     px    dxy    dyz    dz2    dxz    dx2    tot
  1  0.023  0.051  0.000  0.135  0.012  0.000  0.084  0.000  0.113  0.417
 
band   9 # energy   34.01899031 # occ.  0.00000000
 
ion      s     py     pz     px    dxy    dyz    dz2    dxz    dx2    tot
  1  0.000  0.000  0.393  0.000  0.000  0.055  0.000  0.787  0.000  1.235
 
band  10 # energy   38.83745448 # occ.  0.00000000
 
ion      s     py     pz     px    dxy    dyz    dz2    dxz    dx2    tot
  1  0.000  0.000  0.276  0.000  0.000  0.844  0.000  0.116  0.000  1.236
 
band  11 # energy   41.26845107 # occ.  0.00000000
 
ion      s     py     pz     px    dxy    dyz    dz2    dxz    dx2    tot
  1  0.063  0.248  0.000  0.000  0.122  0.000  0.581  0.000  0.017  1.032
 
band  12 # energy   44.09187598 # occ.  0.00000000
 
ion      s     py     pz     px    dxy    dyz    dz2    dxz    dx2    tot
  1  0.156  0.001  0.000  0.067  0.159  0.000  0.151  0.000  0.117  0.651
 

 k-point   11 :   -0.18750000 0.31250000 0.06250000     weight = 0.04687500

band   1 # energy    2.19074021 # occ.  1.00000000
 
ion      s     py     pz     px    dxy    dyz    dz2    dxz    dx2    tot
  1  0.567  0.018  0.018  0.205  0.055  0.000  0.021  0.055  0.062  1.002
 
band   2 # energy    5.19120005 # occ.  1.00000000
 
ion      s     py     pz     px    dxy    dyz    dz2    dxz    dx2    tot
  1  0.000  0.019  0.019  0.000  0.294  0.000  0.265  0.294  0.088  0.980
 
band   3 # energy    5.51851385 # occ.  1.00000000
 
ion      s     py     pz     px    dxy    dyz    dz2    dxz    dx2    tot
  1  0.018  0.008  0.008  0.040  0.222  0.490  0.000  0.222  0.001  1.009
 
band   4 # energy    7.11839849 # occ.  1.00000000
 
ion      s     py     pz     px    dxy    dyz    dz2    dxz    dx2    tot
  1  0.000  0.003  0.003  0.000  0.189  0.000  0.442  0.189  0.147  0.973
 
band   5 # energy    8.15968925 # occ.  1.01034079
 
ion      s     py     pz     px    dxy    dyz    dz2    dxz    dx2    tot
  1  0.000  0.009  0.009  0.005  0.187  0.410  0.046  0.187  0.139  0.990
 
band   6 # energy    8.75533266 # occ.  0.50387650
 
ion      s     py     pz     px    dxy    dyz    dz2    dxz    dx2    tot
  1  0.062  0.008  0.008  0.036  0.025  0.097  0.183  0.025  0.548  0.993
 
band   7 # energy   27.71545673 # occ.  0.00000000
 
ion      s     py     pz     px    dxy    dyz    dz2    dxz    dx2    tot
  1  0.000  0.116  0.116  0.000  0.184  0.000  0.346  0.184  0.115  1.061
 
band   8 # energy   29.25377609 # occ.  0.00000000
 
ion      s     py     pz     px    dxy    dyz    dz2    dxz    dx2    tot
  1  0.129  0.048  0.048  0.182  0.230  0.035  0.004  0.230  0.012  0.918
 
band   9 # energy   35.78393126 # occ.  0.00000000
 
ion      s     py     pz     px    dxy    dyz    dz2    dxz    dx2    tot
  1  0.000  0.054  0.054  0.000  0.246  0.000  0.205  0.246  0.068  0.873
 
band  10 # energy   37.13107618 # occ.  0.00000000
 
ion      s     py     pz     px    dxy    dyz    dz2    dxz    dx2    tot
  1  0.003  0.236  0.236  0.038  0.068  0.100  0.004  0.068  0.013  0.766
 
band  11 # energy   41.12634206 # occ.  0.00000000
 
ion      s     py     pz     px    dxy    dyz    dz2    dxz    dx2    tot
  1  0.104  0.008  0.008  0.052  0.134  0.538  0.018  0.134  0.053  1.050
 
band  12 # energy   46.31971609 # occ.  0.00000000
 
ion      s     py     pz     px    dxy    dyz    dz2    dxz    dx2    tot
  1  0.000  0.174  0.174  0.000  0.004  0.000  0.174  0.004  0.058  0.588
 

 k-point   12 :   -0.43750000 0.43750000 0.06250000     weight = 0.04687500

band   1 # energy    2.43599293 # occ.  1.00000000
 
ion      s     py     pz     px    dxy    dyz    dz2    dxz    dx2    tot
  1  0.193  0.000  0.000  0.022  0.476  0.000  0.308  0.000  0.001  0.999
 
band   2 # energy    4.51829838 # occ.  1.00000000
 
ion      s     py     pz     px    dxy    dyz    dz2    dxz    dx2    tot
  1  0.000  0.000  0.004  0.000  0.000  0.495  0.000  0.523  0.000  1.022
 
band   3 # energy    7.09037775 # occ.  1.00000000
 
ion      s     py     pz     px    dxy    dyz    dz2    dxz    dx2    tot
  1  0.027  0.137  0.000  0.148  0.000  0.000  0.084  0.000  0.577  0.973
 
band   4 # energy    7.92609416 # occ.  1.00000000
 
ion      s     py     pz     px    dxy    dyz    dz2    dxz    dx2    tot
  1  0.011  0.010  0.000  0.009  0.356  0.000  0.553  0.000  0.051  0.990
 
band   5 # energy    9.78437842 # occ. -0.07836432
 
ion      s     py     pz     px    dxy    dyz    dz2    dxz    dx2    tot
  1  0.000  0.000  0.003  0.000  0.000  0.512  0.000  0.478  0.000  0.994
 
band   6 # energy    9.87957758 # occ. -0.00480339
 
ion      s     py     pz     px    dxy    dyz    dz2    dxz    dx2    tot
  1  0.049  0.242  0.000  0.292  0.040  0.000  0.007  0.000  0.370  0.999
 
band   7 # energy   19.83384483 # occ.  0.00000000
 
ion      s     py     pz     px    dxy    dyz    dz2    dxz    dx2    tot
  1  0.362  0.085  0.000  0.019  0.478  0.000  0.153  0.000  0.004  1.100
 
band   8 # energy   29.45620106 # occ.  0.00000000
 
ion      s     py     pz     px    dxy    dyz    dz2    dxz    dx2    tot
  1  0.020  0.104  0.000  0.127  0.005  0.000  0.089  0.000  0.013  0.358
 
band   9 # energy   32.25441685 # occ.  0.00000000
 
ion      s     py     pz     px    dxy    dyz    dz2    dxz    dx2    tot
  1  0.000  0.000  0.626  0.000  0.000  0.090  0.000  0.326  0.000  1.042
 
band  10 # energy   38.00036093 # occ.  0.00000000
 
ion      s     py     pz     px    dxy    dyz    dz2    dxz    dx2    tot
  1  0.000  0.000  0.153  0.000  0.000  0.812  0.000  0.567  0.000  1.532
 
band  11 # energy   41.95049401 # occ.  0.00000000
 
ion      s     py     pz     px    dxy    dyz    dz2    dxz    dx2    tot