<?xml version="1.0" encoding="ISO-8859-1"?>
<modeling>
 <generator>
  <i name="program" type="string">vasp </i>
  <i name="version" type="string">5.4.1  </i>
  <i name="subversion" type="string">24Jun15 (build Jul 19 2016 16:50:41) complex                          parallel </i>
  <i name="platform" type="string">IFC91_ompi </i>
  <i name="date" type="string">2019 10 17 </i>
  <i name="time" type="string">12:21:23 </i>
 </generator>
 <incar>
  <i type="string" name="SYSTEM"> Fe BCC</i>
  <i type="string" name="PREC">accurate</i>
  <i type="int" name="ISPIN">     2</i>
  <i name="EDIFF">      0.00000100</i>
  <i name="ENMAX">    400.00000000</i>
  <v name="MAGMOM">      4.00000000</v>
  <i type="int" name="ISMEAR">    -5</i>
  <i type="logical" name="LORBIT"> F  </i>
  <v type="int" name="KPOINT_BSE">    -1     0     0     0</v>
 </incar>
 <kpoints>
  <generation param="Monkhorst-Pack">
   <v type="int" name="divisions">       8        8        8 </v>
   <v name="usershift">      0.00000000       0.00000000       0.00000000 </v>
   <v name="genvec1">      0.12500000       0.00000000       0.00000000 </v>
   <v name="genvec2">      0.00000000       0.12500000       0.00000000 </v>
   <v name="genvec3">      0.00000000       0.00000000       0.12500000 </v>
   <v name="shift">      0.50000000       0.50000000       0.50000000 </v>
  </generation>
  <varray name="kpointlist" >
   <v>       0.06250000       0.06250000       0.06250000 </v>
   <v>       0.18750000       0.06250000       0.06250000 </v>
   <v>       0.31250000       0.06250000       0.06250000 </v>
   <v>       0.43750000       0.06250000       0.06250000 </v>
   <v>      -0.06250000       0.06250000       0.06250000 </v>
   <v>       0.18750000       0.18750000       0.06250000 </v>
   <v>       0.31250000       0.18750000       0.06250000 </v>
   <v>      -0.18750000       0.18750000       0.06250000 </v>
   <v>       0.31250000       0.31250000       0.06250000 </v>
   <v>      -0.31250000       0.31250000       0.06250000 </v>
   <v>      -0.18750000       0.31250000       0.06250000 </v>
   <v>      -0.43750000       0.43750000       0.06250000 </v>
   <v>      -0.31250000       0.43750000       0.06250000 </v>
   <v>      -0.43750000      -0.43750000       0.06250000 </v>
   <v>      -0.31250000      -0.43750000       0.06250000 </v>
   <v>       0.18750000       0.18750000       0.18750000 </v>
   <v>       0.31250000       0.18750000       0.18750000 </v>
   <v>      -0.18750000       0.18750000       0.18750000 </v>
   <v>      -0.31250000       0.31250000       0.18750000 </v>
   <v>      -0.43750000       0.43750000       0.18750000 </v>
   <v>      -0.31250000       0.43750000       0.18750000 </v>
   <v>      -0.43750000      -0.43750000       0.18750000 </v>
   <v>      -0.31250000       0.31250000       0.31250000 </v>
   <v>      -0.43750000       0.43750000       0.31250000 </v>
   <v>      -0.43750000      -0.43750000       0.31250000 </v>
   <v>      -0.43750000       0.43750000       0.43750000 </v>
  </varray>
  <varray name="weights" >
   <v>       0.01562500 </v>
   <v>       0.04687500 </v>
   <v>       0.04687500 </v>
   <v>       0.02343750 </v>
   <v>       0.01171875 </v>
   <v>       0.04687500 </v>
   <v>       0.09375000 </v>
   <v>       0.04687500 </v>
   <v>       0.01562500 </v>
   <v>       0.04687500 </v>
   <v>       0.04687500 </v>
   <v>       0.04687500 </v>
   <v>       0.09375000 </v>
   <v>       0.04687500 </v>
   <v>       0.04687500 </v>
   <v>       0.01562500 </v>
   <v>       0.02343750 </v>
   <v>       0.01171875 </v>
   <v>       0.04687500 </v>
   <v>       0.04687500 </v>
   <v>       0.04687500 </v>
   <v>       0.04687500 </v>
   <v>       0.01171875 </v>
   <v>       0.04687500 </v>
   <v>       0.01562500 </v>
   <v>       0.01171875 </v>
  </varray>
  <varray name="tetrahedronlist"  type="int" >
   <v type="int" >        4        1        2        2        6 </v>
   <v type="int" >        8        2        2        6        6 </v>
   <v type="int" >        4        2        6        6       16 </v>
   <v type="int" >        4        2        3        6        7 </v>
   <v type="int" >        4        2        6        6        7 </v>
   <v type="int" >       12        6        6        7       16 </v>
   <v type="int" >        8        3        6        7        7 </v>
   <v type="int" >        8        6        7        7       17 </v>
   <v type="int" >        8        6        7       16       17 </v>
   <v type="int" >        4        3        4        7        7 </v>
   <v type="int" >        4        3        7        7        7 </v>
   <v type="int" >       16        7        7        7       17 </v>
   <v type="int" >        8        4        7        7        7 </v>
   <v type="int" >        4        7        7        7       16 </v>
   <v type="int" >       20        7        7       16       17 </v>
   <v type="int" >        4        3        4        6        7 </v>
   <v type="int" >        4        4        6        7        7 </v>
   <v type="int" >       16        6        7        7       16 </v>
   <v type="int" >        8        3        6        6        7 </v>
   <v type="int" >        4        6        6        6        7 </v>
   <v type="int" >        4        2        2        3        6 </v>
   <v type="int" >        8        2        3        6        6 </v>
   <v type="int" >        4        2        6        6        6 </v>
   <v type="int" >        4        2        2        2        6 </v>
   <v type="int" >        8        2        2        6       11 </v>
   <v type="int" >        4        2        6        6       11 </v>
   <v type="int" >       16        1        2        2        8 </v>
   <v type="int" >        4        2        2        2        8 </v>
   <v type="int" >       12        2        2        8       11 </v>
   <v type="int" >       16        1        2        8        8 </v>
   <v type="int" >        4        2        8        8       18 </v>
   <v type="int" >        4        2        8       11       18 </v>
   <v type="int" >       20        1        5        8        8 </v>
   <v type="int" >        4        1        8        8        8 </v>
   <v type="int" >        4        8        8        8       18 </v>
   <v type="int" >        8        5        8        8        8 </v>
   <v type="int" >        4        8        8        8       11 </v>
   <v type="int" >        4        8        8       11       18 </v>
   <v type="int" >        8        1        2        5        8 </v>
   <v type="int" >        8        2        5        8        8 </v>
   <v type="int" >        8        2        8        8       11 </v>
   <v type="int" >        4        2        2        6        8 </v>
   <v type="int" >        4        2        6        8       11 </v>
   <v type="int" >        4        6        7        9       16 </v>
   <v type="int" >       16        7        9       16       17 </v>
   <v type="int" >       12        9       16       17       17 </v>
   <v type="int" >       20        7        7        9       17 </v>
   <v type="int" >       12        7        9       17       17 </v>
   <v type="int" >        8        7        7       17       17 </v>
   <v type="int" >       12        3        6        7       16 </v>
   <v type="int" >        8        3        7        7       16 </v>
   <v type="int" >        8        3        6        6       16 </v>
   <v type="int" >        4        3        6       13       16 </v>
   <v type="int" >        4        3        7       13       16 </v>
   <v type="int" >        4        2        6        6       10 </v>
   <v type="int" >        4        3        6        6       10 </v>
   <v type="int" >        8        3        6       10       13 </v>
   <v type="int" >       12        2        6       10       11 </v>
   <v type="int" >        4        6       10       11       19 </v>
   <v type="int" >        4        6       10       13       19 </v>
   <v type="int" >        4        2        8       11       11 </v>
   <v type="int" >        4        2       10       11       11 </v>
   <v type="int" >        4       10       11       11       19 </v>
   <v type="int" >        8        8       11       11       18 </v>
   <v type="int" >        8       11       11       18       19 </v>
   <v type="int" >        4       11       11       19       19 </v>
   <v type="int" >        4        8        8       10       18 </v>
   <v type="int" >       12        8       10       11       18 </v>
   <v type="int" >       12       10       11       18       19 </v>
   <v type="int" >        4       10       11       13       18 </v>
   <v type="int" >        4       10       13       18       19 </v>
   <v type="int" >        4        2        3        8       11 </v>
   <v type="int" >        4        3        8       10       11 </v>
   <v type="int" >        8        3       10       11       13 </v>
   <v type="int" >       16        2        3        6       11 </v>
   <v type="int" >        4        3        6        7       11 </v>
   <v type="int" >        4        3        7       11       13 </v>
   <v type="int" >        4        4        7        9       17 </v>
   <v type="int" >        8        4        7        7       17 </v>
   <v type="int" >        4        4        7       14       17 </v>
   <v type="int" >        4        3        7        7       12 </v>
   <v type="int" >        8        4        7        7       12 </v>
   <v type="int" >        8        4        7       12       14 </v>
   <v type="int" >        8        3        7       12       13 </v>
   <v type="int" >        4        7       12       13       20 </v>
   <v type="int" >        4        7       12       14       20 </v>
   <v type="int" >        4        3       10       13       13 </v>
   <v type="int" >        4        3       12       13       13 </v>
   <v type="int" >        4       12       13       13       20 </v>
   <v type="int" >        8       10       13       13       19 </v>
   <v type="int" >       12       13       13       19       21 </v>
   <v type="int" >        4       13       13       20       21 </v>
   <v type="int" >        8       10       11       13       19 </v>
   <v type="int" >        8       11       13       19       19 </v>
   <v type="int" >        4       13       19       19       20 </v>
   <v type="int" >        8       13       19       20       21 </v>
   <v type="int" >        4       10       11       12       19 </v>
   <v type="int" >        4       11       12       13       19 </v>
   <v type="int" >        8       12       13       19       20 </v>
   <v type="int" >        8       10       12       13       19 </v>
   <v type="int" >        4       12       13       14       19 </v>
   <v type="int" >        4       12       14       19       20 </v>
   <v type="int" >        4        3        4       10       13 </v>
   <v type="int" >        4        4       10       12       13 </v>
   <v type="int" >       12        4       12       13       14 </v>
   <v type="int" >       12        3        4        7       13 </v>
   <v type="int" >        8        4        7        7       13 </v>
   <v type="int" >       12        4        7       13       14 </v>
   <v type="int" >        4        4       12       14       14 </v>
   <v type="int" >        4       12       14       14       20 </v>
   <v type="int" >        4       14       14       20       22 </v>
   <v type="int" >        4       12       13       15       20 </v>
   <v type="int" >        4       12       14       15       20 </v>
   <v type="int" >        8       14       15       20       22 </v>
   <v type="int" >       12       13       15       20       21 </v>
   <v type="int" >       12       15       20       21       22 </v>
   <v type="int" >        4       15       20       22       22 </v>
   <v type="int" >        4       13       13       14       21 </v>
   <v type="int" >       12       13       14       15       21 </v>
   <v type="int" >       16       14       15       21       22 </v>
   <v type="int" >        8       13       14       20       21 </v>
   <v type="int" >        4       14       20       20       21 </v>
   <v type="int" >       12       14       20       21       22 </v>
   <v type="int" >        4       12       12       13       20 </v>
   <v type="int" >        8       12       13       14       20 </v>
   <v type="int" >        8       12       14       20       20 </v>
   <v type="int" >        8       12       12       14       20 </v>
   <v type="int" >        4       12       13       20       20 </v>
   <v type="int" >       16        3        4       12       14 </v>
   <v type="int" >        8        3       12       12       14 </v>
   <v type="int" >        8        3       12       13       14 </v>
   <v type="int" >       16        3        4        7       14 </v>
   <v type="int" >        4        3        6        7       14 </v>
   <v type="int" >        4        3        6       13       14 </v>
   <v type="int" >        8       14       15       15       22 </v>
   <v type="int" >        8       15       15       22       22 </v>
   <v type="int" >        8       15       21       22       22 </v>
   <v type="int" >       12       13       14       15       22 </v>
   <v type="int" >        4       13       15       15       22 </v>
   <v type="int" >        8       13       15       21       22 </v>
   <v type="int" >       12       13       14       20       22 </v>
   <v type="int" >        4       13       19       20       22 </v>
   <v type="int" >        4       13       19       21       22 </v>
   <v type="int" >        4       10       12       14       20 </v>
   <v type="int" >        4       10       13       14       20 </v>
   <v type="int" >        8       10       13       19       20 </v>
   <v type="int" >        8       10       12       13       20 </v>
   <v type="int" >        4       10       11       13       20 </v>
   <v type="int" >        4       10       11       19       20 </v>
   <v type="int" >        4        2        3       12       13 </v>
   <v type="int" >        4        2       10       12       13 </v>
   <v type="int" >        8        2       10       11       13 </v>
   <v type="int" >       12        2        3        6       13 </v>
   <v type="int" >        4        2        2        6       13 </v>
   <v type="int" >        4        2        2       11       13 </v>
   <v type="int" >        4       11       13       15       21 </v>
   <v type="int" >        8       11       13       19       21 </v>
   <v type="int" >        4       11       18       19       21 </v>
   <v type="int" >        4        8       10       13       19 </v>
   <v type="int" >        4        8       11       13       19 </v>
   <v type="int" >        8        8       11       18       19 </v>
   <v type="int" >        8        8       10       11       19 </v>
   <v type="int" >        4        8        8       11       19 </v>
   <v type="int" >        4        8        8       18       19 </v>
   <v type="int" >        4        1        2       10       11 </v>
   <v type="int" >        4        1        8       10       11 </v>
   <v type="int" >        8        1        8        8       11 </v>
   <v type="int" >        8        1        2        2       11 </v>
   <v type="int" >       12        1        2        8       11 </v>
   <v type="int" >        4        5        8       11       18 </v>
   <v type="int" >        4        5        8        8       18 </v>
   <v type="int" >        4        1        5        8       18 </v>
   <v type="int" >        4        5        5        8        8 </v>
   <v type="int" >       12        1        5        5        8 </v>
   <v type="int" >        6        1        1        5        5 </v>
   <v type="int" >        8        1        1        5        8 </v>
   <v type="int" >        4        1        1        2        8 </v>
   <v type="int" >        4        2        3        6       16 </v>
   <v type="int" >        4        3        7       16       17 </v>
   <v type="int" >       12        7       16       17       17 </v>
   <v type="int" >        8        7       17       17       17 </v>
   <v type="int" >       12        7        7        9       16 </v>
   <v type="int" >        4        6        6        7        7 </v>
   <v type="int" >       16        3        6        7       13 </v>
   <v type="int" >       12        6        7        7       13 </v>
   <v type="int" >        4        3        6        6       11 </v>
   <v type="int" >       12        3        6       11       13 </v>
   <v type="int" >       12        2        3       10       11 </v>
   <v type="int" >        4        3       10       11       19 </v>
   <v type="int" >        4        3       11       13       19 </v>
   <v type="int" >        4        2        8       10       18 </v>
   <v type="int" >        4        2       10       11       18 </v>
   <v type="int" >        4       10       18       19       19 </v>
   <v type="int" >        4        8        8       11       11 </v>
   <v type="int" >        4        8       10       11       11 </v>
   <v type="int" >        4       10       11       11       13 </v>
   <v type="int" >        4       11       11       13       19 </v>
   <v type="int" >        4        2        6        8       10 </v>
   <v type="int" >        4        6        8       10       11 </v>
   <v type="int" >       12        6       10       11       13 </v>
   <v type="int" >        8        2        3        6       10 </v>
   <v type="int" >        4        3        6        7       10 </v>
   <v type="int" >        4        6        7       10       13 </v>
   <v type="int" >        4       16       17       17       17 </v>
   <v type="int" >        4       17       17       17       17 </v>
   <v type="int" >        4        9       17       17       17 </v>
   <v type="int" >        8        7        7       15       17 </v>
   <v type="int" >        8        7        9       15       17 </v>
   <v type="int" >        4        6        7       13       16 </v>
   <v type="int" >        4        7        7       13       16 </v>
   <v type="int" >       12        7        7       13       15 </v>
   <v type="int" >        8        6        7       13       13 </v>
   <v type="int" >        4        7       13       13       21 </v>
   <v type="int" >        4        7       13       15       21 </v>
   <v type="int" >        4        6       11       13       19 </v>
   <v type="int" >        4        6       13       13       19 </v>
   <v type="int" >        4       13       19       19       23 </v>
   <v type="int" >        4       13       19       21       23 </v>
   <v type="int" >        4       11       18       19       19 </v>
   <v type="int" >        4       11       19       19       19 </v>
   <v type="int" >        4       19       19       19       23 </v>
   <v type="int" >        4       18       19       19       19 </v>
   <v type="int" >        4       19       19       19       21 </v>
   <v type="int" >        4       19       19       21       23 </v>
   <v type="int" >        4       11       13       18       19 </v>
   <v type="int" >        4       13       18       19       19 </v>
   <v type="int" >        8       13       19       19       21 </v>
   <v type="int" >       12       11       13       13       19 </v>
   <v type="int" >        4       13       13       15       19 </v>
   <v type="int" >        4       13       15       19       21 </v>
   <v type="int" >        4        6        7       11       13 </v>
   <v type="int" >        4        7       11       13       13 </v>
   <v type="int" >        8        7       13       13       15 </v>
   <v type="int" >        4        7        7        9       13 </v>
   <v type="int" >        4        7        9       13       15 </v>
   <v type="int" >        4        7        9       14       17 </v>
   <v type="int" >       12        7        9       14       15 </v>
   <v type="int" >        4        9       14       15       22 </v>
   <v type="int" >        4        7       13       15       20 </v>
   <v type="int" >        4        7       14       15       20 </v>
   <v type="int" >        4       15       20       21       24 </v>
   <v type="int" >        4       15       20       22       24 </v>
   <v type="int" >        4       13       19       21       21 </v>
   <v type="int" >        4       13       20       21       21 </v>
   <v type="int" >        4       20       21       21       24 </v>
   <v type="int" >        8       19       21       21       23 </v>
   <v type="int" >        8       21       21       23       24 </v>
   <v type="int" >        4       21       21       24       24 </v>
   <v type="int" >        4       19       19       20       23 </v>
   <v type="int" >       12       19       20       21       23 </v>
   <v type="int" >       12       20       21       23       24 </v>
   <v type="int" >        4       20       21       22       23 </v>
   <v type="int" >        4       20       22       23       24 </v>
   <v type="int" >        4       13       14       19       21 </v>
   <v type="int" >        4       14       19       20       21 </v>
   <v type="int" >        4       14       15       15       21 </v>
   <v type="int" >       16        7       13       14       15 </v>
   <v type="int" >        8        7       14       15       15 </v>
   <v type="int" >       16        7        7        9       15 </v>
   <v type="int" >        4        7        7       15       15 </v>
   <v type="int" >        4       14       20       22       22 </v>
   <v type="int" >        8       20       22       22       24 </v>
   <v type="int" >       16       22       22       24       25 </v>
   <v type="int" >       16       20       21       22       24 </v>
   <v type="int" >        8       21       22       24       24 </v>
   <v type="int" >        4       22       24       24       24 </v>
   <v type="int" >       16       22       24       24       25 </v>
   <v type="int" >        4       20       20       21       24 </v>
   <v type="int" >       12       20       22       24       24 </v>
   <v type="int" >        8       20       20       22       24 </v>
   <v type="int" >        4       20       21       24       24 </v>
   <v type="int" >        4       13       20       20       22 </v>
   <v type="int" >        8       13       20       21       22 </v>
   <v type="int" >        4       13       13       15       22 </v>
   <v type="int" >        4       13       13       21       22 </v>
   <v type="int" >        4        6        7       14       15 </v>
   <v type="int" >        4        6       13       14       15 </v>
   <v type="int" >        4        6       13       13       15 </v>
   <v type="int" >        4        6        7        7       15 </v>
   <v type="int" >        4        3        6        7       15 </v>
   <v type="int" >        4        3        6       13       15 </v>
   <v type="int" >        8       21       22       22       25 </v>
   <v type="int" >       12       21       22       24       25 </v>
   <v type="int" >        4       21       23       24       25 </v>
   <v type="int" >        4       19       20       22       24 </v>
   <v type="int" >        4       19       21       22       24 </v>
   <v type="int" >        8       19       21       23       24 </v>
   <v type="int" >        8       19       20       21       24 </v>
   <v type="int" >        4       19       19       21       24 </v>
   <v type="int" >        4       19       19       23       24 </v>
   <v type="int" >        4       11       13       20       21 </v>
   <v type="int" >        4       11       19       20       21 </v>
   <v type="int" >        4       11       19       19       21 </v>
   <v type="int" >        4       11       13       13       21 </v>
   <v type="int" >        4       10       11       13       21 </v>
   <v type="int" >        4       10       11       19       21 </v>
   <v type="int" >        4        2        6       13       13 </v>
   <v type="int" >        4        2       11       13       13 </v>
   <v type="int" >       12        2        3       10       13 </v>
   <v type="int" >        4        2       10       10       13 </v>
   <v type="int" >        4       18       19       21       23 </v>
   <v type="int" >        4       18       19       19       23 </v>
   <v type="int" >        4       11       18       19       23 </v>
   <v type="int" >        4        8       11       19       19 </v>
   <v type="int" >        4        8       18       19       19 </v>
   <v type="int" >        4        2        8       10       19 </v>
   <v type="int" >        4        2        8       11       19 </v>
   <v type="int" >       16        2        8       10       11 </v>
   <v type="int" >        4        8        8       10       11 </v>
   <v type="int" >       12        2        8        8       10 </v>
   <v type="int" >        8        2        8       10       10 </v>
   <v type="int" >        4        8       10       10       11 </v>
   <v type="int" >        4        1        8       11       18 </v>
   <v type="int" >        4        2        8        8        8 </v>
   <v type="int" >        8        2        2        8       10 </v>
   <v type="int" >        4        2        2        3       10 </v>
   <v type="int" >        4        3        4        7       17 </v>
   <v type="int" >        4        4        7       16       17 </v>
   <v type="int" >        4        7        7        7        9 </v>
   <v type="int" >        4        4        7        7       14 </v>
   <v type="int" >        4        7        7        7       14 </v>
   <v type="int" >       12        3        4       12       13 </v>
   <v type="int" >        4        4       12       13       20 </v>
   <v type="int" >        4        4       13       14       20 </v>
   <v type="int" >        4        3       10       12       19 </v>
   <v type="int" >        4        3       12       13       19 </v>
   <v type="int" >        4       12       13       19       21 </v>
   <v type="int" >        4       12       19       20       21 </v>
   <v type="int" >        4       10       13       19       19 </v>
   <v type="int" >        8       13       13       19       20 </v>
   <v type="int" >        4       10       11       13       13 </v>
   <v type="int" >        4       10       12       13       13 </v>
   <v type="int" >        4       12       13       13       14 </v>
   <v type="int" >        4       13       13       14       20 </v>
   <v type="int" >        4        3        7       10       12 </v>
   <v type="int" >        4        7       10       12       13 </v>
   <v type="int" >        8        7       12       13       14 </v>
   <v type="int" >        8        3        4        7       12 </v>
   <v type="int" >        4        7        7       12       14 </v>
   <v type="int" >        4        7        9       15       16 </v>
   <v type="int" >       12        7        9       15       15 </v>
   <v type="int" >        8        7        7       14       15 </v>
   <v type="int" >        4        7       14       15       22 </v>
   <v type="int" >        4        7       15       15       22 </v>
   <v type="int" >        4        7       13       14       21 </v>
   <v type="int" >        4        7       14       15       21 </v>
   <v type="int" >        4       14       20       21       24 </v>
   <v type="int" >        4       14       21       22       24 </v>
   <v type="int" >        4       13       19       20       23 </v>
   <v type="int" >        4       13       20       21       23 </v>
   <v type="int" >        4       20       23       24       24 </v>
   <v type="int" >        4       19       19       21       21 </v>
   <v type="int" >        4       19       20       21       21 </v>
   <v type="int" >        4       20       21       21       22 </v>
   <v type="int" >        4       21       21       22       24 </v>
   <v type="int" >        4       13       15       19       20 </v>
   <v type="int" >        4       15       19       20       21 </v>
   <v type="int" >        8       13       14       15       20 </v>
   <v type="int" >        4       14       15       15       20 </v>
   <v type="int" >        4       15       15       20       22 </v>
   <v type="int" >        4        7        9       13       14 </v>
   <v type="int" >        4        9       13       14       15 </v>
   <v type="int" >        8        9       14       15       15 </v>
   <v type="int" >        8        7        7        9       14 </v>
   <v type="int" >        4        9       15       15       22 </v>
   <v type="int" >        4       15       22       22       25 </v>
   <v type="int" >        4       15       21       22       24 </v>
   <v type="int" >        4       15       22       22       24 </v>
   <v type="int" >        8       22       24       24       26 </v>
   <v type="int" >        8       22       24       25       26 </v>
   <v type="int" >        4       21       23       24       24 </v>
   <v type="int" >        4       21       24       24       24 </v>
   <v type="int" >        8       24       24       24       26 </v>
   <v type="int" >        4       23       24       24       24 </v>
   <v type="int" >        4       24       24       24       25 </v>
   <v type="int" >       20       24       24       25       26 </v>
   <v type="int" >        4       21       22       23       24 </v>
   <v type="int" >        4       22       23       24       24 </v>
   <v type="int" >       12       21       22       22       24 </v>
   <v type="int" >        4       22       22       22       24 </v>
   <v type="int" >        4       15       15       21       22 </v>
   <v type="int" >        4       15       22       22       22 </v>
   <v type="int" >        4       15       15       15       22 </v>
   <v type="int" >        4       14       15       22       22 </v>
   <v type="int" >        4        7       15       15       15 </v>
   <v type="int" >        4        4        7        7       15 </v>
   <v type="int" >        4        4        7       14       15 </v>
   <v type="int" >        4       22       24       25       25 </v>
   <v type="int" >        8       24       25       25       26 </v>
   <v type="int" >        6       25       25       26       26 </v>
   <v type="int" >       12       24       25       26       26 </v>
   <v type="int" >        4       24       24       26       26 </v>
   <v type="int" >        8       21       24       24       25 </v>
   <v type="int" >        4       20       21       22       25 </v>
   <v type="int" >        4       20       21       24       25 </v>
   <v type="int" >        4       13       15       22       22 </v>
   <v type="int" >        4       13       21       22       22 </v>
   <v type="int" >        4       12       13       14       22 </v>
   <v type="int" >        4       12       13       20       22 </v>
   <v type="int" >        4        3        7       14       15 </v>
   <v type="int" >        4        3       13       14       15 </v>
   <v type="int" >        4       23       24       25       26 </v>
   <v type="int" >        4       23       24       24       26 </v>
   <v type="int" >        4       21       23       24       26 </v>
   <v type="int" >        4       19       21       24       24 </v>
   <v type="int" >        4       19       23       24       24 </v>
   <v type="int" >        4       13       19       20       24 </v>
   <v type="int" >        4       13       19       21       24 </v>
   <v type="int" >        4       10       13       20       21 </v>
   <v type="int" >        4       10       19       20       21 </v>
   <v type="int" >        4        3       10       12       20 </v>
   <v type="int" >        4        3       10       13       20 </v>
   <v type="int" >        8        3       10       12       13 </v>
   <v type="int" >        4       10       10       12       13 </v>
   <v type="int" >        8        3       10       10       12 </v>
   <v type="int" >        8        3       10       12       12 </v>
   <v type="int" >        4       10       12       12       13 </v>
   <v type="int" >        4       11       19       21       23 </v>
   <v type="int" >        4        6       11       13       21 </v>
   <v type="int" >        4        2       10       13       19 </v>
   <v type="int" >        4        2       11       13       19 </v>
   <v type="int" >        8        2        6       11       13 </v>
   <v type="int" >        4        2        6        6       13 </v>
   <v type="int" >        4        3       10       10       11 </v>
   <v type="int" >        4        3       11       13       13 </v>
   <v type="int" >        4        2        2        6       10 </v>
   <v type="int" >        4        6       10       12       13 </v>
   <v type="int" >        4        3        6       10       12 </v>
   <v type="int" >        4        2        3        3       10 </v>
   <v type="int" >        4        3        3       10       12 </v>
   <v type="int" >        4        3        3        4       12 </v>
   <v type="int" >        4        3        4        7       16 </v>
   <v type="int" >        4        6        7        7        7 </v>
   <v type="int" >        4        6        6        7       13 </v>
   <v type="int" >        8        3        7        7       14 </v>
   <v type="int" >        8        3        7       13       14 </v>
   <v type="int" >        4        3       12       14       20 </v>
   <v type="int" >        4        3       13       14       20 </v>
   <v type="int" >        4        4       12       12       20 </v>
   <v type="int" >        4        4       12       14       20 </v>
   <v type="int" >        4       12       14       20       22 </v>
   <v type="int" >        4       12       20       20       22 </v>
   <v type="int" >        4       12       13       14       21 </v>
   <v type="int" >        4       12       14       20       21 </v>
   <v type="int" >        4       14       21       22       22 </v>
   <v type="int" >        4       13       13       15       20 </v>
   <v type="int" >        4       14       15       20       20 </v>
   <v type="int" >        4       15       20       20       22 </v>
   <v type="int" >        4       12       13       14       14 </v>
   <v type="int" >        4       13       14       14       20 </v>
   <v type="int" >        2       14       14       20       20 </v>
   <v type="int" >        2       12       12       14       14 </v>
   <v type="int" >        8        4        7       12       12 </v>
   <v type="int" >        4        7       12       12       14 </v>
   <v type="int" >        4        3        6        7       12 </v>
   <v type="int" >        4        6        7       12       13 </v>
   <v type="int" >        4        6        7       15       16 </v>
   <v type="int" >        8        6        7       13       15 </v>
   <v type="int" >        4        6       13       15       21 </v>
   <v type="int" >        4        7       13       14       22 </v>
   <v type="int" >        4        7       13       15       22 </v>
   <v type="int" >        4       13       20       22       24 </v>
   <v type="int" >        4       13       21       22       24 </v>
   <v type="int" >        4       14       20       20       24 </v>
   <v type="int" >        4       14       20       22       24 </v>
   <v type="int" >        4       20       22       24       25 </v>
   <v type="int" >        4       20       24       24       25 </v>
   <v type="int" >        6       22       22       24       24 </v>
   <v type="int" >        4       20       21       22       22 </v>
   <v type="int" >        2       20       20       22       22 </v>
   <v type="int" >        4        7        7       13       14 </v>
   <v type="int" >        4        3        7       13       13 </v>
   <v type="int" >        4       15       21       22       25 </v>
   <v type="int" >        4       21       24       25       26 </v>
   <v type="int" >        4       24       26       26       26 </v>
   <v type="int" >        6       24       24       25       25 </v>
   <v type="int" >        4        4        7       13       15 </v>
   <v type="int" >        4        4       13       14       15 </v>
   <v type="int" >        8        4       12       12       13 </v>
   <v type="int" >        4       25       26       26       26 </v>
   <v type="int" >        2       26       26       26       26 </v>
   <v type="int" >        4        4       12       12       14 </v>
   <v type="int" >        4       12       12       12       14 </v>
   <v type="int" >        8        4       12       12       12 </v>
   <v type="int" >        4        3        4        4       12 </v>
   <v type="int" >        4        4        4       12       12 </v>
   <v type="int" >        4        1        5        8       11 </v>
   <v type="int" >        4        1        2        6       11 </v>
   <v type="int" >        4        2        8       10       13 </v>
   <v type="int" >        4        2        8       11       13 </v>
   <v type="int" >        4        2        3        7       13 </v>
   <v type="int" >        4        2        6        7       13 </v>
   <v type="int" >        4        3       10       12       14 </v>
   <v type="int" >        4        3       10       13       14 </v>
   <v type="int" >        4        3        4        6       13 </v>
   <v type="int" >        4        4        6        7       13 </v>
   <v type="int" >        4        3       10       11       12 </v>
   <v type="int" >        4        3       11       12       13 </v>
   <v type="int" >        4        2        2        3       11 </v>
   <v type="int" >        6        2        2        8        8 </v>
   <v type="int" >        6        1        1        8        8 </v>
   <v type="int" >        4        5        5        5        8 </v>
   <v type="int" >        4        6       11       13       15 </v>
   <v type="int" >        4        6        7        9       15 </v>
   <v type="int" >        4        7       13       15       15 </v>
   <v type="int" >        4        7        7        7       15 </v>
   <v type="int" >        4        7       13       13       14 </v>
   <v type="int" >        4        3        7        7       13 </v>
   <v type="int" >        4        6       10       13       13 </v>
   <v type="int" >        4        2        6       10       10 </v>
   <v type="int" >        4        3        6       10       10 </v>
   <v type="int" >        4        2        2       10       11 </v>
   <v type="int" >        2        2        2       10       10 </v>
   <v type="int" >        4        1        8        8       10 </v>
   <v type="int" >        4        1        2        8       10 </v>
   <v type="int" >        4        2        3        8       10 </v>
   <v type="int" >        4        3        8       10       10 </v>
   <v type="int" >        4        4        7        9       14 </v>
   <v type="int" >        4        7       12       13       15 </v>
   <v type="int" >        4        7       12       14       15 </v>
   <v type="int" >        4        3        7       12       12 </v>
   <v type="int" >        4        3        3       10       13 </v>
   <v type="int" >        4        3        3       12       13 </v>
   <v type="int" >        2        3        3       12       12 </v>
   <v type="int" >        2        3        3       10       10 </v>
   <v type="int" >        4        2       10       10       12 </v>
   <v type="int" >        4        2        3       10       12 </v>
   <v type="int" >        4        3        4       10       12 </v>
   <v type="int" >        4        4       10       12       12 </v>
   <v type="int" >        4        4        4       12       14 </v>
   <v type="int" >        4        3       12       12       12 </v>
   <v type="int" >        4        3        4       12       12 </v>
   <v type="int" >        4        1        5        5        5 </v>
   <v type="int" >        2        5        5        5        5 </v>
  </varray>
  <i name="volumeweight">      0.00032552 </i>
 </kpoints>
 <parameters>
  <separator name="general" >
   <i type="string" name="SYSTEM">Fe BCC</i>
   <i type="logical" name="LCOMPAT"> F  </i>
  </separator>
  <separator name="electronic" >
   <i type="string" name="PREC">accura</i>
   <i name="ENMAX">    400.00000000</i>
   <i name="ENAUG">    511.36800000</i>
   <i name="EDIFF">      0.00000100</i>
   <i type="int" name="IALGO">    38</i>
   <i type="int" name="IWAVPR">    10</i>
   <i type="int" name="NBANDS">    12</i>
   <i name="NELECT">      8.00000000</i>
   <i type="int" name="TURBO">     0</i>
   <i type="int" name="IRESTART">     0</i>
   <i type="int" name="NREBOOT">     0</i>
   <i type="int" name="NMIN">     0</i>
   <i name="EREF">      0.00000000</i>
   <separator name="electronic smearing" >
    <i type="int" name="ISMEAR">    -5</i>
    <i name="SIGMA">      0.20000000</i>
    <i name="KSPACING">      0.50000000</i>
    <i type="logical" name="KGAMMA"> T  </i>
   </separator>
   <separator name="electronic projectors" >
    <i type="logical" name="LREAL"> F  </i>
    <v name="ROPT">      0.00000000</v>
    <i type="int" name="LMAXPAW">  -100</i>
    <i type="int" name="LMAXMIX">     2</i>
    <i type="logical" name="NLSPLINE"> F  </i>
   </separator>
   <separator name="electronic startup" >
    <i type="int" name="ISTART">     0</i>
    <i type="int" name="ICHARG">     2</i>
    <i type="int" name="INIWAV">     1</i>
   </separator>
   <separator name="electronic spin" >
    <i type="int" name="ISPIN">     2</i>
    <i type="logical" name="LNONCOLLINEAR"> F  </i>
    <v name="MAGMOM">      4.00000000</v>
    <i name="NUPDOWN">     -1.00000000</i>
    <i type="logical" name="LSORBIT"> F  </i>
    <v name="SAXIS">      0.00000000      0.00000000      1.00000000</v>
    <i type="logical" name="LSPIRAL"> F  </i>
    <v name="QSPIRAL">      0.00000000      0.00000000      0.00000000</v>
    <i type="logical" name="LZEROZ"> F  </i>
   </separator>
   <separator name="electronic exchange-correlation" >
    <i type="logical" name="LASPH"> F  </i>
    <i type="logical" name="LMETAGGA"> F  </i>
   </separator>
   <separator name="electronic convergence" >
    <i type="int" name="NELM">    60</i>
    <i type="int" name="NELMDL">    -5</i>
    <i type="int" name="NELMIN">     2</i>
    <i name="ENINI">    400.00000000</i>
    <separator name="electronic convergence detail" >
     <i type="logical" name="LDIAG"> T  </i>
     <i type="logical" name="LSUBROT"> F  </i>
     <i name="WEIMIN">      0.00000000</i>
     <i name="EBREAK">      0.00000002</i>
     <i name="DEPER">      0.30000000</i>
     <i type="int" name="NRMM">     4</i>
     <i name="TIME">      0.40000000</i>
    </separator>
   </separator>
   <separator name="electronic mixer" >
    <i name="AMIX">      0.40000000</i>
    <i name="BMIX">      1.00000000</i>
    <i name="AMIN">      0.10000000</i>
    <i name="AMIX_MAG">      1.60000000</i>
    <i name="BMIX_MAG">      1.00000000</i>
    <separator name="electronic mixer details" >
     <i type="int" name="IMIX">     4</i>
     <i type="logical" name="MIXFIRST"> F  </i>
     <i type="int" name="MAXMIX">   -45</i>
     <i name="WC">    100.00000000</i>
     <i type="int" name="INIMIX">     1</i>
     <i type="int" name="MIXPRE">     1</i>
     <i type="int" name="MREMOVE">     5</i>
    </separator>
   </separator>
   <separator name="electronic dipolcorrection" >
    <i type="logical" name="LDIPOL"> F  </i>
    <i type="logical" name="LMONO"> F  </i>
    <i type="int" name="IDIPOL">     0</i>
    <i name="EPSILON">      1.00000000</i>
    <v name="DIPOL">   -100.00000000   -100.00000000   -100.00000000</v>
    <i name="EFIELD">      0.00000000</i>
   </separator>
  </separator>
  <separator name="grids" >
   <i type="int" name="NGX">    16</i>
   <i type="int" name="NGY">    16</i>
   <i type="int" name="NGZ">    16</i>
   <i type="int" name="NGXF">    32</i>
   <i type="int" name="NGYF">    32</i>
   <i type="int" name="NGZF">    32</i>
   <i type="logical" name="ADDGRID"> F  </i>
  </separator>
  <separator name="ionic" >
   <i type="int" name="NSW">     0</i>
   <i type="int" name="IBRION">    -1</i>
   <i type="int" name="ISIF">     2</i>
   <i name="PSTRESS">      0.00000000</i>
   <i name="EDIFFG">      0.00001000</i>
   <i type="int" name="NFREE">     0</i>
   <i name="POTIM">      0.50000000</i>
   <i name="SMASS">     -3.00000000</i>
   <i name="SCALEE">      1.00000000</i>
  </separator>
  <separator name="ionic md" >
   <i name="TEBEG">      0.00010000</i>
   <i name="TEEND">      0.00010000</i>
   <i type="int" name="NBLOCK">     1</i>
   <i type="int" name="KBLOCK">     1</i>
   <i type="int" name="NPACO">   256</i>
   <i name="APACO">     16.00000000</i>
  </separator>
  <separator name="symmetry" >
   <i type="int" name="ISYM">     2</i>
   <i name="SYMPREC">      0.00001000</i>
  </separator>
  <separator name="dos" >
   <i type="logical" name="LORBIT"> F  </i>
   <v name="RWIGS">     -1.00000000</v>
   <i type="int" name="NEDOS">   301</i>
   <i name="EMIN">     10.00000000</i>
   <i name="EMAX">    -10.00000000</i>
   <i name="EFERMI">      0.00000000</i>
  </separator>
  <separator name="writing" >
   <i type="int" name="NWRITE">     2</i>
   <i type="logical" name="LWAVE"> T  </i>
   <i type="logical" name="LCHARG"> T  </i>
   <i type="logical" name="LPARD"> F  </i>
   <i type="logical" name="LVTOT"> F  </i>
   <i type="logical" name="LVHAR"> F  </i>
   <i type="logical" name="LELF"> F  </i>
   <i type="logical" name="LOPTICS"> F  </i>
   <v name="STM">      0.00000000      0.00000000      0.00000000      0.00000000      0.00000000      0.00000000      0.00000000</v>
  </separator>
  <separator name="performance" >
   <i type="int" name="NPAR">     4</i>
   <i type="int" name="NSIM">     4</i>
   <i type="int" name="NBLK">    -1</i>
   <i type="logical" name="LPLANE"> T  </i>
   <i type="logical" name="LSCALAPACK"> F  </i>
   <i type="logical" name="LSCAAWARE"> F  </i>
   <i type="logical" name="LSCALU"> F  </i>
   <i type="logical" name="LASYNC"> F  </i>
   <i type="logical" name="LORBITALREAL"> F  </i>
  </separator>
  <separator name="miscellaneous" >
   <i type="int" name="IDIOT">     3</i>
   <i type="logical" name="LMUSIC"> F  </i>
   <v name="POMASS">     55.84700000</v>
   <v name="DARWINR">      0.00000000</v>
   <v name="DARWINV">      1.00000000</v>
   <i type="logical" name="LCORR"> T  </i>
  </separator>
  <i type="logical" name="GGA_COMPAT"> T  </i>
  <i type="logical" name="LBERRY"> F  </i>
  <i type="int" name="ICORELEVEL">     0</i>
  <i type="logical" name="LDAU"> F  </i>
  <i type="int" name="I_CONSTRAINED_M">     0</i>
  <separator name="electronic exchange-correlation" >
   <i type="string" name="GGA">--</i>
   <i type="int" name="VOSKOWN">     0</i>
   <i type="logical" name="LHFCALC"> F  </i>
   <i type="string" name="PRECFOCK"></i>
   <i type="logical" name="LSYMGRAD"> F  </i>
   <i type="logical" name="LHFONE"> F  </i>
   <i type="logical" name="LRHFCALC"> F  </i>
   <i type="logical" name="LTHOMAS"> F  </i>
   <i type="logical" name="LMODELHF"> F  </i>
   <i name="ENCUT4O">     -1.00000000</i>
   <i type="int" name="EXXOEP">     0</i>
   <i type="int" name="FOURORBIT">     0</i>
   <i name="AEXX">      0.00000000</i>
   <i name="HFALPHA">      0.00000000</i>
   <i name="MCALPHA">      0.00000000</i>
   <i name="ALDAX">      1.00000000</i>
   <i name="AGGAX">      1.00000000</i>
   <i name="ALDAC">      1.00000000</i>
   <i name="AGGAC">      1.00000000</i>
   <i type="int" name="NKREDX">     1</i>
   <i type="int" name="NKREDY">     1</i>
   <i type="int" name="NKREDZ">     1</i>
   <i type="logical" name="SHIFTRED"> F  </i>
   <i type="logical" name="ODDONLY"> F  </i>
   <i type="logical" name="EVENONLY"> F  </i>
   <i type="int" name="LMAXFOCK">     0</i>
   <i type="int" name="NMAXFOCKAE">     0</i>
   <i type="logical" name="LFOCKAEDFT"> F  </i>
   <i name="HFSCREEN">      0.00000000</i>
   <i name="HFSCREENC">      0.00000000</i>
   <i type="int" name="NBANDSGWLOW">     0</i>
  </separator>
  <separator name="vdW DFT" >
   <i type="logical" name="LUSE_VDW"> F  </i>
   <i name="Zab_VDW">     -0.84910000</i>
   <i name="PARAM1">      0.12340000</i>
   <i name="PARAM2">      1.00000000</i>
   <i name="PARAM3">      0.00000000</i>
  </separator>
  <separator name="model GW" >
   <i type="int" name="MODEL_GW">     0</i>
   <i name="MODEL_EPS0">      5.27280000</i>
   <i name="MODEL_ALPHA">      1.00000000</i>
  </separator>
  <separator name="linear response parameters" >
   <i type="logical" name="LEPSILON"> F  </i>
   <i type="logical" name="LRPA"> F  </i>
   <i type="logical" name="LNABLA"> F  </i>
   <i type="logical" name="LVEL"> F  </i>
   <i type="int" name="KINTER">     0</i>
   <i name="CSHIFT">      0.10000000</i>
   <i name="OMEGAMAX">     -1.00000000</i>
   <i name="DEG_THRESHOLD">      0.00200000</i>
  </separator>
  <separator name="orbital magnetization" >
   <i type="logical" name="NUCIND"> F  </i>
   <v name="MAGPOS">      0.00000000      0.00000000      0.00000000</v>
   <i type="logical" name="LNICSALL"> T  </i>
   <i type="logical" name="ORBITALMAG"> F  </i>
   <i type="logical" name="LMAGBLOCH"> F  </i>
   <i type="logical" name="LCHIMAG"> F  </i>
   <i type="logical" name="LGAUGE"> T  </i>
   <i type="int" name="MAGATOM">     0</i>
   <v name="MAGDIPOL">      0.00000000      0.00000000      0.00000000</v>
   <v name="AVECCONST">      0.00000000      0.00000000      0.00000000</v>
  </separator>
  <separator name="response functions" >
   <i type="logical" name="LADDER"> F  </i>
   <i type="logical" name="LFXC"> F  </i>
   <i type="logical" name="LHARTREE"> T  </i>
   <i type="int" name="IBSE">     0</i>
   <v type="int" name="KPOINT">    -1     0     0     0</v>
   <i type="logical" name="LTCTE"> F  </i>
   <i type="logical" name="LTETE"> F  </i>
   <i type="logical" name="LTRIPLET"> F  </i>
   <i type="logical" name="LFXCEPS"> F  </i>
   <i type="logical" name="LFXHEG"> F  </i>
   <i type="int" name="NATURALO">     0</i>
   <i type="logical" name="L2ORDER"> F  </i>
   <i type="logical" name="LUSEW"> F  </i>
   <i name="ENCUTGW">     -2.00000000</i>
   <i name="ENCUTGWSOFT">     -2.00000000</i>
   <i name="ENCUTLF">     -1.00000000</i>
   <i type="int" name="LMAXMP2">    -1</i>
   <i name="SCISSOR">      0.00000000</i>
   <i type="int" name="NOMEGA">     0</i>
   <i type="int" name="NOMEGAR">     0</i>
   <i type="int" name="NBANDSGW">    -1</i>
   <i type="int" name="NBANDSO">    -1</i>
   <i type="int" name="NBANDSV">    -1</i>
   <i type="int" name="NELM">     1</i>
   <i type="int" name="NELMHF">     1</i>
   <i type="int" name="DIM">     3</i>
   <i type="int" name="ANTIRES">     0</i>
   <i name="OMEGAMAX">    -30.00000000</i>
   <i name="OMEGAMIN">    -30.00000000</i>
   <i name="OMEGATL">   -200.00000000</i>
   <i type="int" name="OMEGAGRID">     0</i>
   <i name="CSHIFT">     -0.10000000</i>
   <i type="logical" name="SELFENERGY"> F  </i>
   <i type="logical" name="LSPECTRAL"> F  </i>
   <i type="logical" name="LSPECTRALGW"> F  </i>
   <i type="logical" name="LSINGLES"> F  </i>
   <i type="logical" name="LFERMIGW"> F  </i>
   <i type="logical" name="ODDONLYGW"> F  </i>
   <i type="logical" name="EVENONLYGW"> F  </i>
   <i type="int" name="NKREDLFX">     1</i>
   <i type="int" name="NKREDLFY">     1</i>
   <i type="int" name="NKREDLFZ">     1</i>
   <i type="int" name="MAXMEM">  1800</i>
   <i type="int" name="TELESCOPE">     0</i>
   <i type="int" name="TAUPAR">     1</i>
   <i type="int" name="OMEGAPAR">    -1</i>
   <i name="LAMBDA">      1.00000000</i>
  </separator>
  <separator name="External order field" >
   <i name="OFIELD_KAPPA">      0.00000000</i>
   <v name="OFIELD_K">      0.00000000      0.00000000      0.00000000</v>
   <i name="OFIELD_Q6_NEAR">      0.00000000</i>
   <i name="OFIELD_Q6_FAR">      0.00000000</i>
   <i name="OFIELD_A">      0.00000000</i>
  </separator>
 </parameters>
 <atominfo>
  <atoms>       1 </atoms>
  <types>       1 </types>
  <array name="atoms" >
   <dimension dim="1">ion</dimension>
   <field type="string">element</field>
   <field type="int">atomtype</field>
   <set>
    <rc><c>Fe</c><c>   1</c></rc>
   </set>
  </array>
  <array name="atomtypes" >
   <dimension dim="1">type</dimension>
   <field type="int">atomspertype</field>
   <field type="string">element</field>
   <field>mass</field>
   <field>valence</field>
   <field type="string">pseudopotential</field>
   <set>
    <rc><c>   1</c><c>Fe</c><c>     55.84700000</c><c>      8.00000000</c><c>  PAW Fe 03Mar1998                      </c></rc>
   </set>
  </array>
 </atominfo>
 <structure name="initialpos" >
  <crystal>
   <varray name="basis" >
    <v>      -1.30000000       1.30000000       1.30000000 </v>
    <v>       1.30000000      -1.30000000       1.30000000 </v>
    <v>       1.30000000       1.30000000      -1.30000000 </v>
   </varray>
   <i name="volume">      8.78800000 </i>
   <varray name="rec_basis" >
    <v>       0.00000000       0.38461538       0.38461538 </v>
    <v>       0.38461538       0.00000000       0.38461538 </v>
    <v>       0.38461538       0.38461538       0.00000000 </v>
   </varray>
  </crystal>
  <varray name="positions" >
   <v>       0.00000000       0.00000000       0.00000000 </v>
  </varray>
 </structure>
 <calculation>
  <scstep>
   <time name="dav">    2.43    2.56</time>
   <time name="total">    2.55    2.68</time>
   <energy>
    <i name="alphaZ">     76.21351388 </i>
    <i name="ewald">   -644.97461067 </i>
    <i name="hartreedc">    -91.98284098 </i>
    <i name="XCdc">      7.24561788 </i>
    <i name="pawpsdc">    552.76102510 </i>
    <i name="pawaedc">   -562.19386350 </i>
    <i name="eentropy">      0.00000000 </i>
    <i name="bandstr">     82.42039049 </i>
    <i name="atom">    597.35192723 </i>
    <i name="e_fr_energy">     16.84115943 </i>
    <i name="e_wo_entrp">     16.84115943 </i>
    <i name="e_0_energy">     16.84115943 </i>
   </energy>
  </scstep>
  <scstep>
   <time name="dav">    1.32    1.32</time>
   <time name="total">    1.40    1.40</time>
   <energy>
    <i name="e_fr_energy">     -8.67417053 </i>
    <i name="e_wo_entrp">     -8.67417053 </i>
    <i name="e_0_energy">     -8.67417053 </i>
   </energy>
  </scstep>
  <scstep>
   <time name="dav">    1.37    1.37</time>
   <time name="total">    1.49    1.49</time>
   <energy>
    <i name="e_fr_energy">     -9.20773542 </i>
    <i name="e_wo_entrp">     -9.20773542 </i>
    <i name="e_0_energy">     -9.20773542 </i>
   </energy>
  </scstep>
  <scstep>
   <time name="dav">    1.69    1.69</time>
   <time name="total">    1.77    1.77</time>
   <energy>
    <i name="e_fr_energy">     -9.20932563 </i>
    <i name="e_wo_entrp">     -9.20932563 </i>
    <i name="e_0_energy">     -9.20932563 </i>
   </energy>
  </scstep>
  <scstep>
   <time name="dav">    1.63    1.64</time>
   <time name="total">    1.76    1.75</time>
   <energy>
    <i name="e_fr_energy">     -9.20933342 </i>
    <i name="e_wo_entrp">     -9.20933342 </i>
    <i name="e_0_energy">     -9.20933342 </i>
   </energy>
  </scstep>
  <scstep>
   <time name="dav">    2.92    2.67</time>
   <time name="total">    3.06    2.81</time>
   <energy>
    <i name="e_fr_energy">     -9.02600078 </i>
    <i name="e_wo_entrp">     -9.02600078 </i>
    <i name="e_0_energy">     -9.02600078 </i>
   </energy>
  </scstep>
  <scstep>
   <time name="dav">    2.58    2.27</time>
   <time name="total">    2.74    2.41</time>
   <energy>
    <i name="e_fr_energy">     -9.00171701 </i>
    <i name="e_wo_entrp">     -9.00171701 </i>
    <i name="e_0_energy">     -9.00171701 </i>
   </energy>
  </scstep>
  <scstep>
   <time name="dav">    3.73    3.24</time>
   <time name="total">    3.86    3.37</time>
   <energy>
    <i name="e_fr_energy">     -8.98397881 </i>
    <i name="e_wo_entrp">     -8.98397881 </i>
    <i name="e_0_energy">     -8.98397881 </i>
   </energy>
  </scstep>
  <scstep>
   <time name="dav">    3.55    3.27</time>
   <time name="total">    3.69    3.41</time>
   <energy>
    <i name="e_fr_energy">     -8.98100947 </i>
    <i name="e_wo_entrp">     -8.98100947 </i>
    <i name="e_0_energy">     -8.98100947 </i>
   </energy>
  </scstep>
  <scstep>
   <time name="dav">    4.01    3.53</time>
   <time name="total">    4.18    3.67</time>
   <energy>
    <i name="e_fr_energy">     -8.98083264 </i>
    <i name="e_wo_entrp">     -8.98083264 </i>
    <i name="e_0_energy">     -8.98083264 </i>
   </energy>
  </scstep>
  <scstep>
   <time name="dav">    2.80    2.61</time>
   <time name="total">    2.93    2.72</time>
   <energy>
    <i name="e_fr_energy">     -8.98090032 </i>
    <i name="e_wo_entrp">     -8.98090032 </i>
    <i name="e_0_energy">     -8.98090032 </i>
   </energy>
  </scstep>
  <scstep>
   <time name="dav">    2.19    2.10</time>
   <time name="total">    2.34    2.25</time>
   <energy>
    <i name="e_fr_energy">     -8.98092039 </i>
    <i name="e_wo_entrp">     -8.98092039 </i>
    <i name="e_0_energy">     -8.98092039 </i>
   </energy>
  </scstep>
  <scstep>
   <time name="dav">    1.87    1.83</time>
   <time name="total">    2.03    1.99</time>
   <energy>
    <i name="e_fr_energy">     -8.98091618 </i>
    <i name="e_wo_entrp">     -8.98091618 </i>
    <i name="e_0_energy">     -8.98091618 </i>
   </energy>
  </scstep>
  <scstep>
   <time name="dav">    1.77    1.73</time>
   <time name="total">    1.91    1.87</time>
   <energy>
    <i name="e_fr_energy">     -8.98090067 </i>
    <i name="e_wo_entrp">     -8.98090067 </i>
    <i name="e_0_energy">     -8.98090067 </i>
   </energy>
  </scstep>
  <scstep>
   <time name="dav">    1.90    1.80</time>
   <time name="total">    2.04    1.93</time>
   <energy>
    <i name="alphaZ">     76.21351388 </i>
    <i name="ewald">   -644.97461067 </i>
    <i name="hartreedc">    -76.32003797 </i>
    <i name="XCdc">      4.83916521 </i>
    <i name="pawpsdc">    866.92838924 </i>
    <i name="pawaedc">   -878.78016415 </i>
    <i name="eentropy">      0.00000000 </i>
    <i name="bandstr">     45.76091690 </i>
    <i name="atom">    597.35192723 </i>
    <i name="e_fr_energy">     -8.98090033 </i>
    <i name="e_wo_entrp">     -8.98090033 </i>
    <i name="e_0_energy">     -8.98090033 </i>
   </energy>
  </scstep>
  <structure>
   <crystal>
    <varray name="basis" >
     <v>      -1.30000000       1.30000000       1.30000000 </v>
     <v>       1.30000000      -1.30000000       1.30000000 </v>
     <v>       1.30000000       1.30000000      -1.30000000 </v>
    </varray>
    <i name="volume">      8.78800000 </i>
    <varray name="rec_basis" >
     <v>       0.00000000       0.38461538       0.38461538 </v>
     <v>       0.38461538       0.00000000       0.38461538 </v>
     <v>       0.38461538       0.38461538       0.00000000 </v>
    </varray>
   </crystal>
   <varray name="positions" >
    <v>       0.00000000       0.00000000       0.00000000 </v>
   </varray>
  </structure>
  <varray name="forces" >
   <v>      -0.00000000      -0.00000000       0.00000000 </v>
  </varray>
  <varray name="stress" >
   <v>     600.48663656      -0.00000000      -0.00000000 </v>
   <v>       0.00000000     600.48663656       0.00000000 </v>
   <v>      -0.00000000       0.00000000     600.48663656 </v>
  </varray>
  <energy>
   <i name="e_fr_energy">     -8.98090033 </i>
   <i name="e_wo_entrp">     -8.98090033 </i>
   <i name="e_0_energy">      0.00000000 </i>
  </energy>
  <time name="totalsc">   38.02   36.08</time>
  <eigenvalues>
   <array>
    <dimension dim="1">band</dimension>
    <dimension dim="2">kpoint</dimension>
    <dimension dim="3">spin</dimension>
    <field>eigene</field>
    <field>occ</field>
    <set>
     <set comment="spin 1">
      <set comment="kpoint 1">
       <r>   -0.1145    1.0000 </r>
       <r>    5.6339    1.0000 </r>
       <r>    5.6339    1.0000 </r>
       <r>    6.8555    1.0000 </r>
       <r>    7.8576    1.0000 </r>
       <r>    7.8576    1.0010 </r>
       <r>   33.0587    0.0000 </r>
       <r>   33.0587    0.0000 </r>
       <r>   37.2175    0.0000 </r>
       <r>   39.9548    0.0000 </r>
       <r>   44.6004    0.0000 </r>
       <r>   44.6004    0.0000 </r>
      </set>
      <set comment="kpoint 2">
       <r>    1.7183    1.0000 </r>
       <r>    5.0040    1.0000 </r>
       <r>    5.3324    1.0000 </r>
       <r>    7.7531    1.0000 </r>
       <r>    8.0647    1.0026 </r>
       <r>    8.3751    0.7482 </r>
       <r>   27.7567    0.0000 </r>
       <r>   30.6631    0.0000 </r>
       <r>   35.2489    0.0000 </r>
       <r>   38.1790    0.0000 </r>
       <r>   44.8597    0.0000 </r>
       <r>   45.2297    0.0000 </r>
      </set>
      <set comment="kpoint 3">
       <r>    2.6610    1.0000 </r>
       <r>    4.4757    1.0000 </r>
       <r>    6.4749    1.0000 </r>
       <r>    7.9741    1.0000 </r>
       <r>    8.2361    0.9949 </r>
       <r>   10.3372   -0.0480 </r>
       <r>   22.0722    0.0000 </r>
       <r>   28.6511    0.0000 </r>
       <r>   32.2747    0.0000 </r>
       <r>   38.2455    0.0000 </r>
       <r>   44.1336    0.0000 </r>
       <r>   48.8152    0.0000 </r>
      </set>
      <set comment="kpoint 4">
       <r>    2.5751    1.0000 </r>
       <r>    4.2754    1.0000 </r>
       <r>    7.7885    1.0000 </r>
       <r>    8.0857    1.0000 </r>
       <r>    8.3093    0.9240 </r>
       <r>   11.8020   -0.0015 </r>
       <r>   18.9000    0.0000 </r>
       <r>   27.8723    0.0000 </r>
       <r>   31.1509    0.0000 </r>
       <r>   38.1866    0.0000 </r>
       <r>   44.1664    0.0000 </r>
       <r>   48.1936    0.0000 </r>
      </set>
      <set comment="kpoint 5">
       <r>   -0.8640    1.0000 </r>
       <r>    5.9526    1.0000 </r>
       <r>    5.9526    1.0000 </r>
       <r>    6.0870    1.0000 </r>
       <r>    7.7324    1.0000 </r>
       <r>    8.0622    1.0000 </r>
       <r>   34.5606    0.0000 </r>
       <r>   36.1304    0.0000 </r>
       <r>   36.1304    0.0000 </r>
       <r>   41.1996    0.0000 </r>
       <r>   44.8507    0.0000 </r>
       <r>   44.8507    0.0000 </r>
      </set>
      <set comment="kpoint 6">
       <r>    3.3037    1.0000 </r>
       <r>    4.5853    1.0000 </r>
       <r>    4.9358    1.0000 </r>
       <r>    7.8814    1.0000 </r>
       <r>    8.2816    1.0051 </r>
       <r>   10.6503   -0.0651 </r>
       <r>   24.9053    0.0000 </r>
       <r>   26.1288    0.0000 </r>
       <r>   31.0182    0.0000 </r>
       <r>   40.4568    0.0000 </r>
       <r>   45.6646    0.0000 </r>
       <r>   48.5055    0.0000 </r>
      </set>
      <set comment="kpoint 7">
       <r>    3.4577    1.0000 </r>
       <r>    4.3462    1.0000 </r>
       <r>    5.8613    1.0000 </r>
       <r>    8.1054    1.0000 </r>
       <r>    8.4192    0.9980 </r>
       <r>   13.5749   -0.0008 </r>
       <r>   20.1260    0.0000 </r>
       <r>   24.2590    0.0000 </r>
       <r>   29.3068    0.0000 </r>
       <r>   41.2470    0.0000 </r>
       <r>   46.3485    0.0000 </r>
       <r>   49.5837    0.0000 </r>
      </set>
      <set comment="kpoint 8">
       <r>    0.5642    1.0000 </r>
       <r>    5.5340    1.0000 </r>
       <r>    5.8250    1.0000 </r>
       <r>    7.0084    1.0000 </r>
       <r>    7.3353    1.0000 </r>
       <r>    8.2263    0.9855 </r>
       <r>   30.6252    0.0000 </r>
       <r>   33.9398    0.0000 </r>
       <r>   35.5608    0.0000 </r>
       <r>   40.5497    0.0000 </r>
       <r>   41.4203    0.0000 </r>
       <r>   42.9875    0.0000 </r>
      </set>
      <set comment="kpoint 9">
       <r>    3.8425    1.0000 </r>
       <r>    4.9194    1.0000 </r>
       <r>    4.9194    1.0000 </r>
       <r>    8.3232    1.0000 </r>
       <r>    8.3232    1.0308 </r>
       <r>   17.6320    0.0000 </r>
       <r>   17.6320    0.0000 </r>
       <r>   21.2065    0.0000 </r>
       <r>   28.7328    0.0000 </r>
       <r>   43.9865    0.0000 </r>
       <r>   43.9865    0.0000 </r>
       <r>   53.5049    0.0000 </r>
      </set>
      <set comment="kpoint 10">
       <r>    2.2407    1.0000 </r>
       <r>    4.9248    1.0000 </r>
       <r>    5.9431    1.0000 </r>
       <r>    7.6348    1.0000 </r>
       <r>    8.4943    0.9552 </r>
       <r>    8.5362    0.4909 </r>
       <r>   24.8213    0.0000 </r>
       <r>   31.1301    0.0000 </r>
       <r>   34.0190    0.0000 </r>
       <r>   38.8375    0.0000 </r>
       <r>   41.2685    0.0000 </r>
       <r>   44.0919    0.0000 </r>
      </set>
      <set comment="kpoint 11">
       <r>    2.1907    1.0000 </r>
       <r>    5.1912    1.0000 </r>
       <r>    5.5185    1.0000 </r>
       <r>    7.1184    1.0000 </r>
       <r>    8.1597    1.0103 </r>
       <r>    8.7553    0.5039 </r>
       <r>   27.7155    0.0000 </r>
       <r>   29.2538    0.0000 </r>
       <r>   35.7839    0.0000 </r>
       <r>   37.1311    0.0000 </r>
       <r>   41.1263    0.0000 </r>
       <r>   46.3197    0.0000 </r>
      </set>
      <set comment="kpoint 12">
       <r>    2.4360    1.0000 </r>
       <r>    4.5183    1.0000 </r>
       <r>    7.0904    1.0000 </r>
       <r>    7.9261    1.0000 </r>
       <r>    9.7844   -0.0784 </r>
       <r>    9.8796   -0.0048 </r>
       <r>   19.8338    0.0000 </r>
       <r>   29.4562    0.0000 </r>
       <r>   32.2544    0.0000 </r>
       <r>   38.0004    0.0000 </r>
       <r>   41.9505    0.0000 </r>
       <r>   45.3479    0.0000 </r>
      </set>
      <set comment="kpoint 13">
       <r>    3.1110    1.0000 </r>
       <r>    4.7471    1.0000 </r>
       <r>    5.6413    1.0000 </r>
       <r>    7.5808    1.0000 </r>
       <r>    8.7913    0.7573 </r>
       <r>   10.9652   -0.0356 </r>
       <r>   22.4366    0.0000 </r>
       <r>   26.6076    0.0000 </r>
       <r>   33.8044    0.0000 </r>
       <r>   37.4884    0.0000 </r>
       <r>   41.5392    0.0000 </r>
       <r>   47.2510    0.0000 </r>
      </set>
      <set comment="kpoint 14">
       <r>    3.0076    1.0000 </r>
       <r>    4.7237    1.0000 </r>
       <r>    5.8945    1.0000 </r>
       <r>    7.7627    1.0000 </r>
       <r>    9.2642    0.1291 </r>
       <r>   13.1519   -0.0005 </r>
       <r>   18.9257    0.0000 </r>
       <r>   25.7807    0.0000 </r>
       <r>   32.7533    0.0000 </r>
       <r>   38.1290    0.0000 </r>
       <r>   42.0039    0.0000 </r>
       <r>   46.5920    0.0000 </r>
      </set>
      <set comment="kpoint 15">
       <r>    3.9901    1.0000 </r>
       <r>    4.3228    1.0000 </r>
       <r>    5.1271    1.0000 </r>
       <r>    8.0318    1.0002 </r>
       <r>    8.7311    0.7186 </r>
       <r>   14.8666   -0.0000 </r>
       <r>   19.9748    0.0000 </r>
       <r>   22.0002    0.0000 </r>
       <r>   34.6985    0.0000 </r>
       <r>   37.3373    0.0000 </r>
       <r>   39.9829    0.0000 </r>
       <r>   49.9849    0.0000 </r>
      </set>
      <set comment="kpoint 16">
       <r>    4.3300    1.0000 </r>
       <r>    4.3300    1.0000 </r>
       <r>    4.7507    1.0000 </r>
       <r>    8.2602    1.0000 </r>
       <r>    8.2602    1.0000 </r>
       <r>   13.6798   -0.0015 </r>
       <r>   23.0339    0.0000 </r>
       <r>   23.0339    0.0000 </r>
       <r>   25.7146    0.0000 </r>
       <r>   45.5247    0.0000 </r>
       <r>   49.5571    0.0000 </r>
       <r>   49.5571    0.0000 </r>
      </set>
      <set comment="kpoint 17">
       <r>    4.2098    1.0000 </r>
       <r>    4.2796    1.0000 </r>
       <r>    5.2727    1.0000 </r>
       <r>    8.3140    1.0000 </r>
       <r>    8.3518    1.0007 </r>
       <r>   16.7673    0.0000 </r>
       <r>   19.2342    0.0000 </r>
       <r>   22.3794    0.0000 </r>
       <r>   24.4792    0.0000 </r>
       <r>   47.1063    0.0000 </r>
       <r>   51.2226    0.0000 </r>
       <r>   52.4234    0.0000 </r>
      </set>
      <set comment="kpoint 18">
       <r>    1.7735    1.0000 </r>
       <r>    6.0765    1.0000 </r>
       <r>    6.1580    1.0000 </r>
       <r>    6.1580    1.0000 </r>
       <r>    7.0189    1.0012 </r>
       <r>    8.7974    0.6254 </r>
       <r>   30.3020    0.0000 </r>
       <r>   32.6783    0.0000 </r>
       <r>   32.6783    0.0000 </r>
       <r>   34.5781    0.0000 </r>
       <r>   45.2600    0.0000 </r>
       <r>   45.2600    0.0000 </r>
      </set>
      <set comment="kpoint 19">
       <r>    3.1020    1.0000 </r>
       <r>    4.9073    1.0000 </r>
       <r>    5.9380    1.0000 </r>
       <r>    6.9595    1.0000 </r>
       <r>    8.3509    1.0032 </r>
       <r>    9.9187   -0.0467 </r>
       <r>   25.7474    0.0000 </r>
       <r>   29.8583    0.0000 </r>
       <r>   30.2498    0.0000 </r>
       <r>   35.1860    0.0000 </r>
       <r>   44.4111    0.0000 </r>
       <r>   46.5178    0.0000 </r>
      </set>
      <set comment="kpoint 20">
       <r>    3.1431    1.0000 </r>
       <r>    4.8597    1.0000 </r>
       <r>    5.6355    1.0000 </r>
       <r>    7.3163    1.0008 </r>
       <r>    9.6567   -0.0916 </r>
       <r>   12.7568   -0.0040 </r>
       <r>   20.2570    0.0000 </r>
       <r>   27.9332    0.0000 </r>
       <r>   29.2602    0.0000 </r>
       <r>   37.6295    0.0000 </r>
       <r>   43.3613    0.0000 </r>
       <r>   44.6369    0.0000 </r>
      </set>
      <set comment="kpoint 21">
       <r>    3.6855    1.0000 </r>
       <r>    3.9625    1.0000 </r>
       <r>    6.0589    1.0002 </r>
       <r>    7.5503    1.0037 </r>
       <r>    9.0142    0.2554 </r>
       <r>   12.7712   -0.0042 </r>
       <r>   23.2598    0.0000 </r>
       <r>   24.1953    0.0000 </r>
       <r>   31.9647    0.0000 </r>
       <r>   33.9974    0.0000 </r>
       <r>   43.1215    0.0000 </r>
       <r>   47.3768    0.0000 </r>
      </set>
      <set comment="kpoint 22">
       <r>    3.4666    1.0000 </r>
       <r>    4.0365    1.0000 </r>
       <r>    5.7684    1.0005 </r>
       <r>    8.0320    1.0051 </r>
       <r>    9.3592   -0.0438 </r>
       <r>   16.1500    0.0000 </r>
       <r>   19.1798    0.0000 </r>
       <r>   22.9487    0.0000 </r>
       <r>   32.0100    0.0000 </r>
       <r>   35.3533    0.0000 </r>
       <r>   40.9155    0.0000 </r>
       <r>   46.2412    0.0000 </r>
      </set>
      <set comment="kpoint 23">
       <r>    3.4046    1.0000 </r>
       <r>    3.8702    1.0000 </r>
       <r>    7.3056    1.0006 </r>
       <r>    7.3056    1.0087 </r>
       <r>    8.4021    0.8424 </r>
       <r>   12.0144   -0.0043 </r>
       <r>   26.3709    0.0000 </r>
       <r>   26.3709    0.0000 </r>
       <r>   28.2623    0.0000 </r>
       <r>   31.0728    0.0000 </r>
       <r>   45.6960    0.0000 </r>
       <r>   49.7004    0.0000 </r>
      </set>
      <set comment="kpoint 24">
       <r>    3.0559    1.0000 </r>
       <r>    3.2614    1.0000 </r>
       <r>    7.5137    1.0103 </r>
       <r>    7.9488    1.0381 </r>
       <r>    9.4810   -0.0141 </r>
       <r>   15.5966    0.0000 </r>
       <r>   21.2821    0.0000 </r>
       <r>   24.0934    0.0000 </r>
       <r>   28.6737    0.0000 </r>
       <r>   31.8908    0.0000 </r>
       <r>   40.9947    0.0000 </r>
       <r>   49.0656    0.0000 </r>
      </set>
      <set comment="kpoint 25">
       <r>    2.8350    1.0000 </r>
       <r>    2.8350    1.0000 </r>
       <r>    7.6734    1.0288 </r>
       <r>    9.2316    0.5888 </r>
       <r>    9.2316    0.0006 </r>
       <r>   19.4544    0.0000 </r>
       <r>   19.4544    0.0000 </r>
       <r>   21.0060    0.0000 </r>
       <r>   30.1911    0.0000 </r>
       <r>   30.1911    0.0000 </r>
       <r>   38.6232    0.0000 </r>
       <r>   49.7623    0.0000 </r>
      </set>
      <set comment="kpoint 26">
       <r>    2.4220    1.0000 </r>
       <r>    2.4492    1.0000 </r>
       <r>    9.1651    0.7062 </r>
       <r>    9.1651    0.3805 </r>
       <r>    9.4282   -0.0029 </r>
       <r>   18.6562    0.0000 </r>
       <r>   21.4875    0.0000 </r>
       <r>   21.4875    0.0000 </r>
       <r>   27.6005    0.0000 </r>
       <r>   28.8897    0.0000 </r>
       <r>   37.0311    0.0000 </r>
       <r>   52.7000    0.0000 </r>
      </set>
     </set>
     <set comment="spin 2">
      <set comment="kpoint 1">
       <r>    0.2456    1.0000 </r>
       <r>    6.8727    1.0000 </r>
       <r>    6.8727    1.0000 </r>
       <r>    8.1564    1.0294 </r>
       <r>    9.6178   -0.0046 </r>
       <r>    9.6178    0.0000 </r>
       <r>   33.5024    0.0000 </r>
       <r>   33.5024    0.0000 </r>
       <r>   37.4024    0.0000 </r>
       <r>   40.6521    0.0000 </r>
       <r>   45.0226    0.0000 </r>
       <r>   45.0226    0.0000 </r>
      </set>
      <set comment="kpoint 2">
       <r>    2.1533    1.0000 </r>
       <r>    6.1896    1.0000 </r>
       <r>    6.4940    1.0000 </r>
       <r>    9.4457    0.0494 </r>
       <r>    9.7085   -0.0037 </r>
       <r>    9.8524    0.0000 </r>
       <r>   28.4249    0.0000 </r>
       <r>   31.1596    0.0000 </r>
       <r>   35.8890    0.0000 </r>
       <r>   38.4752    0.0000 </r>
       <r>   45.4771    0.0000 </r>
       <r>   45.6476    0.0000 </r>
      </set>
      <set comment="kpoint 3">
       <r>    3.4667    1.0000 </r>
       <r>    5.6157    1.0000 </r>
       <r>    7.2963    1.0000 </r>
       <r>    9.6401   -0.0181 </r>
       <r>   10.0581    0.0000 </r>
       <r>   11.6176    0.0000 </r>
       <r>   22.9226    0.0000 </r>
       <r>   29.1138    0.0000 </r>
       <r>   32.8590    0.0000 </r>
       <r>   38.6990    0.0000 </r>
       <r>   44.7480    0.0000 </r>
       <r>   49.2042    0.0000 </r>
      </set>
      <set comment="kpoint 4">
       <r>    3.5093    1.0000 </r>
       <r>    5.3987    1.0000 </r>
       <r>    8.5689    1.0000 </r>
       <r>    9.7595   -0.0020 </r>
       <r>   10.1483    0.0000 </r>
       <r>   12.8784    0.0000 </r>
       <r>   19.9181    0.0000 </r>
       <r>   28.3106    0.0000 </r>
       <r>   31.7020    0.0000 </r>
       <r>   38.6920    0.0000 </r>
       <r>   44.8077    0.0000 </r>
       <r>   48.5138    0.0000 </r>
      </set>
      <set comment="kpoint 5">
       <r>   -0.5120    1.0000 </r>
       <r>    7.2140    1.0000 </r>
       <r>    7.2140    1.0000 </r>
       <r>    7.3618    1.0126 </r>
       <r>    9.4846   -0.0098 </r>
       <r>    9.8579    0.0000 </r>
       <r>   34.8699    0.0000 </r>
       <r>   36.3787    0.0000 </r>
       <r>   36.3787    0.0000 </r>
       <r>   41.6824    0.0000 </r>
       <r>   45.5429    0.0000 </r>
       <r>   45.5429    0.0000 </r>
      </set>
      <set comment="kpoint 6">
       <r>    3.9486    1.0000 </r>
       <r>    5.7213    1.0000 </r>
       <r>    5.9673    1.0000 </r>
       <r>    9.5771   -0.0188 </r>
       <r>   10.0751    0.0000 </r>
       <r>   11.9217    0.0000 </r>
       <r>   25.6488    0.0000 </r>
       <r>   26.7565    0.0000 </r>
       <r>   31.5957    0.0000 </r>
       <r>   40.7450    0.0000 </r>
       <r>   46.1207    0.0000 </r>
       <r>   48.9888    0.0000 </r>
      </set>
      <set comment="kpoint 7">
       <r>    4.4102    1.0000 </r>
       <r>    5.4361    1.0000 </r>
       <r>    6.7813    1.0000 </r>
       <r>    9.8048   -0.0015 </r>
       <r>   10.1961    0.0000 </r>
       <r>   14.6330    0.0000 </r>
       <r>   21.0088    0.0000 </r>
       <r>   24.9040    0.0000 </r>
       <r>   29.8582    0.0000 </r>
       <r>   41.6163    0.0000 </r>
       <r>   46.7167    0.0000 </r>
       <r>   50.1364    0.0000 </r>
      </set>
      <set comment="kpoint 8">
       <r>    0.9420    1.0000 </r>
       <r>    6.7591    1.0000 </r>
       <r>    7.0595    1.0000 </r>
       <r>    8.3235    0.9932 </r>
       <r>    8.9974    0.0390 </r>
       <r>   10.0291    0.0000 </r>
       <r>   31.1995    0.0000 </r>
       <r>   34.3189    0.0000 </r>
       <r>   36.0146    0.0000 </r>
       <r>   40.9970    0.0000 </r>
       <r>   42.0306    0.0000 </r>
       <r>   43.5426    0.0000 </r>
      </set>
      <set comment="kpoint 9">
       <r>    4.8683    1.0000 </r>
       <r>    5.9333    1.0000 </r>
       <r>    5.9333    1.0000 </r>
       <r>   10.0530    0.0000 </r>
       <r>   10.0530    0.0000 </r>
       <r>   18.5406    0.0000 </r>
       <r>   18.5406    0.0000 </r>
       <r>   21.9354    0.0000 </r>
       <r>   29.3015    0.0000 </r>
       <r>   44.3313    0.0000 </r>
       <r>   44.3313    0.0000 </r>
       <r>   54.1393    0.0000 </r>
      </set>
      <set comment="kpoint 10">
       <r>    2.8481    1.0000 </r>
       <r>    6.1023    1.0000 </r>
       <r>    6.9878    1.0000 </r>
       <r>    9.1953    0.1242 </r>
       <r>    9.9314   -0.0088 </r>
       <r>   10.2523    0.0000 </r>
       <r>   25.5985    0.0000 </r>
       <r>   31.5076    0.0000 </r>
       <r>   34.6176    0.0000 </r>
       <r>   39.3948    0.0000 </r>
       <r>   41.8356    0.0000 </r>
       <r>   44.5489    0.0000 </r>
      </set>
      <set comment="kpoint 11">
       <r>    2.6742    1.0000 </r>
       <r>    6.4340    1.0000 </r>
       <r>    6.6793    1.0000 </r>
       <r>    8.6681    0.6984 </r>
       <r>    9.5650   -0.0077 </r>
       <r>   10.4556    0.0000 </r>
       <r>   28.4282    0.0000 </r>
       <r>   29.8227    0.0000 </r>
       <r>   36.2393    0.0000 </r>
       <r>   37.6514    0.0000 </r>
       <r>   41.6291    0.0000 </r>
       <r>   46.8135    0.0000 </r>
      </set>
      <set comment="kpoint 12">
       <r>    3.3470    1.0000 </r>
       <r>    5.6665    1.0000 </r>
       <r>    8.2012    1.0000 </r>
       <r>    9.5307   -0.0276 </r>
       <r>   11.0707    0.0000 </r>
       <r>   11.2599    0.0000 </r>
       <r>   20.8054    0.0000 </r>
       <r>   29.8047    0.0000 </r>
       <r>   32.8240    0.0000 </r>
       <r>   38.5937    0.0000 </r>
       <r>   42.5934    0.0000 </r>
       <r>   45.7306    0.0000 </r>
      </set>
      <set comment="kpoint 13">
       <r>    3.9564    1.0000 </r>
       <r>    5.9108    1.0000 </r>
       <r>    6.7157    1.0000 </r>
       <r>    9.1054    0.0767 </r>
       <r>   10.3861   -0.0009 </r>
       <r>   12.2311    0.0000 </r>
       <r>   23.2749    0.0000 </r>
       <r>   27.2273    0.0000 </r>
       <r>   34.2658    0.0000 </r>
       <r>   38.0177    0.0000 </r>
       <r>   42.0216    0.0000 </r>
       <r>   47.8053    0.0000 </r>
      </set>
      <set comment="kpoint 14">
       <r>    3.9970    1.0000 </r>
       <r>    5.8681    1.0000 </r>
       <r>    7.0201    1.0000 </r>
       <r>    9.3267   -0.0186 </r>
       <r>   10.7797    0.0000 </r>
       <r>   14.1716    0.0000 </r>
       <r>   19.9165    0.0000 </r>
       <r>   26.3920    0.0000 </r>
       <r>   33.1927    0.0000 </r>
       <r>   38.7210    0.0000 </r>
       <r>   42.3959    0.0000 </r>
       <r>   47.1906    0.0000 </r>
      </set>
      <set comment="kpoint 15">
       <r>    4.9991    1.0000 </r>
       <r>    5.4659    1.0000 </r>
       <r>    6.2453    1.0000 </r>
       <r>    9.5564   -0.0245 </r>
       <r>   10.2839    0.0000 </r>
       <r>   15.9010    0.0000 </r>
       <r>   20.8833    0.0000 </r>
[...]
       </set>
       <set comment="band 5">
        <r>  0.0098  0.0029  0.0029  0.0215  0.1000  0.3497  0.1014  0.1000  0.3042 </r>
       </set>
       <set comment="band 6">
        <r>  0.0623  0.0638  0.0638  0.3060  0.0890  0.1503  0.0518  0.0890  0.1554 </r>
       </set>
       <set comment="band 7">
        <r>  0.0000  0.2440  0.2440  0.0000  0.1696  0.0000  0.1887  0.1696  0.0629 </r>
       </set>
       <set comment="band 8">
        <r>  0.4790  0.0442  0.0442  0.0279  0.1187  0.1178  0.0015  0.1187  0.0044 </r>
       </set>
       <set comment="band 9">
        <r>  0.0353  0.1987  0.1987  0.0796  0.0704  0.1101  0.0016  0.0704  0.0048 </r>
       </set>
       <set comment="band 10">
        <r>  0.0000  0.0456  0.0456  0.0000  0.0925  0.0000  0.4181  0.0925  0.1394 </r>
       </set>
       <set comment="band 11">
        <r>  0.0249  0.0049  0.0049  0.0406  0.0287  0.2327  0.1327  0.0287  0.3980 </r>
       </set>
       <set comment="band 12">
        <r>  0.1015  0.0392  0.0392  0.2129  0.3186  0.4197  0.0276  0.3186  0.0828 </r>
       </set>
      </set>
      <set comment="kpoint 16">
       <set comment="band 1">
        <r>  0.0000  0.0201  0.0258  0.0687  0.1919  0.5120  0.0182  0.1497  0.0358 </r>
       </set>
       <set comment="band 2">
        <r>  0.0000  0.0563  0.0506  0.0077  0.3772  0.0571  0.0358  0.4194  0.0182 </r>
       </set>
       <set comment="band 3">
        <r>  0.1761  0.1188  0.1188  0.1188  0.1601  0.1601  0.0000  0.1601  0.0000 </r>
       </set>
       <set comment="band 4">
        <r>  0.0000  0.0000  0.0001  0.0001  0.0359  0.0201  0.7772  0.0082  0.1498 </r>
       </set>
       <set comment="band 5">
        <r>  0.0000  0.0001  0.0000  0.0001  0.0069  0.0227  0.1498  0.0346  0.7772 </r>
       </set>
       <set comment="band 6">
        <r>  0.0835  0.0914  0.0914  0.0914  0.2167  0.2167  0.0000  0.2167  0.0000 </r>
       </set>
       <set comment="band 7">
        <r>  0.0000  0.0671  0.2573  0.0640  0.3706  0.0922  0.0589  0.0966  0.0004 </r>
       </set>
       <set comment="band 8">
        <r>  0.0000  0.1919  0.0016  0.1949  0.0023  0.2808  0.0004  0.2764  0.0589 </r>
       </set>
       <set comment="band 9">
        <r>  0.6005  0.0875  0.0875  0.0875  0.0034  0.0034  0.0000  0.0034  0.0000 </r>
       </set>
       <set comment="band 10">
        <r>  0.0000  0.0000  0.0000  0.0000  0.0000  0.0000  0.0000  0.0000  0.0000 </r>
       </set>
       <set comment="band 11">
        <r>  0.0000  0.0082  0.0033  0.0014  0.2093  0.0857  0.0300  0.5205  0.0479 </r>
       </set>
       <set comment="band 12">
        <r>  0.0000  0.0004  0.0053  0.0072  0.3344  0.4580  0.0479  0.0232  0.0300 </r>
       </set>
      </set>
      <set comment="kpoint 17">
       <set comment="band 1">
        <r>  0.0385  0.0000  0.0000  0.1834  0.0000  0.7372  0.0154  0.0000  0.0461 </r>
       </set>
       <set comment="band 2">
        <r>  0.0000  0.0646  0.0646  0.0000  0.4495  0.0000  0.0000  0.4495  0.0000 </r>
       </set>
       <set comment="band 3">
        <r>  0.0000  0.1636  0.1636  0.0000  0.3443  0.0000  0.0000  0.3443  0.0000 </r>
       </set>
       <set comment="band 4">
        <r>  0.0006  0.0000  0.0000  0.0008  0.0000  0.0745  0.2294  0.0000  0.6882 </r>
       </set>
       <set comment="band 5">
        <r>  0.0000  0.0000  0.0000  0.0000  0.0000  0.0000  0.7458  0.0000  0.2486 </r>
       </set>
       <set comment="band 6">
        <r>  0.0000  0.2324  0.2324  0.0000  0.2699  0.0000  0.0000  0.2699  0.0000 </r>
       </set>
       <set comment="band 7">
        <r>  0.1990  0.0000  0.0000  0.2668  0.0000  0.5207  0.0097  0.0000  0.0290 </r>
       </set>
       <set comment="band 8">
        <r>  0.0000  0.2011  0.2011  0.0000  0.2961  0.0000  0.0000  0.2961  0.0000 </r>
       </set>
       <set comment="band 9">
        <r>  0.6201  0.0000  0.0000  0.2088  0.0000  0.0402  0.0021  0.0000  0.0062 </r>
       </set>
       <set comment="band 10">
        <r>  0.0000  0.0007  0.0007  0.0000  0.1713  0.0000  0.0000  0.1713  0.0000 </r>
       </set>
       <set comment="band 11">
        <r>  0.0000  0.0401  0.0401  0.0000  0.0930  0.0000  0.0000  0.0930  0.0000 </r>
       </set>
       <set comment="band 12">
        <r>  0.0179  0.0000  0.0000  0.1577  0.0000  0.2220  0.1234  0.0000  0.3922 </r>
       </set>
      </set>
      <set comment="kpoint 18">
       <set comment="band 1">
        <r>  0.6656  0.0000  0.0000  0.2640  0.0000  0.0000  0.0192  0.0000  0.0576 </r>
       </set>
       <set comment="band 2">
        <r>  0.0000  0.0184  0.0184  0.0000  0.4861  0.0000  0.0000  0.4861  0.0000 </r>
       </set>
       <set comment="band 3">
        <r>  0.0000  0.0184  0.0184  0.0000  0.4861  0.0000  0.0000  0.4861  0.0000 </r>
       </set>
       <set comment="band 4">
        <r>  0.0000  0.0000  0.0000  0.0000  0.0000  0.0000  0.7008  0.0000  0.2336 </r>
       </set>
       <set comment="band 5">
        <r>  0.0000  0.0000  0.0000  0.0000  0.0000  0.9985  0.0000  0.0000  0.0000 </r>
       </set>
       <set comment="band 6">
        <r>  0.0498  0.0000  0.0000  0.0169  0.0000  0.0000  0.2325  0.0000  0.6974 </r>
       </set>
       <set comment="band 7">
        <r>  0.0000  0.0000  0.0000  0.0000  0.0000  0.0000  0.6661  0.0000  0.2220 </r>
       </set>
       <set comment="band 8">
        <r>  0.0000  0.1607  0.1607  0.0000  0.4395  0.0000  0.0000  0.4394  0.0000 </r>
       </set>
       <set comment="band 9">
        <r>  0.0000  0.1607  0.1607  0.0000  0.4394  0.0000  0.0000  0.4395  0.0000 </r>
       </set>
       <set comment="band 10">
        <r>  0.1428  0.0000  0.0000  0.2601  0.0000  0.0000  0.0002  0.0000  0.0006 </r>
       </set>
       <set comment="band 11">
        <r>  0.0000  0.2740  0.0949  0.0000  0.0002  0.0000  0.0000  0.0001  0.0000 </r>
       </set>
       <set comment="band 12">
        <r>  0.0000  0.0949  0.2740  0.0000  0.0001  0.0000  0.0000  0.0002  0.0000 </r>
       </set>
      </set>
      <set comment="kpoint 19">
       <set comment="band 1">
        <r>  0.3620  0.0058  0.0000  0.2859  0.0889  0.0000  0.1259  0.0000  0.1306 </r>
       </set>
       <set comment="band 2">
        <r>  0.0076  0.0386  0.0000  0.0250  0.1373  0.0000  0.4444  0.0000  0.2963 </r>
       </set>
       <set comment="band 3">
        <r>  0.0000  0.0000  0.0359  0.0000  0.0000  0.2970  0.0000  0.6740  0.0000 </r>
       </set>
       <set comment="band 4">
        <r>  0.0000  0.0408  0.0000  0.0148  0.6989  0.0000  0.2295  0.0000  0.0019 </r>
       </set>
       <set comment="band 5">
        <r>  0.0000  0.0000  0.0144  0.0000  0.0000  0.6947  0.0000  0.2774  0.0000 </r>
       </set>
       <set comment="band 6">
        <r>  0.1426  0.0158  0.0000  0.1067  0.0111  0.0000  0.1549  0.0000  0.5783 </r>
       </set>
       <set comment="band 7">
        <r>  0.0845  0.2798  0.0000  0.0324  0.3955  0.0000  0.2193  0.0000  0.0861 </r>
       </set>
       <set comment="band 8">
        <r>  0.0000  0.0000  0.5092  0.0000  0.0000  0.0171  0.0000  0.6589  0.0000 </r>
       </set>
       <set comment="band 9">
        <r>  0.0894  0.0038  0.0000  0.0748  0.0681  0.0000  0.4907  0.0000  0.0686 </r>
       </set>
       <set comment="band 10">
        <r>  0.0528  0.2063  0.0000  0.0557  0.2009  0.0000  0.0426  0.0000  0.1824 </r>
       </set>
       <set comment="band 11">
        <r>  0.0000  0.0000  0.1937  0.0000  0.0000  0.8508  0.0000  0.1624  0.0000 </r>
       </set>
       <set comment="band 12">
        <r>  0.0736  0.2127  0.0000  0.0120  0.0912  0.0000  0.2756  0.0000  0.1155 </r>
       </set>
      </set>
      <set comment="kpoint 20">
       <set comment="band 1">
        <r>  0.1196  0.0059  0.0000  0.0819  0.2849  0.0000  0.4805  0.0000  0.0139 </r>
       </set>
       <set comment="band 2">
        <r>  0.0121  0.1090  0.0000  0.1376  0.0056  0.0000  0.0580  0.0000  0.6406 </r>
       </set>
       <set comment="band 3">
        <r>  0.0000  0.0000  0.0348  0.0000  0.0000  0.4377  0.0000  0.5365  0.0000 </r>
       </set>
       <set comment="band 4">
        <r>  0.0297  0.0183  0.0000  0.0005  0.5486  0.0000  0.3723  0.0000  0.0067 </r>
       </set>
       <set comment="band 5">
        <r>  0.0000  0.0000  0.0041  0.0000  0.0000  0.5551  0.0000  0.4320  0.0000 </r>
       </set>
       <set comment="band 6">
        <r>  0.0849  0.1611  0.0000  0.3308  0.0330  0.0000  0.0296  0.0000  0.3866 </r>
       </set>
       <set comment="band 7">
        <r>  0.2843  0.2266  0.0000  0.0010  0.3911  0.0000  0.1434  0.0000  0.0331 </r>
       </set>
       <set comment="band 8">
        <r>  0.0000  0.0000  0.6440  0.0000  0.0000  0.1012  0.0000  0.3342  0.0000 </r>
       </set>
       <set comment="band 9">
        <r>  0.0963  0.0209  0.0000  0.0512  0.0215  0.0000  0.5617  0.0000  0.0082 </r>
       </set>
       <set comment="band 10">
        <r>  0.0079  0.1415  0.0000  0.0001  0.0397  0.0000  0.0333  0.0000  0.5715 </r>
       </set>
       <set comment="band 11">
        <r>  0.0000  0.0000  0.1557  0.0000  0.0000  0.7463  0.0000  0.4668  0.0000 </r>
       </set>
       <set comment="band 12">
        <r>  0.0078  0.1633  0.0000  0.2072  0.0044  0.0000  0.5618  0.0000  0.1125 </r>
       </set>
      </set>
      <set comment="kpoint 21">
       <set comment="band 1">
        <r>  0.1290  0.0054  0.0054  0.2283  0.0540  0.0010  0.1269  0.0540  0.3806 </r>
       </set>
       <set comment="band 2">
        <r>  0.0000  0.0266  0.0266  0.0000  0.0548  0.0000  0.5934  0.0548  0.1978 </r>
       </set>
       <set comment="band 3">
        <r>  0.0089  0.0225  0.0225  0.0120  0.2568  0.3359  0.0200  0.2568  0.0601 </r>
       </set>
       <set comment="band 4">
        <r>  0.0000  0.0263  0.0263  0.0000  0.3996  0.0000  0.1007  0.3996  0.0336 </r>
       </set>
       <set comment="band 5">
        <r>  0.0167  0.0005  0.0005  0.0100  0.1221  0.6148  0.0249  0.1221  0.0748 </r>
       </set>
       <set comment="band 6">
        <r>  0.1652  0.0292  0.0292  0.3019  0.0407  0.0371  0.0952  0.0407  0.2857 </r>
       </set>
       <set comment="band 7">
        <r>  0.0000  0.2409  0.2409  0.0000  0.1535  0.0000  0.2575  0.1535  0.0858 </r>
       </set>
       <set comment="band 8">
        <r>  0.2417  0.1648  0.1648  0.0309  0.1634  0.0392  0.0051  0.1634  0.0153 </r>
       </set>
       <set comment="band 9">
        <r>  0.0000  0.0699  0.0699  0.0000  0.0848  0.0000  0.5660  0.0848  0.1887 </r>
       </set>
       <set comment="band 10">
        <r>  0.0658  0.1186  0.1186  0.0209  0.0163  0.0039  0.0831  0.0163  0.2493 </r>
       </set>
       <set comment="band 11">
        <r>  0.0035  0.0771  0.0771  0.1134  0.0791  0.3845  0.0717  0.0791  0.2150 </r>
       </set>
       <set comment="band 12">
        <r>  0.1680  0.0010  0.0010  0.2252  0.1473  0.3511  0.0618  0.1473  0.1854 </r>
       </set>
      </set>
      <set comment="kpoint 22">
       <set comment="band 1">
        <r>  0.0275  0.0307  0.0290  0.0307  0.1396  0.0001  0.7113  0.0001  0.0000 </r>
       </set>
       <set comment="band 2">
        <r>  0.0000  0.0913  0.0000  0.0913  0.0000  0.0155  0.0000  0.0155  0.7517 </r>
       </set>
       <set comment="band 3">
        <r>  0.0412  0.0018  0.0290  0.0018  0.1768  0.3562  0.0341  0.3562  0.0000 </r>
       </set>
       <set comment="band 4">
        <r>  0.0136  0.0112  0.0204  0.0112  0.5400  0.1115  0.1641  0.1115  0.0000 </r>
       </set>
       <set comment="band 5">
        <r>  0.0000  0.0157  0.0000  0.0157  0.0000  0.4438  0.0000  0.4438  0.0725 </r>
       </set>
       <set comment="band 6">
        <r>  0.0000  0.3208  0.0000  0.3208  0.0000  0.0509  0.0000  0.0509  0.3048 </r>
       </set>
       <set comment="band 7">
        <r>  0.2571  0.1193  0.0660  0.1193  0.3148  0.0000  0.1828  0.0000  0.0000 </r>
       </set>
       <set comment="band 8">
        <r>  0.1897  0.0013  0.4289  0.0013  0.0091  0.1347  0.1051  0.1347  0.0000 </r>
       </set>
       <set comment="band 9">
        <r>  0.0216  0.0009  0.1577  0.0009  0.0323  0.0237  0.6953  0.0237  0.0000 </r>
       </set>
       <set comment="band 10">
        <r>  0.0000  0.0502  0.0000  0.0502  0.0000  0.0099  0.0000  0.0099  0.8057 </r>
       </set>
       <set comment="band 11">
        <r>  0.0171  0.1957  0.0981  0.1957  0.0038  0.0969  0.1295  0.0969  0.0000 </r>
       </set>
       <set comment="band 12">
        <r>  0.2355  0.0457  0.0045  0.0457  0.2446  0.4014  0.0264  0.4014  0.0000 </r>
       </set>
      </set>
      <set comment="kpoint 23">
       <set comment="band 1">
        <r>  0.1326  0.0000  0.0000  0.2624  0.0000  0.0000  0.1468  0.0000  0.4405 </r>
       </set>
       <set comment="band 2">
        <r>  0.0000  0.0000  0.0000  0.0000  0.0000  0.0000  0.7038  0.0000  0.2346 </r>
       </set>
       <set comment="band 3">
        <r>  0.0000  0.0369  0.0369  0.0000  0.4585  0.0000  0.0000  0.4585  0.0000 </r>
       </set>
       <set comment="band 4">
        <r>  0.0000  0.0369  0.0369  0.0000  0.4585  0.0000  0.0000  0.4585  0.0000 </r>
       </set>
       <set comment="band 5">
        <r>  0.0000  0.0000  0.0000  0.0000  0.0000  0.9821  0.0000  0.0000  0.0000 </r>
       </set>
       <set comment="band 6">
        <r>  0.2450  0.0000  0.0000  0.2921  0.0000  0.0000  0.1198  0.0000  0.3595 </r>
       </set>
       <set comment="band 7">
        <r>  0.0000  0.3188  0.3187  0.0000  0.2315  0.0000  0.0000  0.2315  0.0000 </r>
       </set>
       <set comment="band 8">
        <r>  0.0000  0.3187  0.3188  0.0000  0.2315  0.0000  0.0000  0.2315  0.0000 </r>
       </set>
       <set comment="band 9">
        <r>  0.0000  0.0000  0.0000  0.0000  0.0000  0.0000  0.9068  0.0000  0.3023 </r>
       </set>
       <set comment="band 10">
        <r>  0.2467  0.0000  0.0000  0.0580  0.0000  0.0000  0.0888  0.0000  0.2664 </r>
       </set>
       <set comment="band 11">
        <r>  0.1459  0.0000  0.0000  0.3473  0.0000  0.0000  0.1507  0.0000  0.4520 </r>
       </set>
       <set comment="band 12">
        <r>  0.0000  0.0000  0.0000  0.0000  0.0000  1.4311  0.0000  0.0000  0.0000 </r>
       </set>
      </set>
      <set comment="kpoint 24">
       <set comment="band 1">
        <r>  0.0186  0.0016  0.0000  0.0741  0.0274  0.0000  0.7628  0.0000  0.0786 </r>
       </set>
       <set comment="band 2">
        <r>  0.0037  0.0313  0.0000  0.0534  0.0017  0.0000  0.1132  0.0000  0.7561 </r>
       </set>
       <set comment="band 3">
        <r>  0.0000  0.0000  0.0580  0.0000  0.0000  0.3417  0.0000  0.5870  0.0000 </r>
       </set>
       <set comment="band 4">
        <r>  0.0238  0.0503  0.0000  0.0095  0.8512  0.0000  0.0464  0.0000  0.0013 </r>
       </set>
       <set comment="band 5">
        <r>  0.0000  0.0000  0.0040  0.0000  0.0000  0.6363  0.0000  0.3482  0.0000 </r>
       </set>
       <set comment="band 6">
        <r>  0.1414  0.0603  0.0000  0.5090  0.0276  0.0000  0.0475  0.0000  0.2383 </r>
       </set>
       <set comment="band 7">
        <r>  0.1283  0.5286  0.0000  0.0003  0.2394  0.0000  0.0812  0.0000  0.0624 </r>
       </set>
       <set comment="band 8">
        <r>  0.0000  0.0000  0.7467  0.0000  0.0000  0.0430  0.0000  0.2238  0.0000 </r>
       </set>
       <set comment="band 9">
        <r>  0.0647  0.0061  0.0000  0.0025  0.0180  0.0000  1.0336  0.0000  0.0323 </r>
       </set>
       <set comment="band 10">
        <r>  0.0610  0.0982  0.0000  0.0026  0.0102  0.0000  0.0022  0.0000  0.8201 </r>
       </set>
       <set comment="band 11">
        <r>  0.2963  0.0736  0.0000  0.2791  0.0165  0.0000  0.1112  0.0000  0.1182 </r>
       </set>
       <set comment="band 12">
        <r>  0.0000  0.0000  0.0831  0.0000  0.0000  0.7047  0.0000  0.3215  0.0000 </r>
       </set>
      </set>
      <set comment="kpoint 25">
       <set comment="band 1">
        <r>  0.0000  0.0249  0.0000  0.0249  0.0000  0.0035  0.0000  0.0035  0.9048 </r>
       </set>
       <set comment="band 2">
        <r>  0.0000  0.0083  0.0331  0.0083  0.0046  0.0012  0.9048  0.0012  0.0000 </r>
       </set>
       <set comment="band 3">
        <r>  0.0205  0.0188  0.0188  0.0188  0.3020  0.3020  0.0000  0.3020  0.0000 </r>
       </set>
       <set comment="band 4">
        <r>  0.0000  0.0050  0.0199  0.0050  0.6289  0.1572  0.0143  0.1572  0.0000 </r>
       </set>
       <set comment="band 5">
        <r>  0.0000  0.0150  0.0000  0.0150  0.0000  0.4717  0.0000  0.4717  0.0143 </r>
       </set>
       <set comment="band 6">
        <r>  0.0000  0.3719  0.0000  0.3719  0.0000  0.0369  0.0000  0.0369  0.2141 </r>
       </set>
       <set comment="band 7">
        <r>  0.0000  0.1240  0.4959  0.1240  0.0493  0.0123  0.2141  0.0123  0.0000 </r>
       </set>
       <set comment="band 8">
        <r>  0.2562  0.1624  0.1624  0.1624  0.0713  0.0713  0.0000  0.0713  0.0000 </r>
       </set>
       <set comment="band 9">
        <r>  0.0000  0.0448  0.0000  0.0450  0.0000  0.0064  0.0000  0.0064  1.0809 </r>
       </set>
       <set comment="band 10">
        <r>  0.0000  0.0151  0.0599  0.0149  0.0086  0.0021  1.0809  0.0022  0.0000 </r>
       </set>
       <set comment="band 11">
        <r>  0.4604  0.0995  0.0995  0.0995  0.0034  0.0034  0.0000  0.0034  0.0000 </r>
       </set>
       <set comment="band 12">
        <r>  0.0489  0.0179  0.0179  0.0179  0.2902  0.2902  0.0000  0.2902  0.0000 </r>
       </set>
      </set>
      <set comment="kpoint 26">
       <set comment="band 1">
        <r>  0.0000  0.0000  0.0000  0.0000  0.0000  0.0000  0.7204  0.0000  0.2401 </r>
       </set>
       <set comment="band 2">
        <r>  0.0013  0.0000  0.0000  0.0335  0.0000  0.0000  0.2326  0.0000  0.6977 </r>
       </set>
       <set comment="band 3">
        <r>  0.0000  0.0154  0.0154  0.0000  0.4777  0.0000  0.0000  0.4777  0.0000 </r>
       </set>
       <set comment="band 4">
        <r>  0.0000  0.0154  0.0154  0.0000  0.4777  0.0000  0.0000  0.4777  0.0000 </r>
       </set>
       <set comment="band 5">
        <r>  0.0000  0.0000  0.0000  0.0000  0.0000  0.9875  0.0000  0.0000  0.0000 </r>
       </set>
       <set comment="band 6">
        <r>  0.0852  0.0000  0.0000  0.7508  0.0000  0.0000  0.0349  0.0000  0.1047 </r>
       </set>
       <set comment="band 7">
        <r>  0.0000  0.4322  0.4322  0.0000  0.0400  0.0000  0.0000  0.0400  0.0000 </r>
       </set>
       <set comment="band 8">
        <r>  0.0000  0.4322  0.4322  0.0000  0.0400  0.0000  0.0000  0.0400  0.0000 </r>
       </set>
       <set comment="band 9">
        <r>  0.0000  0.0000  0.0000  0.0000  0.0000  0.0000  1.0239  0.0000  0.3413 </r>
       </set>
       <set comment="band 10">
        <r>  0.0408  0.0000  0.0000  0.0277  0.0000  0.0000  0.2940  0.0000  0.8819 </r>
       </set>
       <set comment="band 11">
        <r>  0.6310  0.0000  0.0000  0.1144  0.0000  0.0000  0.0095  0.0000  0.0285 </r>
       </set>
       <set comment="band 12">
        <r>  0.0000  0.0000  0.0000  0.0000  0.0000  0.3394  0.0000  0.0000  0.0000 </r>
       </set>
      </set>
     </set>
    </set>
   </array>
  </projected>
 </calculation>
 <structure name="finalpos" >
  <crystal>
   <varray name="basis" >
    <v>      -1.30000000       1.30000000       1.30000000 </v>
    <v>       1.30000000      -1.30000000       1.30000000 </v>
    <v>       1.30000000       1.30000000      -1.30000000 </v>
   </varray>
   <i name="volume">      8.78800000 </i>
   <varray name="rec_basis" >
    <v>       0.00000000       0.38461538       0.38461538 </v>
    <v>       0.38461538       0.00000000       0.38461538 </v>
    <v>       0.38461538       0.38461538       0.00000000 </v>
   </varray>
  </crystal>
  <varray name="positions" >
   <v>       0.00000000       0.00000000       0.00000000 </v>
  </varray>
 </structure>
</modeling>
