Fe FCC                                  
   2.50000000000000     
    -0.500000    0.500000    0.500000
     0.500000   -0.500000    0.500000
     0.500000    0.500000   -0.500000
   Fe
     1
Direct
  0.000000  0.000000  0.000000
 
   28   28   28
 0.65915358037E+02 0.64366671180E+02 0.59950598265E+02 0.53293601941E+02 0.45255981665E+02
 0.36737765250E+02 0.28523117285E+02 0.21200014028E+02 0.15146859686E+02 0.10549715085E+02
 0.74174971424E+01 0.55889785421E+01 0.47505565446E+01 0.44869193710E+01 0.44233816357E+01
 0.44869193710E+01 0.47505565446E+01 0.55889785421E+01 0.74174971424E+01 0.10549715085E+02
 0.15146859686E+02 0.21200014028E+02 0.28523117285E+02 0.36737765250E+02 0.45255981665E+02
 0.53293601941E+02 0.59950598265E+02 0.64366671180E+02 0.64366671180E+02 0.63856054746E+02
 0.60413158986E+02 0.54536182704E+02 0.47012628225E+02 0.38731580750E+02 0.30512886506E+02
 0.23002517776E+02 0.16640043853E+02 0.11668838374E+02 0.81529983227E+01 0.59856171102E+01
 0.49006471122E+01 0.45116978951E+01 0.44056550880E+01 0.44271427715E+01 0.45910542801E+01
 0.51646840166E+01 0.65727623686E+01 0.91683801977E+01 0.13167192199E+02 0.18619714160E+02
 0.25403175795E+02 0.33210519837E+02 0.41532698032E+02 0.49658503789E+02 0.56729310323E+02
 0.61868792347E+02 0.59950598265E+02 0.60413158986E+02 0.58048647588E+02 0.53204164696E+02
 0.46548630866E+02 0.38907090279E+02 0.31089067520E+02 0.23766802127E+02 0.17422518094E+02
 0.12346170388E+02 0.86497222735E+01 0.62765715220E+01 0.50105993867E+01 0.45056560644E+01
 0.43545211371E+01 0.43341258285E+01 0.44373509535E+01 0.47811451796E+01 0.57530829037E+01
 0.77312912724E+01 0.10981100248E+02 0.15613949612E+02 0.21573500232E+02 0.28627929383E+02
 0.36356604063E+02 0.44144172629E+02 0.51214271684E+02 0.56729310323E+02 0.53293601941E+02
 0.54536182704E+02 0.53204164696E+02 0.49495792553E+02 0.43936092794E+02 0.37243695354E+02
 0.30172470174E+02 0.23383508154E+02 0.17376021023E+02 0.12470343959E+02 0.88154364467E+01
 0.63976078891E+01 0.50482958407E+01 0.44669102335E+01 0.42755271837E+01 0.42171292503E+01
 0.42799304373E+01 0.44761825541E+01 0.50647656929E+01 0.64269839411E+01 0.88668619183E+01
 0.12554590453E+02 0.17501843010E+02 0.23553101878E+02 0.30377695004E+02 0.37464821282E+02
 0.44144172629E+02 0.49658503789E+02 0.45255981665E+02 0.47012628225E+02 0.46548630866E+02
 0.43936092794E+02 0.39553754977E+02 0.33989788705E+02 0.27906933016E+02 0.21919490168E+02
 0.16515033145E+02 0.12024067901E+02 0.86184869410E+01 0.63173724638E+01 0.49937036129E+01
 0.43926380561E+01 0.41762281110E+01 0.40871548100E+01 0.41112689625E+01 0.42440645900E+01
 0.45611521188E+01 0.53884325185E+01 0.70503623852E+01 0.97679217115E+01 0.13619981456E+02
 0.18527830772E+02 0.24249335846E+02 0.30377695004E+02 0.36356604063E+02 0.41532698032E+02
 0.36737765250E+02 0.38731580750E+02 0.38907090279E+02 0.37243695354E+02 0.33989788705E+02
 0.29598638017E+02 0.24621643086E+02 0.19599087554E+02 0.14980717139E+02 0.11086204246E+02
 0.80947157478E+01 0.60463416874E+01 0.48472804125E+01 0.42848429739E+01 0.40644446979E+01
 0.39545313141E+01 0.39450120687E+01 0.40403909630E+01 0.42304503062E+01 0.46691469934E+01
 0.56698150285E+01 0.74883431332E+01 0.10264731583E+02 0.13996215073E+02 0.18527830772E+02
 0.23553101878E+02 0.28627929383E+02 0.33210519837E+02 0.28523117285E+02 0.30512886506E+02
 0.31089067520E+02 0.30172470174E+02 0.27906933016E+02 0.24621643086E+02 0.20751976084E+02
 0.16748774769E+02 0.13004534353E+02 0.98098773453E+01 0.73363243234E+01 0.56331649009E+01
 0.46306796058E+01 0.41525436650E+01 0.39469450057E+01 0.38271286500E+01 0.37927253291E+01
 0.38523241568E+01 0.39992191116E+01 0.42359440051E+01 0.47583828778E+01 0.58327020565E+01
 0.76456546574E+01 0.10264731583E+02 0.13619981456E+02 0.17501843010E+02 0.21573500232E+02
 0.25403175795E+02 0.21200014028E+02 0.23002517776E+02 0.23766802127E+02 0.23383508154E+02
 0.21919490168E+02 0.19599087554E+02 0.16748774769E+02 0.13725983884E+02 0.10855168483E+02
 0.83849996762E+01 0.64673249320E+01 0.51503773235E+01 0.43799782655E+01 0.40096969097E+01
 0.38289246337E+01 0.37097368397E+01 0.36610644547E+01 0.36914471528E+01 0.38007464821E+01
 0.39792390260E+01 0.42449614456E+01 0.47927652256E+01 0.58327020565E+01 0.74883431332E+01
 0.97679217115E+01 0.12554590453E+02 0.15613949612E+02 0.18619714160E+02 0.15146859686E+02
 0.16640043853E+02 0.17422518094E+02 0.17376021023E+02 0.16515033145E+02 0.14980717139E+02
 0.13004534353E+02 0.10855168483E+02 0.87862999715E+01 0.69978853268E+01 0.56142040997E+01
 0.46748463022E+01 0.41342406200E+01 0.38698506550E+01 0.37142754868E+01 0.36046074036E+01
 0.35521620839E+01 0.35629896703E+01 0.36391300440E+01 0.37787755942E+01 0.39734563645E+01
 0.42449614456E+01 0.47583828778E+01 0.56698150285E+01 0.70503623852E+01 0.88668619183E+01
 0.10981100248E+02 0.13167192199E+02 0.10549715085E+02 0.11668838374E+02 0.12346170388E+02
 0.12470343959E+02 0.12024067901E+02 0.11086204246E+02 0.98098773453E+01 0.83849996762E+01
 0.69978853268E+01 0.57985507092E+01 0.48800992331E+01 0.42689532814E+01 0.39232851777E+01
 0.37395729202E+01 0.36063346851E+01 0.35127058900E+01 0.34653541167E+01 0.34670140036E+01
 0.35192514739E+01 0.36233844096E+01 0.37787755942E+01 0.39792390260E+01 0.42359440051E+01
 0.46691469934E+01 0.53884325185E+01 0.64269839411E+01 0.77312912724E+01 0.91683801977E+01
 0.74174971424E+01 0.81529983227E+01 0.86497222735E+01 0.88154364467E+01 0.86184869410E+01
 0.80947157478E+01 0.73363243234E+01 0.64673249320E+01 0.56142040997E+01 0.48800992331E+01
 0.43270233300E+01 0.39665583669E+01 0.37578071618E+01 0.36180918505E+01 0.35086678939E+01
 0.34350581122E+01 0.33993186458E+01 0.34012035023E+01 0.34406908088E+01 0.35192514739E+01
 0.36391300440E+01 0.38007464821E+01 0.39992191116E+01 0.42304503062E+01 0.45611521188E+01
 0.50647656929E+01 0.57530829037E+01 0.65727623686E+01 0.55889785421E+01 0.59856171102E+01
 0.62765715220E+01 0.63976078891E+01 0.63173724638E+01 0.60463416874E+01 0.56331649009E+01
 0.51503773235E+01 0.46748463022E+01 0.42689532814E+01 0.39665583669E+01 0.37650652352E+01
 0.36243474797E+01 0.35099510818E+01 0.34254764682E+01 0.33736653243E+01 0.33537752361E+01
 0.33635225851E+01 0.34012035023E+01 0.34670140036E+01 0.35629896703E+01 0.36914471528E+01
 0.38523241568E+01 0.40403909630E+01 0.42440645900E+01 0.44761825541E+01 0.47811451796E+01
 0.51646840166E+01 0.47505565446E+01 0.49006471122E+01 0.50105993867E+01 0.50482958407E+01
 0.49937036129E+01 0.48472804125E+01 0.46306796058E+01 0.43799782655E+01 0.41342406200E+01
 0.39232851777E+01 0.37578071618E+01 0.36243474797E+01 0.35102898479E+01 0.34212431974E+01
 0.33614100185E+01 0.33316998221E+01 0.33302390587E+01 0.33537752361E+01 0.33993186458E+01
 0.34653541167E+01 0.35521620839E+01 0.36610644547E+01 0.37927253291E+01 0.39450120687E+01
 0.41112689625E+01 0.42799304373E+01 0.44373509535E+01 0.45910542801E+01 0.44869193710E+01
 0.45116978951E+01 0.45056560644E+01 0.44669102335E+01 0.43926380561E+01 0.42848429739E+01
 0.41525436650E+01 0.40096969097E+01 0.38698506550E+01 0.37395729202E+01 0.36180918505E+01
 0.35099510818E+01 0.34212431974E+01 0.33571442245E+01 0.33208461115E+01 0.33129650666E+01
 0.33316998221E+01 0.33736653243E+01 0.34350581122E+01 0.35127058900E+01 0.36046074036E+01
 0.37097368397E+01 0.38271286500E+01 0.39545313141E+01 0.40871548100E+01 0.42171292503E+01
 0.43341258285E+01 0.44271427715E+01 0.44233816357E+01 0.44056550880E+01 0.43545211371E+01
 0.42755271837E+01 0.41762281110E+01 0.40644446979E+01 0.39469450057E+01 0.38289246337E+01
 0.37142754868E+01 0.36063346851E+01 0.35086678939E+01 0.34254764682E+01 0.33614100185E+01
 0.33208461115E+01 0.33069407944E+01 0.33208461115E+01 0.33614100185E+01 0.34254764682E+01
 0.35086678939E+01 0.36063346851E+01 0.37142754868E+01 0.38289246337E+01 0.39469450057E+01
 0.40644446979E+01 0.41762281110E+01 0.42755271837E+01 0.43545211371E+01 0.44056550880E+01
 0.44869193710E+01 0.44271427715E+01 0.43341258285E+01 0.42171292503E+01 0.40871548100E+01
 0.39545313141E+01 0.38271286500E+01 0.37097368397E+01 0.36046074036E+01 0.35127058900E+01
 0.34350581122E+01 0.33736653243E+01 0.33316998221E+01 0.33129650666E+01 0.33208461115E+01
 0.33571442245E+01 0.34212431974E+01 0.35099510818E+01 0.36180918505E+01 0.37395729202E+01
 0.38698506550E+01 0.40096969097E+01 0.41525436650E+01 0.42848429739E+01 0.43926380561E+01
 0.44669102335E+01 0.45056560644E+01 0.45116978951E+01 0.47505565446E+01 0.45910542801E+01
 0.44373509535E+01 0.42799304373E+01 0.41112689625E+01 0.39450120687E+01 0.37927253291E+01
 0.36610644547E+01 0.35521620839E+01 0.34653541167E+01 0.33993186458E+01 0.33537752361E+01
 0.33302390587E+01 0.33316998221E+01 0.33614100185E+01 0.34212431974E+01 0.35102898479E+01
 0.36243474797E+01 0.37578071618E+01 0.39232851777E+01 0.41342406200E+01 0.43799782655E+01
 0.46306796058E+01 0.48472804125E+01 0.49937036129E+01 0.50482958407E+01 0.50105993867E+01
 0.49006471122E+01 0.55889785421E+01 0.51646840166E+01 0.47811451796E+01 0.44761825541E+01
 0.42440645900E+01 0.40403909630E+01 0.38523241568E+01 0.36914471528E+01 0.35629896703E+01
 0.34670140036E+01 0.34012035023E+01 0.33635225851E+01 0.33537752361E+01 0.33736653243E+01
 0.34254764682E+01 0.35099510818E+01 0.36243474797E+01 0.37650652352E+01 0.39665583669E+01
 0.42689532814E+01 0.46748463022E+01 0.51503773235E+01 0.56331649009E+01 0.60463416874E+01
 0.63173724638E+01 0.63976078891E+01 0.62765715220E+01 0.59856171102E+01 0.74174971424E+01
 0.65727623686E+01 0.57530829037E+01 0.50647656929E+01 0.45611521188E+01 0.42304503062E+01
 0.39992191116E+01 0.38007464821E+01 0.36391300440E+01 0.35192514739E+01 0.34406908088E+01
 0.34012035023E+01 0.33993186458E+01 0.34350581122E+01 0.35086678939E+01 0.36180918505E+01
 0.37578071618E+01 0.39665583669E+01 0.43270233300E+01 0.48800992331E+01 0.56142040997E+01
 0.64673249320E+01 0.73363243234E+01 0.80947157478E+01 0.86184869410E+01 0.88154364467E+01
 0.86497222735E+01 0.81529983227E+01 0.10549715085E+02 0.91683801977E+01 0.77312912724E+01
 0.64269839411E+01 0.53884325185E+01 0.46691469934E+01 0.42359440051E+01 0.39792390260E+01
 0.37787755942E+01 0.36233844096E+01 0.35192514739E+01 0.34670140036E+01 0.34653541167E+01
 0.35127058900E+01 0.36063346851E+01 0.37395729202E+01 0.39232851777E+01 0.42689532814E+01
 0.48800992331E+01 0.57985507092E+01 0.69978853268E+01 0.83849996762E+01 0.98098773453E+01
 0.11086204246E+02 0.12024067901E+02 0.12470343959E+02 0.12346170388E+02 0.11668838374E+02
 0.15146859686E+02 0.13167192199E+02 0.10981100248E+02 0.88668619183E+01 0.70503623852E+01
 0.56698150285E+01 0.47583828778E+01 0.42449614456E+01 0.39734563645E+01 0.37787755942E+01
 0.36391300440E+01 0.35629896703E+01 0.35521620839E+01 0.36046074036E+01 0.37142754868E+01
 0.38698506550E+01 0.41342406200E+01 0.46748463022E+01 0.56142040997E+01 0.69978853268E+01
 0.87862999715E+01 0.10855168483E+02 0.13004534353E+02 0.14980717139E+02 0.16515033145E+02
 0.17376021023E+02 0.17422518094E+02 0.16640043853E+02 0.21200014028E+02 0.18619714160E+02
 0.15613949612E+02 0.12554590453E+02 0.97679217115E+01 0.74883431332E+01 0.58327020565E+01
 0.47927652256E+01 0.42449614456E+01 0.39792390260E+01 0.38007464821E+01 0.36914471528E+01
 0.36610644547E+01 0.37097368397E+01 0.38289246337E+01 0.40096969097E+01 0.43799782655E+01
 0.51503773235E+01 0.64673249320E+01 0.83849996762E+01 0.10855168483E+02 0.13725983884E+02
 0.16748774769E+02 0.19599087554E+02 0.21919490168E+02 0.23383508154E+02 0.23766802127E+02
 0.23002517776E+02 0.28523117285E+02 0.25403175795E+02 0.21573500232E+02 0.17501843010E+02
 0.13619981456E+02 0.10264731583E+02 0.76456546574E+01 0.58327020565E+01 0.47583828778E+01
 0.42359440051E+01 0.39992191116E+01 0.38523241568E+01 0.37927253291E+01 0.38271286500E+01
 0.39469450057E+01 0.41525436650E+01 0.46306796058E+01 0.56331649009E+01 0.73363243234E+01
 0.98098773453E+01 0.13004534353E+02 0.16748774769E+02 0.20751976084E+02 0.24621643086E+02
 0.27906933016E+02 0.30172470174E+02 0.31089067520E+02 0.30512886506E+02 0.36737765250E+02
 0.33210519837E+02 0.28627929383E+02 0.23553101878E+02 0.18527830772E+02 0.13996215073E+02
 0.10264731583E+02 0.74883431332E+01 0.56698150285E+01 0.46691469934E+01 0.42304503062E+01
 0.40403909630E+01 0.39450120687E+01 0.39545313141E+01 0.40644446979E+01 0.42848429739E+01
 0.48472804125E+01 0.60463416874E+01 0.80947157478E+01 0.11086204246E+02 0.14980717139E+02
 0.19599087554E+02 0.24621643086E+02 0.29598638017E+02 0.33989788705E+02 0.37243695354E+02
 0.38907090279E+02 0.38731580750E+02 0.45255981665E+02 0.41532698032E+02 0.36356604063E+02
 0.30377695004E+02 0.24249335846E+02 0.18527830772E+02 0.13619981456E+02 0.97679217115E+01
 0.70503623852E+01 0.53884325185E+01 0.45611521188E+01 0.42440645900E+01 0.41112689625E+01
 0.40871548100E+01 0.41762281110E+01 0.43926380561E+01 0.49937036129E+01 0.63173724638E+01
 0.86184869410E+01 0.12024067901E+02 0.16515033145E+02 0.21919490168E+02 0.27906933016E+02
 0.33989788705E+02 0.39553754977E+02 0.43936092794E+02 0.46548630866E+02 0.47012628225E+02
 0.53293601941E+02 0.49658503789E+02 0.44144172629E+02 0.37464821282E+02 0.30377695004E+02
 0.23553101878E+02 0.17501843010E+02 0.12554590453E+02 0.88668619183E+01 0.64269839411E+01
 0.50647656929E+01 0.44761825541E+01 0.42799304373E+01 0.42171292503E+01 0.42755271837E+01
 0.44669102335E+01 0.50482958407E+01 0.63976078891E+01 0.88154364467E+01 0.12470343959E+02
 0.17376021023E+02 0.23383508154E+02 0.30172470174E+02 0.37243695354E+02 0.43936092794E+02
 0.49495792553E+02 0.53204164696E+02 0.54536182704E+02 0.59950598265E+02 0.56729310323E+02
 0.51214271684E+02 0.44144172629E+02 0.36356604063E+02 0.28627929383E+02 0.21573500232E+02
 0.15613949612E+02 0.10981100248E+02 0.77312912724E+01 0.57530829037E+01 0.47811451796E+01
 0.44373509535E+01 0.43341258285E+01 0.43545211371E+01 0.45056560644E+01 0.50105993867E+01
 0.62765715220E+01 0.86497222735E+01 0.12346170388E+02 0.17422518094E+02 0.23766802127E+02
 0.31089067520E+02 0.38907090279E+02 0.46548630866E+02 0.53204164696E+02 0.58048647588E+02
 0.60413158986E+02 0.64366671180E+02 0.61868792347E+02 0.56729310323E+02 0.49658503789E+02
 0.41532698032E+02 0.33210519837E+02 0.25403175795E+02 0.18619714160E+02 0.13167192199E+02
 0.91683801977E+01 0.65727623686E+01 0.51646840166E+01 0.45910542801E+01 0.44271427715E+01
 0.44056550880E+01 0.45116978951E+01 0.49006471122E+01 0.59856171102E+01 0.81529983227E+01
 0.11668838374E+02 0.16640043853E+02 0.23002517776E+02 0.30512886506E+02 0.38731580750E+02
 0.47012628225E+02 0.54536182704E+02 0.60413158986E+02 0.63856054746E+02 0.64366671180E+02
 0.63856054746E+02 0.60413158986E+02 0.54536182704E+02 0.47012628225E+02 0.38731580750E+02
 0.30512886506E+02 0.23002517776E+02 0.16640043853E+02 0.11668838374E+02 0.81529983227E+01
 0.59856171102E+01 0.49006471122E+01 0.45116978951E+01 0.44056550880E+01 0.44271427715E+01
 0.45910542801E+01 0.51646840166E+01 0.65727623686E+01 0.91683801977E+01 0.13167192199E+02
 0.18619714160E+02 0.25403175795E+02 0.33210519837E+02 0.41532698032E+02 0.49658503789E+02
 0.56729310323E+02 0.61868792347E+02 0.63856054746E+02 0.64366670211E+02 0.61868790549E+02
 0.56729308002E+02 0.49658501327E+02 0.41532695778E+02 0.33210518019E+02 0.25403174480E+02
 0.18619713279E+02 0.13167191603E+02 0.91683797421E+01 0.65727619674E+01 0.51646836634E+01
 0.45910540262E+01 0.44271426795E+01 0.44056551880E+01 0.45116981660E+01 0.49006474977E+01
 0.59856175593E+01 0.81529988329E+01 0.11668839010E+02 0.16640044728E+02 0.23002518996E+02
 0.30512888098E+02 0.38731582610E+02 0.47012630107E+02 0.54536184270E+02 0.60413159891E+02
 0.60413158986E+02 0.61868790549E+02 0.60413157404E+02 0.56261957781E+02 0.50003170959E+02
 0.42445562243E+02 0.34437566492E+02 0.26721315077E+02 0.19855731974E+02 0.14201109480E+02
 0.99321992223E+01 0.70507103075E+01 0.53925752486E+01 0.46478356342E+01 0.44128598993E+01
 0.43501548859E+01 0.44128601991E+01 0.46478361528E+01 0.53925758795E+01 0.70507109998E+01
 0.99322000426E+01 0.14201110615E+02 0.19855733664E+02 0.26721317495E+02 0.34437569623E+02
 0.42445565817E+02 0.50003174471E+02 0.56261960610E+02 0.54536182704E+02 0.56729308002E+02
 0.56261957781E+02 0.53204163095E+02 0.47997445304E+02 0.41339011331E+02 0.34018117720E+02
 0.26766402090E+02 0.20164194843E+02 0.14607760304E+02 0.10312993073E+02 0.73264105236E+01
 0.55323507993E+01 0.46679814585E+01 0.43654119435E+01 0.42662835552E+01 0.42878250054E+01
 0.44316476488E+01 0.48792891060E+01 0.60207984759E+01 0.81972911017E+01 0.11626485818E+02
 0.16370561178E+02 0.22325475587E+02 0.29212904265E+02 0.36570017240E+02 0.43755662207E+02
 0.50003173737E+02 0.47012628225E+02 0.49658501327E+02 0.50003170959E+02 0.47997445304E+02
 0.43936091701E+02 0.38380053016E+02 0.32020672498E+02 0.25538935169E+02 0.19503884149E+02
 0.14325013774E+02 0.10244264134E+02 0.73424019949E+01 0.55454563305E+01 0.46367521076E+01
 0.42909264905E+01 0.41622557533E+01 0.41450985027E+01 0.42439040666E+01 0.44907519435E+01
 0.51818672709E+01 0.66700086003E+01 0.92170579137E+01 0.12947538490E+02 0.17829103581E+02
 0.23665167394E+02 0.30089442006E+02 0.36570016727E+02 0.42445564636E+02 0.38731580750E+02
 0.41532695778E+02 0.42445562243E+02 0.41339011331E+02 0.38380053016E+02 0.33989788348E+02
 0.28739594088E+02 0.23228723039E+02 0.17984364593E+02 0.13404709016E+02 0.97399343399E+01
 0.70921519429E+01 0.54198538637E+01 0.45478303462E+01 0.41949420833E+01 0.40469484666E+01
 0.39975841214E+01 0.40583306708E+01 0.42185957701E+01 0.45872510784E+01 0.54854103221E+01
 0.72021186082E+01 0.99172227271E+01 0.13669175662E+02 0.18342617070E+02 0.23665167093E+02
 0.29212903504E+02 0.34437568305E+02 0.30512886506E+02 0.33210518019E+02 0.34437566492E+02
 0.34018117720E+02 0.32020672498E+02 0.28739594088E+02 0.24621643346E+02 0.20166656086E+02
 0.15836915871E+02 0.11997395425E+02 0.88887549126E+01 0.66208111861E+01 0.51741295265E+01
 0.44080311578E+01 0.40835233597E+01 0.39281593546E+01 0.38561209109E+01 0.38822746774E+01
 0.40042838752E+01 0.42151771456E+01 0.46869921884E+01 0.57087814387E+01 0.75006733255E+01
 0.10166042455E+02 0.13669175524E+02 0.17829103178E+02 0.22325474805E+02 0.26721316285E+02
 0.23002517776E+02 0.25403174480E+02 0.26721315077E+02 0.26766402090E+02 0.25538935169E+02
 0.23228723039E+02 0.20166656086E+02 0.16748775307E+02 0.13359476612E+02 0.10314580027E+02
 0.78303338920E+01 0.60118469863E+01 0.48517130453E+01 0.42361320358E+01 0.39639432672E+01
 0.38116398407E+01 0.37278637693E+01 0.37272187491E+01 0.38126317006E+01 0.39753689998E+01
 0.42234609250E+01 0.47496920290E+01 0.57907214920E+01 0.75006732883E+01 0.99172225727E+01
 0.12947538121E+02 0.16370560515E+02 0.19855732689E+02 0.16640043853E+02 0.18619713279E+02
 0.19855731974E+02 0.20164194843E+02 0.19503884149E+02 0.17984364593E+02 0.15836915871E+02
 0.13359476612E+02 0.10855168943E+02 0.85819999203E+01 0.67216096689E+01 0.53648064480E+01
 0.45078059471E+01 0.40565915405E+01 0.38426958697E+01 0.37010934416E+01 0.36161546997E+01
 0.35988327321E+01 0.36532021919E+01 0.37777491416E+01 0.39634072207E+01 0.42284247905E+01
 0.47496920340E+01 0.57087814166E+01 0.72021184945E+01 0.92170576315E+01 0.11626485312E+02
 0.14201109887E+02 0.11668838374E+02 0.13167191603E+02 0.14201109480E+02 0.14607760304E+02
 0.14325013774E+02 0.13404709016E+02 0.11997395425E+02 0.10314580027E+02 0.85819999203E+01
 0.69978855058E+01 0.57042348336E+01 0.47715593014E+01 0.41936803743E+01 0.38906324681E+01
 0.37235156707E+01 0.35989188019E+01 0.35216440950E+01 0.34979507397E+01 0.35306246223E+01
 0.36208716700E+01 0.37674588678E+01 0.39634072251E+01 0.42234609398E+01 0.46869921887E+01
 0.54854102529E+01 0.66700083968E+01 0.81972907214E+01 0.99321994961E+01 0.81529983227E+01
 0.91683797421E+01 0.99321992223E+01 0.10312993073E+02 0.10244264134E+02 0.97399343399E+01
 0.88887549126E+01 0.78303338920E+01 0.67216096689E+01 0.57042348336E+01 0.48800991419E+01
 0.42969638378E+01 0.39427826054E+01 0.37475671676E+01 0.36105386234E+01 0.35072422273E+01
 0.34439869729E+01 0.34228383585E+01 0.34443847472E+01 0.35098011737E+01 0.36208716537E+01
 0.37777491332E+01 0.39753690091E+01 0.42151771515E+01 0.45872510308E+01 0.51818671106E+01
 0.60207981660E+01 0.70507105533E+01 0.59856171102E+01 0.65727619674E+01 0.70507103075E+01
 0.73264105236E+01 0.73424019949E+01 0.70921519429E+01 0.66208111861E+01 0.60118469863E+01
 0.53648064480E+01 0.47715593014E+01 0.42969638378E+01 0.39665581593E+01 0.37612272180E+01
 0.36210007873E+01 0.35086544894E+01 0.34287579713E+01 0.33833826236E+01 0.33716163770E+01
 0.33919840696E+01 0.34443847160E+01 0.35306245774E+01 0.36532021591E+01 0.38126316910E+01
 0.40042838700E+01 0.42185957228E+01 0.44907517994E+01 0.48792888312E+01 0.53925754853E+01
 0.49006471122E+01 0.51646836634E+01 0.53925752486E+01 0.55323507993E+01 0.55454563305E+01
 0.54198538637E+01 0.51741295265E+01 0.48517130453E+01 0.45078059471E+01 0.41936803743E+01
 0.39427826054E+01 0.37612272180E+01 0.36243473131E+01 0.35100802483E+01 0.34231847802E+01
 0.33670321953E+01 0.33414420630E+01 0.33439343151E+01 0.33716163556E+01 0.34228383089E+01
 0.34979506786E+01 0.35988326831E+01 0.37272187225E+01 0.38822746580E+01 0.40583306195E+01
 0.42439039372E+01 0.44316474120E+01 0.46478358163E+01 0.45116978951E+01 0.45910540262E+01
 0.46478356342E+01 0.46679814585E+01 0.46367521076E+01 0.45478303462E+01 0.44080311578E+01
 0.42361320358E+01 0.40565915405E+01 0.38906324681E+01 0.37475671676E+01 0.36210007873E+01
 0.35100802483E+01 0.34212431373E+01 0.33592555963E+01 0.33261628432E+01 0.33211738373E+01
 0.33414420763E+01 0.33833826219E+01 0.34439869476E+01 0.35216440554E+01 0.36161546617E+01
 0.37278637416E+01 0.38561208857E+01 0.39975840750E+01 0.41450984053E+01 0.42878248371E+01
 0.44128599635E+01 0.44056550880E+01 0.44271426795E+01 0.44128598993E+01 0.43654119435E+01
 0.42909264905E+01 0.41949420833E+01 0.40835233597E+01 0.39639432672E+01 0.38426958697E+01
 0.37235156707E+01 0.36105386234E+01 0.35086544894E+01 0.34231847802E+01 0.33592555963E+01
 0.33208461430E+01 0.33099413380E+01 0.33261628958E+01 0.33670322732E+01 0.34287580471E+01
 0.35072422820E+01 0.35989188286E+01 0.37010934435E+01 0.38116398253E+01 0.39281593279E+01
 0.40469484292E+01 0.41622557010E+01 0.42662834835E+01 0.43501547954E+01 0.44271427715E+01
 0.44056551880E+01 0.43501548859E+01 0.42662835552E+01 0.41622557533E+01 0.40469484666E+01
 0.39281593546E+01 0.38116398407E+01 0.37010934416E+01 0.35989188019E+01 0.35072422273E+01
 0.34287579713E+01 0.33670321953E+01 0.33261628432E+01 0.33099413380E+01 0.33208462127E+01
 0.33592557349E+01 0.34231849673E+01 0.35086546897E+01 0.36105387979E+01 0.37235157887E+01
 0.38426959186E+01 0.39639432558E+01 0.40835233136E+01 0.41949420357E+01 0.42909264700E+01
 0.43654119658E+01 0.44128599635E+01 0.45910542801E+01 0.45116981660E+01 0.44128601991E+01
 0.42878250054E+01 0.41450985027E+01 0.39975841214E+01 0.38561209109E+01 0.37278637693E+01
 0.36161546997E+01 0.35216440950E+01 0.34439869729E+01 0.33833826236E+01 0.33414420630E+01
 0.33211738373E+01 0.33261628958E+01 0.33592557349E+01 0.34212433726E+01 0.35100805583E+01
 0.36210011204E+01 0.37475674579E+01 0.38906326586E+01 0.40565916040E+01 0.42361319859E+01
 0.44080310450E+01 0.45478302403E+01 0.46367520731E+01 0.46679815329E+01 0.46478358163E+01
 0.51646840166E+01 0.49006474977E+01 0.46478361528E+01 0.44316476488E+01 0.42439040666E+01
 0.40583306708E+01 0.38822746774E+01 0.37272187491E+01 0.35988327321E+01 0.34979507397E+01
 0.34228383585E+01 0.33716163770E+01 0.33439343151E+01 0.33414420763E+01 0.33670322732E+01
 0.34231849673E+01 0.35100805583E+01 0.36243477147E+01 0.37612276383E+01 0.39427829521E+01
 0.41936805682E+01 0.45078059530E+01 0.48517128872E+01 0.51741292822E+01 0.54198536390E+01
 0.55454562227E+01 0.55323508646E+01 0.53925754853E+01 0.65727623686E+01 0.59856175593E+01
 0.53925758795E+01 0.48792891060E+01 0.44907519435E+01 0.42185957701E+01 0.40042838752E+01
 0.38126317006E+01 0.36532021919E+01 0.35306246223E+01 0.34443847472E+01 0.33919840696E+01
 0.33716163556E+01 0.33833826219E+01 0.34287580471E+01 0.35086546897E+01 0.36210011204E+01
 0.37612276383E+01 0.39665585746E+01 0.42969641373E+01 0.47715593960E+01 0.53648063053E+01
 0.60118466479E+01 0.66208107577E+01 0.70921515604E+01 0.73424017794E+01 0.73264105420E+01
 0.70507105533E+01 0.91683801977E+01 0.81529988329E+01 0.70507109998E+01 0.60207984759E+01
 0.51818672709E+01 0.45872510784E+01 0.42151771456E+01 0.39753689998E+01 0.37777491416E+01
 0.36208716700E+01 0.35098011737E+01 0.34443847160E+01 0.34228383089E+01 0.34439869476E+01
 0.35072422820E+01 0.36105387979E+01 0.37475674579E+01 0.39427829521E+01 0.42969641373E+01
 0.48800992800E+01 0.57042347277E+01 0.67216093046E+01 0.78303333357E+01 0.88887542963E+01
 0.97399338200E+01 0.10244263842E+02 0.10312993074E+02 0.99321994961E+01 0.13167192199E+02
 0.11668839010E+02 0.99322000426E+01 0.81972911017E+01 0.66700086003E+01 0.54854103221E+01
 0.46869921884E+01 0.42234609250E+01 0.39634072207E+01 0.37674588678E+01 0.36208716537E+01
 0.35306245774E+01 0.34979506786E+01 0.35216440554E+01 0.35989188286E+01 0.37235157887E+01
 0.38906326586E+01 0.41936805682E+01 0.47715593960E+01 0.57042347277E+01 0.69978851424E+01
 0.85819993168E+01 0.10314579281E+02 0.11997394692E+02 0.13404708462E+02 0.14325013525E+02
 0.14607760406E+02 0.14201109887E+02 0.18619714160E+02 0.16640044728E+02 0.14201110615E+02
 0.11626485818E+02 0.92170579137E+01 0.72021186082E+01 0.57087814387E+01 0.47496920290E+01
 0.42284247905E+01 0.39634072251E+01 0.37777491332E+01 0.36532021591E+01 0.35988326831E+01
 0.36161546617E+01 0.37010934435E+01 0.38426959186E+01 0.40565916040E+01 0.45078059530E+01
 0.53648063053E+01 0.67216093046E+01 0.85819993168E+01 0.10855168161E+02 0.13359475783E+02
 0.15836915172E+02 0.17984364186E+02 0.19503884139E+02 0.20164195238E+02 0.19855732689E+02
 0.25403175795E+02 0.23002518996E+02 0.19855733664E+02 0.16370561178E+02 0.12947538490E+02
 0.99172227271E+01 0.75006733255E+01 0.57907214920E+01 0.47496920340E+01 0.42234609398E+01
 0.39753690091E+01 0.38126316910E+01 0.37272187225E+01 0.37278637416E+01 0.38116398253E+01
 0.39639432558E+01 0.42361319859E+01 0.48517128872E+01 0.60118466479E+01 0.78303333357E+01
 0.10314579281E+02 0.13359475783E+02 0.16748774565E+02 0.20166655617E+02 0.23228722996E+02
 0.25538935619E+02 0.26766402989E+02 0.26721316285E+02 0.33210519837E+02 0.30512888098E+02
 0.26721317495E+02 0.22325475587E+02 0.17829103581E+02 0.13669175662E+02 0.10166042455E+02
 0.75006732883E+01 0.57087814166E+01 0.46869921887E+01 0.42151771515E+01 0.40042838700E+01
 0.38822746580E+01 0.38561208857E+01 0.39281593279E+01 0.40835233136E+01 0.44080310450E+01
 0.51741292822E+01 0.66208107577E+01 0.88887542963E+01 0.11997394692E+02 0.15836915172E+02
 0.20166655617E+02 0.24621643303E+02 0.28739594600E+02 0.32020673584E+02 0.34018119273E+02
 0.34437568305E+02 0.41532698032E+02 0.38731582610E+02 0.34437569623E+02 0.29212904265E+02
 0.23665167394E+02 0.18342617070E+02 0.13669175524E+02 0.99172225727E+01 0.72021184945E+01
 0.54854102529E+01 0.45872510308E+01 0.42185957228E+01 0.40583306195E+01 0.39975840750E+01
 0.40469484292E+01 0.41949420357E+01 0.45478302403E+01 0.54198536390E+01 0.70921515604E+01
 0.97399338200E+01 0.13404708462E+02 0.17984364186E+02 0.23228722996E+02 0.28739594600E+02
 0.33989789514E+02 0.38380054800E+02 0.41339013557E+02 0.42445564636E+02 0.49658503789E+02
 0.47012630107E+02 0.42445565817E+02 0.36570017240E+02 0.30089442006E+02 0.23665167093E+02
 0.17829103178E+02 0.12947538121E+02 0.92170576315E+01 0.66700083968E+01 0.51818671106E+01
 0.44907517994E+01 0.42439039372E+01 0.41450984053E+01 0.41622557010E+01 0.42909264700E+01
 0.46367520731E+01 0.55454562227E+01 0.73424017794E+01 0.10244263842E+02 0.14325013525E+02
 0.19503884139E+02 0.25538935619E+02 0.32020673584E+02 0.38380054800E+02 0.43936094089E+02
 0.47997448055E+02 0.50003173737E+02 0.56729310323E+02 0.54536184270E+02 0.50003174471E+02
 0.43755662207E+02 0.36570016727E+02 0.29212903504E+02 0.22325474805E+02 0.16370560515E+02
 0.11626485312E+02 0.81972907214E+01 0.60207981660E+01 0.48792888312E+01 0.44316474120E+01
 0.42878248371E+01 0.42662834835E+01 0.43654119658E+01 0.46679815329E+01 0.55323508646E+01
 0.73264105420E+01 0.10312993074E+02 0.14607760406E+02 0.20164195238E+02 0.26766402989E+02
 0.34018119273E+02 0.41339013557E+02 0.47997448055E+02 0.53204166074E+02 0.56261960610E+02
 0.61868792347E+02 0.60413159891E+02 0.56261960610E+02 0.50003173737E+02 0.42445564636E+02
 0.34437568305E+02 0.26721316285E+02 0.19855732689E+02 0.14201109887E+02 0.99321994961E+01
 0.70507105533E+01 0.53925754853E+01 0.46478358163E+01 0.44128599635E+01 0.43501547954E+01
 0.44128599635E+01 0.46478358163E+01 0.53925754853E+01 0.70507105533E+01 0.99321994961E+01
 0.14201109887E+02 0.19855732689E+02 0.26721316285E+02 0.34437568305E+02 0.42445564636E+02
 0.50003173737E+02 0.56261960610E+02 0.60413159891E+02 0.59950598265E+02 0.60413158986E+02
 0.58048647588E+02 0.53204164696E+02 0.46548630866E+02 0.38907090279E+02 0.31089067520E+02
 0.23766802127E+02 0.17422518094E+02 0.12346170388E+02 0.86497222735E+01 0.62765715220E+01
 0.50105993867E+01 0.45056560644E+01 0.43545211371E+01 0.43341258285E+01 0.44373509535E+01
 0.47811451796E+01 0.57530829037E+01 0.77312912724E+01 0.10981100248E+02 0.15613949612E+02
 0.21573500232E+02 0.28627929383E+02 0.36356604063E+02 0.44144172629E+02 0.51214271684E+02
 0.56729310323E+02 0.60413158986E+02 0.61868790549E+02 0.60413157404E+02 0.56261957781E+02
 0.50003170959E+02 0.42445562243E+02 0.34437566492E+02 0.26721315077E+02 0.19855731974E+02
 0.14201109480E+02 0.99321992223E+01 0.70507103075E+01 0.53925752486E+01 0.46478356342E+01
 0.44128598993E+01 0.43501548859E+01 0.44128601991E+01 0.46478361528E+01 0.53925758795E+01
 0.70507109998E+01 0.99322000426E+01 0.14201110615E+02 0.19855733664E+02 0.26721317495E+02
 0.34437569623E+02 0.42445565817E+02 0.50003174471E+02 0.56261960610E+02 0.58048647588E+02
 0.60413157404E+02 0.59950595233E+02 0.56729306287E+02 0.51214267273E+02 0.44144168480E+02