    1    1    1    2
  0.7812500E+01  0.2165064E-09  0.2165064E-09  0.2165064E-09  0.5000000E-15
  1.000000000000000E-004
  CAR 
 Fe FCC                                  
      8     26     12
 
  0.6250000E-01  0.6250000E-01  0.6250000E-01  0.1562500E-01
    1        1.092233      1.319135   1.000000   1.000000
    2        6.963915      8.146588   1.000000   1.000000
    3        6.963915      8.146588   1.000000   1.000000
    4        8.414009      9.664027   1.000000   1.046156
    5        9.509029     11.456512   1.000000  -0.004835
    6        9.509029     11.456512   1.000672   0.000000
    7       36.377087     36.616922   0.000000   0.000000
    8       36.377087     36.616922   0.000000   0.000000
    9       40.373713     40.300655   0.000000   0.000000
   10       45.030759     45.739022   0.000000   0.000000
   11       48.868203     49.177421   0.000000   0.000000
   12       48.868203     49.177421   0.000000   0.000000
 
  0.1875000E+00  0.6250000E-01  0.6250000E-01  0.4687500E-01
    1        3.011394      3.340333   1.000000   1.000000
    2        6.220274      7.339583   1.000000   1.000000
    3        6.630029      7.729699   1.000000   1.000000
    4        9.403817     11.244022   1.000000   0.109201
    5        9.765575     11.491942   1.002872  -0.003633
    6       10.210319     11.744519   0.695485   0.000000
    7       31.158657     31.699763   0.000000   0.000000
    8       33.953692     34.290991   0.000000   0.000000
    9       39.940796     40.559949   0.000000   0.000000
   10       41.666906     41.716222   0.000000   0.000000
   11       49.577567     49.890170   0.000000   0.000000
   12       49.830042     50.372003   0.000000   0.000000
 
  0.3125000E+00  0.6250000E-01  0.6250000E-01  0.4687500E-01
    1        3.677065      4.443713   1.000000   1.000000
    2        5.604159      6.667856   1.000000   1.000000
    3        8.106082      8.816763   1.000000   1.000000
    4        9.689214     11.478528   1.000000  -0.022948
    5        9.979464     12.002203   0.974078   0.000000
    6       12.495203     13.713982  -0.054980   0.000000
    7       25.396166     26.184089   0.000000   0.000000
    8       31.763573     32.078933   0.000000   0.000000
    9       36.645258     37.180406   0.000000   0.000000
   10       42.122961     42.368212   0.000000   0.000000
   11       49.050658     49.558339   0.000000   0.000000
   12       53.408947     53.664028   0.000000   0.000000
 
  0.4375000E+00  0.6250000E-01  0.6250000E-01  0.2343750E-01
    1        3.475550      4.363461   1.000000   1.000000
    2        5.371531      6.414724   1.000000   1.000000
    3        9.575655     10.243436   1.000000   1.000000
    4        9.828122     11.627288   1.000000  -0.005041
    5       10.071532     12.116709   0.861278   0.000000
    6       14.101185     15.111600  -0.000730   0.000000
    7       22.157167     23.141589   0.000000   0.000000
    8       30.896831     31.187575   0.000000   0.000000
    9       35.397319     35.889315   0.000000   0.000000
   10       42.189204     42.502976   0.000000   0.000000
   11       49.177546     49.718300   0.000000   0.000000
   12       52.494540     52.649258   0.000000   0.000000
 
 -0.6250000E-01  0.6250000E-01  0.6250000E-01  0.1171875E-01
    1        0.271406      0.488392   1.000000   1.000000
    2        7.347203      8.553373   1.000000   1.000000
    3        7.347205      8.553376   1.000000   1.000000
    4        7.504031      8.726183   1.000000   1.009027
    5        9.351454     11.293728   1.000000  -0.008519
    6        9.754730     11.751938   1.000129   0.000000
    7       37.679531     37.749923   0.000000   0.000000
    8       39.339969     39.329346   0.000000   0.000000
    9       39.339970     39.329349   0.000000   0.000000
   10       45.329273     45.708190   0.000000   0.000000
   11       50.045331     50.239294   0.000000   0.000000
   12       50.049472     50.774011   0.000000   0.000000
 
  0.1875000E+00  0.1875000E+00  0.6250000E-01  0.4687500E-01
    1        4.548394      5.142671   1.000000   1.000000
    2        5.731486      6.820246   1.000000   1.000000
    3        6.248698      7.154034   1.000000   1.000000
    4        9.563522     11.401334   1.000000  -0.020623
    5       10.041635     12.019113   1.011261   0.000000
    6       12.865047     14.077228  -0.072615   0.000000
    7       28.158264     28.794647   0.000000   0.000000
    8       29.539840     30.063913   0.000000   0.000000
    9       35.223202     35.758872   0.000000   0.000000
   10       44.125350     44.166404   0.000000   0.000000
   11       50.195652     50.509662   0.000000   0.000000
   12       53.285111     53.645984   0.000000   0.000000
 
  0.3125000E+00  0.1875000E+00  0.6250000E-01  0.9375000E-01
    1        4.503801      5.397860   1.000000   1.000000
    2        5.473724      6.490785   1.000000   1.000000
    3        7.343105      8.184489   1.000000   1.000000
    4        9.841339     11.676787   1.000000  -0.004399
    5       10.215435     12.162297   0.982344   0.000000
    6       16.105541     17.096630  -0.000428   0.000000
    7       23.302591     24.128516   0.000000   0.000000
    8       27.565000     28.113375   0.000000   0.000000
    9       33.246296     33.733521   0.000000   0.000000
   10       45.189361     45.339247   0.000000   0.000000
   11       50.686390     50.864947   0.000000   0.000000
   12       54.594363     55.050976   0.000000   0.000000
 
 -0.1875000E+00  0.1875000E+00  0.6250000E-01  0.4687500E-01
    1        1.817344      2.069874   1.000000   1.000000
    2        6.847974      8.010151   1.000000   1.000000
    3        7.187479      8.375680   1.000000   1.000000
    4        8.587092      9.853407   1.000000   1.032319
    5        8.887682     10.697602   1.000011   0.071037
    6        9.961376     11.962205   0.977764   0.000000
    7       33.982990     34.382130   0.000000   0.000000
    8       37.266360     37.454339   0.000000   0.000000
    9       39.242829     39.458606   0.000000   0.000000
   10       44.671657     44.995971   0.000000   0.000000
   11       46.284736     46.887774   0.000000   0.000000
   12       47.792971     48.359609   0.000000   0.000000
 
  0.3125000E+00  0.3125000E+00  0.6250000E-01  0.1562500E-01
    1        4.908144      5.844673   1.000000   1.000000
    2        6.196879      7.155214   1.000000   1.000000
    3        6.196880      7.155216   1.000000   1.000000
    4       10.102075     11.976828   1.000000   0.000000
    5       10.102076     11.976828   1.030216   0.000000
    6       20.481313     21.317062   0.000000   0.000000
    7       20.481314     21.317063   0.000000   0.000000
    8       24.613962     25.295491   0.000000   0.000000
    9       32.581706     33.080648   0.000000   0.000000
   10       48.083302     48.211962   0.000000   0.000000
   11       48.083306     48.211968   0.000000   0.000000
   12       58.806999     59.522121   0.000000   0.000000
 
 -0.3125000E+00  0.3125000E+00  0.6250000E-01  0.4687500E-01
    1        3.382379      3.941017   1.000000   1.000000
    2        6.128218      7.234020   1.000000   1.000000
    3        7.409407      8.403815   1.000000   1.000000
    4        9.294483     10.929877   1.000000   0.214178
    5       10.311129     11.739129   0.920951  -0.010033
    6       10.383661     12.240467   0.421418   0.000000
    7       28.236171     28.925906   0.000000   0.000000
    8       34.237386     34.459340   0.000000   0.000000
    9       38.166154     38.619154   0.000000   0.000000
   10       43.288062     43.742398   0.000000   0.000000
   11       45.821132     46.273895   0.000000   0.000000
   12       48.621177     48.984787   0.000000   0.000000
 
 -0.1875000E+00  0.3125000E+00  0.6250000E-01  0.4687500E-01
    1        3.483623      3.879393   1.000000   1.000000
    2        6.402480      7.638382   1.000000   1.000000
    3        6.858023      7.937065   1.000000   1.000000
    4        8.656020     10.290973   1.000000   0.824857
    5        9.932237     11.318045   1.018252  -0.003026
    6       10.640276     12.486104   0.431764   0.000000
    7       31.065706     31.645846   0.000000   0.000000
    8       32.860425     33.306156   0.000000   0.000000
    9       39.475996     39.716930   0.000000   0.000000
   10       41.456052     41.931311   0.000000   0.000000
   11       45.524397     45.901641   0.000000   0.000000
   12       50.980354     51.441743   0.000000   0.000000
 
 -0.4375000E+00  0.4375000E+00  0.6250000E-01  0.4687500E-01
    1        3.328129      4.203367   1.000000   1.000000
    2        5.650885      6.722565   1.000000   1.000000
    3        8.690867      9.843996   1.000000   1.000000
    4        9.640200     11.341217   1.000000  -0.027937
    5       11.854682     13.164777  -0.134084   0.000000
    6       11.951823     13.300647  -0.006244   0.000000
    7       23.127252     24.060121   0.000000   0.000000
    8       32.405807     32.607096   0.000000   0.000000
    9       36.440376     36.911244   0.000000   0.000000
   10       42.342958     42.783990   0.000000   0.000000
   11       46.775548     47.311262   0.000000   0.000000
   12       49.672487     49.889387   0.000000   0.000000
 
 -0.3125000E+00  0.4375000E+00  0.6250000E-01  0.9375000E-01
    1        4.172156      4.992706   1.000000   1.000000
    2        5.915426      7.040689   1.000000   1.000000
    3        7.029609      8.071226   1.000000   1.000000
    4        9.227224     10.810387   1.000000   0.183032
    5       10.682620     12.341294   0.601391  -0.001327
    6       13.226346     14.477804  -0.031888   0.000000
    7       25.762524     26.534883   0.000000   0.000000
    8       30.037247     30.541475   0.000000   0.000000
    9       37.651051     37.997497   0.000000   0.000000
   10       41.614459     41.995770   0.000000   0.000000
   11       45.832284     46.149993   0.000000   0.000000
   12       52.162556     52.644673   0.000000   0.000000
 
 -0.4375000E+00 -0.4375000E+00  0.6250000E-01  0.4687500E-01
    1        3.947124      4.908866   1.000000   1.000000
    2        5.896694      6.970574   1.000000   1.000000
    3        7.293009      8.450470   1.000000   1.000000
    4        9.444472     11.085459   1.000000  -0.011676
    5       11.242624     12.780531   0.014063   0.000000
    6       15.606942     16.589007  -0.000233   0.000000
    7       22.155612     23.109808   0.000000   0.000000
    8       29.152945     29.652374   0.000000   0.000000
    9       36.509605     36.838217   0.000000   0.000000
   10       42.437366     42.884647   0.000000   0.000000
   11       46.033485     46.220617   0.000000   0.000000
   12       51.552446     52.091274   0.000000   0.000000
 
 -0.3125000E+00 -0.4375000E+00  0.6250000E-01  0.4687500E-01
    1        5.097920      6.049898   1.000000   1.000000
    2        5.417934      6.573283   1.000000   1.000000
    3        6.392636      7.495279   1.000000   1.000000
    4        9.769693     11.338691   1.000198  -0.036111
    5       10.609422     12.208488   0.511033   0.000000
    6       17.547732     18.538578  -0.000001   0.000000
    7       23.046452     23.888149   0.000000   0.000000
    8       25.427756     26.061488   0.000000   0.000000
    9       38.817400     39.257812   0.000000   0.000000
   10       41.127739     41.382998   0.000000   0.000000
   11       44.017699     44.282199   0.000000   0.000000
   12       55.288549     56.111456   0.000000   0.000000
 
  0.1875000E+00  0.1875000E+00  0.1875000E+00  0.1562500E-01
    1        5.468746      6.452796   1.000000   1.000000
    2        5.468746      6.452796   1.000000   1.000000
    3        6.153300      6.805157   1.000000   1.000000
    4       10.015162     12.007941   1.000000   0.000000
    5       10.015162     12.007941   1.000020   0.000000
    6       16.253311     17.279304  -0.000862   0.000000
    7       26.168159     26.807477   0.000000   0.000000
    8       26.168159     26.807477   0.000000   0.000000
    9       29.746151     30.288684   0.000000   0.000000
   10       49.365821     49.299523   0.000000   0.000000
   11       54.265600     54.491712   0.000000   0.000000
   12       54.265600     54.491712   0.000000   0.000000
 
  0.3125000E+00  0.1875000E+00  0.1875000E+00  0.2343750E-01
    1        5.379399      6.275609   1.000000   1.000000
    2        5.425184      6.368227   1.000000   1.000000
    3        6.649509      7.488334   1.000000   1.000000
    4       10.082721     12.073678   1.000000   0.000000
    5       10.123543     12.177087   1.000403   0.000000
    6       19.528626     20.338964   0.000000   0.000000
    7       22.294566     23.095548   0.000000   0.000000
    8       25.465016     26.098209   0.000000   0.000000
    9       28.353613     28.888864   0.000000   0.000000
   10       51.272009     51.304811   0.000000   0.000000
   11       55.777696     55.954891   0.000000   0.000000
   12       57.386407     57.373327   0.000000   0.000000
 
 -0.1875000E+00  0.1875000E+00  0.1875000E+00  0.1171875E-01
    1        3.092779      3.422551   1.000000   1.000000
    2        7.358302      8.754744   1.000000   1.000000
    3        7.587227      8.754746   1.000000   1.000000
    4        7.587229      9.036328   1.000000   1.056978
    5        8.589643      9.862050   1.004349   0.784624
    6       10.683882     12.629912   0.543076   0.000000
    7       33.487233     33.951911   0.000000   0.000000
    8       36.624252     37.054491   0.000000   0.000000
    9       36.624255     37.054496   0.000000   0.000000
   10       38.319945     38.678841   0.000000   0.000000
   11       49.802868     50.239576   0.000000   0.000000
   12       49.802869     50.239576   0.000000   0.000000
 
 -0.3125000E+00  0.3125000E+00  0.1875000E+00  0.4687500E-01
    1        4.308600      4.976478   1.000000   1.000000
    2        6.032371      7.413500   1.000000   1.000000
    3        7.323604      8.469214   1.000000   1.000000
    4        8.513699      9.833893   1.000000   1.114179
    5       10.159750     11.500991   0.957000  -0.006494
    6       12.056956     13.636753  -0.061923   0.000000
    7       29.212375     29.883843   0.000000   0.000000
    8       33.612944     34.057094   0.000000   0.000000
    9       33.781157     34.281140   0.000000   0.000000
   10       39.057556     39.429972   0.000000   0.000000
   11       49.136221     49.569739   0.000000   0.000000
   12       51.276754     51.750865   0.000000   0.000000
 
 -0.4375000E+00  0.4375000E+00  0.1875000E+00  0.4687500E-01
    1        4.075104      5.122701   1.000000   1.000000
    2        6.054956      7.281261   1.000000   1.000000
    3        6.966632      8.087964   1.000000   1.000000
    4        8.925669     10.367074   1.001331   0.708139
    5       11.701955     13.138310  -0.085568   0.000000
    6       15.221092     16.258417  -0.002127   0.000000
    7       23.533367     24.384689   0.000000   0.000000
    8       31.737036     32.207753   0.000000   0.000000
    9       32.512563     32.983486   0.000000   0.000000
   10       41.499717     41.792748   0.000000   0.000000
   11       48.057009     48.485629   0.000000   0.000000
   12       49.463641     50.091802   0.000000   0.000000
 
 -0.3125000E+00  0.4375000E+00  0.1875000E+00  0.4687500E-01
    1        4.782097      5.768364   1.000000   1.000000
    2        4.912626      6.240262   1.000000   1.000000
    3        7.462380      8.626448   1.000420   1.003685
    4        9.214829     10.526490   1.005188   0.612381
    5       10.945209     12.373549   0.103442  -0.001452
    6       15.282064     16.377818  -0.001691   0.000000
    7       26.596550     27.352294   0.000000   0.000000
    8       27.704136     28.259119   0.000000   0.000000
    9       35.565540     36.023621   0.000000   0.000000
   10       37.753626     38.124968   0.000000   0.000000
   11       47.784376     48.277793   0.000000   0.000000
   12       52.636568     53.343780   0.000000   0.000000
 
 -0.4375000E+00 -0.4375000E+00  0.1875000E+00  0.4687500E-01
    1        4.381269      5.590398   1.000000   1.000000
    2        5.065207      6.300827   1.000000   1.000000
    3        7.131891      8.234454   1.000943   1.009497
    4        9.784022     11.145660   1.004630  -0.038899
    5       11.351868     12.783550  -0.038020   0.000000
    6       18.925755     19.790261   0.000000   0.000000
    7       22.345349     23.181010   0.000000   0.000000
    8       26.343758     26.930086   0.000000   0.000000
    9       35.592370     36.033025   0.000000   0.000000
   10       39.055268     39.392792   0.000000   0.000000
   11       45.597394     46.192905   0.000000   0.000000
   12       51.549790     52.212992   0.000000   0.000000
 
 -0.3125000E+00  0.3125000E+00  0.3125000E+00  0.1171875E-01
    1        4.465842      5.454561   1.000000   1.000000
    2        4.765063      6.173746   1.000000   1.000000
    3        8.936547     10.134946   1.001124   0.985166
    4        8.936548     10.134948   1.011056   0.995588
    5       10.212844     11.568600   0.689212  -0.001442
    6       14.457320     15.594778  -0.000299   0.000000
    7       30.041123     30.531888   0.000000   0.000000
    8       30.041127     30.531894   0.000000   0.000000
    9       31.584306     32.355819   0.000000   0.000000
   10       34.649183     35.104788   0.000000   0.000000
   11       50.863664     51.626112   0.000000   0.000000
   12       54.839896     55.201285   0.000000   0.000000
 
 -0.4375000E+00  0.4375000E+00  0.3125000E+00  0.4687500E-01
    1        3.861177      5.125603   1.000000   1.000000
    2        4.136849      5.376256   1.000000   1.000000
    3        9.174505     10.402322   1.010757   0.896494
    4        9.692255     10.947239   1.025440   0.078832
    5       11.491725     12.915548  -0.018673   0.000000
    6       18.359984     19.147320   0.000000   0.000000
    7       24.547323     25.180179   0.000000   0.000000
    8       27.549087     27.975489   0.000000   0.000000
    9       32.095959     32.815787   0.000000   0.000000
   10       35.490528     35.979505   0.000000   0.000000
   11       46.168559     46.988577   0.000000   0.000000
   12       53.996604     54.379769   0.000000   0.000000
 
 -0.4375000E+00 -0.4375000E+00  0.3125000E+00  0.1562500E-01
    1        3.600255      4.864076   1.000000   1.000000
    2        3.600255      4.864076   1.000000   1.000000
    3        9.365702     10.582734   1.026681   0.734468
    4       11.198579     12.585027   0.471007  -0.047811
    5       11.198579     12.585028  -0.000256   0.000000
    6       22.503981     23.112971   0.000000   0.000000
    7       22.503985     23.112977   0.000000   0.000000
    8       24.260732     24.736523   0.000000   0.000000
    9       33.694502     34.311802   0.000000   0.000000
   10       33.694504     34.311805   0.000000   0.000000
   11       43.826152     44.687542   0.000000   0.000000
   12       54.755605     55.132218   0.000000   0.000000
 
 -0.4375000E+00  0.4375000E+00  0.4375000E+00  0.1171875E-01
    1        3.092601      4.364510   1.000000   1.000000
    2        3.146797      4.392643   1.000000   1.000000
    3       11.118810     12.490191   0.620645  -0.239411
    4       11.118810     12.490192   0.277084  -0.024050
    5       11.427712     12.852678  -0.002987   0.000000
    6       21.623585     22.091546   0.000000   0.000000
    7       24.661739     24.976922   0.000000   0.000000
    8       24.661744     24.976928   0.000000   0.000000
    9       31.021733     31.944038   0.000000   0.000000
   10       32.368583     33.119231   0.000000   0.000000
   11       42.232430     43.118297   0.000000   0.000000
   12       57.640655     57.878579   0.000000   0.000000
