 vasp.5.4.1 24Jun15 (build Jul 19 2016 16:50:41) complex                        
  
 executed on           IFC91_ompi date 2019.10.17  13:09:14
 running on    4 total cores
 distrk:  each k-point on    4 cores,    1 groups
 distr:  one band on NCORES_PER_BAND=   1 cores,    4 groups


--------------------------------------------------------------------------------------------------------


 INCAR:
 POTCAR:    PAW_PBE Fe 06Sep2000                  
 POTCAR:    PAW_PBE Fe 06Sep2000                  
   VRHFIN =Fe:  d7 s1                                                           
   LEXCH  = PE                                                                  
   EATOM  =   594.3153 eV,   43.6809 Ry                                         
                                                                                
   TITEL  = PAW_PBE Fe 06Sep2000                                                
   LULTRA =        F    use ultrasoft PP ?                                      
   IUNSCR =        1    unscreen: 0-lin 1-nonlin 2-no                           
   RPACOR =    2.000    partial core radius                                     
   POMASS =   55.847; ZVAL   =    8.000    mass and valenz                      
   RCORE  =    2.300    outmost cutoff radius                                   
   RWIGS  =    2.460; RWIGS  =    1.302    wigner-seitz radius (au A)           
   ENMAX  =  267.882; ENMIN  =  200.911 eV                                      
   RCLOC  =    1.701    cutoff for local pot                                    
   LCOR   =        T    correct aug charges                                     
   LPAW   =        T    paw PP                                                  
   EAUG   =  511.368                                                            
   DEXC   =    0.000                                                            
   RMAX   =    2.356    core radius for proj-oper                               
   RAUG   =    1.300    factor for augmentation sphere                          
   RDEP   =    2.442    radius for radial grids                                 
   RDEPT  =    1.890    core radius for aug-charge                              
                                                                                
   Atomic configuration                                                         
    9 entries                                                                   
     n  l   j            E        occ.                                          
     1  0  0.50     -6993.8440   2.0000                                         
     2  0  0.50      -814.6047   2.0000                                         
     2  1  1.50      -693.3689   6.0000                                         
     3  0  0.50       -89.4732   2.0000                                         
     3  1  1.50       -55.6373   6.0000                                         
     3  2  2.50        -3.8151   7.0000                                         
     4  0  0.50        -4.2551   1.0000                                         
     4  1  1.50        -3.4015   0.0000                                         
     4  3  2.50        -1.3606   0.0000                                         
   Description                                                                  
     l       E           TYP  RCUT    TYP  RCUT                                 
     2     -3.8151135     23  2.300                                             
     2     -5.1756961     23  2.300                                             
     0     -4.2550963     23  2.300                                             
     0      7.2035603     23  2.300                                             
     1     -2.7211652     23  2.300                                             
     1     18.4316424     23  2.300                                             
  local pseudopotential read in
  partial core-charges read in
  partial kinetic energy density read in
  atomic valenz-charges read in
  non local Contribution for L=           2  read in
    real space projection operators read in
  non local Contribution for L=           2  read in
    real space projection operators read in
  non local Contribution for L=           0  read in
    real space projection operators read in
  non local Contribution for L=           0  read in
    real space projection operators read in
  non local Contribution for L=           1  read in
    real space projection operators read in
  non local Contribution for L=           1  read in
    real space projection operators read in
    PAW grid and wavefunctions read in
 
   number of l-projection  operators is LMAX  =           6
   number of lm-projection operators is LMMAX =          18
 
  PAW_PBE Fe 06Sep2000                  :
 energy of atom  1       EATOM= -594.3153
 kinetic energy error for atom=    0.0088 (will be added to EATOM!!)
 
 
 POSCAR: Fe BCC                                  
  positions in direct lattice
  velocities in cartesian coordinates
  No initial velocities read in
 exchange correlation table for  LEXCH =        8
   RHO(1)=    0.500       N(1)  =     2000
   RHO(2)=  100.500       N(2)  =     4000
 


--------------------------------------------------------------------------------------------------------


 ion  position               nearest neighbor table
   1  0.000  0.000  0.000-
 
  LATTYP: Found a body centered cubic cell.
 ALAT       =     2.5000000000
  
  Lattice vectors:
  
 A1 = (  -1.2500000000,   1.2500000000,   1.2500000000)
 A2 = (   1.2500000000,  -1.2500000000,   1.2500000000)
 A3 = (   1.2500000000,   1.2500000000,  -1.2500000000)


Analysis of symmetry for initial positions (statically):
=====================================================================
 Subroutine PRICEL returns:
 Original cell was already a primitive cell.
 

 Routine SETGRP: Setting up the symmetry group for a 
 body centered cubic supercell.


 Subroutine GETGRP returns: Found 48 space group operations
 (whereof 48 operations were pure point group operations)
 out of a pool of 48 trial point group operations.


The static configuration has the point symmetry O_h .


Analysis of symmetry for dynamics (positions and initial velocities):
=====================================================================
 Subroutine PRICEL returns:
 Original cell was already a primitive cell.
 

 Routine SETGRP: Setting up the symmetry group for a 
 body centered cubic supercell.


 Subroutine GETGRP returns: Found 48 space group operations
 (whereof 48 operations were pure point group operations)
 out of a pool of 48 trial point group operations.


The dynamic configuration has the point symmetry O_h .


Analysis of structural, dynamic, and magnetic symmetry:
=====================================================================
 Subroutine PRICEL returns:
 Original cell was already a primitive cell.
 

 Routine SETGRP: Setting up the symmetry group for a 
 body centered cubic supercell.


 Subroutine GETGRP returns: Found 48 space group operations
 (whereof 48 operations were pure point group operations)
 out of a pool of 48 trial point group operations.


The magnetic configuration has the point symmetry O_h .


 Subroutine INISYM returns: Found 48 space group operations
 (whereof 48 operations are pure point group operations),
 and found     1 'primitive' translations

 
 
 KPOINTS: K-Points                                

Automatic generation of k-mesh.
Space group operators:
 irot       det(A)        alpha          n_x          n_y          n_z        tau_x        tau_y        tau_z
    1     1.000000     0.000000     1.000000     0.000000     0.000000     0.000000     0.000000     0.000000
    2    -1.000000     0.000000     1.000000     0.000000     0.000000     0.000000     0.000000     0.000000
    3     1.000000   120.000000    -0.577350    -0.577350    -0.577350     0.000000     0.000000     0.000000
    4    -1.000000   120.000000    -0.577350    -0.577350    -0.577350     0.000000     0.000000     0.000000
    5     1.000000   120.000000     0.577350     0.577350     0.577350     0.000000     0.000000     0.000000
    6    -1.000000   120.000000     0.577350     0.577350     0.577350     0.000000     0.000000     0.000000
    7     1.000000    90.000000     0.000000     0.000000    -1.000000     0.000000     0.000000     0.000000
    8    -1.000000    90.000000     0.000000     0.000000    -1.000000     0.000000     0.000000     0.000000
    9     1.000000   180.000000     0.000000     0.707107     0.707107     0.000000     0.000000     0.000000
   10    -1.000000   180.000000     0.000000     0.707107     0.707107     0.000000     0.000000     0.000000
   11     1.000000    90.000000     0.000000     1.000000     0.000000     0.000000     0.000000     0.000000
   12    -1.000000    90.000000     0.000000     1.000000     0.000000     0.000000     0.000000     0.000000
   13     1.000000   180.000000     0.000000     0.000000     1.000000     0.000000     0.000000     0.000000
   14    -1.000000   180.000000     0.000000     0.000000     1.000000     0.000000     0.000000     0.000000
   15     1.000000   120.000000    -0.577350     0.577350     0.577350     0.000000     0.000000     0.000000
   16    -1.000000   120.000000    -0.577350     0.577350     0.577350     0.000000     0.000000     0.000000
   17     1.000000   120.000000    -0.577350     0.577350    -0.577350     0.000000     0.000000     0.000000
   18    -1.000000   120.000000    -0.577350     0.577350    -0.577350     0.000000     0.000000     0.000000
   19     1.000000    90.000000     0.000000     0.000000     1.000000     0.000000     0.000000     0.000000
   20    -1.000000    90.000000     0.000000     0.000000     1.000000     0.000000     0.000000     0.000000
   21     1.000000    90.000000    -1.000000     0.000000     0.000000     0.000000     0.000000     0.000000
   22    -1.000000    90.000000    -1.000000     0.000000     0.000000     0.000000     0.000000     0.000000
   23     1.000000   180.000000     0.707107     0.000000     0.707107     0.000000     0.000000     0.000000
   24    -1.000000   180.000000     0.707107     0.000000     0.707107     0.000000     0.000000     0.000000
   25     1.000000   120.000000     0.577350    -0.577350     0.577350     0.000000     0.000000     0.000000
   26    -1.000000   120.000000     0.577350    -0.577350     0.577350     0.000000     0.000000     0.000000
   27     1.000000   120.000000    -0.577350    -0.577350     0.577350     0.000000     0.000000     0.000000
   28    -1.000000   120.000000    -0.577350    -0.577350     0.577350     0.000000     0.000000     0.000000
   29     1.000000   180.000000     1.000000     0.000000     0.000000     0.000000     0.000000     0.000000
   30    -1.000000   180.000000     1.000000     0.000000     0.000000     0.000000     0.000000     0.000000
   31     1.000000    90.000000     0.000000    -1.000000     0.000000     0.000000     0.000000     0.000000
   32    -1.000000    90.000000     0.000000    -1.000000     0.000000     0.000000     0.000000     0.000000
   33     1.000000   180.000000     0.707107     0.707107     0.000000     0.000000     0.000000     0.000000
   34    -1.000000   180.000000     0.707107     0.707107     0.000000     0.000000     0.000000     0.000000
   35     1.000000    90.000000     1.000000     0.000000     0.000000     0.000000     0.000000     0.000000
   36    -1.000000    90.000000     1.000000     0.000000     0.000000     0.000000     0.000000     0.000000
   37     1.000000   120.000000     0.577350    -0.577350    -0.577350     0.000000     0.000000     0.000000
   38    -1.000000   120.000000     0.577350    -0.577350    -0.577350     0.000000     0.000000     0.000000
   39     1.000000   180.000000     0.000000     1.000000     0.000000     0.000000     0.000000     0.000000
   40    -1.000000   180.000000     0.000000     1.000000     0.000000     0.000000     0.000000     0.000000
   41     1.000000   120.000000     0.577350     0.577350    -0.577350     0.000000     0.000000     0.000000
   42    -1.000000   120.000000     0.577350     0.577350    -0.577350     0.000000     0.000000     0.000000
   43     1.000000   180.000000     0.000000    -0.707107     0.707107     0.000000     0.000000     0.000000
   44    -1.000000   180.000000     0.000000    -0.707107     0.707107     0.000000     0.000000     0.000000
   45     1.000000   180.000000     0.707107    -0.707107     0.000000     0.000000     0.000000     0.000000
   46    -1.000000   180.000000     0.707107    -0.707107     0.000000     0.000000     0.000000     0.000000
   47     1.000000   180.000000     0.707107     0.000000    -0.707107     0.000000     0.000000     0.000000
   48    -1.000000   180.000000     0.707107     0.000000    -0.707107     0.000000     0.000000     0.000000
 
 Subroutine IBZKPT returns following result:
 ===========================================
 
 Found     26 irreducible k-points:
 
 Following reciprocal coordinates:
            Coordinates               Weight
  0.062500  0.062500  0.062500      8.000000
  0.187500  0.062500  0.062500     24.000000
  0.312500  0.062500  0.062500     24.000000
  0.437500  0.062500  0.062500     12.000000
 -0.062500  0.062500  0.062500      6.000000
  0.187500  0.187500  0.062500     24.000000
  0.312500  0.187500  0.062500     48.000000
 -0.187500  0.187500  0.062500     24.000000
  0.312500  0.312500  0.062500      8.000000
 -0.312500  0.312500  0.062500     24.000000
 -0.187500  0.312500  0.062500     24.000000
 -0.437500  0.437500  0.062500     24.000000
 -0.312500  0.437500  0.062500     48.000000
 -0.437500 -0.437500  0.062500     24.000000
 -0.312500 -0.437500  0.062500     24.000000
  0.187500  0.187500  0.187500      8.000000
  0.312500  0.187500  0.187500     12.000000
 -0.187500  0.187500  0.187500      6.000000
 -0.312500  0.312500  0.187500     24.000000
 -0.437500  0.437500  0.187500     24.000000
 -0.312500  0.437500  0.187500     24.000000
 -0.437500 -0.437500  0.187500     24.000000
 -0.312500  0.312500  0.312500      6.000000
 -0.437500  0.437500  0.312500     24.000000
 -0.437500 -0.437500  0.312500      8.000000
 -0.437500  0.437500  0.437500      6.000000
 
 Following cartesian coordinates:
            Coordinates               Weight
  0.125000  0.125000  0.125000      8.000000
  0.125000  0.250000  0.250000     24.000000
  0.125000  0.375000  0.375000     24.000000
  0.125000  0.500000  0.500000     12.000000
  0.125000  0.000000  0.000000      6.000000
  0.250000  0.250000  0.375000     24.000000
  0.250000  0.375000  0.500000     48.000000
  0.250000 -0.125000  0.000000     24.000000
  0.375000  0.375000  0.625000      8.000000
  0.375000 -0.250000  0.000000     24.000000
  0.375000 -0.125000  0.125000     24.000000
  0.500000 -0.375000  0.000000     24.000000
  0.500000 -0.250000  0.125000     48.000000
 -0.375000 -0.375000 -0.875000     24.000000
 -0.375000 -0.250000 -0.750000     24.000000
  0.375000  0.375000  0.375000      8.000000
  0.375000  0.500000  0.500000     12.000000
  0.375000  0.000000  0.000000      6.000000
  0.500000 -0.125000  0.000000     24.000000
  0.625000 -0.250000  0.000000     24.000000
  0.625000 -0.125000  0.125000     24.000000
 -0.250000 -0.250000 -0.875000     24.000000
  0.625000  0.000000  0.000000      6.000000
  0.750000 -0.125000  0.000000     24.000000
 -0.125000 -0.125000 -0.875000      8.000000
  0.875000  0.000000  0.000000      6.000000
 
 TETIRR: Found    534 inequivalent tetrahedra from     3072


--------------------------------------------------------------------------------------------------------




 Dimension of arrays:
   k-points           NKPTS =     26   k-points in BZ     NKDIM =     26   number of bands    NBANDS=     12
   number of dos      NEDOS =    301   number of ions     NIONS =      1
   non local maximal  LDIM  =      6   non local SUM 2l+1 LMDIM =     18
   total plane-waves  NPLWV =   2744
   max r-space proj   IRMAX =      1   max aug-charges    IRDMAX=  12710
   dimension x,y,z NGX =    14 NGY =   14 NGZ =   14
   dimension x,y,z NGXF=    28 NGYF=   28 NGZF=   28
   support grid    NGXF=    28 NGYF=   28 NGZF=   28
   ions per type =               1
 NGX,Y,Z   is equivalent  to a cutoff of  10.75, 10.75, 10.75 a.u.
 NGXF,Y,Z  is equivalent  to a cutoff of  21.50, 21.50, 21.50 a.u.


 I would recommend the setting:
   dimension x,y,z NGX =    14 NGY =   14 NGZ =   14
 SYSTEM =  Fe FCC                                  
 POSCAR =  Fe BCC                                  

 Startparameter for this run:
   NWRITE =      2    write-flag & timer
   PREC   = accura    normal or accurate (medium, high low for compatibility)
   ISTART =      0    job   : 0-new  1-cont  2-samecut
   ICHARG =      2    charge: 1-file 2-atom 10-const
   ISPIN  =      2    spin polarized calculation?
   LNONCOLLINEAR =      F non collinear calculations
   LSORBIT =      F    spin-orbit coupling
   INIWAV =      1    electr: 0-lowe 1-rand  2-diag
   LASPH  =      F    aspherical Exc in radial PAW
   METAGGA=      F    non-selfconsistent MetaGGA calc.

 Electronic Relaxation 1
   ENCUT  =  400.0 eV  29.40 Ry    5.42 a.u.   3.53  3.53  3.53*2*pi/ulx,y,z
   ENINI  =  400.0     initial cutoff
   ENAUG  =  511.4 eV  augmentation charge cutoff
   NELM   =     60;   NELMIN=  2; NELMDL= -5     # of ELM steps 
   EDIFF  = 0.1E-05   stopping-criterion for ELM
   LREAL  =      F    real-space projection
   NLSPLINE    = F    spline interpolate recip. space projectors
   LCOMPAT=      F    compatible to vasp.4.4
   GGA_COMPAT  = T    GGA compatible to vasp.4.4-vasp.4.6
   LMAXPAW     = -100 max onsite density
   LMAXMIX     =    2 max onsite mixed and CHGCAR
   VOSKOWN=      0    Vosko Wilk Nusair interpolation
   ROPT   =    0.00000
 Ionic relaxation
   EDIFFG = 0.1E-04   stopping-criterion for IOM
   NSW    =      0    number of steps for IOM
   NBLOCK =      1;   KBLOCK =      1    inner block; outer block 
   IBRION =     -1    ionic relax: 0-MD 1-quasi-New 2-CG
   NFREE  =      0    steps in history (QN), initial steepest desc. (CG)
   ISIF   =      2    stress and relaxation
   IWAVPR =     10    prediction:  0-non 1-charg 2-wave 3-comb
   ISYM   =      2    0-nonsym 1-usesym 2-fastsym
   LCORR  =      T    Harris-Foulkes like correction to forces

   POTIM  = 0.5000    time-step for ionic-motion
   TEIN   =    0.0    initial temperature
   TEBEG  =    0.0;   TEEND  =   0.0 temperature during run
   SMASS  =  -3.00    Nose mass-parameter (am)
   estimated Nose-frequenzy (Omega)   =  0.10E-29 period in steps =****** mass=  -0.107E-27a.u.
   SCALEE = 1.0000    scale energy and forces
   NPACO  =    256;   APACO  = 16.0  distance and # of slots for P.C.
   PSTRESS=    0.0 pullay stress

  Mass of Ions in am
   POMASS =  55.85
  Ionic Valenz
   ZVAL   =   8.00
  Atomic Wigner-Seitz radii
   RWIGS  =  -1.00
  virtual crystal weights 
   VCA    =   1.00
   NELECT =       8.0000    total number of electrons
   NUPDOWN=      -1.0000    fix difference up-down

 DOS related values:
   EMIN   =  10.00;   EMAX   =-10.00  energy-range for DOS
   EFERMI =   0.00
   ISMEAR =    -5;   SIGMA  =   0.20  broadening in eV -4-tet -1-fermi 0-gaus

 Electronic relaxation 2 (details)
   IALGO  =     38    algorithm
   LDIAG  =      T    sub-space diagonalisation (order eigenvalues)
   LSUBROT=      F    optimize rotation matrix (better conditioning)
   TURBO    =      0    0=normal 1=particle mesh
   IRESTART =      0    0=no restart 2=restart with 2 vectors
   NREBOOT  =      0    no. of reboots
   NMIN     =      0    reboot dimension
   EREF     =   0.00    reference energy to select bands
   IMIX   =      4    mixing-type and parameters
     AMIX     =   0.40;   BMIX     =  1.00
     AMIX_MAG =   1.60;   BMIX_MAG =  1.00
     AMIN     =   0.10
     WC   =   100.;   INIMIX=   1;  MIXPRE=   1;  MAXMIX= -45

 Intra band minimization:
   WEIMIN = 0.0000     energy-eigenvalue tresh-hold
   EBREAK =  0.21E-07  absolut break condition
   DEPER  =   0.30     relativ break condition  

   TIME   =   0.40     timestep for ELM

  volume/ion in A,a.u.               =       7.81        52.72
  Fermi-wavevector in a.u.,A,eV,Ry     =   1.650092  3.118222 37.045991  2.722803
  Thomas-Fermi vector in A             =   2.739101
 
 Write flags
   LWAVE  =      T    write WAVECAR
   LCHARG =      T    write CHGCAR
   LVTOT  =      F    write LOCPOT, total local potential
   LVHAR  =      F    write LOCPOT, Hartree potential only
   LELF   =      F    write electronic localiz. function (ELF)
   LORBIT =     11    0 simple, 1 ext, 2 COOP (PROOUT)


 Dipole corrections
   LMONO  =      F    monopole corrections only (constant potential shift)
   LDIPOL =      F    correct potential (dipole corrections)
   IDIPOL =      0    1-x, 2-y, 3-z, 4-all directions 
   EPSILON=  1.0000000 bulk dielectric constant

 Exchange correlation treatment:
   GGA     =    --    GGA type
   LEXCH   =     8    internal setting for exchange type
   VOSKOWN=      0    Vosko Wilk Nusair interpolation
   LHFCALC =     F    Hartree Fock is set to
   LHFONE  =     F    Hartree Fock one center treatment
   AEXX    =    0.0000 exact exchange contribution

 Linear response parameters
   LEPSILON=     F    determine dielectric tensor
   LRPA    =     F    only Hartree local field effects (RPA)
   LNABLA  =     F    use nabla operator in PAW spheres
   LVEL    =     F    velocity operator in full k-point grid
   LINTERFAST=   F  fast interpolation
   KINTER  =     0    interpolate to denser k-point grid
   CSHIFT  =0.1000    complex shift for real part using Kramers Kronig
   OMEGAMAX=  -1.0    maximum frequency
   DEG_THRESHOLD= 0.2000000E-02 threshold for treating states as degnerate
   RTIME   =    0.100 relaxation time in fs

 Orbital magnetization related:
   ORBITALMAG=     F  switch on orbital magnetization
   LCHIMAG   =     F  perturbation theory with respect to B field
   DQ        =  0.001000  dq finite difference perturbation B field



--------------------------------------------------------------------------------------------------------


 Static calculation
 charge density and potential will be updated during run
 spin polarized calculation
 Variant of blocked Davidson
 Davidson routine will perform the subspace rotation
 perform sub-space diagonalisation
    after iterative eigenvector-optimisation
 modified Broyden-mixing scheme, WC =      100.0
 initial mixing is a Kerker type mixing with AMIX =  0.4000 and BMIX =      1.0000
 Hartree-type preconditioning will be used
 using additional bands            8
 reciprocal scheme for non local part
 use partial core corrections
 calculate Harris-corrections to forces 
   (improved forces if not selfconsistent)
 use gradient corrections 
 use of overlap-Matrix (Vanderbilt PP)
 Fermi weights with tetrahedron method with Bloechl corrections


--------------------------------------------------------------------------------------------------------


  energy-cutoff  :      400.00
  volume of cell :        7.81
      direct lattice vectors                 reciprocal lattice vectors
    -1.250000000  1.250000000  1.250000000     0.000000000  0.400000000  0.400000000
     1.250000000 -1.250000000  1.250000000     0.400000000  0.000000000  0.400000000
     1.250000000  1.250000000 -1.250000000     0.400000000  0.400000000  0.000000000

  length of vectors
     2.165063509  2.165063509  2.165063509     0.565685425  0.565685425  0.565685425


 
 k-points in units of 2pi/SCALE and weight: K-Points                                
   0.12500000  0.12500000  0.12500000       0.016
   0.12500000  0.25000000  0.25000000       0.047
   0.12500000  0.37500000  0.37500000       0.047
   0.12500000  0.50000000  0.50000000       0.023
   0.12500000  0.00000000  0.00000000       0.012
   0.25000000  0.25000000  0.37500000       0.047
   0.25000000  0.37500000  0.50000000       0.094
   0.25000000 -0.12500000  0.00000000       0.047
   0.37500000  0.37500000  0.62500000       0.016
   0.37500000 -0.25000000  0.00000000       0.047
   0.37500000 -0.12500000  0.12500000       0.047
   0.50000000 -0.37500000  0.00000000       0.047
   0.50000000 -0.25000000  0.12500000       0.094
  -0.37500000 -0.37500000 -0.87500000       0.047
  -0.37500000 -0.25000000 -0.75000000       0.047
   0.37500000  0.37500000  0.37500000       0.016
   0.37500000  0.50000000  0.50000000       0.023
   0.37500000  0.00000000  0.00000000       0.012
   0.50000000 -0.12500000  0.00000000       0.047
   0.62500000 -0.25000000  0.00000000       0.047
   0.62500000 -0.12500000  0.12500000       0.047
  -0.25000000 -0.25000000 -0.87500000       0.047
   0.62500000  0.00000000  0.00000000       0.012
   0.75000000 -0.12500000  0.00000000       0.047
  -0.12500000 -0.12500000 -0.87500000       0.016
   0.87500000  0.00000000  0.00000000       0.012
 
 k-points in reciprocal lattice and weights: K-Points                                
   0.06250000  0.06250000  0.06250000       0.016
   0.18750000  0.06250000  0.06250000       0.047
   0.31250000  0.06250000  0.06250000       0.047
   0.43750000  0.06250000  0.06250000       0.023
  -0.06250000  0.06250000  0.06250000       0.012
   0.18750000  0.18750000  0.06250000       0.047
   0.31250000  0.18750000  0.06250000       0.094
  -0.18750000  0.18750000  0.06250000       0.047
   0.31250000  0.31250000  0.06250000       0.016
  -0.31250000  0.31250000  0.06250000       0.047
  -0.18750000  0.31250000  0.06250000       0.047
  -0.43750000  0.43750000  0.06250000       0.047
  -0.31250000  0.43750000  0.06250000       0.094
  -0.43750000 -0.43750000  0.06250000       0.047
  -0.31250000 -0.43750000  0.06250000       0.047
   0.18750000  0.18750000  0.18750000       0.016
   0.31250000  0.18750000  0.18750000       0.023
  -0.18750000  0.18750000  0.18750000       0.012
  -0.31250000  0.31250000  0.18750000       0.047
  -0.43750000  0.43750000  0.18750000       0.047
  -0.31250000  0.43750000  0.18750000       0.047
  -0.43750000 -0.43750000  0.18750000       0.047
  -0.31250000  0.31250000  0.31250000       0.012
  -0.43750000  0.43750000  0.31250000       0.047
  -0.43750000 -0.43750000  0.31250000       0.016
  -0.43750000  0.43750000  0.43750000       0.012
 
 position of ions in fractional coordinates (direct lattice) 
   0.00000000  0.00000000  0.00000000
 
 position of ions in cartesian coordinates  (Angst):
   0.00000000  0.00000000  0.00000000
 


--------------------------------------------------------------------------------------------------------


 k-point  1 :   0.0625 0.0625 0.0625  plane waves:     144
 k-point  2 :   0.1875 0.0625 0.0625  plane waves:     144
 k-point  3 :   0.3125 0.0625 0.0625  plane waves:     142
 k-point  4 :   0.4375 0.0625 0.0625  plane waves:     142
 k-point  5 :  -0.0625 0.0625 0.0625  plane waves:     140
 k-point  6 :   0.1875 0.1875 0.0625  plane waves:     143
 k-point  7 :   0.3125 0.1875 0.0625  plane waves:     143
 k-point  8 :  -0.1875 0.1875 0.0625  plane waves:     148
 k-point  9 :   0.3125 0.3125 0.0625  plane waves:     143
 k-point 10 :  -0.3125 0.3125 0.0625  plane waves:     143
 k-point 11 :  -0.1875 0.3125 0.0625  plane waves:     140
 k-point 12 :  -0.4375 0.4375 0.0625  plane waves:     142
 k-point 13 :  -0.3125 0.4375 0.0625  plane waves:     142
 k-point 14 :  -0.4375-0.4375 0.0625  plane waves:     140
 k-point 15 :  -0.3125-0.4375 0.0625  plane waves:     144
 k-point 16 :   0.1875 0.1875 0.1875  plane waves:     146
 k-point 17 :   0.3125 0.1875 0.1875  plane waves:     146
 k-point 18 :  -0.1875 0.1875 0.1875  plane waves:     148
 k-point 19 :  -0.3125 0.3125 0.1875  plane waves:     142
 k-point 20 :  -0.4375 0.4375 0.1875  plane waves:     138
 k-point 21 :  -0.3125 0.4375 0.1875  plane waves:     140
 k-point 22 :  -0.4375-0.4375 0.1875  plane waves:     140
 k-point 23 :  -0.3125 0.3125 0.3125  plane waves:     136
 k-point 24 :  -0.4375 0.4375 0.3125  plane waves:     136
 k-point 25 :  -0.4375-0.4375 0.3125  plane waves:     137
 k-point 26 :  -0.4375 0.4375 0.4375  plane waves:     132

 maximum and minimum number of plane-waves per node :       148      132

 maximum number of plane-waves:       148
 maximum index in each direction: 
   IXMAX=    3   IYMAX=    3   IZMAX=    3
   IXMIN=   -3   IYMIN=   -3   IZMIN=   -3

 NGX is ok and might be reduce to  14
 NGY is ok and might be reduce to  14
 NGZ is ok and might be reduce to  14

 serial   3D FFT for wavefunctions
 parallel 3D FFT for charge:
    minimum data exchange during FFTs selected (reduces bandwidth)


 total amount of memory used by VASP on root node    31852. kBytes
========================================================================

   base      :      30000. kBytes
   nonl-proj :        556. kBytes
   fftplans  :        204. kBytes
   grid      :        642. kBytes
   one-center:         31. kBytes
   wavefun   :        419. kBytes
 
     INWAV:  cpu time    0.0000: real time    0.0000
 Broyden mixing: mesh for mixing (old mesh)
   NGX =  7   NGY =  7   NGZ =  7
  (NGX  = 28   NGY  = 28   NGZ  = 28)
  gives a total of    343 points

 initial charge density was supplied:
 charge density of overlapping atoms calculated
 number of electron       8.0000000 magnetization       4.0000000
 keeping initial charge density in first step


--------------------------------------------------------------------------------------------------------


 Maximum index for augmentation-charges         2971 (set IRDMAX)


--------------------------------------------------------------------------------------------------------


 First call to EWALD:  gamma=   0.893
 Maximum number of real-space cells 3x 3x 3
 Maximum number of reciprocal cells 3x 3x 3

 FEWALD executed in parallel
    FEWALD:  cpu time    0.0020: real time    0.0010


----------------------------------------- Iteration    1(   1)  ---------------------------------------


    POTLOK:  cpu time    0.0300: real time    0.0201
    SETDIJ:  cpu time    0.0190: real time    0.0139
     EDDAV:  cpu time    3.6984: real time    2.3783
 BZINTS: Fermi energy: 16.943672;  8.000000 electrons
         Band energy:  89.964314;  BLOECHL correction: -0.515104
       DOS:  cpu time    0.0610: real time    0.0386
    --------------------------------------------
      LOOP:  cpu time    3.8134: real time    2.4543

 eigenvalue-minimisations  :  1468
 total energy-change (2. order) : 0.1739337E+02  (-0.3617935E+03)
 number of electron       8.0000000 magnetization       4.0000000
 augmentation part        8.0000000 magnetization       4.0000000

 Free energy of the ion-electron system (eV)
  ---------------------------------------------------
  alpha Z        PSCENC =        88.46563328
  Ewald energy   TEWEN  =      -670.77359510
  -Hartree energ DENC   =       -84.15067712
  -exchange      EXHF   =         0.00000000
  -V(xc)+E(xc)   XCENC  =         7.33717098
  PAW double counting   =       552.89180568     -560.64780826
  entropy T*S    EENTRO =         0.00000000
  eigenvalues    EBANDS =        89.96431388
  atomic energy  EATOM  =       594.30652615
  Solvation  Ediel_sol  =         0.00000000
  ---------------------------------------------------
  free energy    TOTEN  =        17.39336949 eV

  energy without entropy =       17.39336949  energy(sigma->0) =       17.39336949


--------------------------------------------------------------------------------------------------------




----------------------------------------- Iteration    1(   2)  ---------------------------------------


     EDDAV:  cpu time    3.6254: real time    2.2430
 BZINTS: Fermi energy: 12.439613;  8.000000 electrons
         Band energy:  66.348866;  BLOECHL correction: -0.099425
       DOS:  cpu time    0.0610: real time    0.0357
    --------------------------------------------
      LOOP:  cpu time    3.7314: real time    2.3070

 eigenvalue-minimisations  :  1316
 total energy-change (2. order) :-0.2361545E+02  (-0.2206031E+02)
 number of electron       8.0000000 magnetization       4.0000000
 augmentation part        8.0000000 magnetization       4.0000000

 Free energy of the ion-electron system (eV)
  ---------------------------------------------------
  alpha Z        PSCENC =        88.46563328
  Ewald energy   TEWEN  =      -670.77359510
  -Hartree energ DENC   =       -84.15067712
  -exchange      EXHF   =         0.00000000
  -V(xc)+E(xc)   XCENC  =         7.33717098
  PAW double counting   =       552.89180568     -560.64780826
  entropy T*S    EENTRO =         0.00000000
  eigenvalues    EBANDS =        66.34886576
  atomic energy  EATOM  =       594.30652615
  Solvation  Ediel_sol  =         0.00000000
  ---------------------------------------------------
  free energy    TOTEN  =        -6.22207862 eV

  energy without entropy =       -6.22207862  energy(sigma->0) =       -6.22207862


--------------------------------------------------------------------------------------------------------




----------------------------------------- Iteration    1(   3)  ---------------------------------------


     EDDAV:  cpu time    4.0174: real time    2.5330
 BZINTS: Fermi energy: 12.370680;  8.000000 electrons
         Band energy:  65.914290;  BLOECHL correction: -0.099564
       DOS:  cpu time    0.0450: real time    0.0271
    --------------------------------------------
      LOOP:  cpu time    4.0954: real time    2.5825

 eigenvalue-minimisations  :  1452
 total energy-change (2. order) :-0.4345754E+00  (-0.4332859E+00)
 number of electron       8.0000000 magnetization       4.0000000
 augmentation part        8.0000000 magnetization       4.0000000

 Free energy of the ion-electron system (eV)
  ---------------------------------------------------
  alpha Z        PSCENC =        88.46563328
  Ewald energy   TEWEN  =      -670.77359510
  -Hartree energ DENC   =       -84.15067712
  -exchange      EXHF   =         0.00000000
  -V(xc)+E(xc)   XCENC  =         7.33717098
  PAW double counting   =       552.89180568     -560.64780826
  entropy T*S    EENTRO =         0.00000000
  eigenvalues    EBANDS =        65.91429034
  atomic energy  EATOM  =       594.30652615
  Solvation  Ediel_sol  =         0.00000000
  ---------------------------------------------------
  free energy    TOTEN  =        -6.65665405 eV

  energy without entropy =       -6.65665405  energy(sigma->0) =       -6.65665405


--------------------------------------------------------------------------------------------------------




----------------------------------------- Iteration    1(   4)  ---------------------------------------


     EDDAV:  cpu time    3.9004: real time    2.4572
 BZINTS: Fermi energy: 12.370516;  8.000000 electrons
         Band energy:  65.913215;  BLOECHL correction: -0.099566
       DOS:  cpu time    0.0680: real time    0.0395
    --------------------------------------------
      LOOP:  cpu time    3.9984: real time    2.5145

 eigenvalue-minimisations  :  1452
 total energy-change (2. order) :-0.1075075E-02  (-0.1075005E-02)
 number of electron       8.0000000 magnetization       4.0000000
 augmentation part        8.0000000 magnetization       4.0000000

 Free energy of the ion-electron system (eV)
  ---------------------------------------------------
  alpha Z        PSCENC =        88.46563328
  Ewald energy   TEWEN  =      -670.77359510
  -Hartree energ DENC   =       -84.15067712
  -exchange      EXHF   =         0.00000000
  -V(xc)+E(xc)   XCENC  =         7.33717098
  PAW double counting   =       552.89180568     -560.64780826
  entropy T*S    EENTRO =         0.00000000
  eigenvalues    EBANDS =        65.91321526
  atomic energy  EATOM  =       594.30652615
  Solvation  Ediel_sol  =         0.00000000
  ---------------------------------------------------
  free energy    TOTEN  =        -6.65772912 eV

  energy without entropy =       -6.65772912  energy(sigma->0) =       -6.65772912


--------------------------------------------------------------------------------------------------------




----------------------------------------- Iteration    1(   5)  ---------------------------------------


     EDDAV:  cpu time    3.8634: real time    2.3700
 BZINTS: Fermi energy: 12.370515;  8.000000 electrons
         Band energy:  65.913211;  BLOECHL correction: -0.099566
       DOS:  cpu time    0.0500: real time    0.0330
    CHARGE:  cpu time    0.0520: real time    0.0353
    MIXING:  cpu time    0.0010: real time    0.0003
    --------------------------------------------
      LOOP:  cpu time    3.9804: real time    2.4477

 eigenvalue-minimisations  :  1416
 total energy-change (2. order) :-0.4107367E-05  (-0.4114086E-05)
 number of electron       7.9999997 magnetization       1.1492939
 augmentation part        3.8006723 magnetization       0.5972520

 Broyden mixing:
  rms(total) = 0.21897E+01    rms(broyden)= 0.21896E+01
  rms(prec ) = 0.35122E+01
  weight for this iteration     100.00

 Free energy of the ion-electron system (eV)
  ---------------------------------------------------
  alpha Z        PSCENC =        88.46563328
  Ewald energy   TEWEN  =      -670.77359510
  -Hartree energ DENC   =       -84.15067712
  -exchange      EXHF   =         0.00000000
  -V(xc)+E(xc)   XCENC  =         7.33717098
  PAW double counting   =       552.89180568     -560.64780826
  entropy T*S    EENTRO =         0.00000000
  eigenvalues    EBANDS =        65.91321116
  atomic energy  EATOM  =       594.30652615
  Solvation  Ediel_sol  =         0.00000000
  ---------------------------------------------------
  free energy    TOTEN  =        -6.65773323 eV

  energy without entropy =       -6.65773323  energy(sigma->0) =       -6.65773323


--------------------------------------------------------------------------------------------------------




----------------------------------------- Iteration    1(   6)  ---------------------------------------


    POTLOK:  cpu time    0.0270: real time    0.0173
    SETDIJ:  cpu time    0.0200: real time    0.0129
     EDDAV:  cpu time    3.7394: real time    2.3367
 BZINTS: Fermi energy: 10.766439;  8.000000 electrons
         Band energy:  56.800733;  BLOECHL correction: -0.141825
       DOS:  cpu time    0.0720: real time    0.0472
    CHARGE:  cpu time    0.0410: real time    0.0271
    MIXING:  cpu time    0.0070: real time    0.0058
    --------------------------------------------
      LOOP:  cpu time    3.9094: real time    2.4497

 eigenvalue-minimisations  :  1432
 total energy-change (2. order) :-0.3131495E+00  (-0.3296631E+00)
 number of electron       7.9999997 magnetization       1.5755764
 augmentation part        4.0894509 magnetization       1.3841352

 Broyden mixing:
  rms(total) = 0.61966E+00    rms(broyden)= 0.61958E+00
  rms(prec ) = 0.82796E+00
  weight for this iteration     100.00

 eigenvalues of (default mixing * dielectric matrix)
  average eigenvalue GAMMA=   0.9828
  0.9828

 Free energy of the ion-electron system (eV)
  ---------------------------------------------------
  alpha Z        PSCENC =        88.46563328
  Ewald energy   TEWEN  =      -670.77359510
  -Hartree energ DENC   =       -73.07832595
  -exchange      EXHF   =         0.00000000
  -V(xc)+E(xc)   XCENC  =         5.08083425
  PAW double counting   =       736.21880192     -743.99149038
  entropy T*S    EENTRO =         0.00000000
  eigenvalues    EBANDS =        56.80073312
  atomic energy  EATOM  =       594.30652615
  Solvation  Ediel_sol  =         0.00000000
  ---------------------------------------------------
  free energy    TOTEN  =        -6.97088271 eV

  energy without entropy =       -6.97088271  energy(sigma->0) =       -6.97088271


--------------------------------------------------------------------------------------------------------




----------------------------------------- Iteration    1(   7)  ---------------------------------------


    POTLOK:  cpu time    0.0260: real time    0.0178
    SETDIJ:  cpu time    0.0140: real time    0.0093
     EDDAV:  cpu time    4.0164: real time    2.4820
 BZINTS: Fermi energy: 10.618566;  8.000000 electrons
         Band energy:  55.941672;  BLOECHL correction: -0.139682
       DOS:  cpu time    0.0680: real time    0.0408
    CHARGE:  cpu time    0.1050: real time    0.0671
    MIXING:  cpu time    0.0000: real time    0.0002
    --------------------------------------------
      LOOP:  cpu time    4.2344: real time    2.6201

 eigenvalue-minimisations  :  1436
 total energy-change (2. order) : 0.3972576E-01  (-0.1439598E-01)
 number of electron       7.9999997 magnetization       1.4859836
 augmentation part        4.1280770 magnetization       1.2256209

 Broyden mixing:
  rms(total) = 0.43359E+00    rms(broyden)= 0.43359E+00
  rms(prec ) = 0.45938E+00
  weight for this iteration     100.00

 eigenvalues of (default mixing * dielectric matrix)
  average eigenvalue GAMMA=   0.9109
  1.2487  0.5732

 Free energy of the ion-electron system (eV)
  ---------------------------------------------------
  alpha Z        PSCENC =        88.46563328
  Ewald energy   TEWEN  =      -670.77359510
  -Hartree energ DENC   =       -70.58630367
  -exchange      EXHF   =         0.00000000
  -V(xc)+E(xc)   XCENC  =         5.02289946
  PAW double counting   =       856.89126230     -866.19925167
  entropy T*S    EENTRO =         0.00000000
  eigenvalues    EBANDS =        55.94167230
  atomic energy  EATOM  =       594.30652615
  Solvation  Ediel_sol  =         0.00000000
  ---------------------------------------------------
  free energy    TOTEN  =        -6.93115695 eV

  energy without entropy =       -6.93115695  energy(sigma->0) =       -6.93115695


--------------------------------------------------------------------------------------------------------




----------------------------------------- Iteration    1(   8)  ---------------------------------------


    POTLOK:  cpu time    0.0700: real time    0.0482
    SETDIJ:  cpu time    0.0640: real time    0.0389
     EDDAV:  cpu time    4.1924: real time    2.5950
 BZINTS: Fermi energy: 10.643324;  8.000000 electrons
         Band energy:  56.103025;  BLOECHL correction: -0.140639
       DOS:  cpu time    0.0510: real time    0.0309
    CHARGE:  cpu time    0.0790: real time    0.0474
    MIXING:  cpu time    0.0010: real time    0.0006
    --------------------------------------------
      LOOP:  cpu time    4.4593: real time    2.7637

 eigenvalue-minimisations  :  1652
 total energy-change (2. order) : 0.7814577E-02  (-0.4438068E-03)
 number of electron       7.9999997 magnetization       1.4341583
 augmentation part        4.1232795 magnetization       1.1839394

 Broyden mixing:
  rms(total) = 0.16030E+00    rms(broyden)= 0.16030E+00
  rms(prec ) = 0.19961E+00
  weight for this iteration     100.00

 eigenvalues of (default mixing * dielectric matrix)
  average eigenvalue GAMMA=   1.1801
  2.0303  0.9393  0.5705

 Free energy of the ion-electron system (eV)
  ---------------------------------------------------
  alpha Z        PSCENC =        88.46563328
  Ewald energy   TEWEN  =      -670.77359510
  -Hartree energ DENC   =       -70.10560967
  -exchange      EXHF   =         0.00000000
  -V(xc)+E(xc)   XCENC  =         4.98974444
  PAW double counting   =       899.46433963     -909.37340631
  entropy T*S    EENTRO =         0.00000000
  eigenvalues    EBANDS =        56.10302520
  atomic energy  EATOM  =       594.30652615
  Solvation  Ediel_sol  =         0.00000000
  ---------------------------------------------------
  free energy    TOTEN  =        -6.92334238 eV

  energy without entropy =       -6.92334238  energy(sigma->0) =       -6.92334238


--------------------------------------------------------------------------------------------------------




----------------------------------------- Iteration    1(   9)  ---------------------------------------


    POTLOK:  cpu time    0.0240: real time    0.0153
    SETDIJ:  cpu time    0.0110: real time    0.0059
     EDDAV:  cpu time    3.8274: real time    2.4099
 BZINTS: Fermi energy: 10.663971;  8.000000 electrons
         Band energy:  56.259315;  BLOECHL correction: -0.141670
       DOS:  cpu time    0.0720: real time    0.0430
    CHARGE:  cpu time    0.0310: real time    0.0192
    MIXING:  cpu time    0.0010: real time    0.0006
    --------------------------------------------
      LOOP:  cpu time    3.9724: real time    2.4968

 eigenvalue-minimisations  :  1532
 total energy-change (2. order) : 0.9694907E-02  (-0.6248753E-03)
 number of electron       7.9999997 magnetization       1.4664746
 augmentation part        4.1245657 magnetization       1.2263372

 Broyden mixing:
  rms(total) = 0.51867E-01    rms(broyden)= 0.51866E-01
  rms(prec ) = 0.56579E-01
  weight for this iteration     100.00

 eigenvalues of (default mixing * dielectric matrix)
  average eigenvalue GAMMA=   1.2315
  2.4719  1.0152  0.8232  0.6158

 Free energy of the ion-electron system (eV)
  ---------------------------------------------------
  alpha Z        PSCENC =        88.46563328
  Ewald energy   TEWEN  =      -670.77359510
  -Hartree energ DENC   =       -69.22557109
  -exchange      EXHF   =         0.00000000
  -V(xc)+E(xc)   XCENC  =         4.96434071
  PAW double counting   =       974.78081997     -985.69111617
  entropy T*S    EENTRO =         0.00000000
  eigenvalues    EBANDS =        56.25931478
  atomic energy  EATOM  =       594.30652615
  Solvation  Ediel_sol  =         0.00000000
  ---------------------------------------------------
  free energy    TOTEN  =        -6.91364747 eV

  energy without entropy =       -6.91364747  energy(sigma->0) =       -6.91364747


--------------------------------------------------------------------------------------------------------




----------------------------------------- Iteration    1(  10)  ---------------------------------------


    POTLOK:  cpu time    0.0260: real time    0.0163
    SETDIJ:  cpu time    0.0180: real time    0.0096
     EDDAV:  cpu time    3.7754: real time    2.3513
 BZINTS: Fermi energy: 10.672454;  8.000000 electrons
         Band energy:  56.312435;  BLOECHL correction: -0.141569
       DOS:  cpu time    0.0690: real time    0.0470
    CHARGE:  cpu time    0.0420: real time    0.0266
    MIXING:  cpu time    0.0020: real time    0.0010
    --------------------------------------------
      LOOP:  cpu time    3.9374: real time    2.4543

 eigenvalue-minimisations  :  1520
 total energy-change (2. order) : 0.1936524E-03  (-0.5781704E-04)
 number of electron       7.9999997 magnetization       1.4644463
 augmentation part        4.1247024 magnetization       1.2192191

 Broyden mixing:
  rms(total) = 0.47780E-02    rms(broyden)= 0.47779E-02
  rms(prec ) = 0.71646E-02
  weight for this iteration     100.00

 eigenvalues of (default mixing * dielectric matrix)
  average eigenvalue GAMMA=   1.1649
  2.5124  1.0177  0.6085  0.9146  0.7715

 Free energy of the ion-electron system (eV)
  ---------------------------------------------------
  alpha Z        PSCENC =        88.46563328
  Ewald energy   TEWEN  =      -670.77359510
  -Hartree energ DENC   =       -68.98212381
  -exchange      EXHF   =         0.00000000
  -V(xc)+E(xc)   XCENC  =         4.96214153
  PAW double counting   =      1000.32042528    -1011.52489664
  entropy T*S    EENTRO =         0.00000000
  eigenvalues    EBANDS =        56.31243549
  atomic energy  EATOM  =       594.30652615
  Solvation  Ediel_sol  =         0.00000000
  ---------------------------------------------------
  free energy    TOTEN  =        -6.91345382 eV

  energy without entropy =       -6.91345382  energy(sigma->0) =       -6.91345382


--------------------------------------------------------------------------------------------------------




----------------------------------------- Iteration    1(  11)  ---------------------------------------


    POTLOK:  cpu time    0.0290: real time    0.0189
    SETDIJ:  cpu time    0.0100: real time    0.0061
     EDDAV:  cpu time    3.4015: real time    2.1187
 BZINTS: Fermi energy: 10.670299;  8.000000 electrons
         Band energy:  56.298348;  BLOECHL correction: -0.141619
       DOS:  cpu time    0.0590: real time    0.0400
    CHARGE:  cpu time    0.0470: real time    0.0289
    MIXING:  cpu time    0.0010: real time    0.0005
    --------------------------------------------
      LOOP:  cpu time    3.5505: real time    2.2159

 eigenvalue-minimisations  :  1376
 total energy-change (2. order) :-0.1056247E-04  (-0.1259874E-05)
 number of electron       7.9999997 magnetization       1.4628856
 augmentation part        4.1248761 magnetization       1.2179150

 Broyden mixing:
  rms(total) = 0.23813E-02    rms(broyden)= 0.23812E-02
  rms(prec ) = 0.40512E-02
  weight for this iteration     100.00

 eigenvalues of (default mixing * dielectric matrix)
  average eigenvalue GAMMA=   1.2562
  2.5343  1.8125  1.0339  0.8483  0.6072  0.7010

 Free energy of the ion-electron system (eV)
  ---------------------------------------------------
  alpha Z        PSCENC =        88.46563328
  Ewald energy   TEWEN  =      -670.77359510
  -Hartree energ DENC   =       -69.01022881
  -exchange      EXHF   =         0.00000000
  -V(xc)+E(xc)   XCENC  =         4.96288947
  PAW double counting   =       999.40281341    -1010.56585079
  entropy T*S    EENTRO =         0.00000000
  eigenvalues    EBANDS =        56.29834801
  atomic energy  EATOM  =       594.30652615
  Solvation  Ediel_sol  =         0.00000000
  ---------------------------------------------------
  free energy    TOTEN  =        -6.91346438 eV

  energy without entropy =       -6.91346438  energy(sigma->0) =       -6.91346438


--------------------------------------------------------------------------------------------------------




----------------------------------------- Iteration    1(  12)  ---------------------------------------


    POTLOK:  cpu time    0.0270: real time    0.0177
    SETDIJ:  cpu time    0.0280: real time    0.0189
     EDDAV:  cpu time    3.1265: real time    1.9312
 BZINTS: Fermi energy: 10.669307;  8.000000 electrons
         Band energy:  56.292288;  BLOECHL correction: -0.141608
       DOS:  cpu time    0.0480: real time    0.0276
    CHARGE:  cpu time    0.0530: real time    0.0329
    MIXING:  cpu time    0.0020: real time    0.0007
    --------------------------------------------
      LOOP:  cpu time    3.2865: real time    2.0315

 eigenvalue-minimisations  :  1348
 total energy-change (2. order) :-0.3587551E-05  (-0.1396137E-06)
 number of electron       7.9999997 magnetization       1.4630481
 augmentation part        4.1249363 magnetization       1.2182471

 Broyden mixing:
  rms(total) = 0.65504E-03    rms(broyden)= 0.65503E-03
  rms(prec ) = 0.13972E-02
  weight for this iteration     100.00

 eigenvalues of (default mixing * dielectric matrix)
  average eigenvalue GAMMA=   1.3211
  2.5461  2.5461  1.0201  1.0201  0.8383  0.6102  0.6668

 Free energy of the ion-electron system (eV)
  ---------------------------------------------------
  alpha Z        PSCENC =        88.46563328
  Ewald energy   TEWEN  =      -670.77359510
  -Hartree energ DENC   =       -69.03284294
  -exchange      EXHF   =         0.00000000
  -V(xc)+E(xc)   XCENC  =         4.96313518
  PAW double counting   =       999.14586280    -1010.28047580
  entropy T*S    EENTRO =         0.00000000
  eigenvalues    EBANDS =        56.29228847
  atomic energy  EATOM  =       594.30652615
  Solvation  Ediel_sol  =         0.00000000
  ---------------------------------------------------
  free energy    TOTEN  =        -6.91346797 eV

  energy without entropy =       -6.91346797  energy(sigma->0) =       -6.91346797


--------------------------------------------------------------------------------------------------------




----------------------------------------- Iteration    1(  13)  ---------------------------------------


    POTLOK:  cpu time    0.0540: real time    0.0317
    SETDIJ:  cpu time    0.0190: real time    0.0117
     EDDAV:  cpu time    3.1875: real time    1.9220
 BZINTS: Fermi energy: 10.669274;  8.000000 electrons
         Band energy:  56.291334;  BLOECHL correction: -0.141614
       DOS:  cpu time    0.0440: real time    0.0280
    CHARGE:  cpu time    0.0810: real time    0.0476
    MIXING:  cpu time    0.0010: real time    0.0010
    --------------------------------------------
      LOOP:  cpu time    3.3905: real time    2.0450

 eigenvalue-minimisations  :   712
 total energy-change (2. order) : 0.1340307E-05  (-0.2004603E-07)
 number of electron       7.9999997 magnetization       1.4631272
 augmentation part        4.1248955 magnetization       1.2183059

 Broyden mixing:
  rms(total) = 0.10188E-03    rms(broyden)= 0.10188E-03
  rms(prec ) = 0.11149E-03
  weight for this iteration     100.00

 eigenvalues of (default mixing * dielectric matrix)
  average eigenvalue GAMMA=   1.2606
  2.6390  2.5061  1.0795  1.0795  0.8426  0.6869  0.6102  0.6409

 Free energy of the ion-electron system (eV)
  ---------------------------------------------------
  alpha Z        PSCENC =        88.46563328
  Ewald energy   TEWEN  =      -670.77359510
  -Hartree energ DENC   =       -69.04359166
  -exchange      EXHF   =         0.00000000
  -V(xc)+E(xc)   XCENC  =         4.96372830
  PAW double counting   =       999.41409628    -1010.53759749
  entropy T*S    EENTRO =         0.00000000
  eigenvalues    EBANDS =        56.29133361
  atomic energy  EATOM  =       594.30652615
  Solvation  Ediel_sol  =         0.00000000
  ---------------------------------------------------
  free energy    TOTEN  =        -6.91346663 eV

  energy without entropy =       -6.91346663  energy(sigma->0) =       -6.91346663


--------------------------------------------------------------------------------------------------------




----------------------------------------- Iteration    1(  14)  ---------------------------------------


    POTLOK:  cpu time    0.0280: real time    0.0157
    SETDIJ:  cpu time    0.0140: real time    0.0088
     EDDAV:  cpu time    2.7496: real time    1.6528
 BZINTS: Fermi energy: 10.669295;  8.000000 electrons
         Band energy:  56.291371;  BLOECHL correction: -0.141614
       DOS:  cpu time    0.0480: real time    0.0311
    --------------------------------------------
      LOOP:  cpu time    2.8436: real time    1.7111

 eigenvalue-minimisations  :   680
 total energy-change (2. order) : 0.7386650E-06  (-0.1421714E-08)
 number of electron       7.9999997 magnetization       1.4631272
 augmentation part        4.1248955 magnetization       1.2183059

 Free energy of the ion-electron system (eV)
  ---------------------------------------------------
  alpha Z        PSCENC =        88.46563328
  Ewald energy   TEWEN  =      -670.77359510
  -Hartree energ DENC   =       -69.04327761
  -exchange      EXHF   =         0.00000000
  -V(xc)+E(xc)   XCENC  =         4.96379378
  PAW double counting   =       999.44748787    -1010.57140538
  entropy T*S    EENTRO =         0.00000000
  eigenvalues    EBANDS =        56.29137113
  atomic energy  EATOM  =       594.30652615
  Solvation  Ediel_sol  =         0.00000000
  ---------------------------------------------------
  free energy    TOTEN  =        -6.91346589 eV

  energy without entropy =       -6.91346589  energy(sigma->0) =       -6.91346589


--------------------------------------------------------------------------------------------------------




 average (electrostatic) potential at core
  the test charge radii are     1.0103
  (the norm of the test charge is              1.0000)
       1 -39.2553
 
 
 
 E-fermi :  10.6693     XC(G=0): -15.3836     alpha+bet :-19.8406


 spin component 1

 k-point     1 :       0.0625    0.0625    0.0625
  band No.  band energies     occupation 
      1       1.0922      1.00000
      2       6.9639      1.00000
      3       6.9639      1.00000
      4       8.4140      1.00000
      5       9.5090      1.00000
      6       9.5090      1.00067
      7      36.3771      0.00000
      8      36.3771      0.00000
      9      40.3737      0.00000
     10      45.0308      0.00000
     11      48.8682      0.00000
     12      48.8682      0.00000

 k-point     2 :       0.1875    0.0625    0.0625
  band No.  band energies     occupation 
      1       3.0114      1.00000
      2       6.2203      1.00000
      3       6.6300      1.00000
      4       9.4038      1.00000
      5       9.7656      1.00287
      6      10.2103      0.69548
      7      31.1587      0.00000
      8      33.9537      0.00000
      9      39.9408      0.00000
     10      41.6669      0.00000
     11      49.5776      0.00000
     12      49.8300      0.00000

 k-point     3 :       0.3125    0.0625    0.0625
  band No.  band energies     occupation 
      1       3.6771      1.00000
      2       5.6042      1.00000
      3       8.1061      1.00000
      4       9.6892      1.00000
      5       9.9795      0.97408
      6      12.4952     -0.05498
      7      25.3962      0.00000
      8      31.7636      0.00000
      9      36.6453      0.00000
     10      42.1230      0.00000
     11      49.0507      0.00000
     12      53.4089      0.00000

 k-point     4 :       0.4375    0.0625    0.0625
  band No.  band energies     occupation 
      1       3.4756      1.00000
      2       5.3715      1.00000
      3       9.5757      1.00000
      4       9.8281      1.00000
      5      10.0715      0.86128
      6      14.1012     -0.00073
      7      22.1572      0.00000
      8      30.8968      0.00000
      9      35.3973      0.00000
     10      42.1892      0.00000
     11      49.1775      0.00000
     12      52.4945      0.00000

 k-point     5 :      -0.0625    0.0625    0.0625
  band No.  band energies     occupation 
      1       0.2714      1.00000
      2       7.3472      1.00000
      3       7.3472      1.00000
      4       7.5040      1.00000
      5       9.3515      1.00000
      6       9.7547      1.00013
      7      37.6795      0.00000
      8      39.3400      0.00000
      9      39.3400      0.00000
     10      45.3293      0.00000
     11      50.0453      0.00000
     12      50.0495      0.00000

 k-point     6 :       0.1875    0.1875    0.0625
  band No.  band energies     occupation 
      1       4.5484      1.00000
      2       5.7315      1.00000
      3       6.2487      1.00000
      4       9.5635      1.00000
      5      10.0416      1.01126
      6      12.8650     -0.07261
      7      28.1583      0.00000
      8      29.5398      0.00000
      9      35.2232      0.00000
     10      44.1253      0.00000
     11      50.1957      0.00000
     12      53.2851      0.00000

 k-point     7 :       0.3125    0.1875    0.0625
  band No.  band energies     occupation 
      1       4.5038      1.00000
      2       5.4737      1.00000
      3       7.3431      1.00000
      4       9.8413      1.00000
      5      10.2154      0.98234
      6      16.1055     -0.00043
      7      23.3026      0.00000
      8      27.5650      0.00000
      9      33.2463      0.00000
     10      45.1894      0.00000
     11      50.6864      0.00000
     12      54.5944      0.00000

 k-point     8 :      -0.1875    0.1875    0.0625
  band No.  band energies     occupation 
      1       1.8173      1.00000
      2       6.8480      1.00000
      3       7.1875      1.00000
      4       8.5871      1.00000
      5       8.8877      1.00001
      6       9.9614      0.97776
      7      33.9830      0.00000
      8      37.2664      0.00000
      9      39.2428      0.00000
     10      44.6717      0.00000
     11      46.2847      0.00000
     12      47.7930      0.00000

 k-point     9 :       0.3125    0.3125    0.0625
  band No.  band energies     occupation 
      1       4.9081      1.00000
      2       6.1969      1.00000
      3       6.1969      1.00000
      4      10.1021      1.00000
      5      10.1021      1.03022
      6      20.4813      0.00000
      7      20.4813      0.00000
      8      24.6140      0.00000
      9      32.5817      0.00000
     10      48.0833      0.00000
     11      48.0833      0.00000
     12      58.8070      0.00000

 k-point    10 :      -0.3125    0.3125    0.0625
  band No.  band energies     occupation 
      1       3.3824      1.00000
      2       6.1282      1.00000
      3       7.4094      1.00000
      4       9.2945      1.00000
      5      10.3111      0.92095
      6      10.3837      0.42142
      7      28.2362      0.00000
      8      34.2374      0.00000
      9      38.1662      0.00000
     10      43.2881      0.00000
     11      45.8211      0.00000
     12      48.6212      0.00000

 k-point    11 :      -0.1875    0.3125    0.0625
  band No.  band energies     occupation 
      1       3.4836      1.00000
      2       6.4025      1.00000
      3       6.8580      1.00000
      4       8.6560      1.00000
      5       9.9322      1.01825
      6      10.6403      0.43176
      7      31.0657      0.00000
      8      32.8604      0.00000
      9      39.4760      0.00000
     10      41.4561      0.00000
     11      45.5244      0.00000
     12      50.9804      0.00000

 k-point    12 :      -0.4375    0.4375    0.0625
  band No.  band energies     occupation 
      1       3.3281      1.00000
      2       5.6509      1.00000
      3       8.6909      1.00000
      4       9.6402      1.00000
      5      11.8547     -0.13408
      6      11.9518     -0.00624
      7      23.1273      0.00000
      8      32.4058      0.00000
      9      36.4404      0.00000
     10      42.3430      0.00000
     11      46.7755      0.00000
     12      49.6725      0.00000

 k-point    13 :      -0.3125    0.4375    0.0625
  band No.  band energies     occupation 
      1       4.1722      1.00000
      2       5.9154      1.00000
      3       7.0296      1.00000
      4       9.2272      1.00000
      5      10.6826      0.60139
      6      13.2263     -0.03189
      7      25.7625      0.00000
      8      30.0372      0.00000
      9      37.6511      0.00000
     10      41.6145      0.00000
     11      45.8323      0.00000
     12      52.1626      0.00000

 k-point    14 :      -0.4375   -0.4375    0.0625
  band No.  band energies     occupation 
      1       3.9471      1.00000
      2       5.8967      1.00000
      3       7.2930      1.00000
      4       9.4445      1.00000
      5      11.2426      0.01406
      6      15.6069     -0.00023
      7      22.1556      0.00000
      8      29.1529      0.00000
      9      36.5096      0.00000
     10      42.4374      0.00000
     11      46.0335      0.00000
     12      51.5524      0.00000

 k-point    15 :      -0.3125   -0.4375    0.0625
  band No.  band energies     occupation 
      1       5.0979      1.00000
      2       5.4179      1.00000
      3       6.3926      1.00000
      4       9.7697      1.00020
      5      10.6094      0.51103
      6      17.5477     -0.00000
      7      23.0465      0.00000
      8      25.4278      0.00000
      9      38.8174      0.00000
     10      41.1277      0.00000
     11      44.0177      0.00000
     12      55.2885      0.00000

 k-point    16 :       0.1875    0.1875    0.1875
  band No.  band energies     occupation 
      1       5.4687      1.00000
      2       5.4687      1.00000
      3       6.1533      1.00000
      4      10.0152      1.00000
      5      10.0152      1.00002
      6      16.2533     -0.00086
      7      26.1682      0.00000
      8      26.1682      0.00000
      9      29.7462      0.00000
     10      49.3658      0.00000
     11      54.2656      0.00000
     12      54.2656      0.00000

 k-point    17 :       0.3125    0.1875    0.1875
  band No.  band energies     occupation 
      1       5.3794      1.00000
      2       5.4252      1.00000
      3       6.6495      1.00000
      4      10.0827      1.00000
      5      10.1235      1.00040
      6      19.5286      0.00000
      7      22.2946      0.00000
      8      25.4650      0.00000
      9      28.3536      0.00000
     10      51.2720      0.00000
     11      55.7777      0.00000
     12      57.3864      0.00000

 k-point    18 :      -0.1875    0.1875    0.1875
  band No.  band energies     occupation 
      1       3.0928      1.00000
      2       7.3583      1.00000
      3       7.5872      1.00000
      4       7.5872      1.00000
      5       8.5896      1.00435
      6      10.6839      0.54308
      7      33.4872      0.00000
      8      36.6243      0.00000
      9      36.6243      0.00000
     10      38.3199      0.00000
     11      49.8029      0.00000
     12      49.8029      0.00000

 k-point    19 :      -0.3125    0.3125    0.1875
  band No.  band energies     occupation 
      1       4.3086      1.00000
      2       6.0324      1.00000
      3       7.3236      1.00000
      4       8.5137      1.00000
      5      10.1598      0.95700
      6      12.0570     -0.06192
      7      29.2124      0.00000
      8      33.6129      0.00000
      9      33.7812      0.00000
     10      39.0576      0.00000
     11      49.1362      0.00000
     12      51.2768      0.00000

 k-point    20 :      -0.4375    0.4375    0.1875
  band No.  band energies     occupation 
      1       4.0751      1.00000
      2       6.0550      1.00000
      3       6.9666      1.00000
      4       8.9257      1.00133
      5      11.7020     -0.08557
      6      15.2211     -0.00213
      7      23.5334      0.00000
      8      31.7370      0.00000
      9      32.5126      0.00000
     10      41.4997      0.00000
     11      48.0570      0.00000
     12      49.4636      0.00000

 k-point    21 :      -0.3125    0.4375    0.1875
  band No.  band energies     occupation 
      1       4.7821      1.00000
      2       4.9126      1.00000
      3       7.4624      1.00042
      4       9.2148      1.00519
      5      10.9452      0.10344
      6      15.2821     -0.00169
      7      26.5966      0.00000
      8      27.7041      0.00000
      9      35.5655      0.00000
     10      37.7536      0.00000
     11      47.7844      0.00000
     12      52.6366      0.00000

 k-point    22 :      -0.4375   -0.4375    0.1875
  band No.  band energies     occupation 
      1       4.3813      1.00000
      2       5.0652      1.00000
      3       7.1319      1.00094
      4       9.7840      1.00463
      5      11.3519     -0.03802
      6      18.9258      0.00000
      7      22.3453      0.00000
      8      26.3438      0.00000
      9      35.5924      0.00000
     10      39.0553      0.00000
     11      45.5974      0.00000
     12      51.5498      0.00000

 k-point    23 :      -0.3125    0.3125    0.3125
  band No.  band energies     occupation 
      1       4.4658      1.00000
      2       4.7651      1.00000
      3       8.9365      1.00112
      4       8.9365      1.01106
      5      10.2128      0.68921
      6      14.4573     -0.00030
      7      30.0411      0.00000
      8      30.0411      0.00000
      9      31.5843      0.00000
     10      34.6492      0.00000
     11      50.8637      0.00000
     12      54.8399      0.00000

 k-point    24 :      -0.4375    0.4375    0.3125
  band No.  band energies     occupation 
      1       3.8612      1.00000
      2       4.1368      1.00000
      3       9.1745      1.01076
      4       9.6923      1.02544
      5      11.4917     -0.01867
      6      18.3600      0.00000
      7      24.5473      0.00000
      8      27.5491      0.00000
      9      32.0960      0.00000
     10      35.4905      0.00000
     11      46.1686      0.00000
     12      53.9966      0.00000

 k-point    25 :      -0.4375   -0.4375    0.3125
  band No.  band energies     occupation 
      1       3.6003      1.00000
      2       3.6003      1.00000
      3       9.3657      1.02668
      4      11.1986      0.47101
      5      11.1986     -0.00026
      6      22.5040      0.00000
      7      22.5040      0.00000
      8      24.2607      0.00000
      9      33.6945      0.00000
     10      33.6945      0.00000
     11      43.8262      0.00000
     12      54.7556      0.00000

 k-point    26 :      -0.4375    0.4375    0.4375
  band No.  band energies     occupation 
      1       3.0926      1.00000
      2       3.1468      1.00000
      3      11.1188      0.62065
      4      11.1188      0.27708
      5      11.4277     -0.00299
      6      21.6236      0.00000
      7      24.6617      0.00000
      8      24.6617      0.00000
      9      31.0217      0.00000
     10      32.3686      0.00000
     11      42.2324      0.00000
     12      57.6407      0.00000

 spin component 2

 k-point     1 :       0.0625    0.0625    0.0625
  band No.  band energies     occupation 
      1       1.3191      1.00000
      2       8.1466      1.00000
      3       8.1466      1.00000
      4       9.6640      1.04616
      5      11.4565     -0.00484
      6      11.4565      0.00000
      7      36.6169      0.00000
      8      36.6169      0.00000
      9      40.3007      0.00000
     10      45.7390      0.00000
     11      49.1774      0.00000
     12      49.1774      0.00000

 k-point     2 :       0.1875    0.0625    0.0625
  band No.  band energies     occupation 
      1       3.3403      1.00000
      2       7.3396      1.00000
      3       7.7297      1.00000
      4      11.2440      0.10920
      5      11.4919     -0.00363
      6      11.7445      0.00000
      7      31.6998      0.00000
      8      34.2910      0.00000
      9      40.5599      0.00000
     10      41.7162      0.00000
     11      49.8902      0.00000
     12      50.3720      0.00000

 k-point     3 :       0.3125    0.0625    0.0625
  band No.  band energies     occupation 
      1       4.4437      1.00000
      2       6.6679      1.00000
      3       8.8168      1.00000
      4      11.4785     -0.02295
      5      12.0022      0.00000
      6      13.7140      0.00000
      7      26.1841      0.00000
      8      32.0789      0.00000
      9      37.1804      0.00000
     10      42.3682      0.00000
     11      49.5583      0.00000
     12      53.6640      0.00000

 k-point     4 :       0.4375    0.0625    0.0625
  band No.  band energies     occupation 
      1       4.3635      1.00000
      2       6.4147      1.00000
      3      10.2434      1.00000
      4      11.6273     -0.00504
      5      12.1167      0.00000
      6      15.1116      0.00000
      7      23.1416      0.00000
      8      31.1876      0.00000
      9      35.8893      0.00000
     10      42.5030      0.00000
     11      49.7183      0.00000
     12      52.6493      0.00000

 k-point     5 :      -0.0625    0.0625    0.0625
  band No.  band energies     occupation 
      1       0.4884      1.00000
      2       8.5534      1.00000
      3       8.5534      1.00000
      4       8.7262      1.00903
      5      11.2937     -0.00852
      6      11.7519      0.00000
      7      37.7499      0.00000
      8      39.3293      0.00000
      9      39.3293      0.00000
     10      45.7082      0.00000
     11      50.2393      0.00000
     12      50.7740      0.00000

 k-point     6 :       0.1875    0.1875    0.0625
  band No.  band energies     occupation 
      1       5.1427      1.00000
      2       6.8202      1.00000
      3       7.1540      1.00000
      4      11.4013     -0.02062
      5      12.0191      0.00000
      6      14.0772      0.00000
      7      28.7946      0.00000
      8      30.0639      0.00000
      9      35.7589      0.00000
     10      44.1664      0.00000
     11      50.5097      0.00000
     12      53.6460      0.00000

 k-point     7 :       0.3125    0.1875    0.0625
  band No.  band energies     occupation 
      1       5.3979      1.00000
      2       6.4908      1.00000
      3       8.1845      1.00000
      4      11.6768     -0.00440
      5      12.1623      0.00000
      6      17.0966      0.00000
      7      24.1285      0.00000
      8      28.1134      0.00000
      9      33.7335      0.00000
     10      45.3392      0.00000
     11      50.8649      0.00000
     12      55.0510      0.00000

 k-point     8 :      -0.1875    0.1875    0.0625
  band No.  band energies     occupation 
      1       2.0699      1.00000
      2       8.0102      1.00000
      3       8.3757      1.00000
      4       9.8534      1.03232
      5      10.6976      0.07104
      6      11.9622      0.00000
      7      34.3821      0.00000
      8      37.4543      0.00000
      9      39.4586      0.00000
     10      44.9960      0.00000
     11      46.8878      0.00000
     12      48.3596      0.00000

 k-point     9 :       0.3125    0.3125    0.0625
  band No.  band energies     occupation 
      1       5.8447      1.00000
      2       7.1552      1.00000
      3       7.1552      1.00000
      4      11.9768      0.00000
      5      11.9768      0.00000
      6      21.3171      0.00000
      7      21.3171      0.00000
      8      25.2955      0.00000
      9      33.0806      0.00000
     10      48.2120      0.00000
     11      48.2120      0.00000
     12      59.5221      0.00000

 k-point    10 :      -0.3125    0.3125    0.0625
  band No.  band energies     occupation 
      1       3.9410      1.00000
      2       7.2340      1.00000
      3       8.4038      1.00000
      4      10.9299      0.21418
      5      11.7391     -0.01003
      6      12.2405      0.00000
      7      28.9259      0.00000
      8      34.4593      0.00000
      9      38.6192      0.00000
     10      43.7424      0.00000
     11      46.2739      0.00000
     12      48.9848      0.00000

 k-point    11 :      -0.1875    0.3125    0.0625
  band No.  band energies     occupation 
      1       3.8794      1.00000
      2       7.6384      1.00000
      3       7.9371      1.00000
      4      10.2910      0.82486
      5      11.3180     -0.00303
      6      12.4861      0.00000
      7      31.6458      0.00000
      8      33.3062      0.00000
      9      39.7169      0.00000
     10      41.9313      0.00000
     11      45.9016      0.00000
     12      51.4417      0.00000

 k-point    12 :      -0.4375    0.4375    0.0625
  band No.  band energies     occupation 
      1       4.2034      1.00000
      2       6.7226      1.00000
      3       9.8440      1.00000
      4      11.3412     -0.02794
      5      13.1648      0.00000
      6      13.3006      0.00000
      7      24.0601      0.00000
      8      32.6071      0.00000
      9      36.9112      0.00000
     10      42.7840      0.00000
     11      47.3113      0.00000
     12      49.8894      0.00000

 k-point    13 :      -0.3125    0.4375    0.0625
  band No.  band energies     occupation 
      1       4.9927      1.00000
      2       7.0407      1.00000
      3       8.0712      1.00000
      4      10.8104      0.18303
      5      12.3413     -0.00133
      6      14.4778      0.00000
      7      26.5349      0.00000
      8      30.5415      0.00000
      9      37.9975      0.00000
     10      41.9958      0.00000
     11      46.1500      0.00000
     12      52.6447      0.00000

 k-point    14 :      -0.4375   -0.4375    0.0625
  band No.  band energies     occupation 
      1       4.9089      1.00000
      2       6.9706      1.00000
      3       8.4505      1.00000
      4      11.0855     -0.01168
      5      12.7805      0.00000
      6      16.5890      0.00000
      7      23.1098      0.00000
      8      29.6524      0.00000
      9      36.8382      0.00000
     10      42.8846      0.00000
     11      46.2206      0.00000
     12      52.0913      0.00000

 k-point    15 :      -0.3125   -0.4375    0.0625
  band No.  band energies     occupation 
      1       6.0499      1.00000
      2       6.5733      1.00000
      3       7.4953      1.00000
      4      11.3387     -0.03611
      5      12.2085      0.00000
      6      18.5386      0.00000
      7      23.8881      0.00000
      8      26.0615      0.00000
      9      39.2578      0.00000
     10      41.3830      0.00000
     11      44.2822      0.00000
     12      56.1115      0.00000

 k-point    16 :       0.1875    0.1875    0.1875
  band No.  band energies     occupation 
      1       6.4528      1.00000
      2       6.4528      1.00000
      3       6.8052      1.00000
      4      12.0079      0.00000
      5      12.0079      0.00000
      6      17.2793      0.00000
      7      26.8075      0.00000
      8      26.8075      0.00000
      9      30.2887      0.00000
     10      49.2995      0.00000
     11      54.4917      0.00000
     12      54.4917      0.00000

 k-point    17 :       0.3125    0.1875    0.1875
  band No.  band energies     occupation 
      1       6.2756      1.00000
      2       6.3682      1.00000
      3       7.4883      1.00000
      4      12.0737      0.00000
      5      12.1771      0.00000
      6      20.3390      0.00000
      7      23.0955      0.00000
      8      26.0982      0.00000
      9      28.8889      0.00000
     10      51.3048      0.00000
     11      55.9549      0.00000
     12      57.3733      0.00000

 k-point    18 :      -0.1875    0.1875    0.1875
  band No.  band energies     occupation 
      1       3.4226      1.00000
      2       8.7547      1.00000
      3       8.7547      1.00000
      4       9.0363      1.05698
      5       9.8620      0.78462
      6      12.6299      0.00000
      7      33.9519      0.00000
      8      37.0545      0.00000
      9      37.0545      0.00000
     10      38.6788      0.00000
     11      50.2396      0.00000
     12      50.2396      0.00000

 k-point    19 :      -0.3125    0.3125    0.1875
  band No.  band energies     occupation 
      1       4.9765      1.00000
      2       7.4135      1.00000
      3       8.4692      1.00000
      4       9.8339      1.11418
      5      11.5010     -0.00649
      6      13.6368      0.00000
      7      29.8838      0.00000
      8      34.0571      0.00000
      9      34.2811      0.00000
     10      39.4300      0.00000
     11      49.5697      0.00000
     12      51.7509      0.00000

 k-point    20 :      -0.4375    0.4375    0.1875
  band No.  band energies     occupation 
      1       5.1227      1.00000
      2       7.2813      1.00000
      3       8.0880      1.00000
      4      10.3671      0.70814
      5      13.1383      0.00000
      6      16.2584      0.00000
      7      24.3847      0.00000
      8      32.2078      0.00000
      9      32.9835      0.00000
     10      41.7927      0.00000
     11      48.4856      0.00000
     12      50.0918      0.00000

 k-point    21 :      -0.3125    0.4375    0.1875
  band No.  band energies     occupation 
      1       5.7684      1.00000
      2       6.2403      1.00000
      3       8.6264      1.00368
      4      10.5265      0.61238
      5      12.3735     -0.00145
      6      16.3778      0.00000
      7      27.3523      0.00000
      8      28.2591      0.00000
      9      36.0236      0.00000
     10      38.1250      0.00000
     11      48.2778      0.00000
     12      53.3438      0.00000

 k-point    22 :      -0.4375   -0.4375    0.1875
  band No.  band energies     occupation 
      1       5.5904      1.00000
      2       6.3008      1.00000
      3       8.2345      1.00950
      4      11.1457     -0.03890
      5      12.7836      0.00000
      6      19.7903      0.00000
      7      23.1810      0.00000
      8      26.9301      0.00000
      9      36.0330      0.00000
     10      39.3928      0.00000
     11      46.1929      0.00000
     12      52.2130      0.00000

 k-point    23 :      -0.3125    0.3125    0.3125
  band No.  band energies     occupation 
      1       5.4546      1.00000
      2       6.1737      1.00000
      3      10.1349      0.98517
      4      10.1349      0.99559
      5      11.5686     -0.00144
      6      15.5948      0.00000
      7      30.5319      0.00000
      8      30.5319      0.00000
      9      32.3558      0.00000
     10      35.1048      0.00000
     11      51.6261      0.00000
     12      55.2013      0.00000

 k-point    24 :      -0.4375    0.4375    0.3125
  band No.  band energies     occupation 
      1       5.1256      1.00000
      2       5.3763      1.00000
      3      10.4023      0.89649
      4      10.9472      0.07883
      5      12.9155      0.00000
      6      19.1473      0.00000
      7      25.1802      0.00000
      8      27.9755      0.00000
      9      32.8158      0.00000
     10      35.9795      0.00000
     11      46.9886      0.00000
     12      54.3798      0.00000

 k-point    25 :      -0.4375   -0.4375    0.3125
  band No.  band energies     occupation 
      1       4.8641      1.00000
      2       4.8641      1.00000
      3      10.5827      0.73447
      4      12.5850     -0.04781
      5      12.5850      0.00000
      6      23.1130      0.00000
      7      23.1130      0.00000
      8      24.7365      0.00000
      9      34.3118      0.00000
     10      34.3118      0.00000
     11      44.6875      0.00000
     12      55.1322      0.00000

 k-point    26 :      -0.4375    0.4375    0.4375
  band No.  band energies     occupation 
      1       4.3645      1.00000
      2       4.3926      1.00000
      3      12.4902     -0.23941
      4      12.4902     -0.02405
      5      12.8527      0.00000
      6      22.0915      0.00000
      7      24.9769      0.00000
      8      24.9769      0.00000
      9      31.9440      0.00000
     10      33.1192      0.00000
     11      43.1183      0.00000
     12      57.8786      0.00000


--------------------------------------------------------------------------------------------------------


 soft charge-density along one line, spin component           1
         0         1         2         3         4         5         6         7         8         9
 total charge-density along one line
 
 soft charge-density along one line, spin component           2
         0         1         2         3         4         5         6         7         8         9
 total charge-density along one line
 
 pseudopotential strength for first ion, spin component:           1
 -2.717   0.000  -0.000   0.000   0.000  -3.330   0.000  -0.000
  0.000  -2.717   0.000   0.000  -0.000   0.000  -3.330   0.000
 -0.000   0.000  -2.891   0.000   0.000  -0.000   0.000  -3.498
  0.000   0.000   0.000  -2.717   0.000   0.000   0.000   0.000
  0.000  -0.000   0.000   0.000  -2.891   0.000  -0.000   0.000
 -3.330   0.000  -0.000   0.000   0.000  -3.898   0.000  -0.000
  0.000  -3.330   0.000   0.000  -0.000   0.000  -3.898   0.000
 -0.000   0.000  -3.498   0.000   0.000  -0.000   0.000  -4.062
  0.000   0.000   0.000  -3.330   0.000   0.000   0.000   0.000
  0.000  -0.000   0.000   0.000  -3.498   0.000  -0.000   0.000
 -0.000  -0.000   0.000  -0.000   0.000  -0.000  -0.000   0.000
 -0.000  -0.000   0.000  -0.000   0.000  -0.000  -0.000   0.000
  0.000  -0.000  -0.000  -0.000  -0.000   0.000  -0.000  -0.000
 -0.000   0.000   0.000   0.000   0.000  -0.000   0.000   0.000
  0.000  -0.000  -0.000   0.000   0.000   0.000  -0.000  -0.000
  0.000   0.000  -0.000  -0.000  -0.000   0.000   0.000  -0.000
 -0.000   0.000   0.000   0.000   0.000  -0.000   0.000   0.000
  0.000  -0.000  -0.000   0.000   0.000   0.000  -0.000  -0.000
 pseudopotential strength for first ion, spin component:           2
 -1.790   0.000  -0.000   0.000   0.000  -2.432   0.000  -0.000
  0.000  -1.790   0.000   0.000  -0.000   0.000  -2.432   0.000
 -0.000   0.000  -1.530   0.000   0.000  -0.000   0.000  -2.177
  0.000   0.000   0.000  -1.790   0.000   0.000   0.000   0.000
  0.000  -0.000   0.000   0.000  -1.530   0.000  -0.000   0.000
 -2.432   0.000  -0.000   0.000   0.000  -3.029   0.000  -0.000
  0.000  -2.432   0.000   0.000  -0.000   0.000  -3.029   0.000
 -0.000   0.000  -2.177   0.000   0.000  -0.000   0.000  -2.780
  0.000   0.000   0.000  -2.432   0.000   0.000   0.000   0.000
  0.000  -0.000   0.000   0.000  -2.177   0.000  -0.000   0.000
 -0.000  -0.000   0.000  -0.000   0.000  -0.000  -0.000   0.000
 -0.000  -0.000   0.000  -0.000   0.000  -0.000  -0.000   0.000
  0.000  -0.000  -0.000  -0.000  -0.000   0.000  -0.000  -0.000
 -0.000   0.000  -0.000   0.000  -0.000  -0.000   0.000  -0.000
  0.000  -0.000  -0.000  -0.000   0.000   0.000  -0.000  -0.000
  0.000  -0.000  -0.000  -0.000  -0.000   0.000  -0.000  -0.000
 -0.000   0.000  -0.000   0.000  -0.000  -0.000   0.000  -0.000
  0.000  -0.000  -0.000  -0.000   0.000   0.000  -0.000  -0.000
 total augmentation occupancy for first ion, spin component:           1
  2.713   0.000   0.000   0.000   0.000  -2.640  -0.000   0.000  -0.000   0.000   0.000   0.000   0.000   0.000   0.000   0.000
  0.000   2.713  -0.000   0.000   0.000  -0.000  -2.640   0.000   0.000   0.000   0.000   0.000   0.000   0.000   0.000   0.000
 -0.000   0.000   5.442   0.000   0.000   0.000  -0.000  -4.874   0.000   0.000  -0.000   0.000   0.000   0.000   0.000   0.000
  0.000   0.000   0.000   2.713  -0.000   0.000   0.000   0.000  -2.640  -0.000   0.000  -0.000   0.000   0.000   0.000   0.000
  0.000  -0.000   0.000  -0.000   5.442   0.000   0.000   0.000  -0.000  -4.874  -0.000  -0.000   0.000   0.000   0.000   0.000
 -2.640  -0.000   0.000  -0.000  -0.000   3.996  -0.000  -0.000  -0.000  -0.000  -0.000   0.000   0.000   0.000   0.000   0.000
  0.000  -2.640   0.000   0.000   0.000  -0.000   3.996   0.000   0.000   0.000  -0.000  -0.000   0.000   0.000   0.000   0.000
  0.000   0.000  -4.874  -0.000   0.000   0.000  -0.000   5.631  -0.000   0.000   0.000   0.000   0.000   0.000   0.000   0.000
 -0.000  -0.000  -0.000  -2.640  -0.000  -0.000   0.000   0.000   3.996  -0.000   0.000   0.000   0.000   0.000   0.000   0.000
  0.000   0.000   0.000  -0.000  -4.874  -0.000   0.000   0.000   0.000   5.631   0.000  -0.000   0.000   0.000   0.000   0.000
  0.000   0.000  -0.000   0.000  -0.000   0.000   0.000   0.000   0.000   0.000   3.606  -0.464   0.000   0.000   0.000   0.000
  0.000   0.000   0.000  -0.000   0.000  -0.000   0.000  -0.000  -0.000  -0.000  -0.464   0.068   0.000   0.000   0.000   0.000
  0.000   0.000   0.000   0.000   0.000   0.000   0.000   0.000   0.000   0.000   0.000   0.000   0.506  -0.000   0.000  -0.037
  0.000   0.000   0.000   0.000   0.000   0.000   0.000   0.000   0.000   0.000   0.000   0.000   0.000   0.506   0.000   0.000
  0.000   0.000   0.000   0.000   0.000   0.000   0.000   0.000   0.000   0.000   0.000   0.000   0.000   0.000   0.506   0.000
  0.000   0.000   0.000   0.000   0.000   0.000   0.000   0.000   0.000   0.000   0.000   0.000  -0.037  -0.000   0.000   0.003
  0.000   0.000   0.000   0.000   0.000   0.000   0.000   0.000   0.000   0.000   0.000   0.000   0.000  -0.037   0.000   0.000
  0.000   0.000   0.000   0.000   0.000   0.000   0.000   0.000   0.000   0.000   0.000   0.000   0.000  -0.000  -0.037   0.000
 total augmentation occupancy for first ion, spin component:           2
  0.955  -0.000   0.000   0.000   0.000  -0.277   0.000   0.000   0.000   0.000   0.000   0.000   0.000   0.000   0.000   0.000
 -0.000   0.955  -0.000  -0.000   0.000  -0.000  -0.277   0.000  -0.000   0.000   0.000   0.000   0.000   0.000   0.000   0.000
  0.000   0.000   2.984   0.000   0.000   0.000   0.000  -1.444   0.000   0.000   0.000   0.000   0.000   0.000   0.000   0.000
 -0.000  -0.000   0.000   0.955   0.000  -0.000   0.000  -0.000  -0.277  -0.000   0.000  -0.000   0.000   0.000   0.000   0.000
  0.000   0.000   0.000   0.000   2.984  -0.000  -0.000   0.000   0.000  -1.444  -0.000   0.000   0.000   0.000   0.000   0.000
 -0.277  -0.000   0.000  -0.000   0.000  -0.196  -0.000   0.000   0.000   0.000   0.000  -0.000   0.000   0.000   0.000   0.000
  0.000  -0.277  -0.000   0.000  -0.000  -0.000  -0.196   0.000   0.000   0.000   0.000   0.000   0.000   0.000   0.000   0.000
  0.000   0.000  -1.444  -0.000   0.000   0.000   0.000   0.468   0.000   0.000   0.000   0.000   0.000   0.000   0.000   0.000
  0.000  -0.000   0.000  -0.277  -0.000   0.000   0.000   0.000  -0.196  -0.000   0.000   0.000   0.000   0.000   0.000   0.000
 -0.000   0.000   0.000  -0.000  -1.444  -0.000  -0.000   0.000   0.000   0.468   0.000   0.000   0.000   0.000   0.000   0.000
  0.000   0.000   0.000   0.000  -0.000   0.000   0.000   0.000   0.000   0.000  -0.302   0.094   0.000   0.000   0.000   0.000
  0.000   0.000   0.000  -0.000  -0.000  -0.000   0.000  -0.000   0.000   0.000   0.094  -0.017   0.000   0.000   0.000   0.000
  0.000   0.000   0.000   0.000   0.000   0.000   0.000   0.000   0.000   0.000   0.000   0.000  -0.034   0.000   0.000   0.005
  0.000   0.000   0.000   0.000   0.000   0.000   0.000   0.000   0.000   0.000   0.000   0.000   0.000  -0.034   0.000   0.000
  0.000   0.000   0.000   0.000   0.000   0.000   0.000   0.000   0.000   0.000   0.000   0.000   0.000   0.000  -0.034   0.000
  0.000   0.000   0.000   0.000   0.000   0.000   0.000   0.000   0.000   0.000   0.000   0.000   0.005   0.000   0.000  -0.001
  0.000   0.000   0.000   0.000   0.000   0.000   0.000   0.000   0.000   0.000   0.000   0.000   0.000   0.005   0.000   0.000
  0.000   0.000   0.000   0.000   0.000   0.000   0.000   0.000   0.000   0.000   0.000   0.000   0.000   0.000   0.005   0.000


------------------------ aborting loop because EDIFF is reached ----------------------------------------


 


 total charge     
 
# of ion     s       p       d       tot
----------------------------------------
  1        0.689   0.963   6.726   8.377
 


 magnetization (x)
 
# of ion     s       p       d       tot
----------------------------------------
  1       -0.010  -0.053   1.470   1.407
 
    CHARGE:  cpu time    0.0210: real time    0.0138
    FORLOC:  cpu time    0.0010: real time    0.0002
    FORNL :  cpu time    0.0570: real time    0.0326
    STRESS:  cpu time    0.1940: real time    0.1151
    FORCOR:  cpu time    0.0240: real time    0.0157
    FORHAR:  cpu time    0.0000: real time    0.0007
    MIXING:  cpu time    0.0010: real time    0.0003
    OFIELD:  cpu time    0.0000: real time    0.0000

  FORCE on cell =-STRESS in cart. coord.  units (eV):
  Direction    XX          YY          ZZ          XY          YZ          ZX
  --------------------------------------------------------------------------------------
  Alpha Z    88.46563    88.46563    88.46563
  Ewald    -223.59119  -223.59119  -223.59119    -0.00000     0.00000     0.00000
  Hartree    23.01441    23.01441    23.01441    -0.00000    -0.00000    -0.00000
  E(xc)     -41.35917   -41.35917   -41.35917    -0.00000    -0.00000    -0.00000
  Local      66.87335    66.87335    66.87335    -0.00002    -0.00002    -0.00002
  n-local   -23.53155   -21.36811   -20.10305     1.50200    -1.60482    -2.32073
  augment    37.21039    37.21039    37.21039     0.00003     0.00003     0.00003
  Kinetic    78.61599    79.75439    79.80433    -0.29695     2.49915     0.85358
  Fock        0.00000     0.00000     0.00000     0.00000     0.00000     0.00000
  -------------------------------------------------------------------------------------
  Total       8.33742     8.33742     8.33742    -0.00000     0.00000     0.00000
  in kB    1709.82695  1709.82695  1709.82695    -0.00000     0.00000     0.00000
  external pressure =     1709.83 kB  Pullay stress =        0.00 kB


 VOLUME and BASIS-vectors are now :
 -----------------------------------------------------------------------------
  energy-cutoff  :      400.00
  volume of cell :        7.81
      direct lattice vectors                 reciprocal lattice vectors
    -1.250000000  1.250000000  1.250000000     0.000000000  0.400000000  0.400000000
     1.250000000 -1.250000000  1.250000000     0.400000000  0.000000000  0.400000000
     1.250000000  1.250000000 -1.250000000     0.400000000  0.400000000  0.000000000

  length of vectors
     2.165063509  2.165063509  2.165063509     0.565685425  0.565685425  0.565685425


 FORCES acting on ions
    electron-ion (+dipol)            ewald-force                    non-local-force                 convergence-correction
 -----------------------------------------------------------------------------------------------
   -.813E-14 -.702E-14 0.651E-14   -.135E-14 -.191E-15 -.704E-15   0.310E-24 0.517E-25 -.517E-25   -.630E-14 -.433E-14 0.836E-14
 -----------------------------------------------------------------------------------------------
   -.813E-14 -.702E-14 0.651E-14   -.135E-14 -.191E-15 -.704E-15   0.310E-24 0.517E-25 -.517E-25   -.630E-14 -.433E-14 0.836E-14
 
 
 POSITION                                       TOTAL-FORCE (eV/Angst)
 -----------------------------------------------------------------------------------
      0.00000      0.00000      0.00000         0.000000     -0.000000      0.000000
 -----------------------------------------------------------------------------------
    total drift:                               -0.000000     -0.000000      0.000000


--------------------------------------------------------------------------------------------------------



  FREE ENERGIE OF THE ION-ELECTRON SYSTEM (eV)
  ---------------------------------------------------
  free  energy   TOTEN  =        -6.91346589 eV

  energy  without entropy=       -6.91346589  energy(sigma->0) =       -6.91346589
 


--------------------------------------------------------------------------------------------------------


    POTLOK:  cpu time    0.0120: real time    0.0128


--------------------------------------------------------------------------------------------------------


 writing wavefunctions
     LOOP+:  cpu time   53.6408: real time   33.4055
    4ORBIT:  cpu time    0.0000: real time    0.0000
 


 total charge     
 
# of ion     s       p       d       tot
----------------------------------------
  1        0.689   0.963   6.726   8.377
 


 magnetization (x)
 
# of ion     s       p       d       tot
----------------------------------------
  1       -0.010  -0.053   1.470   1.407
 
 BZINTS: Fermi energy: 10.669295;  8.000000 electrons
         Band energy:  56.291371;  BLOECHL correction: -0.141614

 total amount of memory used by VASP on root node    31852. kBytes
========================================================================

   base      :      30000. kBytes
   nonl-proj :        556. kBytes
   fftplans  :        204. kBytes
   grid      :        642. kBytes
   one-center:         31. kBytes
   wavefun   :        419. kBytes
 
  
  
 General timing and accounting informations for this job:
 ========================================================
  
                  Total CPU time used (sec):       54.368
                            User time (sec):       48.680
                          System time (sec):        5.688
                         Elapsed time (sec):       35.209
  
                   Maximum memory used (kb):       34064.
                   Average memory used (kb):           0.
  
                          Minor page faults:        18777
                          Major page faults:            7
                 Voluntary context switches:          705
