PROCAR lm decomposed
# of k-points:   26         # of bands:  12         # of ions:   1

 k-point    1 :    0.06250000 0.06250000 0.06250000     weight = 0.01562500

band   1 # energy    1.09223283 # occ.  1.00000000
 
ion      s     py     pz     px    dxy    dyz    dz2    dxz    dx2    tot
  1  1.028  0.041  0.041  0.041  0.005  0.005  0.000  0.005  0.000  1.165
 
band   2 # energy    6.96391479 # occ.  1.00000000
 
ion      s     py     pz     px    dxy    dyz    dz2    dxz    dx2    tot
  1  0.000  0.000  0.003  0.004  0.475  0.529  0.020  0.002  0.008  1.041
 
band   3 # energy    6.96391479 # occ.  1.00000000
 
ion      s     py     pz     px    dxy    dyz    dz2    dxz    dx2    tot
  1  0.000  0.005  0.001  0.001  0.196  0.141  0.008  0.669  0.020  1.041
 
band   4 # energy    8.41400860 # occ.  1.00000000
 
ion      s     py     pz     px    dxy    dyz    dz2    dxz    dx2    tot
  1  0.004  0.008  0.008  0.008  0.331  0.331  0.000  0.331  0.000  1.022
 
band   5 # energy    9.50902909 # occ.  1.00000000
 
ion      s     py     pz     px    dxy    dyz    dz2    dxz    dx2    tot
  1  0.000  0.000  0.000  0.000  0.006  0.006  0.257  0.020  0.685  0.974
 
band   6 # energy    9.50902909 # occ.  1.00067167
 
ion      s     py     pz     px    dxy    dyz    dz2    dxz    dx2    tot
  1  0.000  0.000  0.000  0.000  0.015  0.015  0.685  0.001  0.257  0.974
 
band   7 # energy   36.37708713 # occ.  0.00000000
 
ion      s     py     pz     px    dxy    dyz    dz2    dxz    dx2    tot
  1  0.000  0.021  0.005  0.044  0.025  0.226  0.037  0.108  0.311  0.778
 
band   8 # energy   36.37708713 # occ.  0.00000000
 
ion      s     py     pz     px    dxy    dyz    dz2    dxz    dx2    tot
  1  0.000  0.026  0.042  0.003  0.214  0.014  0.311  0.131  0.037  0.778
 
band   9 # energy   40.37371319 # occ.  0.00000000
 
ion      s     py     pz     px    dxy    dyz    dz2    dxz    dx2    tot
  1  0.000  0.000  0.000  0.000  0.000  0.000  0.000  0.000  0.000  0.000
 
band  10 # energy   45.03075917 # occ.  0.00000000
 
ion      s     py     pz     px    dxy    dyz    dz2    dxz    dx2    tot
  1  0.077  0.159  0.159  0.159  0.328  0.328  0.000  0.328  0.000  1.538
 
band  11 # energy   48.86820303 # occ.  0.00000000
 
ion      s     py     pz     px    dxy    dyz    dz2    dxz    dx2    tot
  1  0.000  0.070  0.007  0.111  0.008  0.129  0.014  0.081  0.245  0.665
 
band  12 # energy   48.86820303 # occ.  0.00000000
 
ion      s     py     pz     px    dxy    dyz    dz2    dxz    dx2    tot
  1  0.000  0.055  0.118  0.014  0.138  0.017  0.245  0.064  0.014  0.665
 

 k-point    2 :    0.18750000 0.06250000 0.06250000     weight = 0.04687500

band   1 # energy    3.01139367 # occ.  1.00000000
 
ion      s     py     pz     px    dxy    dyz    dz2    dxz    dx2    tot
  1  0.732  0.105  0.105  0.036  0.008  0.130  0.008  0.008  0.023  1.152
 
band   2 # energy    6.22027411 # occ.  1.00000000
 
ion      s     py     pz     px    dxy    dyz    dz2    dxz    dx2    tot
  1  0.000  0.006  0.006  0.000  0.506  0.000  0.021  0.506  0.007  1.051
 
band   3 # energy    6.63002925 # occ.  1.00000000
 
ion      s     py     pz     px    dxy    dyz    dz2    dxz    dx2    tot
  1  0.039  0.050  0.050  0.004  0.104  0.532  0.039  0.104  0.118  1.040
 
band   4 # energy    9.40381741 # occ.  1.00000000
 
ion      s     py     pz     px    dxy    dyz    dz2    dxz    dx2    tot
  1  0.003  0.000  0.000  0.001  0.018  0.165  0.195  0.018  0.584  0.983
 
band   5 # energy    9.76557517 # occ.  1.00287157
 
ion      s     py     pz     px    dxy    dyz    dz2    dxz    dx2    tot
  1  0.000  0.000  0.000  0.000  0.016  0.000  0.711  0.016  0.237  0.981
 
band   6 # energy   10.21031902 # occ.  0.69548473
 
ion      s     py     pz     px    dxy    dyz    dz2    dxz    dx2    tot
  1  0.023  0.026  0.026  0.024  0.365  0.177  0.000  0.365  0.000  1.008
 
band   7 # energy   31.15865679 # occ.  0.00000000
 
ion      s     py     pz     px    dxy    dyz    dz2    dxz    dx2    tot
  1  0.041  0.095  0.095  0.037  0.019  0.504  0.085  0.019  0.256  1.151
 
band   8 # energy   33.95369235 # occ.  0.00000000
 
ion      s     py     pz     px    dxy    dyz    dz2    dxz    dx2    tot
  1  0.000  0.094  0.094  0.000  0.216  0.000  0.166  0.216  0.055  0.841
 
band   9 # energy   39.94079577 # occ.  0.00000000
 
ion      s     py     pz     px    dxy    dyz    dz2    dxz    dx2    tot
  1  0.143  0.076  0.076  0.357  0.218  0.039  0.013  0.218  0.038  1.179
 
band  10 # energy   41.66690603 # occ.  0.00000000
 
ion      s     py     pz     px    dxy    dyz    dz2    dxz    dx2    tot
  1  0.000  0.000  0.000  0.000  0.238  0.000  0.015  0.238  0.005  0.496
 
band  11 # energy   49.57756664 # occ.  0.00000000
 
ion      s     py     pz     px    dxy    dyz    dz2    dxz    dx2    tot
  1  0.000  0.093  0.093  0.000  0.271  0.000  0.000  0.271  0.000  0.730
 
band  12 # energy   49.83004189 # occ.  0.00000000
 
ion      s     py     pz     px    dxy    dyz    dz2    dxz    dx2    tot
  1  0.035  0.066  0.066  0.168  0.143  0.377  0.151  0.143  0.452  1.601
 

 k-point    3 :    0.31250000 0.06250000 0.06250000     weight = 0.04687500

band   1 # energy    3.67706487 # occ.  1.00000000
 
ion      s     py     pz     px    dxy    dyz    dz2    dxz    dx2    tot
  1  0.277  0.025  0.025  0.033  0.000  0.502  0.058  0.000  0.174  1.094
 
band   2 # energy    5.60415875 # occ.  1.00000000
 
ion      s     py     pz     px    dxy    dyz    dz2    dxz    dx2    tot
  1  0.000  0.008  0.008  0.000  0.521  0.000  0.007  0.521  0.002  1.066
 
band   3 # energy    8.10608249 # occ.  1.00000000
 
ion      s     py     pz     px    dxy    dyz    dz2    dxz    dx2    tot
  1  0.135  0.248  0.248  0.000  0.151  0.060  0.023  0.151  0.068  1.085
 
band   4 # energy    9.68921359 # occ.  1.00000000
 
ion      s     py     pz     px    dxy    dyz    dz2    dxz    dx2    tot
  1  0.005  0.003  0.003  0.001  0.015  0.304  0.162  0.015  0.486  0.995
 
band   5 # energy    9.97946440 # occ.  0.97407817
 
ion      s     py     pz     px    dxy    dyz    dz2    dxz    dx2    tot
  1  0.000  0.000  0.000  0.000  0.005  0.000  0.734  0.005  0.245  0.988
 
band   6 # energy   12.49520281 # occ. -0.05497999
 
ion      s     py     pz     px    dxy    dyz    dz2    dxz    dx2    tot
  1  0.050  0.100  0.100  0.019  0.334  0.092  0.000  0.334  0.001  1.030
 
band   7 # energy   25.39616633 # occ.  0.00000000
 
ion      s     py     pz     px    dxy    dyz    dz2    dxz    dx2    tot
  1  0.220  0.105  0.105  0.024  0.007  0.541  0.051  0.007  0.154  1.214
 
band   8 # energy   31.76357293 # occ.  0.00000000
 
ion      s     py     pz     px    dxy    dyz    dz2    dxz    dx2    tot
  1  0.000  0.133  0.133  0.000  0.185  0.000  0.048  0.185  0.016  0.700
 
band   9 # energy   36.64525790 # occ.  0.00000000
 
ion      s     py     pz     px    dxy    dyz    dz2    dxz    dx2    tot
  1  0.148  0.015  0.015  0.555  0.077  0.005  0.021  0.077  0.062  0.976
 
band  10 # energy   42.12296077 # occ.  0.00000000
 
ion      s     py     pz     px    dxy    dyz    dz2    dxz    dx2    tot
  1  0.000  0.000  0.000  0.000  0.644  0.000  0.007  0.644  0.002  1.298
 
band  11 # energy   49.05065790 # occ.  0.00000000
 
ion      s     py     pz     px    dxy    dyz    dz2    dxz    dx2    tot
  1  0.121  0.035  0.035  0.136  0.038  0.057  0.240  0.038  0.721  1.421
 
band  12 # energy   53.40894730 # occ.  0.00000000
 
ion      s     py     pz     px    dxy    dyz    dz2    dxz    dx2    tot
  1  0.101  0.012  0.017  0.026  0.004  0.318  0.010  0.006  0.039  0.533
 

 k-point    4 :    0.43750000 0.06250000 0.06250000     weight = 0.02343750

band   1 # energy    3.47555043 # occ.  1.00000000
 
ion      s     py     pz     px    dxy    dyz    dz2    dxz    dx2    tot
  1  0.183  0.000  0.000  0.032  0.000  0.562  0.077  0.000  0.230  1.084
 
band   2 # energy    5.37153051 # occ.  1.00000000
 
ion      s     py     pz     px    dxy    dyz    dz2    dxz    dx2    tot
  1  0.000  0.009  0.009  0.000  0.528  0.000  0.000  0.528  0.000  1.073
 
band   3 # energy    9.57565476 # occ.  1.00000000
 
ion      s     py     pz     px    dxy    dyz    dz2    dxz    dx2    tot
  1  0.000  0.304  0.304  0.000  0.237  0.000  0.000  0.237  0.000  1.083
 
band   4 # energy    9.82812210 # occ.  1.00000000
 
ion      s     py     pz     px    dxy    dyz    dz2    dxz    dx2    tot
  1  0.019  0.000  0.000  0.001  0.000  0.312  0.166  0.000  0.499  0.997
 
band   5 # energy   10.07153226 # occ.  0.86127787
 
ion      s     py     pz     px    dxy    dyz    dz2    dxz    dx2    tot
  1  0.000  0.000  0.000  0.000  0.000  0.000  0.745  0.000  0.248  0.993
 
band   6 # energy   14.10118525 # occ. -0.00072983
 
ion      s     py     pz     px    dxy    dyz    dz2    dxz    dx2    tot
  1  0.000  0.250  0.250  0.000  0.281  0.000  0.000  0.281  0.000  1.062
 
band   7 # energy   22.15716738 # occ.  0.00000000
 
ion      s     py     pz     px    dxy    dyz    dz2    dxz    dx2    tot
  1  0.429  0.000  0.000  0.028  0.000  0.590  0.041  0.000  0.123  1.211
 
band   8 # energy   30.89683131 # occ.  0.00000000
 
ion      s     py     pz     px    dxy    dyz    dz2    dxz    dx2    tot
  1  0.000  0.147  0.147  0.000  0.171  0.000  0.000  0.171  0.000  0.635
 
band   9 # energy   35.39731875 # occ.  0.00000000
 
ion      s     py     pz     px    dxy    dyz    dz2    dxz    dx2    tot
  1  0.143  0.000  0.000  0.641  0.000  0.022  0.020  0.000  0.059  0.886
 
band  10 # energy   42.18920419 # occ.  0.00000000
 
ion      s     py     pz     px    dxy    dyz    dz2    dxz    dx2    tot
  1  0.000  0.001  0.001  0.000  0.789  0.000  0.000  0.789  0.000  1.579
 
band  11 # energy   49.17754577 # occ.  0.00000000
 
ion      s     py     pz     px    dxy    dyz    dz2    dxz    dx2    tot
  1  0.202  0.000  0.000  0.132  0.000  0.000  0.300  0.000  0.901  1.535
 
band  12 # energy   52.49454048 # occ.  0.00000000
 
ion      s     py     pz     px    dxy    dyz    dz2    dxz    dx2    tot
  1  0.000  0.062  0.062  0.000  0.012  0.000  0.000  0.012  0.000  0.148
 

 k-point    5 :   -0.06250000 0.06250000 0.06250000     weight = 0.01171875

band   1 # energy    0.27140636 # occ.  1.00000000
 
ion      s     py     pz     px    dxy    dyz    dz2    dxz    dx2    tot
  1  1.118  0.000  0.000  0.045  0.000  0.000  0.000  0.000  0.001  1.165
 
band   2 # energy    7.34720318 # occ.  1.00000000
 
ion      s     py     pz     px    dxy    dyz    dz2    dxz    dx2    tot
  1  0.000  0.003  0.003  0.000  0.518  0.000  0.000  0.518  0.000  1.041
 
band   3 # energy    7.34720478 # occ.  1.00000000
 
ion      s     py     pz     px    dxy    dyz    dz2    dxz    dx2    tot
  1  0.000  0.003  0.003  0.000  0.518  0.000  0.000  0.518  0.000  1.041
 
band   4 # energy    7.50403105 # occ.  1.00000000
 
ion      s     py     pz     px    dxy    dyz    dz2    dxz    dx2    tot
  1  0.000  0.000  0.000  0.000  0.000  1.038  0.000  0.000  0.000  1.038
 
band   5 # energy    9.35145361 # occ.  1.00000000
 
ion      s     py     pz     px    dxy    dyz    dz2    dxz    dx2    tot
  1  0.000  0.000  0.000  0.000  0.000  0.000  0.726  0.000  0.242  0.968
 
band   6 # energy    9.75472982 # occ.  1.00012929
 
ion      s     py     pz     px    dxy    dyz    dz2    dxz    dx2    tot
  1  0.001  0.000  0.000  0.000  0.000  0.000  0.244  0.000  0.732  0.977
 
band   7 # energy   37.67953125 # occ.  0.00000000
 
ion      s     py     pz     px    dxy    dyz    dz2    dxz    dx2    tot
  1  0.000  0.000  0.000  0.000  0.000  0.000  0.281  0.000  0.094  0.375
 
band   8 # energy   39.33996855 # occ.  0.00000000
 
ion      s     py     pz     px    dxy    dyz    dz2    dxz    dx2    tot
  1  0.000  0.003  0.003  0.000  0.114  0.000  0.000  0.114  0.000  0.234
 
band   9 # energy   39.33997007 # occ.  0.00000000
 
ion      s     py     pz     px    dxy    dyz    dz2    dxz    dx2    tot
  1  0.000  0.003  0.003  0.000  0.114  0.000  0.000  0.114  0.000  0.234
 
band  10 # energy   45.32927314 # occ.  0.00000000
 
ion      s     py     pz     px    dxy    dyz    dz2    dxz    dx2    tot
  1  0.011  0.000  0.000  0.181  0.000  0.000  0.173  0.000  0.519  0.885
 
band  11 # energy   50.04533119 # occ.  0.00000000
 
ion      s     py     pz     px    dxy    dyz    dz2    dxz    dx2    tot
  1  0.000  0.086  0.395  0.000  0.236  0.000  0.000  1.082  0.000  1.798
 
band  12 # energy   50.04947168 # occ.  0.00000000
 
ion      s     py     pz     px    dxy    dyz    dz2    dxz    dx2    tot
  1  0.000  0.003  0.001  0.000  0.007  0.000  0.684  0.002  0.228  0.924
 

 k-point    6 :    0.18750000 0.18750000 0.06250000     weight = 0.04687500

band   1 # energy    4.54839370 # occ.  1.00000000
 
ion      s     py     pz     px    dxy    dyz    dz2    dxz    dx2    tot
  1  0.347  0.070  0.075  0.070  0.028  0.230  0.065  0.230  0.000  1.113
 
band   2 # energy    5.73148606 # occ.  1.00000000
 
ion      s     py     pz     px    dxy    dyz    dz2    dxz    dx2    tot
  1  0.000  0.045  0.000  0.045  0.000  0.370  0.000  0.370  0.216  1.047
 
band   3 # energy    6.24869781 # occ.  1.00000000
 
ion      s     py     pz     px    dxy    dyz    dz2    dxz    dx2    tot
  1  0.102  0.017  0.175  0.017  0.688  0.040  0.001  0.040  0.000  1.080
 
band   4 # energy    9.56352177 # occ.  1.00000000
 
ion      s     py     pz     px    dxy    dyz    dz2    dxz    dx2    tot
  1  0.000  0.001  0.000  0.001  0.000  0.117  0.000  0.117  0.749  0.986
 
band   5 # energy   10.04163540 # occ.  1.01126057
 
ion      s     py     pz     px    dxy    dyz    dz2    dxz    dx2    tot
  1  0.008  0.000  0.002  0.000  0.000  0.037  0.907  0.037  0.000  0.992
 
band   6 # energy   12.86504711 # occ. -0.07261499
 
ion      s     py     pz     px    dxy    dyz    dz2    dxz    dx2    tot
  1  0.077  0.055  0.103  0.055  0.311  0.209  0.019  0.209  0.000  1.038
 
band   7 # energy   28.15826393 # occ.  0.00000000
 
ion      s     py     pz     px    dxy    dyz    dz2    dxz    dx2    tot
  1  0.000  0.176  0.000  0.176  0.000  0.281  0.000  0.281  0.273  1.186
 
band   8 # energy   29.53984034 # occ.  0.00000000
 
ion      s     py     pz     px    dxy    dyz    dz2    dxz    dx2    tot
  1  0.137  0.000  0.272  0.000  0.189  0.187  0.061  0.187  0.000  1.033
 
band   9 # energy   35.22320240 # occ.  0.00000000
 
ion      s     py     pz     px    dxy    dyz    dz2    dxz    dx2    tot
  1  0.232  0.232  0.001  0.232  0.219  0.001  0.037  0.001  0.000  0.956
 
band  10 # energy   44.12534988 # occ.  0.00000000
 
ion      s     py     pz     px    dxy    dyz    dz2    dxz    dx2    tot
  1  0.000  0.009  0.000  0.009  0.000  0.143  0.000  0.143  0.117  0.423
 
band  11 # energy   50.19565172 # occ.  0.00000000
 
ion      s     py     pz     px    dxy    dyz    dz2    dxz    dx2    tot
  1  0.022  0.017  0.016  0.017  0.666  0.244  0.019  0.244  0.000  1.245
 
band  12 # energy   53.28511121 # occ.  0.00000000
 
ion      s     py     pz     px    dxy    dyz    dz2    dxz    dx2    tot
  1  0.000  0.133  0.000  0.133  0.000  0.169  0.000  0.169  0.541  1.144
 

 k-point    7 :    0.31250000 0.18750000 0.06250000     weight = 0.09375000

band   1 # energy    4.50380062 # occ.  1.00000000
 
ion      s     py     pz     px    dxy    dyz    dz2    dxz    dx2    tot
  1  0.124  0.002  0.005  0.089  0.056  0.584  0.059  0.048  0.115  1.082
 
band   2 # energy    5.47372378 # occ.  1.00000000
 
ion      s     py     pz     px    dxy    dyz    dz2    dxz    dx2    tot
  1  0.000  0.047  0.022  0.027  0.349  0.031  0.001  0.509  0.082  1.069
 
band   3 # energy    7.34310529 # occ.  1.00000000
 
ion      s     py     pz     px    dxy    dyz    dz2    dxz    dx2    tot
  1  0.033  0.168  0.237  0.002  0.353  0.005  0.084  0.142  0.052  1.076
 
band   4 # energy    9.84133918 # occ.  1.00000000
 
ion      s     py     pz     px    dxy    dyz    dz2    dxz    dx2    tot
  1  0.004  0.002  0.000  0.004  0.000  0.222  0.044  0.049  0.668  0.993
 
band   5 # energy   10.21543534 # occ.  0.98234377
 
ion      s     py     pz     px    dxy    dyz    dz2    dxz    dx2    tot
  1  0.006  0.007  0.011  0.000  0.050  0.016  0.783  0.075  0.050  0.999
 
band   6 # energy   16.10554123 # occ. -0.00042821
 
ion      s     py     pz     px    dxy    dyz    dz2    dxz    dx2    tot
  1  0.059  0.173  0.253  0.027  0.251  0.075  0.038  0.213  0.000  1.089
 
band   7 # energy   23.30259139 # occ.  0.00000000
 
ion      s     py     pz     px    dxy    dyz    dz2    dxz    dx2    tot
  1  0.218  0.131  0.018  0.125  0.011  0.498  0.012  0.033  0.132  1.179
 
band   8 # energy   27.56499967 # occ.  0.00000000
 
ion      s     py     pz     px    dxy    dyz    dz2    dxz    dx2    tot
  1  0.167  0.071  0.144  0.092  0.197  0.004  0.000  0.307  0.037  1.019
 
band   9 # energy   33.24629572 # occ.  0.00000000
 
ion      s     py     pz     px    dxy    dyz    dz2    dxz    dx2    tot
  1  0.224  0.104  0.030  0.324  0.126  0.046  0.015  0.026  0.009  0.903
 
band  10 # energy   45.18936064 # occ.  0.00000000
 
ion      s     py     pz     px    dxy    dyz    dz2    dxz    dx2    tot
  1  0.006  0.004  0.000  0.017  0.236  0.023  0.012  0.378  0.164  0.839
 
band  11 # energy   50.68639022 # occ.  0.00000000
 
ion      s     py     pz     px    dxy    dyz    dz2    dxz    dx2    tot
  1  0.005  0.061  0.010  0.000  0.245  0.082  0.158  0.006  0.092  0.659
 
band  12 # energy   54.59436265 # occ.  0.00000000
 
ion      s     py     pz     px    dxy    dyz    dz2    dxz    dx2    tot
  1  0.083  0.026  0.008  0.254  0.099  0.025  0.301  0.031  0.520  1.345
 

 k-point    8 :   -0.18750000 0.18750000 0.06250000     weight = 0.04687500

band   1 # energy    1.81734436 # occ.  1.00000000
 
ion      s     py     pz     px    dxy    dyz    dz2    dxz    dx2    tot
  1  0.928  0.034  0.000  0.153  0.029  0.000  0.011  0.000  0.008  1.162
 
band   2 # energy    6.84797434 # occ.  1.00000000
 
ion      s     py     pz     px    dxy    dyz    dz2    dxz    dx2    tot
  1  0.000  0.000  0.005  0.000  0.000  0.406  0.000  0.634  0.000  1.044
 
band   3 # energy    7.18747904 # occ.  1.00000000
 
ion      s     py     pz     px    dxy    dyz    dz2    dxz    dx2    tot
  1  0.013  0.030  0.000  0.018  0.831  0.000  0.122  0.000  0.015  1.028
 
band   4 # energy    8.58709192 # occ.  1.00000000
 
ion      s     py     pz     px    dxy    dyz    dz2    dxz    dx2    tot
  1  0.000  0.000  0.015  0.000  0.000  0.616  0.000  0.383  0.000  1.014
 
band   5 # energy    8.88768182 # occ.  1.00001051
 
ion      s     py     pz     px    dxy    dyz    dz2    dxz    dx2    tot
  1  0.000  0.001  0.000  0.001  0.147  0.000  0.641  0.000  0.181  0.970
 
band   6 # energy    9.96137589 # occ.  0.97776362
 
ion      s     py     pz     px    dxy    dyz    dz2    dxz    dx2    tot
  1  0.010  0.000  0.000  0.003  0.006  0.000  0.190  0.000  0.775  0.984
 
band   7 # energy   33.98299023 # occ.  0.00000000
 
ion      s     py     pz     px    dxy    dyz    dz2    dxz    dx2    tot
  1  0.014  0.082  0.000  0.028  0.357  0.000  0.481  0.000  0.052  1.013
 
band   8 # energy   37.26635982 # occ.  0.00000000
 
ion      s     py     pz     px    dxy    dyz    dz2    dxz    dx2    tot
  1  0.018  0.000  0.000  0.106  0.161  0.000  0.015  0.000  0.232  0.532
 
band   9 # energy   39.24282910 # occ.  0.00000000
 
ion      s     py     pz     px    dxy    dyz    dz2    dxz    dx2    tot
  1  0.000  0.000  0.073  0.000  0.000  0.098  0.000  0.814  0.000  0.984
 
band  10 # energy   44.67165685 # occ.  0.00000000
 
ion      s     py     pz     px    dxy    dyz    dz2    dxz    dx2    tot
  1  0.013  0.114  0.000  0.116  0.308  0.000  0.066  0.000  0.026  0.642
 
band  11 # energy   46.28473619 # occ.  0.00000000
 
ion      s     py     pz     px    dxy    dyz    dz2    dxz    dx2    tot
  1  0.000  0.000  0.467  0.000  0.000  0.644  0.000  0.240  0.000  1.351
 
band  12 # energy   47.79297141 # occ.  0.00000000
 
ion      s     py     pz     px    dxy    dyz    dz2    dxz    dx2    tot
  1  0.097  0.295  0.000  0.091  0.260  0.000  0.214  0.000  0.001  0.959
 

 k-point    9 :    0.31250000 0.31250000 0.06250000     weight = 0.01562500

band   1 # energy    4.90814446 # occ.  1.00000000
 
ion      s     py     pz     px    dxy    dyz    dz2    dxz    dx2    tot
  1  0.062  0.015  0.015  0.015  0.324  0.324  0.000  0.324  0.000  1.082
 
band   2 # energy    6.19687891 # occ.  1.00000000
 
ion      s     py     pz     px    dxy    dyz    dz2    dxz    dx2    tot
  1  0.000  0.145  0.000  0.145  0.000  0.277  0.000  0.277  0.225  1.069
 
band   3 # energy    6.19688007 # occ.  1.00000000
 
ion      s     py     pz     px    dxy    dyz    dz2    dxz    dx2    tot
  1  0.000  0.048  0.193  0.048  0.369  0.092  0.225  0.092  0.000  1.069
 
band   4 # energy   10.10207523 # occ.  1.00000000
 
ion      s     py     pz     px    dxy    dyz    dz2    dxz    dx2    tot
  1  0.000  0.007  0.000  0.007  0.000  0.123  0.000  0.123  0.736  0.996
 
band   5 # energy   10.10207587 # occ.  1.03021606
 
ion      s     py     pz     px    dxy    dyz    dz2    dxz    dx2    tot
  1  0.000  0.002  0.010  0.002  0.163  0.041  0.736  0.041  0.000  0.996
 
band   6 # energy   20.48131321 # occ.  0.00000000
 
ion      s     py     pz     px    dxy    dyz    dz2    dxz    dx2    tot
  1  0.000  0.277  0.000  0.277  0.000  0.245  0.000  0.245  0.101  1.146
 
band   7 # energy   20.48131399 # occ.  0.00000000
 
ion      s     py     pz     px    dxy    dyz    dz2    dxz    dx2    tot
  1  0.000  0.092  0.370  0.092  0.327  0.082  0.101  0.082  0.000  1.146
 
band   8 # energy   24.61396196 # occ.  0.00000000
 
ion      s     py     pz     px    dxy    dyz    dz2    dxz    dx2    tot
  1  0.553  0.007  0.007  0.007  0.158  0.158  0.000  0.158  0.000  1.046
 
band   9 # energy   32.58170569 # occ.  0.00000000
 
ion      s     py     pz     px    dxy    dyz    dz2    dxz    dx2    tot
  1  0.216  0.139  0.139  0.139  0.110  0.110  0.000  0.110  0.000  0.960
 
band  10 # energy   48.08330250 # occ.  0.00000000
 
ion      s     py     pz     px    dxy    dyz    dz2    dxz    dx2    tot
  1  0.000  0.028  0.000  0.028  0.000  0.096  0.000  0.096  0.351  0.599
 
band  11 # energy   48.08330641 # occ.  0.00000000
 
ion      s     py     pz     px    dxy    dyz    dz2    dxz    dx2    tot
  1  0.000  0.009  0.038  0.009  0.128  0.032  0.351  0.032  0.000  0.599
 
band  12 # energy   58.80699919 # occ.  0.00000000
 
ion      s     py     pz     px    dxy    dyz    dz2    dxz    dx2    tot
  1  0.018  0.153  0.153  0.153  0.515  0.515  0.000  0.515  0.000  2.023
 

 k-point   10 :   -0.31250000 0.31250000 0.06250000     weight = 0.04687500

band   1 # energy    3.38237923 # occ.  1.00000000
 
ion      s     py     pz     px    dxy    dyz    dz2    dxz    dx2    tot
  1  0.478  0.030  0.000  0.127  0.315  0.000  0.160  0.000  0.009  1.119
 
band   2 # energy    6.12821804 # occ.  1.00000000
 
ion      s     py     pz     px    dxy    dyz    dz2    dxz    dx2    tot
  1  0.000  0.000  0.005  0.000  0.000  0.477  0.000  0.573  0.000  1.055
 
band   3 # energy    7.40940685 # occ.  1.00000000
 
ion      s     py     pz     px    dxy    dyz    dz2    dxz    dx2    tot
  1  0.126  0.143  0.000  0.167  0.197  0.000  0.243  0.000  0.167  1.043
 
band   4 # energy    9.29448346 # occ.  1.00000000
 
ion      s     py     pz     px    dxy    dyz    dz2    dxz    dx2    tot
  1  0.002  0.023  0.000  0.026  0.463  0.000  0.460  0.000  0.026  1.000
 
band   5 # energy   10.31112897 # occ.  0.92095091
 
ion      s     py     pz     px    dxy    dyz    dz2    dxz    dx2    tot
  1  0.053  0.017  0.000  0.039  0.001  0.000  0.107  0.000  0.787  1.004
 
band   6 # energy   10.38366118 # occ.  0.42141846
 
ion      s     py     pz     px    dxy    dyz    dz2    dxz    dx2    tot
  1  0.000  0.000  0.020  0.000  0.000  0.539  0.000  0.434  0.000  0.993
 
band   7 # energy   28.23617149 # occ.  0.00000000
 
ion      s     py     pz     px    dxy    dyz    dz2    dxz    dx2    tot
  1  0.130  0.169  0.000  0.084  0.537  0.000  0.292  0.000  0.015  1.226
 
band   8 # energy   34.23738619 # occ.  0.00000000
 
ion      s     py     pz     px    dxy    dyz    dz2    dxz    dx2    tot
  1  0.022  0.049  0.000  0.130  0.018  0.000  0.086  0.000  0.135  0.440
 
band   9 # energy   38.16615364 # occ.  0.00000000
 
ion      s     py     pz     px    dxy    dyz    dz2    dxz    dx2    tot
  1  0.000  0.000  0.340  0.000  0.000  0.094  0.000  0.967  0.000  1.401
 
band  10 # energy   43.28806152 # occ.  0.00000000
 
ion      s     py     pz     px    dxy    dyz    dz2    dxz    dx2    tot
  1  0.000  0.000  0.327  0.000  0.000  0.913  0.000  0.074  0.000  1.314
 
band  11 # energy   45.82113232 # occ.  0.00000000
 
ion      s     py     pz     px    dxy    dyz    dz2    dxz    dx2    tot
  1  0.052  0.261  0.000  0.001  0.206  0.000  0.557  0.000  0.028  1.104
 
band  12 # energy   48.62117723 # occ.  0.00000000
 
ion      s     py     pz     px    dxy    dyz    dz2    dxz    dx2    tot
  1  0.196  0.001  0.000  0.073  0.110  0.000  0.253  0.000  0.104  0.737
 

 k-point   11 :   -0.18750000 0.31250000 0.06250000     weight = 0.04687500

band   1 # energy    3.48362340 # occ.  1.00000000
 
ion      s     py     pz     px    dxy    dyz    dz2    dxz    dx2    tot
  1  0.625  0.021  0.021  0.237  0.070  0.001  0.025  0.070  0.074  1.142
 
band   2 # energy    6.40248042 # occ.  1.00000000
 
ion      s     py     pz     px    dxy    dyz    dz2    dxz    dx2    tot
  1  0.000  0.024  0.024  0.000  0.289  0.000  0.290  0.289  0.097  1.012
 
band   3 # energy    6.85802339 # occ.  1.00000000
 
ion      s     py     pz     px    dxy    dyz    dz2    dxz    dx2    tot
  1  0.028  0.011  0.011  0.056  0.217  0.508  0.000  0.217  0.001  1.049
 
band   4 # energy    8.65602046 # occ.  1.00000000
 
ion      s     py     pz     px    dxy    dyz    dz2    dxz    dx2    tot
  1  0.000  0.004  0.004  0.000  0.204  0.000  0.424  0.204  0.141  0.983
 
band   5 # energy    9.93223738 # occ.  1.01825165
 
ion      s     py     pz     px    dxy    dyz    dz2    dxz    dx2    tot
  1  0.000  0.010  0.010  0.005  0.184  0.397  0.052  0.184  0.155  0.997
 
band   6 # energy   10.64027590 # occ.  0.43176420
 
ion      s     py     pz     px    dxy    dyz    dz2    dxz    dx2    tot
  1  0.078  0.012  0.012  0.050  0.028  0.105  0.175  0.028  0.525  1.012
 
band   7 # energy   31.06570559 # occ.  0.00000000
 
ion      s     py     pz     px    dxy    dyz    dz2    dxz    dx2    tot
  1  0.000  0.109  0.109  0.000  0.199  0.000  0.439  0.199  0.146  1.202
 
band   8 # energy   32.86042501 # occ.  0.00000000
 
ion      s     py     pz     px    dxy    dyz    dz2    dxz    dx2    tot
  1  0.120  0.037  0.037  0.181  0.266  0.046  0.006  0.266  0.019  0.980
 
band   9 # energy   39.47599631 # occ.  0.00000000
 
ion      s     py     pz     px    dxy    dyz    dz2    dxz    dx2    tot
  1  0.000  0.052  0.052  0.000  0.301  0.000  0.192  0.301  0.064  0.962
 
band  10 # energy   41.45605189 # occ.  0.00000000
 
ion      s     py     pz     px    dxy    dyz    dz2    dxz    dx2    tot
  1  0.004  0.236  0.236  0.030  0.113  0.082  0.004  0.113  0.012  0.830
 
band  11 # energy   45.52439663 # occ.  0.00000000
 
ion      s     py     pz     px    dxy    dyz    dz2    dxz    dx2    tot
  1  0.114  0.016  0.016  0.048  0.120  0.615  0.020  0.120  0.060  1.129
 
band  12 # energy   50.98035387 # occ.  0.00000000
 
ion      s     py     pz     px    dxy    dyz    dz2    dxz    dx2    tot
  1  0.000  0.220  0.220  0.000  0.013  0.000  0.195  0.013  0.065  0.727
 

 k-point   12 :   -0.43750000 0.43750000 0.06250000     weight = 0.04687500

band   1 # energy    3.32812887 # occ.  1.00000000
 
ion      s     py     pz     px    dxy    dyz    dz2    dxz    dx2    tot
  1  0.214  0.000  0.000  0.023  0.501  0.000  0.344  0.000  0.001  1.082
 
band   2 # energy    5.65088465 # occ.  1.00000000
 
ion      s     py     pz     px    dxy    dyz    dz2    dxz    dx2    tot
  1  0.000  0.000  0.005  0.000  0.000  0.516  0.000  0.544  0.000  1.065
 
band   3 # energy    8.69086659 # occ.  1.00000000
 
ion      s     py     pz     px    dxy    dyz    dz2    dxz    dx2    tot
  1  0.031  0.154  0.000  0.167  0.002  0.000  0.082  0.000  0.592  1.028
 
band   4 # energy    9.64019983 # occ.  1.00000000
 
ion      s     py     pz     px    dxy    dyz    dz2    dxz    dx2    tot
  1  0.013  0.013  0.000  0.011  0.365  0.000  0.540  0.000  0.056  0.998
 
band   5 # energy   11.85468247 # occ. -0.13408429
 
ion      s     py     pz     px    dxy    dyz    dz2    dxz    dx2    tot
  1  0.000  0.000  0.004  0.000  0.000  0.513  0.000  0.479  0.000  0.996
 
band   6 # energy   11.95182277 # occ. -0.00624409
 
ion      s     py     pz     px    dxy    dyz    dz2    dxz    dx2    tot
  1  0.053  0.290  0.000  0.351  0.036  0.000  0.007  0.000  0.356  1.094
 
band   7 # energy   23.12725229 # occ.  0.00000000
 
ion      s     py     pz     px    dxy    dyz    dz2    dxz    dx2    tot
  1  0.366  0.087  0.000  0.018  0.560  0.000  0.192  0.000  0.004  1.226
 
band   8 # energy   32.40580670 # occ.  0.00000000
 
ion      s     py     pz     px    dxy    dyz    dz2    dxz    dx2    tot
  1  0.019  0.103  0.000  0.125  0.007  0.000  0.096  0.000  0.016  0.367
 
band   9 # energy   36.44037600 # occ.  0.00000000
 
ion      s     py     pz     px    dxy    dyz    dz2    dxz    dx2    tot
  1  0.000  0.000  0.609  0.000  0.000  0.124  0.000  0.422  0.000  1.155
 
band  10 # energy   42.34295768 # occ.  0.00000000
 
ion      s     py     pz     px    dxy    dyz    dz2    dxz    dx2    tot
  1  0.000  0.000  0.176  0.000  0.000  0.910  0.000  0.610  0.000  1.696
 
band  11 # energy   46.77554787 # occ.  0.00000000
 
ion      s     py     pz     px    dxy    dyz    dz2    dxz    dx2    tot