Fe BCC                                  
   4.00000000000000     
    -0.500000    0.500000    0.500000
     0.500000   -0.500000    0.500000
     0.500000    0.500000   -0.500000
   Fe
     1
Direct
  0.000000  0.000000  0.000000
 
   48   48   48
  279.14      273.38      256.87      231.73      200.89      167.41      134.00      102.78      75.246      52.378    
  34.710      22.277      14.531      10.332      8.1236      6.5272      5.2979      4.4002      3.7625      3.3126    
  2.9937      2.7686      2.6162      2.5271      2.4976      2.5271      2.6162      2.7686      2.9937      3.3126    
  3.7625      4.4002      5.2979      6.5272      8.1236      10.332      14.531      22.277      34.710      52.378    
  75.246      102.78      134.00      167.41      200.89      231.73      256.87      273.38      273.38      271.46    
  258.56      236.36      207.54      175.16      142.05      110.48      82.128      58.117      39.112      25.307    
  16.345      11.276      8.6628      6.9606      5.6259      4.6371      3.9298      3.4301      3.0761      2.8249    
  2.6511      2.5423      2.4934      2.5032      2.5718      2.7015      2.8992      3.1811      3.5780      4.1392    
  4.9322      6.0308      7.4883      9.3637      12.618      18.847      29.351      44.888      65.622      91.191    
  120.78      153.09      186.25      217.78      244.70      264.04      256.87      258.56      249.54      231.03    
  205.34      175.34      143.85      113.26      85.330      61.289      41.892      27.448      17.760      12.064    
  9.0857      7.2973      5.8917      4.8335      4.0694      3.5271      3.1424      2.8680      2.6750      2.5481    
  2.4809      2.4714      2.5195      2.6263      2.7963      3.0414      3.3855      3.8695      4.5526      5.5066    
  6.7956      8.4402      10.860      15.504      23.781      36.648      54.491      77.157      104.02      134.00    
  165.49      196.28      223.66      244.70      231.73      236.36      231.03      216.47      194.59      167.95    
  139.22      110.78      84.430      61.447      42.626      28.342      18.516      12.550      9.3523      7.5101    
  6.0734      4.9741      4.1711      3.5974      3.1886      2.8956      2.6865      2.5440      2.4603      2.4327    
  2.4609      2.5452      2.6885      2.8985      3.1927      3.6032      4.1795      4.9864      6.0917      7.5380    
  9.3954      12.626      18.665      28.630      43.136      62.262      85.599      112.29      140.98      169.79    
  196.28      217.78      200.89      207.54      205.34      194.59      176.75      154.02      128.84      103.45    
  79.623      58.618      41.228      27.848      18.470      12.633      9.4198      7.5824      6.1555      5.0466    
  4.2265      3.6354      3.2114      2.9056      2.6846      2.5296      2.4318      2.3881      2.3976      2.4606    
  2.5785      2.7559      3.0049      3.3490      3.8272      4.4946      5.4161      6.6476      8.2031      10.396    
  14.461      21.611      32.664      47.941      67.273      90.036      115.14      140.98      165.49      186.25    
  167.41      175.16      175.34      167.95      154.02      135.38      114.14      92.345      71.666      53.291    
  37.969      26.077      17.637      12.288      9.2696      7.5102      6.1311      5.0443      4.2303      3.6374    
  3.2086      2.8967      2.6686      2.5049      2.3960      2.3384      2.3311      2.3744      2.4687      2.6166    
  2.8256      3.1118      3.5044      4.0473      4.7973      5.8136      7.1345      8.7748      11.354      16.063    
  23.866      35.310      50.480      68.999      90.036      112.29      134.00      153.09      134.00      142.05    
  143.85      139.22      128.84      114.14      96.896      78.911      61.677      46.278      33.392      23.351    
  16.178      11.576      8.9193      7.3025      6.0031      4.9668      4.1811      3.6022      3.1791      2.8683    
  2.6383      2.4698      2.3531      2.2844      2.2627      2.2882      2.3610      2.4823      2.6565      2.8939    
  3.2146      3.6516      4.2511      5.0678      6.1510      7.5205      9.2444      12.115      17.152      25.081    
  36.229      50.480      67.273      85.599      104.02      120.78      102.78      110.48      113.26      110.78    
  103.45      92.345      78.911      64.654      50.871      38.513      28.168      20.110      14.347      10.624    
  8.4181      6.9788      5.7830      4.8204      4.0821      3.5312      3.1239      2.8211      2.5941      2.4248    
  2.3037      2.2269      2.1935      2.2034      2.2569      2.3547      2.4987      2.6952      2.9572      3.3079    
  3.7822      4.4257      5.2877      6.4063      7.7851      9.5609      12.537      17.536      25.081      35.310    
  47.941      62.262      77.157      91.191      75.246      82.128      85.330      84.430      79.623      71.666    
  61.677      50.871      40.330      30.854      22.937      16.797      12.419      9.5760      7.8274      6.5657    
  5.4892      4.6166      3.9400      3.4287      3.0453      2.7565      2.5371      2.3707      2.2485      2.1666    
  2.1242      2.1212      2.1579      2.2347      2.3526      2.5151      2.7299      3.0122      3.3867      3.8883    
  4.5594      5.4424      6.5646      7.9193      9.6733      12.537      17.152      23.866      32.664      43.136    
  54.491      65.622      52.378      58.117      61.289      61.447      58.618      53.291      46.278      38.513    
  30.854      23.950      18.199      13.767      10.622      8.5569      7.1975      6.0930      5.1436      4.3705    
  3.7647      3.3006      2.9474      2.6773      2.4690      2.3086      2.1881      2.1041      2.0555      2.0424    
  2.0649      2.1235      2.2188      2.3525      2.5293      2.7584      3.0559      3.4465      3.9630      4.6433    
  5.5221      6.6181      7.9193      9.5609      12.115      16.063      21.611      28.630      36.648      44.888    
  34.710      39.112      41.892      42.626      41.228      37.969      33.392      28.168      22.937      18.199    
  14.260      11.240      9.0953      7.6379      6.5497      5.5900      4.7692      4.0982      3.5671      3.1543    
  2.8349      2.5865      2.3921      2.2401      2.1238      2.0403      1.9883      1.9677      1.9788      2.0219    
  2.0976      2.2071      2.3528      2.5403      2.7794      3.0861      3.4837      4.0016      4.6718      5.5221    
  6.5646      7.7851      9.2444      11.354      14.461      18.665      23.781      29.351      22.277      25.307    
  27.448      28.342      27.848      26.077      23.351      20.110      16.797      13.767      11.240      9.2952    
  7.8786      6.8217      5.9016      5.0831      4.3868      3.8153      3.3582      2.9973      2.7130      2.4880    
  2.3090      2.1671      2.0570      1.9760      1.9231      1.8977      1.9001      1.9306      1.9897      2.0784    
  2.1984      2.3529      2.5475      2.7921      3.1016      3.4964      4.0016      4.6433      5.4424      6.4063    
  7.5205      8.7748      10.396      12.626      15.504      18.847      14.531      16.345      17.760      18.516    
  18.470      17.637      16.178      14.347      12.419      10.622      9.0953      7.8786      6.9107      6.0577    
  5.2788      4.5944      4.0139      3.5351      3.1475      2.8364      2.5867      2.3853      2.2225      2.0918    
  1.9892      1.9125      1.8606      1.8329      1.8293      1.8499      1.8953      1.9665      2.0648      2.1924    
  2.3527      2.5511      2.7964      3.1016      3.4837      3.9630      4.5594      5.2877      6.1510      7.1345    
  8.2031      9.3954      10.860      12.618      10.332      11.276      12.064      12.550      12.633      12.288    
  11.576      10.624      9.5760      8.5569      7.6379      6.8217      6.0577      5.3444      4.7013      4.1401    
  3.6637      3.2678      2.9429      2.6775      2.4602      2.2818      2.1353      2.0162      1.9219      1.8507    
  1.8015      1.7735      1.7663      1.7798      1.8144      1.8711      1.9513      2.0566      2.1893      2.3526    
  2.5511      2.7921      3.0861      3.4465      3.8883      4.4257      5.0678      5.8136      6.6476      7.5380    
  8.4402      9.3637      8.1236      8.6628      9.0857      9.3523      9.4198      9.2696      8.9193      8.4181    
  7.8274      7.1975      6.5497      5.9016      5.2788      4.7013      4.1830      3.7305      3.3445      3.0201    
  2.7498      2.5248      2.3371      2.1802      2.0496      1.9424      1.8569      1.7920      1.7467      1.7200    
  1.7112      1.7200      1.7465      1.7918      1.8569      1.9437      2.0538      2.1893      2.3527      2.5475    
  2.7794      3.0559      3.3867      3.7822      4.2511      4.7973      5.4161      6.0917      6.7956      7.4883    
  6.5272      6.9606      7.2973      7.5101      7.5824      7.5102      7.3025      6.9788      6.5657      6.0930    
  5.5900      5.0831      4.5944      4.1401      3.7305      3.3706      3.0602      2.7957      2.5715      2.3814    
  2.2200      2.0829      1.9675      1.8720      1.7956      1.7374      1.6966      1.6724      1.6636      1.6698    
  1.6909      1.7275      1.7807      1.8523      1.9437      2.0566      2.1924      2.3529      2.5403      2.7584    
  3.0122      3.3079      3.6516      4.0473      4.4946      4.9864      5.5066      6.0308      5.2979      5.6259    
  5.8917      6.0734      6.1555      6.1311      6.0031      5.7830      5.4892      5.1436      4.7692      4.3868    
  4.0139      3.6637      3.3445      3.0602      2.8113      2.5957      2.4095      2.2490      2.1105      1.9916    
  1.8905      1.8064      1.7390      1.6878      1.6521      1.6310      1.6234      1.6287      1.6464      1.6769    
  1.7212      1.7807      1.8569      1.9513      2.0648      2.1984      2.3528      2.5293      2.7299      2.9572    
  3.2146      3.5044      3.8272      4.1795      4.5526      4.9322      4.4002      4.6371      4.8335      4.9741    
  5.0466      5.0443      4.9668      4.8204      4.6166      4.3705      4.0982      3.8153      3.5351      3.2678    
  3.0201      2.7957      2.5957      2.4191      2.2641      2.1284      2.0099      1.9073      1.8197      1.7467    
  1.6883      1.6441      1.6136      1.5960      1.5904      1.5959      1.6120      1.6388      1.6769      1.7275    
  1.7918      1.8711      1.9665      2.0784      2.2071      2.3525      2.5151      2.6952      2.8939      3.1118    
  3.3490      3.6032      3.8695      4.1392      3.7625      3.9298      4.0694      4.1711      4.2265      4.2303    
  4.1811      4.0821      3.9400      3.7647      3.5671      3.3582      3.1475      2.9429      2.7498      2.5715    
  2.4095      2.2641      2.1345      2.0197      1.9187      1.8310      1.7560      1.6937      1.6440      1.6067    
  1.5815      1.5677      1.5645      1.5712      1.5870      1.6120      1.6464      1.6909      1.7465      1.8144    
  1.8953      1.9897      2.0976      2.2188      2.3526      2.4987      2.6565      2.8256      3.0049      3.1927    
  3.3855      3.5780      3.3126      3.4301      3.5271      3.5974      3.6354      3.6374      3.6022      3.5312    
  3.4287      3.3006      3.1543      2.9973      2.8364      2.6775      2.5248      2.3814      2.2490      2.1284    
  2.0197      1.9227      1.8373      1.7630      1.6998      1.6477      1.6065      1.5761      1.5562      1.5464    
  1.5460      1.5544      1.5712      1.5959      1.6287      1.6698      1.7200      1.7798      1.8499      1.9306    
  2.0219      2.1235      2.2347      2.3547      2.4823      2.6166      2.7559      2.8985      3.0414      3.1811    
  2.9937      3.0761      3.1424      3.1886      3.2114      3.2086      3.1791      3.1239      3.0453      2.9474    
  2.8349      2.7130      2.5867      2.4602      2.3371      2.2200      2.1105      2.0099      1.9187      1.8373    
  1.7656      1.7037      1.6515      1.6090      1.5759      1.5523      1.5378      1.5322      1.5351      1.5460    
  1.5645      1.5904      1.6234      1.6636      1.7112      1.7663      1.8293      1.9001      1.9788      2.0649    
  2.1579      2.2569      2.3610      2.4687      2.5785      2.6885      2.7963      2.8992      2.7686      2.8249    
  2.8680      2.8956      2.9056      2.8967      2.8683      2.8211      2.7565      2.6773      2.5865      2.4880    
  2.3853      2.2818      2.1802      2.0829      1.9916      1.9073      1.8310      1.7630      1.7037      1.6531    
  1.6111      1.5776      1.5524      1.5355      1.5266      1.5255      1.5322      1.5464      1.5677      1.5960    
  1.6310      1.6724      1.7200      1.7735      1.8329      1.8977      1.9677      2.0424      2.1212      2.2034    
  2.2882      2.3744      2.4606      2.5452      2.6263      2.7015      2.6162      2.6511      2.6750      2.6865    
  2.6846      2.6686      2.6383      2.5941      2.5371      2.4690      2.3921      2.3090      2.2225      2.1353    
  2.0496      1.9675      1.8905      1.8197      1.7560      1.6998      1.6515      1.6111      1.5784      1.5533    
  1.5358      1.5255      1.5224      1.5266      1.5378      1.5562      1.5815      1.6136      1.6521      1.6966    
  1.7467      1.8015      1.8606      1.9231      1.9883      2.0555      2.1242      2.1935      2.2627      2.3311    
  2.3976      2.4609      2.5195      2.5718      2.5271      2.5423      2.5481      2.5440      2.5296      2.5049    
  2.4698      2.4248      2.3707      2.3086      2.2401      2.1671      2.0918      2.0162      1.9424      1.8720    
  1.8064      1.7467      1.6937      1.6477      1.6090      1.5776      1.5533      1.5362      1.5258      1.5223    
  1.5255      1.5355      1.5523      1.5761      1.6067      1.6441      1.6878      1.7374      1.7920      1.8507    
  1.9125      1.9760      2.0403      2.1041      2.1666      2.2269      2.2844      2.3384      2.3881      2.4327    
  2.4714      2.5032      2.4976      2.4934      2.4809      2.4603      2.4318      2.3960      2.3531      2.3037    
  2.2485      2.1881      2.1238      2.0570      1.9892      1.9219      1.8569      1.7956      1.7390      1.6883    
  1.6440      1.6065      1.5759      1.5524      1.5358      1.5258      1.5225      1.5258      1.5358      1.5524    
  1.5759      1.6065      1.6440      1.6883      1.7390      1.7956      1.8569      1.9219      1.9892      2.0570    
  2.1238      2.1881      2.2485      2.3037      2.3531      2.3960      2.4318      2.4603      2.4809      2.4934    
  2.5271      2.5032      2.4714      2.4327      2.3881      2.3384      2.2844      2.2269      2.1666      2.1041    
  2.0403      1.9760      1.9125      1.8507      1.7920      1.7374      1.6878      1.6441      1.6067      1.5761    
  1.5523      1.5355      1.5255      1.5223      1.5258      1.5362      1.5533      1.5776      1.6090      1.6477    
  1.6937      1.7467      1.8064      1.8720      1.9424      2.0162      2.0918      2.1671      2.2401      2.3086    
  2.3707      2.4248      2.4698      2.5049      2.5296      2.5440      2.5481      2.5423      2.6162      2.5718    
  2.5195      2.4609      2.3976      2.3311      2.2627      2.1935      2.1242      2.0555      1.9883      1.9231    
  1.8606      1.8015      1.7467      1.6966      1.6521      1.6136      1.5815      1.5562      1.5378      1.5266    
  1.5224      1.5255      1.5358      1.5533      1.5784      1.6111      1.6515      1.6998      1.7560      1.8197    
  1.8905      1.9675      2.0496      2.1353      2.2225      2.3090      2.3921      2.4690      2.5371      2.5941    
  2.6383      2.6686      2.6846      2.6865      2.6750      2.6511      2.7686      2.7015      2.6263      2.5452    
  2.4606      2.3744      2.2882      2.2034      2.1212      2.0424      1.9677      1.8977      1.8329      1.7735    
  1.7200      1.6724      1.6310      1.5960      1.5677      1.5464      1.5322      1.5255      1.5266      1.5355    
  1.5524      1.5776      1.6111      1.6531      1.7037      1.7630      1.8310      1.9073      1.9916      2.0829    
  2.1802      2.2818      2.3853      2.4880      2.5865      2.6773      2.7565      2.8211      2.8683      2.8967    
  2.9056      2.8956      2.8680      2.8249      2.9937      2.8992      2.7963      2.6885      2.5785      2.4687    
  2.3610      2.2569      2.1579      2.0649      1.9788      1.9001      1.8293      1.7663      1.7112      1.6636    
  1.6234      1.5904      1.5645      1.5460      1.5351      1.5322      1.5378      1.5523      1.5759      1.6090    
  1.6515      1.7037      1.7656      1.8373      1.9187      2.0099      2.1105      2.2200      2.3371      2.4602    
  2.5867      2.7130      2.8349      2.9474      3.0453      3.1239      3.1791      3.2086      3.2114      3.1886    
  3.1424      3.0761      3.3126      3.1811      3.0414      2.8985      2.7559      2.6166      2.4823      2.3547    
  2.2347      2.1235      2.0219      1.9306      1.8499      1.7798      1.7200      1.6698      1.6287      1.5959    
  1.5712      1.5544      1.5460      1.5464      1.5562      1.5761      1.6065      1.6477      1.6998      1.7630    
  1.8373      1.9227      2.0197      2.1284      2.2490      2.3814      2.5248      2.6775      2.8364      2.9973    
  3.1543      3.3006      3.4287      3.5312      3.6022      3.6374      3.6354      3.5974      3.5271      3.4301    
  3.7625      3.5780      3.3855      3.1927      3.0049      2.8256      2.6565      2.4987      2.3526      2.2188    
  2.0976      1.9897      1.8953      1.8144      1.7465      1.6909      1.6464      1.6120      1.5870      1.5712    
  1.5645      1.5677      1.5815      1.6067      1.6440      1.6937      1.7560      1.8310      1.9187      2.0197    
  2.1345      2.2641      2.4095      2.5715      2.7498      2.9429      3.1475      3.3582      3.5671      3.7647    
  3.9400      4.0821      4.1811      4.2303      4.2265      4.1711      4.0694      3.9298      4.4002      4.1392    
  3.8695      3.6032      3.3490      3.1118      2.8939      2.6952      2.5151      2.3525      2.2071      2.0784    
  1.9665      1.8711      1.7918      1.7275      1.6769      1.6388      1.6120      1.5959      1.5904      1.5960    
  1.6136      1.6441      1.6883      1.7467      1.8197      1.9073      2.0099      2.1284      2.2641      2.4191    
  2.5957      2.7957      3.0201      3.2678      3.5351      3.8153      4.0982      4.3705      4.6166      4.8204    
  4.9668      5.0443      5.0466      4.9741      4.8335      4.6371      5.2979      4.9322      4.5526      4.1795    
  3.8272      3.5044      3.2146      2.9572      2.7299      2.5293      2.3528      2.1984      2.0648      1.9513    
  1.8569      1.7807      1.7212      1.6769      1.6464      1.6287      1.6234      1.6310      1.6521      1.6878    
  1.7390      1.8064      1.8905      1.9916      2.1105      2.2490      2.4095      2.5957      2.8113      3.0602    
  3.3445      3.6637      4.0139      4.3868      4.7692      5.1436      5.4892      5.7830      6.0031      6.1311    
  6.1555      6.0734      5.8917      5.6259      6.5272      6.0308      5.5066      4.9864      4.4946      4.0473    
  3.6516      3.3079      3.0122      2.7584      2.5403      2.3529      2.1924      2.0566      1.9437      1.8523    
  1.7807      1.7275      1.6909      1.6698      1.6636      1.6724      1.6966      1.7374      1.7956      1.8720    
  1.9675      2.0829      2.2200      2.3814      2.5715      2.7957      3.0602      3.3706      3.7305      4.1401    
  4.5944      5.0831      5.5900      6.0930      6.5657      6.9788      7.3025      7.5102      7.5824      7.5101    
  7.2973      6.9606      8.1236      7.4883      6.7956      6.0917      5.4161      4.7973      4.2511      3.7822    
  3.3867      3.0559      2.7794      2.5475      2.3527      2.1893      2.0538      1.9437      1.8569      1.7918    
  1.7465      1.7200      1.7112      1.7200      1.7467      1.7920      1.8569      1.9424      2.0496      2.1802    
  2.3371      2.5248      2.7498      3.0201      3.3445      3.7305      4.1830      4.7013      5.2788      5.9016    
  6.5497      7.1975      7.8274      8.4181      8.9193      9.2696      9.4198      9.3523      9.0857      8.6628    
  10.332      9.3637      8.4402      7.5380      6.6476      5.8136      5.0678      4.4257      3.8883      3.4465    
  3.0861      2.7921      2.5511      2.3526      2.1893      2.0566      1.9513      1.8711      1.8144      1.7798    
  1.7663      1.7735      1.8015      1.8507      1.9219      2.0162      2.1353      2.2818      2.4602      2.6775    
  2.9429      3.2678      3.6637      4.1401      4.7013      5.3444      6.0577      6.8217      7.6379      8.5569    
  9.5760      10.624      11.576      12.288      12.633      12.550      12.064      11.276      14.531      12.618    
  10.860      9.3954      8.2031      7.1345      6.1510      5.2877      4.5594      3.9630      3.4837      3.1016    
  2.7964      2.5511      2.3527      2.1924      2.0648      1.9665      1.8953      1.8499      1.8293      1.8329    
  1.8606      1.9125      1.9892      2.0918      2.2225      2.3853      2.5867      2.8364      3.1475      3.5351    
  4.0139      4.5944      5.2788      6.0577      6.9107      7.8786      9.0953      10.622      12.419      14.347    
  16.178      17.637      18.470      18.516      17.760      16.345      22.277      18.847      15.504      12.626    
  10.396      8.7748      7.5205      6.4063      5.4424      4.6433      4.0016      3.4964      3.1016      2.7921    
  2.5475      2.3529      2.1984      2.0784      1.9897      1.9306      1.9001      1.8977      1.9231      1.9760    
  2.0570      2.1671      2.3090      2.4880      2.7130      2.9973      3.3582      3.8153      4.3868      5.0831    
  5.9016      6.8217      7.8786      9.2952      11.240      13.767      16.797      20.110      23.351      26.077    
  27.848      28.342      27.448      25.307      34.710      29.351      23.781      18.665      14.461      11.354    
  9.2444      7.7851      6.5646      5.5221      4.6718      4.0016      3.4837      3.0861      2.7794      2.5403    
  2.3528      2.2071      2.0976      2.0219      1.9788      1.9677      1.9883      2.0403      2.1238      2.2401    
  2.3921      2.5865      2.8349      3.1543      3.5671      4.0982      4.7692      5.5900      6.5497      7.6379    
  9.0953      11.240      14.260      18.199      22.937      28.168      33.392      37.969      41.228      42.626    
  41.892      39.112      52.378      44.888      36.648      28.630      21.611      16.063      12.115      9.5609    
  7.9193      6.6181      5.5221      4.6433      3.9630      3.4465      3.0559      2.7584      2.5293      2.3525    
  2.2188      2.1235      2.0649      2.0424      2.0555      2.1041      2.1881      2.3086      2.4690      2.6773    
  2.9474      3.3006      3.7647      4.3705      5.1436      6.0930      7.1975      8.5569      10.622      13.767    
  18.199      23.950      30.854      38.513      46.278      53.291      58.618      61.447      61.289      58.117    
  75.246      65.622      54.491      43.136      32.664      23.866      17.152      12.537      9.6733      7.9193    
  6.5646      5.4424      4.5594      3.8883      3.3867      3.0122      2.7299      2.5151      2.3526      2.2347    
  2.1579      2.1212      2.1242      2.1666      2.2485      2.3707      2.5371      2.7565      3.0453      3.4287    
  3.9400      4.6166      5.4892      6.5657      7.8274      9.5760      12.419      16.797      22.937      30.854    
  40.330      50.871      61.677      71.666      79.623      84.430      85.330      82.128      102.78      91.191    
  77.157      62.262      47.941      35.310      25.081      17.536      12.537      9.5609      7.7851      6.4063    
  5.2877      4.4257      3.7822      3.3079      2.9572      2.6952      2.4987      2.3547      2.2569      2.2034    
  2.1935      2.2269      2.3037      2.4248      2.5941      2.8211      3.1239      3.5312      4.0821      4.8204    
  5.7830      6.9788      8.4181      10.624      14.347      20.110      28.168      38.513      50.871      64.654    
  78.911      92.345      103.45      110.78      113.26      110.48      134.00      120.78      104.02      85.599    
  67.273      50.480      36.229      25.081      17.152      12.115      9.2444      7.5205      6.1510      5.0678    
  4.2511      3.6516      3.2146      2.8939      2.6565      2.4823      2.3610      2.2882      2.2627      2.2844    
  2.3531      2.4698      2.6383      2.8683      3.1791      3.6022      4.1811      4.9668      6.0031      7.3025    
  8.9193      11.576      16.178      23.351      33.392      46.278      61.677      78.911      96.896      114.14    
  128.84      139.22      143.85      142.05      167.41      153.09      134.00      112.29      90.036      68.999    
  50.480      35.310      23.866      16.063      11.354      8.7748      7.1345      5.8136      4.7973      4.0473    
  3.5044      3.1118      2.8256      2.6166      2.4687      2.3744      2.3311      2.3384      2.3960      2.5049    
  2.6686      2.8967      3.2086      3.6374      4.2303      5.0443      6.1311      7.5102      9.2696      12.288    
  17.637      26.077      37.969      53.291      71.666      92.345      114.14      135.38      154.02      167.95    
  175.34      175.16      200.89      186.25      165.49      140.98      115.14      90.036      67.273      47.941    
  32.664      21.611      14.461      10.396      8.2031      6.6476      5.4161      4.4946      3.8272      3.3490    
  3.0049      2.7559      2.5785      2.4606      2.3976      2.3881      2.4318      2.5296      2.6846      2.9056    
  3.2114      3.6354      4.2265      5.0466      6.1555      7.5824      9.4198      12.633      18.470      27.848    
  41.228      58.618      79.623      103.45      128.84      154.02      176.75      194.59      205.34      207.54    
  231.73      217.78      196.28      169.79      140.98      112.29      85.599      62.262      43.136      28.630    
  18.665      12.626      9.3954      7.5380      6.0917      4.9864      4.1795      3.6032      3.1927      2.8985    
  2.6885      2.5452      2.4609      2.4327      2.4603      2.5440      2.6865      2.8956      3.1886      3.5974    
  4.1711      4.9741      6.0734      7.5101      9.3523      12.550      18.516      28.342      42.626      61.447    
  84.430      110.78      139.22      167.95      194.59      216.47      231.03      236.36      256.87      244.70    
  223.66      196.28      165.49      134.00      104.02      77.157      54.491      36.648      23.781      15.504    
  10.860      8.4402      6.7956      5.5066      4.5526      3.8695      3.3855      3.0414      2.7963      2.6263    
  2.5195      2.4714      2.4809      2.5481      2.6750      2.8680      3.1424      3.5271      4.0694      4.8335    
  5.8917      7.2973      9.0857      12.064      17.760      27.448      41.892      61.289      85.330      113.26    
  143.85      175.34      205.34      231.03      249.54      258.56      273.38      264.04      244.70      217.78    
  186.25      153.09      120.78      91.191      65.622      44.888      29.351      18.847      12.618      9.3637    
  7.4883      6.0308      4.9322      4.1392      3.5780      3.1811      2.8992      2.7015      2.5718      2.5032    
  2.4934      2.5423      2.6511      2.8249      3.0761      3.4301      3.9298      4.6371      5.6259      6.9606    
  8.6628      11.276      16.345      25.307      39.112      58.117      82.128      110.48      142.05      175.16    
  207.54      236.36      258.56      271.46      273.38      271.46      258.56      236.36      207.54      175.16    
  142.05      110.48      82.128      58.117      39.112      25.307      16.345      11.276      8.6628      6.9606    
  5.6259      4.6371      3.9298      3.4301      3.0761      2.8249      2.6511      2.5423      2.4934      2.5032    
  2.5718      2.7015      2.8992      3.1811      3.5780      4.1392      4.9322      6.0308      7.4883      9.3637    
  12.618      18.847      29.351      44.888      65.622      91.191      120.78      153.09      186.25      217.78    
  244.70      264.04      271.46      273.38      264.04      244.70      217.78      186.25      153.09      120.78    
  91.191      65.622      44.888      29.351      18.847      12.618      9.3637      7.4883      6.0308      4.9322    
  4.1392      3.5780      3.1811      2.8992      2.7015      2.5718      2.5032      2.4934      2.5423      2.6511    
  2.8249      3.0761      3.4301      3.9298      4.6371      5.6259      6.9606      8.6628      11.276      16.345    
  25.307      39.112      58.117      82.128      110.48      142.05      175.16      207.54      236.36      258.56    
  258.56      264.04      258.56      242.84      218.92      189.57      157.75      126.04      96.472      70.475    
  48.980      32.472      20.943      13.824      9.9863      7.9163      6.3732      5.1879      4.3224      3.7066    
  3.2707      2.9606      2.7409      2.5918      2.5044      2.4754      2.5044      2.5918      2.7409      2.9606    
  3.2707      3.7066      4.3224      5.1879      6.3732      7.9163      9.9863      13.824      20.943      32.472    
  48.980      70.475      96.472      126.04      157.75      189.57      218.92      242.84      236.36      244.70    