Fe BCC                                  
   4.00000000000000     
    -0.500000    0.500000    0.500000
     0.500000   -0.500000    0.500000
     0.500000    0.500000   -0.500000
   Fe
     1
Direct
  0.000000  0.000000  0.000000
 
   48   48   48
 0.27913925811E+03 0.27337784902E+03 0.25686995627E+03 0.23173374480E+03 0.20088811360E+03
 0.16740612916E+03 0.13400172367E+03 0.10278268720E+03 0.75246009056E+02 0.52377667441E+02
 0.34709901026E+02 0.22277351154E+02 0.14530821079E+02 0.10332039236E+02 0.81236459566E+01
 0.65271902063E+01 0.52978516022E+01 0.44001557184E+01 0.37625238821E+01 0.33125874675E+01
 0.29937078527E+01 0.27685654909E+01 0.26162472297E+01 0.25270786802E+01 0.24976021242E+01
 0.25270786802E+01 0.26162472297E+01 0.27685654909E+01 0.29937078527E+01 0.33125874675E+01
 0.37625238821E+01 0.44001557184E+01 0.52978516022E+01 0.65271902063E+01 0.81236459566E+01
 0.10332039236E+02 0.14530821079E+02 0.22277351154E+02 0.34709901026E+02 0.52377667441E+02
 0.75246009056E+02 0.10278268720E+03 0.13400172367E+03 0.16740612916E+03 0.20088811360E+03
 0.23173374480E+03 0.25686995627E+03 0.27337784902E+03 0.27337784902E+03 0.27146253940E+03
 0.25855738490E+03 0.23635655954E+03 0.20754382930E+03 0.17516269954E+03 0.14204588418E+03
 0.11047930740E+03 0.82128133054E+02 0.58117087698E+02 0.39111609011E+02 0.25306684608E+02
 0.16345357681E+02 0.11276424914E+02 0.86628128818E+01 0.69606066004E+01 0.56258966308E+01
 0.46370670230E+01 0.39297822108E+01 0.34300788599E+01 0.30760938231E+01 0.28249069436E+01
 0.26511492009E+01 0.25422834579E+01 0.24934028877E+01 0.25031708912E+01 0.25718100076E+01
 0.27015121463E+01 0.28991983584E+01 0.31810911919E+01 0.35779821473E+01 0.41392452783E+01
 0.49321509778E+01 0.60308193328E+01 0.74882575184E+01 0.93637472538E+01 0.12617576186E+02
 0.18846762282E+02 0.29351384698E+02 0.44888400152E+02 0.65621584487E+02 0.91190778634E+02
 0.12077908360E+03 0.15309009664E+03 0.18625259739E+03 0.21777551590E+03 0.24470360835E+03
 0.26404322776E+03 0.25686995627E+03 0.25855738490E+03 0.24953973521E+03 0.23102572387E+03
 0.20533691892E+03 0.17533901417E+03 0.14385491791E+03 0.11325934419E+03 0.85330084297E+02
 0.61289279410E+02 0.41892193667E+02 0.27448357292E+02 0.17760298538E+02 0.12064062963E+02
 0.90857135780E+01 0.72973401350E+01 0.58916691010E+01 0.48335428186E+01 0.40693590472E+01
 0.35271294068E+01 0.31423533084E+01 0.28680235776E+01 0.26750095636E+01 0.25480953396E+01
 0.24808834829E+01 0.24714009780E+01 0.25194595633E+01 0.26262652541E+01 0.27963425616E+01
 0.30414348549E+01 0.33855332042E+01 0.38695022328E+01 0.45526448785E+01 0.55066399951E+01
 0.67955753004E+01 0.84401836008E+01 0.10860301219E+02 0.15504248997E+02 0.23781376071E+02
 0.36648121178E+02 0.54491377614E+02 0.77157083659E+02 0.10402163760E+03 0.13400343130E+03
 0.16549247820E+03 0.19628380361E+03 0.22365724121E+03 0.24470360835E+03 0.23173374480E+03
 0.23635655954E+03 0.23102572387E+03 0.21647442637E+03 0.19459162951E+03 0.16794556554E+03
 0.13922142054E+03 0.11077732215E+03 0.84429948776E+02 0.61446599041E+02 0.42625575103E+02
 0.28342309546E+02 0.18516024421E+02 0.12550355804E+02 0.93522766746E+01 0.75101441732E+01
 0.60733745285E+01 0.49741006776E+01 0.41710887941E+01 0.35973735085E+01 0.31885892885E+01
 0.28955682718E+01 0.26865105706E+01 0.25439967828E+01 0.24602603902E+01 0.24327086846E+01
 0.24608526422E+01 0.25452301744E+01 0.26884900009E+01 0.28984734555E+01 0.31927152146E+01
 0.36032085489E+01 0.41794513105E+01 0.49863549687E+01 0.60917352011E+01 0.75380446095E+01
 0.93954237660E+01 0.12626125018E+02 0.18664722102E+02 0.28630055400E+02 0.43136248872E+02
 0.62261519047E+02 0.85598844700E+02 0.11228886425E+03 0.14098393532E+03 0.16978717123E+03
 0.19628380361E+03 0.21777551590E+03 0.20088811360E+03 0.20754382930E+03 0.20533691892E+03
 0.19459162951E+03 0.17675459107E+03 0.15402359179E+03 0.12884204008E+03 0.10344996231E+03
 0.79623396625E+02 0.58617623638E+02 0.41227508028E+02 0.27848179562E+02 0.18470257852E+02
 0.12632798330E+02 0.94198150773E+01 0.75823647666E+01 0.61554658384E+01 0.50466023999E+01
 0.42265172858E+01 0.36353524651E+01 0.32114473516E+01 0.29055659202E+01 0.26846015643E+01
 0.25296474050E+01 0.24318446160E+01 0.23880563862E+01 0.23975908778E+01 0.24606147227E+01
 0.25784826152E+01 0.27559482939E+01 0.30049246776E+01 0.33489857460E+01 0.38271633757E+01
 0.44946099613E+01 0.54161483791E+01 0.66476172892E+01 0.82030901062E+01 0.10396045085E+02
 0.14460644755E+02 0.21610826795E+02 0.32663730656E+02 0.47940644361E+02 0.67273299342E+02
 0.90035619479E+02 0.11513697145E+03 0.14098393532E+03 0.16549247820E+03 0.18625259739E+03
 0.16740612916E+03 0.17516269954E+03 0.17533901417E+03 0.16794556554E+03 0.15402359179E+03
 0.13537567685E+03 0.11413588284E+03 0.92344787279E+02 0.71666303397E+02 0.53290593525E+02
 0.37968660260E+02 0.26077080267E+02 0.17637361682E+02 0.12287546451E+02 0.92695894859E+01
 0.75101712807E+01 0.61311010082E+01 0.50442643166E+01 0.42302904645E+01 0.36373687876E+01
 0.32085938175E+01 0.28966538904E+01 0.26685976385E+01 0.25048978616E+01 0.23960009520E+01
 0.23383533448E+01 0.23311355584E+01 0.23743727112E+01 0.24686675282E+01 0.26165872975E+01
 0.28255679031E+01 0.31118462790E+01 0.35044072258E+01 0.40472576072E+01 0.47972742207E+01
 0.58135669467E+01 0.71345212759E+01 0.87748125872E+01 0.11354010705E+02 0.16063408907E+02
 0.23865728886E+02 0.35310207006E+02 0.50480214396E+02 0.68999235586E+02 0.90035619479E+02
 0.11228886425E+03 0.13400343130E+03 0.15309009664E+03 0.13400172367E+03 0.14204588418E+03
 0.14385491791E+03 0.13922142054E+03 0.12884204008E+03 0.11413588284E+03 0.96896375195E+02
 0.78910788288E+02 0.61676819928E+02 0.46278029957E+02 0.33392218158E+02 0.23351481445E+02
 0.16178227739E+02 0.11576405593E+02 0.89193205644E+01 0.73024859594E+01 0.60030622813E+01
 0.49667965052E+01 0.41811169692E+01 0.36021620726E+01 0.31791371590E+01 0.28683203915E+01
 0.26382985155E+01 0.24698322800E+01 0.23531384415E+01 0.22844097954E+01 0.22627476946E+01
 0.22881738678E+01 0.23609636217E+01 0.24823412866E+01 0.26565201156E+01 0.28938690575E+01
 0.32145635214E+01 0.36515629765E+01 0.42510926315E+01 0.50677968579E+01 0.61510314927E+01
 0.75204517893E+01 0.92444023570E+01 0.12115309470E+02 0.17151604236E+02 0.25081102653E+02
 0.36228966266E+02 0.50480214396E+02 0.67273299342E+02 0.85598844700E+02 0.10402163760E+03
 0.12077908360E+03 0.10278268720E+03 0.11047930740E+03 0.11325934419E+03 0.11077732215E+03
 0.10344996231E+03 0.92344787279E+02 0.78910788288E+02 0.64653953781E+02 0.50871490855E+02
 0.38513436643E+02 0.28167951957E+02 0.20110380922E+02 0.14347263228E+02 0.10623922146E+02
 0.84180595541E+01 0.69788188156E+01 0.57829794063E+01 0.48203936904E+01 0.40820511062E+01
 0.35312252128E+01 0.31238813583E+01 0.28210818396E+01 0.25941043487E+01 0.24248384817E+01
 0.23037445206E+01 0.22269398251E+01 0.21934704561E+01 0.22034003823E+01 0.22569440919E+01
 0.23546575539E+01 0.24987081158E+01 0.26951980271E+01 0.29572211204E+01 0.33078991091E+01
 0.37821974027E+01 0.44256992552E+01 0.52877306623E+01 0.64063069278E+01 0.77851393271E+01
 0.95609462616E+01 0.12536967423E+02 0.17536027565E+02 0.25081102653E+02 0.35310207006E+02
 0.47940644361E+02 0.62261519047E+02 0.77157083659E+02 0.91190778634E+02 0.75246009056E+02
 0.82128133054E+02 0.85330084297E+02 0.84429948776E+02 0.79623396625E+02 0.71666303397E+02
 0.61676819928E+02 0.50871490855E+02 0.40329712934E+02 0.30853970274E+02 0.22937152344E+02
 0.16796852269E+02 0.12419017869E+02 0.95760095074E+01 0.78273728605E+01 0.65657445897E+01
 0.54891558319E+01 0.46166113481E+01 0.39400165775E+01 0.34286591248E+01 0.30453246502E+01
 0.27565366092E+01 0.25370879214E+01 0.23706829082E+01 0.22484524992E+01 0.21666119593E+01
 0.21241579180E+01 0.21211682469E+01 0.21579057703E+01 0.22347052261E+01 0.23526428918E+01
 0.25150582276E+01 0.27298585155E+01 0.30121920671E+01 0.33867108689E+01 0.38882738404E+01
 0.45594057003E+01 0.54423852368E+01 0.65646045959E+01 0.79193240653E+01 0.96732751789E+01
 0.12536967423E+02 0.17151604236E+02 0.23865728886E+02 0.32663730656E+02 0.43136248872E+02
 0.54491377614E+02 0.65621584487E+02 0.52377667441E+02 0.58117087698E+02 0.61289279410E+02
 0.61446599041E+02 0.58617623638E+02 0.53290593525E+02 0.46278029957E+02 0.38513436643E+02
 0.30853970274E+02 0.23949638739E+02 0.18198852564E+02 0.13766723763E+02 0.10621615319E+02
 0.85569136722E+01 0.71975116675E+01 0.60929902535E+01 0.51436266328E+01 0.43704568280E+01
 0.37647015325E+01 0.33005901643E+01 0.29473814406E+01 0.26772574404E+01 0.24689840522E+01
 0.23085555228E+01 0.21881140477E+01 0.21041263717E+01 0.20555373312E+01 0.20423660667E+01
 0.20649087797E+01 0.21234983737E+01 0.22187753397E+01 0.23525476784E+01 0.25293220413E+01
 0.27583706806E+01 0.30558837623E+01 0.34464764005E+01 0.39630087692E+01 0.46432763022E+01
 0.55220537986E+01 0.66181457054E+01 0.79193240653E+01 0.95609462616E+01 0.12115309470E+02
 0.16063408907E+02 0.21610826795E+02 0.28630055400E+02 0.36648121178E+02 0.44888400152E+02
 0.34709901026E+02 0.39111609011E+02 0.41892193667E+02 0.42625575103E+02 0.41227508028E+02
 0.37968660260E+02 0.33392218158E+02 0.28167951957E+02 0.22937152344E+02 0.18198852564E+02
 0.14260268946E+02 0.11240397239E+02 0.90953353246E+01 0.76378849946E+01 0.65496946403E+01
 0.55899611087E+01 0.47691604337E+01 0.40981923065E+01 0.35671191266E+01 0.31542990347E+01
 0.28348868546E+01 0.25865315178E+01 0.23920785536E+01 0.22400548101E+01 0.21238432224E+01
 0.20402870340E+01 0.19882803356E+01 0.19676992025E+01 0.19787846780E+01 0.20219063093E+01
 0.20976217388E+01 0.22070699643E+01 0.23528281382E+01 0.25402858288E+01 0.27793629361E+01
 0.30861408444E+01 0.34837498479E+01 0.40016033194E+01 0.46718408842E+01 0.55220537986E+01
 0.65646045959E+01 0.77851393271E+01 0.92444023570E+01 0.11354010705E+02 0.14460644755E+02
 0.18664722102E+02 0.23781376071E+02 0.29351384698E+02 0.22277351154E+02 0.25306684608E+02
 0.27448357292E+02 0.28342309546E+02 0.27848179562E+02 0.26077080267E+02 0.23351481445E+02
 0.20110380922E+02 0.16796852269E+02 0.13766723763E+02 0.11240397239E+02 0.92952265925E+01
 0.78786048304E+01 0.68216968226E+01 0.59015994998E+01 0.50831406044E+01 0.43867574823E+01
 0.38153301839E+01 0.33581789555E+01 0.29972788065E+01 0.27130057350E+01 0.24880049844E+01
 0.23090112022E+01 0.21671016983E+01 0.20570077798E+01 0.19760404553E+01 0.19230583103E+01
 0.18977278615E+01 0.19001248734E+01 0.19305838556E+01 0.19896892444E+01 0.20783981375E+01
 0.21984004042E+01 0.23528529355E+01 0.25475183425E+01 0.27921312544E+01 0.31015939632E+01
 0.34964112292E+01 0.40016033194E+01 0.46432763022E+01 0.54423852368E+01 0.64063069278E+01
 0.75204517893E+01 0.87748125872E+01 0.10396045085E+02 0.12626125018E+02 0.15504248997E+02
 0.18846762282E+02 0.14530821079E+02 0.16345357681E+02 0.17760298538E+02 0.18516024421E+02
 0.18470257852E+02 0.17637361682E+02 0.16178227739E+02 0.14347263228E+02 0.12419017869E+02
 0.10621615319E+02 0.90953353246E+01 0.78786048304E+01 0.69107144571E+01 0.60576774103E+01
 0.52787534935E+01 0.45944004385E+01 0.40139157584E+01 0.35351419709E+01 0.31475462190E+01
 0.28364265212E+01 0.25866829146E+01 0.23853150878E+01 0.22225352878E+01 0.20917955858E+01
 0.19891625651E+01 0.19124673771E+01 0.18605680325E+01 0.18328948911E+01 0.18292697173E+01
 0.18498808764E+01 0.18952967381E+01 0.19664740804E+01 0.20648179849E+01 0.21924276838E+01
 0.23526643044E+01 0.25510624713E+01 0.27964070347E+01 0.31015939632E+01 0.34837498479E+01
 0.39630087692E+01 0.45594057003E+01 0.52877306623E+01 0.61510314927E+01 0.71345212759E+01
 0.82030901062E+01 0.93954237660E+01 0.10860301219E+02 0.12617576186E+02 0.10332039236E+02
 0.11276424914E+02 0.12064062963E+02 0.12550355804E+02 0.12632798330E+02 0.12287546451E+02
 0.11576405593E+02 0.10623922146E+02 0.95760095074E+01 0.85569136722E+01 0.76378849946E+01
 0.68216968226E+01 0.60576774103E+01 0.53443976669E+01 0.47013144904E+01 0.41400574156E+01
 0.36636917940E+01 0.32677990740E+01 0.29429295929E+01 0.26774960425E+01 0.24602376031E+01
 0.22817877274E+01 0.21352882245E+01 0.20162454202E+01 0.19219402808E+01 0.18507318328E+01
 0.18015283312E+01 0.17735475128E+01 0.17663188087E+01 0.17797893524E+01 0.18144060760E+01
 0.18711115562E+01 0.19512678925E+01 0.20566016114E+01 0.21893225464E+01 0.23525519947E+01
 0.25510624713E+01 0.27921312544E+01 0.30861408444E+01 0.34464764005E+01 0.38882738404E+01
 0.44256992552E+01 0.50677968579E+01 0.58135669467E+01 0.66476172892E+01 0.75380446095E+01
 0.84401836008E+01 0.93637472538E+01 0.81236459566E+01 0.86628128818E+01 0.90857135780E+01
 0.93522766746E+01 0.94198150773E+01 0.92695894859E+01 0.89193205644E+01 0.84180595541E+01
 0.78273728605E+01 0.71975116675E+01 0.65496946403E+01 0.59015994998E+01 0.52787534935E+01
 0.47013144904E+01 0.41829654901E+01 0.37305369434E+01 0.33444556063E+01 0.30201071281E+01
 0.27498059846E+01 0.25248448189E+01 0.23371446452E+01 0.21802466513E+01 0.20496186767E+01
 0.19424150863E+01 0.18569280265E+01 0.17920047742E+01 0.17466576161E+01 0.17199604384E+01
 0.17111747792E+01 0.17199625469E+01 0.17465499147E+01 0.17917650721E+01 0.18569357933E+01
 0.19436977007E+01 0.20538358129E+01 0.21893225464E+01 0.23526643044E+01 0.25475183425E+01
 0.27793629361E+01 0.30558837623E+01 0.33867108689E+01 0.37821974027E+01 0.42510926315E+01
 0.47972742207E+01 0.54161483791E+01 0.60917352011E+01 0.67955753004E+01 0.74882575184E+01
 0.65271902063E+01 0.69606066004E+01 0.72973401350E+01 0.75101441732E+01 0.75823647666E+01
 0.75101712807E+01 0.73024859594E+01 0.69788188156E+01 0.65657445897E+01 0.60929902535E+01
 0.55899611087E+01 0.50831406044E+01 0.45944004385E+01 0.41400574156E+01 0.37305369434E+01
 0.33706108984E+01 0.30602095523E+01 0.27957150630E+01 0.25715045886E+01 0.23814341715E+01
 0.22199887843E+01 0.20829398661E+01 0.19674907290E+01 0.18720122891E+01 0.17955583475E+01
 0.17373829764E+01 0.16966431184E+01 0.16723638339E+01 0.16636201654E+01 0.16698105005E+01
 0.16908886836E+01 0.17274637492E+01 0.17807312046E+01 0.18522567978E+01 0.19436977007E+01
 0.20566016114E+01 0.21924276838E+01 0.23528529355E+01 0.25402858288E+01 0.27583706806E+01
 0.30121920671E+01 0.33078991091E+01 0.36515629765E+01 0.40472576072E+01 0.44946099613E+01
 0.49863549687E+01 0.55066399951E+01 0.60308193328E+01 0.52978516022E+01 0.56258966308E+01
 0.58916691010E+01 0.60733745285E+01 0.61554658384E+01 0.61311010082E+01 0.60030622813E+01
 0.57829794063E+01 0.54891558319E+01 0.51436266328E+01 0.47691604337E+01 0.43867574823E+01
 0.40139157584E+01 0.36636917940E+01 0.33444556063E+01 0.30602095523E+01 0.28113402995E+01
 0.25956568311E+01 0.24095389772E+01 0.22490071074E+01 0.21105438899E+01 0.19915569059E+01
 0.18904577795E+01 0.18064298595E+01 0.17390328537E+01 0.16878199645E+01 0.16521093542E+01
 0.16309727467E+01 0.16234147861E+01 0.16286523045E+01 0.16463802470E+01 0.16769272912E+01
 0.17212453753E+01 0.17807312046E+01 0.18569357933E+01 0.19512678925E+01 0.20648179849E+01
 0.21984004042E+01 0.23528281382E+01 0.25293220413E+01 0.27298585155E+01 0.29572211204E+01
 0.32145635214E+01 0.35044072258E+01 0.38271633757E+01 0.41794513105E+01 0.45526448785E+01
 0.49321509778E+01 0.44001557184E+01 0.46370670230E+01 0.48335428186E+01 0.49741006776E+01
 0.50466023999E+01 0.50442643166E+01 0.49667965052E+01 0.48203936904E+01 0.46166113481E+01
 0.43704568280E+01 0.40981923065E+01 0.38153301839E+01 0.35351419709E+01 0.32677990740E+01
 0.30201071281E+01 0.27957150630E+01 0.25956568311E+01 0.24190865436E+01 0.22640772998E+01
 0.21283636862E+01 0.20099205645E+01 0.19072976616E+01 0.18196817816E+01 0.17467302888E+01
 0.16882825657E+01 0.16440789645E+01 0.16135909228E+01 0.15960107888E+01 0.15903925684E+01
 0.15958904382E+01 0.16120142229E+01 0.16388141415E+01 0.16769272912E+01 0.17274637492E+01
 0.17917650721E+01 0.18711115562E+01 0.19664740804E+01 0.20783981375E+01 0.22070699643E+01
 0.23525476784E+01 0.25150582276E+01 0.26951980271E+01 0.28938690575E+01 0.31118462790E+01
 0.33489857460E+01 0.36032085489E+01 0.38695022328E+01 0.41392452783E+01 0.37625238821E+01
 0.39297822108E+01 0.40693590472E+01 0.41710887941E+01 0.42265172858E+01 0.42302904645E+01
 0.41811169692E+01 0.40820511062E+01 0.39400165775E+01 0.37647015325E+01 0.35671191266E+01
 0.33581789555E+01 0.31475462190E+01 0.29429295929E+01 0.27498059846E+01 0.25715045886E+01
 0.24095389772E+01 0.22640772998E+01 0.21344570340E+01 0.20196674943E+01 0.19187349638E+01
 0.18309585892E+01 0.17559729275E+01 0.16936577609E+01 0.16439600404E+01 0.16067119106E+01
 0.15815143148E+01 0.15677221488E+01 0.15645340369E+01 0.15711636789E+01 0.15870461602E+01
 0.16120142229E+01 0.16463802470E+01 0.16908886836E+01 0.17465499147E+01 0.18144060760E+01
 0.18952967381E+01 0.19896892444E+01 0.20976217388E+01 0.22187753397E+01 0.23526428918E+01
 0.24987081158E+01 0.26565201156E+01 0.28255679031E+01 0.30049246776E+01 0.31927152146E+01
 0.33855332042E+01 0.35779821473E+01 0.33125874675E+01 0.34300788599E+01 0.35271294068E+01
 0.35973735085E+01 0.36353524651E+01 0.36373687876E+01 0.36021620726E+01 0.35312252128E+01
 0.34286591248E+01 0.33005901643E+01 0.31542990347E+01 0.29972788065E+01 0.28364265212E+01
 0.26774960425E+01 0.25248448189E+01 0.23814341715E+01 0.22490071074E+01 0.21283636862E+01
 0.20196674943E+01 0.19227343769E+01 0.18372680315E+01 0.17630164634E+01 0.16998356082E+01
 0.16476666554E+01 0.16064565216E+01 0.15760641841E+01 0.15561924009E+01 0.15463701278E+01
 0.15459955733E+01 0.15544359595E+01 0.15711636789E+01 0.15958904382E+01 0.16286523045E+01
 0.16698105005E+01 0.17199625469E+01 0.17797893524E+01 0.18498808764E+01 0.19305838556E+01
 0.20219063093E+01 0.21234983737E+01 0.22347052261E+01 0.23546575539E+01 0.24823412866E+01
 0.26165872975E+01 0.27559482939E+01 0.28984734555E+01 0.30414348549E+01 0.31810911919E+01
 0.29937078527E+01 0.30760938231E+01 0.31423533084E+01 0.31885892885E+01 0.32114473516E+01
 0.32085938175E+01 0.31791371590E+01 0.31238813583E+01 0.30453246502E+01 0.29473814406E+01
 0.28348868546E+01 0.27130057350E+01 0.25866829146E+01 0.24602376031E+01 0.23371446452E+01
 0.22199887843E+01 0.21105438899E+01 0.20099205645E+01 0.19187349638E+01 0.18372680315E+01
 0.17655987322E+01 0.17037034482E+01 0.16515180730E+01 0.16089633340E+01 0.15759394185E+01
 0.15523016500E+01 0.15378323706E+01 0.15322244771E+01 0.15350893532E+01 0.15459955733E+01
 0.15645340369E+01 0.15903925684E+01 0.16234147861E+01 0.16636201654E+01 0.17111747792E+01
 0.17663188087E+01 0.18292697173E+01 0.19001248734E+01 0.19787846780E+01 0.20649087797E+01
 0.21579057703E+01 0.22569440919E+01 0.23609636217E+01 0.24686675282E+01 0.25784826152E+01
 0.26884900009E+01 0.27963425616E+01 0.28991983584E+01 0.27685654909E+01 0.28249069436E+01
 0.28680235776E+01 0.28955682718E+01 0.29055659202E+01 0.28966538904E+01 0.28683203915E+01
 0.28210818396E+01 0.27565366092E+01 0.26772574404E+01 0.25865315178E+01 0.24880049844E+01
 0.23853150878E+01 0.22817877274E+01 0.21802466513E+01 0.20829398661E+01 0.19915569059E+01
 0.19072976616E+01 0.18309585892E+01 0.17630164634E+01 0.17037034482E+01 0.16530744782E+01
 0.16110684639E+01 0.15775614775E+01 0.15524065680E+01 0.15354545932E+01 0.15265550116E+01
 0.15255429860E+01 0.15322244771E+01 0.15463701278E+01 0.15677221488E+01 0.15960107888E+01
 0.16309727467E+01 0.16723638339E+01 0.17199604384E+01 0.17735475128E+01 0.18328948911E+01
 0.18977278615E+01 0.19676992025E+01 0.20423660667E+01 0.21211682469E+01 0.22034003823E+01
 0.22881738678E+01 0.23743727112E+01 0.24606147227E+01 0.25452301744E+01 0.26262652541E+01
 0.27015121463E+01 0.26162472297E+01 0.26511492009E+01 0.26750095636E+01 0.26865105706E+01
 0.26846015643E+01 0.26685976385E+01 0.26382985155E+01 0.25941043487E+01 0.25370879214E+01
 0.24689840522E+01 0.23920785536E+01 0.23090112022E+01 0.22225352878E+01 0.21352882245E+01
 0.20496186767E+01 0.19674907290E+01 0.18904577795E+01 0.18196817816E+01 0.17559729275E+01
 0.16998356082E+01 0.16515180730E+01 0.16110684639E+01 0.15783982632E+01 0.15533489170E+01
 0.15357521298E+01 0.15254722491E+01 0.15224225140E+01 0.15265550116E+01 0.15378323706E+01
 0.15561924009E+01 0.15815143148E+01 0.16135909228E+01 0.16521093542E+01 0.16966431184E+01
 0.17466576161E+01 0.18015283312E+01 0.18605680325E+01 0.19230583103E+01 0.19882803356E+01
 0.20555373312E+01 0.21241579180E+01 0.21934704561E+01 0.22627476946E+01 0.23311355584E+01
 0.23975908778E+01 0.24608526422E+01 0.25194595633E+01 0.25718100076E+01 0.25270786802E+01
 0.25422834579E+01 0.25480953396E+01 0.25439967828E+01 0.25296474050E+01 0.25048978616E+01
 0.24698322800E+01 0.24248384817E+01 0.23706829082E+01 0.23085555228E+01 0.22400548101E+01
 0.21671016983E+01 0.20917955858E+01 0.20162454202E+01 0.19424150863E+01 0.18720122891E+01
 0.18064298595E+01 0.17467302888E+01 0.16936577609E+01 0.16476666554E+01 0.16089633340E+01
 0.15775614775E+01 0.15533489170E+01 0.15361590299E+01 0.15258358255E+01 0.15222807808E+01
 0.15254722491E+01 0.15354545932E+01 0.15523016500E+01 0.15760641841E+01 0.16067119106E+01
 0.16440789645E+01 0.16878199645E+01 0.17373829764E+01 0.17920047742E+01 0.18507318328E+01
 0.19124673771E+01 0.19760404553E+01 0.20402870340E+01 0.21041263717E+01 0.21666119593E+01
 0.22269398251E+01 0.22844097954E+01 0.23383533448E+01 0.23880563862E+01 0.24327086846E+01
 0.24714009780E+01 0.25031708912E+01 0.24976021242E+01 0.24934028877E+01 0.24808834829E+01
 0.24602603902E+01 0.24318446160E+01 0.23960009520E+01 0.23531384415E+01 0.23037445206E+01
 0.22484524992E+01 0.21881140477E+01 0.21238432224E+01 0.20570077798E+01 0.19891625651E+01
 0.19219402808E+01 0.18569280265E+01 0.17955583475E+01 0.17390328537E+01 0.16882825657E+01
 0.16439600404E+01 0.16064565216E+01 0.15759394185E+01 0.15524065680E+01 0.15357521298E+01
 0.15258358255E+01 0.15225446577E+01 0.15258358255E+01 0.15357521298E+01 0.15524065680E+01
 0.15759394185E+01 0.16064565216E+01 0.16439600404E+01 0.16882825657E+01 0.17390328537E+01
 0.17955583475E+01 0.18569280265E+01 0.19219402808E+01 0.19891625651E+01 0.20570077798E+01
 0.21238432224E+01 0.21881140477E+01 0.22484524992E+01 0.23037445206E+01 0.23531384415E+01
 0.23960009520E+01 0.24318446160E+01 0.24602603902E+01 0.24808834829E+01 0.24934028877E+01
 0.25270786802E+01 0.25031708912E+01 0.24714009780E+01 0.24327086846E+01 0.23880563862E+01
 0.23383533448E+01 0.22844097954E+01 0.22269398251E+01 0.21666119593E+01 0.21041263717E+01
 0.20402870340E+01 0.19760404553E+01 0.19124673771E+01 0.18507318328E+01 0.17920047742E+01
 0.17373829764E+01 0.16878199645E+01 0.16440789645E+01 0.16067119106E+01 0.15760641841E+01
 0.15523016500E+01 0.15354545932E+01 0.15254722491E+01 0.15222807808E+01 0.15258358255E+01
 0.15361590299E+01 0.15533489170E+01 0.15775614775E+01 0.16089633340E+01 0.16476666554E+01
 0.16936577609E+01 0.17467302888E+01 0.18064298595E+01 0.18720122891E+01 0.19424150863E+01
 0.20162454202E+01 0.20917955858E+01 0.21671016983E+01 0.22400548101E+01 0.23085555228E+01
 0.23706829082E+01 0.24248384817E+01 0.24698322800E+01 0.25048978616E+01 0.25296474050E+01
 0.25439967828E+01 0.25480953396E+01 0.25422834579E+01 0.26162472297E+01 0.25718100076E+01
 0.25194595633E+01 0.24608526422E+01 0.23975908778E+01 0.23311355584E+01 0.22627476946E+01
 0.21934704561E+01 0.21241579180E+01 0.20555373312E+01 0.19882803356E+01 0.19230583103E+01
 0.18605680325E+01 0.18015283312E+01 0.17466576161E+01 0.16966431184E+01 0.16521093542E+01
 0.16135909228E+01 0.15815143148E+01 0.15561924009E+01 0.15378323706E+01 0.15265550116E+01
 0.15224225140E+01 0.15254722491E+01 0.15357521298E+01 0.15533489170E+01 0.15783982632E+01
 0.16110684639E+01 0.16515180730E+01 0.16998356082E+01 0.17559729275E+01 0.18196817816E+01
 0.18904577795E+01 0.19674907290E+01 0.20496186767E+01 0.21352882245E+01 0.22225352878E+01
 0.23090112022E+01 0.23920785536E+01 0.24689840522E+01 0.25370879214E+01 0.25941043487E+01
 0.26382985155E+01 0.26685976385E+01 0.26846015643E+01 0.26865105706E+01 0.26750095636E+01
 0.26511492009E+01 0.27685654909E+01 0.27015121463E+01 0.26262652541E+01 0.25452301744E+01
 0.24606147227E+01 0.23743727112E+01 0.22881738678E+01 0.22034003823E+01 0.21211682469E+01
 0.20423660667E+01 0.19676992025E+01 0.18977278615E+01 0.18328948911E+01 0.17735475128E+01
 0.17199604384E+01 0.16723638339E+01 0.16309727467E+01 0.15960107888E+01 0.15677221488E+01
 0.15463701278E+01 0.15322244771E+01 0.15255429860E+01 0.15265550116E+01 0.15354545932E+01
 0.15524065680E+01 0.15775614775E+01 0.16110684639E+01 0.16530744782E+01 0.17037034482E+01
 0.17630164634E+01 0.18309585892E+01 0.19072976616E+01 0.19915569059E+01 0.20829398661E+01
 0.21802466513E+01 0.22817877274E+01 0.23853150878E+01 0.24880049844E+01 0.25865315178E+01
 0.26772574404E+01 0.27565366092E+01 0.28210818396E+01 0.28683203915E+01 0.28966538904E+01
 0.29055659202E+01 0.28955682718E+01 0.28680235776E+01 0.28249069436E+01 0.29937078527E+01
 0.28991983584E+01 0.27963425616E+01 0.26884900009E+01 0.25784826152E+01 0.24686675282E+01
 0.23609636217E+01 0.22569440919E+01 0.21579057703E+01 0.20649087797E+01 0.19787846780E+01
 0.19001248734E+01 0.18292697173E+01 0.17663188087E+01 0.17111747792E+01 0.16636201654E+01
 0.16234147861E+01 0.15903925684E+01 0.15645340369E+01 0.15459955733E+01 0.15350893532E+01
 0.15322244771E+01 0.15378323706E+01 0.15523016500E+01 0.15759394185E+01 0.16089633340E+01
 0.16515180730E+01 0.17037034482E+01 0.17655987322E+01 0.18372680315E+01 0.19187349638E+01
 0.20099205645E+01 0.21105438899E+01 0.22199887843E+01 0.23371446452E+01 0.24602376031E+01
 0.25866829146E+01 0.27130057350E+01 0.28348868546E+01 0.29473814406E+01 0.30453246502E+01
 0.31238813583E+01 0.31791371590E+01 0.32085938175E+01 0.32114473516E+01 0.31885892885E+01
 0.31423533084E+01 0.30760938231E+01 0.33125874675E+01 0.31810911919E+01 0.30414348549E+01
 0.28984734555E+01 0.27559482939E+01 0.26165872975E+01 0.24823412866E+01 0.23546575539E+01
 0.22347052261E+01 0.21234983737E+01 0.20219063093E+01 0.19305838556E+01 0.18498808764E+01
 0.17797893524E+01 0.17199625469E+01 0.16698105005E+01 0.16286523045E+01 0.15958904382E+01
 0.15711636789E+01 0.15544359595E+01 0.15459955733E+01 0.15463701278E+01 0.15561924009E+01
 0.15760641841E+01 0.16064565216E+01 0.16476666554E+01 0.16998356082E+01 0.17630164634E+01
 0.18372680315E+01 0.19227343769E+01 0.20196674943E+01 0.21283636862E+01 0.22490071074E+01
 0.23814341715E+01 0.25248448189E+01 0.26774960425E+01 0.28364265212E+01 0.29972788065E+01
 0.31542990347E+01 0.33005901643E+01 0.34286591248E+01 0.35312252128E+01 0.36021620726E+01
 0.36373687876E+01 0.36353524651E+01 0.35973735085E+01 0.35271294068E+01 0.34300788599E+01
 0.37625238821E+01 0.35779821473E+01 0.33855332042E+01 0.31927152146E+01 0.30049246776E+01
 0.28255679031E+01 0.26565201156E+01 0.24987081158E+01 0.23526428918E+01 0.22187753397E+01
 0.20976217388E+01 0.19896892444E+01 0.18952967381E+01 0.18144060760E+01 0.17465499147E+01
 0.16908886836E+01 0.16463802470E+01 0.16120142229E+01 0.15870461602E+01 0.15711636789E+01
 0.15645340369E+01 0.15677221488E+01 0.15815143148E+01 0.16067119106E+01 0.16439600404E+01
 0.16936577609E+01 0.17559729275E+01 0.18309585892E+01 0.19187349638E+01 0.20196674943E+01
 0.21344570340E+01 0.22640772998E+01 0.24095389772E+01 0.25715045886E+01 0.27498059846E+01
 0.29429295929E+01 0.31475462190E+01 0.33581789555E+01 0.35671191266E+01 0.37647015325E+01
 0.39400165775E+01 0.40820511062E+01 0.41811169692E+01 0.42302904645E+01 0.42265172858E+01
 0.41710887941E+01 0.40693590472E+01 0.39297822108E+01 0.44001557184E+01 0.41392452783E+01
 0.38695022328E+01 0.36032085489E+01 0.33489857460E+01 0.31118462790E+01 0.28938690575E+01
 0.26951980271E+01 0.25150582276E+01 0.23525476784E+01 0.22070699643E+01 0.20783981375E+01
 0.19664740804E+01 0.18711115562E+01 0.17917650721E+01 0.17274637492E+01 0.16769272912E+01
 0.16388141415E+01 0.16120142229E+01 0.15958904382E+01 0.15903925684E+01 0.15960107888E+01
 0.16135909228E+01 0.16440789645E+01 0.16882825657E+01 0.17467302888E+01 0.18196817816E+01
 0.19072976616E+01 0.20099205645E+01 0.21283636862E+01 0.22640772998E+01 0.24190865436E+01
 0.25956568311E+01 0.27957150630E+01 0.30201071281E+01 0.32677990740E+01 0.35351419709E+01
 0.38153301839E+01 0.40981923065E+01 0.43704568280E+01 0.46166113481E+01 0.48203936904E+01
 0.49667965052E+01 0.50442643166E+01 0.50466023999E+01 0.49741006776E+01 0.48335428186E+01
 0.46370670230E+01 0.52978516022E+01 0.49321509778E+01 0.45526448785E+01 0.41794513105E+01
 0.38271633757E+01 0.35044072258E+01 0.32145635214E+01 0.29572211204E+01 0.27298585155E+01
 0.25293220413E+01 0.23528281382E+01 0.21984004042E+01 0.20648179849E+01 0.19512678925E+01
 0.18569357933E+01 0.17807312046E+01 0.17212453753E+01 0.16769272912E+01 0.16463802470E+01
 0.16286523045E+01 0.16234147861E+01 0.16309727467E+01 0.16521093542E+01 0.16878199645E+01
 0.17390328537E+01 0.18064298595E+01 0.18904577795E+01 0.19915569059E+01 0.21105438899E+01
 0.22490071074E+01 0.24095389772E+01 0.25956568311E+01 0.28113402995E+01 0.30602095523E+01
 0.33444556063E+01 0.36636917940E+01 0.40139157584E+01 0.43867574823E+01 0.47691604337E+01
 0.51436266328E+01 0.54891558319E+01 0.57829794063E+01 0.60030622813E+01 0.61311010082E+01
 0.61554658384E+01 0.60733745285E+01 0.58916691010E+01 0.56258966308E+01 0.65271902063E+01
 0.60308193328E+01 0.55066399951E+01 0.49863549687E+01 0.44946099613E+01 0.40472576072E+01
 0.36515629765E+01 0.33078991091E+01 0.30121920671E+01 0.27583706806E+01 0.25402858288E+01
 0.23528529355E+01 0.21924276838E+01 0.20566016114E+01 0.19436977007E+01 0.18522567978E+01
 0.17807312046E+01 0.17274637492E+01 0.16908886836E+01 0.16698105005E+01 0.16636201654E+01
 0.16723638339E+01 0.16966431184E+01 0.17373829764E+01 0.17955583475E+01 0.18720122891E+01
 0.19674907290E+01 0.20829398661E+01 0.22199887843E+01 0.23814341715E+01 0.25715045886E+01
 0.27957150630E+01 0.30602095523E+01 0.33706108984E+01 0.37305369434E+01 0.41400574156E+01
 0.45944004385E+01 0.50831406044E+01 0.55899611087E+01 0.60929902535E+01 0.65657445897E+01
 0.69788188156E+01 0.73024859594E+01 0.75101712807E+01 0.75823647666E+01 0.75101441732E+01