   1   1   1   0
  0.3200000E+02  0.3464102E-09  0.3464102E-09  0.3464102E-09  0.5000000E-15
  1.000000000000000E-004
  CAR 
 Fe BCC                                  
     23.40377706     -6.40533649  301      0.09343005      1.00000000
     -6.405  0.0000E+00  0.0000E+00  0.0000E+00  0.0000E+00
     -6.306  0.0000E+00  0.0000E+00  0.0000E+00  0.0000E+00
     -6.207  0.0000E+00  0.0000E+00  0.0000E+00  0.0000E+00
     -6.107  0.0000E+00  0.0000E+00  0.0000E+00  0.0000E+00
     -6.008  0.0000E+00  0.0000E+00  0.0000E+00  0.0000E+00
     -5.909  0.0000E+00  0.0000E+00  0.0000E+00  0.0000E+00
     -5.809  0.0000E+00  0.0000E+00  0.0000E+00  0.0000E+00
     -5.710  0.0000E+00  0.0000E+00  0.0000E+00  0.0000E+00
     -5.610  0.0000E+00  0.0000E+00  0.0000E+00  0.0000E+00
     -5.511  0.0000E+00  0.0000E+00  0.0000E+00  0.0000E+00
     -5.412  0.0000E+00  0.0000E+00  0.0000E+00  0.0000E+00
     -5.312  0.0000E+00  0.0000E+00  0.0000E+00  0.0000E+00
     -5.213  0.0000E+00  0.0000E+00  0.0000E+00  0.0000E+00
     -5.114  0.0000E+00  0.0000E+00  0.0000E+00  0.0000E+00
     -5.014  0.0000E+00  0.0000E+00  0.0000E+00  0.0000E+00
     -4.915  0.0000E+00  0.0000E+00  0.0000E+00  0.0000E+00
     -4.816  0.0000E+00  0.0000E+00  0.0000E+00  0.0000E+00
     -4.716  0.0000E+00  0.0000E+00  0.0000E+00  0.0000E+00
     -4.617  0.0000E+00  0.0000E+00  0.0000E+00  0.0000E+00
     -4.517  0.0000E+00  0.0000E+00  0.0000E+00  0.0000E+00
     -4.418  0.0000E+00  0.0000E+00  0.0000E+00  0.0000E+00
     -4.319  0.3464E-01  0.0000E+00  0.3036E-02  0.0000E+00
     -4.219  0.4844E-01  0.0000E+00  0.7191E-02  0.0000E+00
     -4.120  0.5907E-01  0.3251E-01  0.1256E-01  0.2806E-02
     -4.021  0.7779E-01  0.4528E-01  0.1934E-01  0.6698E-02
     -3.921  0.9344E-01  0.5478E-01  0.2788E-01  0.1170E-01
     -3.822  0.9965E-01  0.6961E-01  0.3773E-01  0.1782E-01
     -3.723  0.1170E+00  0.8177E-01  0.4846E-01  0.2538E-01
     -3.623  0.1373E+00  0.8883E-01  0.6107E-01  0.3390E-01
     -3.524  0.1606E+00  0.8707E-01  0.7584E-01  0.4238E-01
     -3.424  0.1869E+00  0.9452E-01  0.9308E-01  0.5140E-01
     -3.325  0.2329E+00  0.1024E+00  0.1133E+00  0.6118E-01
     -3.226  0.3792E+00  0.1106E+00  0.1431E+00  0.7176E-01
     -3.126  0.1052E+01  0.1192E+00  0.1961E+00  0.8317E-01
     -3.027  0.4135E+01  0.1282E+00  0.4574E+00  0.9546E-01
     -2.928  0.3181E+01  0.1334E+00  0.9308E+00  0.1083E+00
     -2.828  0.3092E+01  0.1405E+00  0.1236E+01  0.1219E+00
     -2.729  0.2232E+01  0.1464E+00  0.1906E+01  0.1362E+00
     -2.630  0.9176E+01  0.1506E+00  0.2541E+01  0.1509E+00
     -2.530  0.1304E+02  0.1563E+00  0.3396E+01  0.1662E+00
     -2.431  0.4473E+01  0.1638E+00  0.4127E+01  0.1821E+00
     -2.331  0.3853E+01  0.1729E+00  0.4522E+01  0.1988E+00
     -2.232  0.4769E+01  0.1828E+00  0.4919E+01  0.2164E+00
     -2.133  0.2026E+00  0.1934E+00  0.5141E+01  0.2351E+00
     -2.033  0.1965E+00  0.2048E+00  0.5160E+01  0.2549E+00
     -1.934  0.1976E+00  0.2167E+00  0.5180E+01  0.2758E+00
     -1.835  0.1993E+00  0.2287E+00  0.5199E+01  0.2979E+00
     -1.735  0.2015E+00  0.2437E+00  0.5219E+01  0.3214E+00
     -1.636  0.2044E+00  0.2663E+00  0.5239E+01  0.3467E+00
     -1.537  0.2018E+00  0.2924E+00  0.5260E+01  0.3744E+00
     -1.437  0.2007E+00  0.3224E+00  0.5280E+01  0.4049E+00
     -1.338  0.1962E+00  0.3611E+00  0.5299E+01  0.4388E+00
     -1.238  0.1933E+00  0.4099E+00  0.5319E+01  0.4770E+00
     -1.139  0.1927E+00  0.4733E+00  0.5338E+01  0.5223E+00
     -1.040  0.1929E+00  0.4940E+00  0.5357E+01  0.5704E+00
     -0.940  0.1947E+00  0.5067E+00  0.5376E+01  0.6201E+00
     -0.841  0.1985E+00  0.6152E+00  0.5396E+01  0.6733E+00
     -0.742  0.2033E+00  0.6130E+00  0.5416E+01  0.7372E+00
     -0.642  0.2092E+00  0.5865E+00  0.5436E+01  0.7970E+00
     -0.543  0.2160E+00  0.5282E+00  0.5457E+01  0.8527E+00
     -0.444  0.2237E+00  0.3876E+00  0.5479E+01  0.8980E+00
     -0.344  0.2352E+00  0.2324E+00  0.5502E+01  0.9309E+00
     -0.245  0.2407E+00  0.4479E+00  0.5526E+01  0.9618E+00
     -0.145  0.2453E+00  0.3166E+01  0.5550E+01  0.1143E+01
     -0.046  0.2501E+00  0.5400E+01  0.5574E+01  0.1598E+01
      0.053  0.2578E+00  0.5869E+01  0.5600E+01  0.2135E+01
      0.153  0.2707E+00  0.4200E+01  0.5626E+01  0.2737E+01
      0.252  0.3037E+00  0.1008E+01  0.5654E+01  0.2907E+01
      0.351  0.3004E+00  0.8291E+00  0.5684E+01  0.2979E+01
      0.451  0.2951E+00  0.7780E+00  0.5713E+01  0.3052E+01
      0.550  0.2877E+00  0.3011E+01  0.5742E+01  0.3170E+01
      0.649  0.2782E+00  0.2810E+01  0.5771E+01  0.3423E+01
      0.749  0.2667E+00  0.3376E+01  0.5798E+01  0.3729E+01
      0.848  0.2415E+00  0.7120E+01  0.5823E+01  0.4357E+01
      0.948  0.2189E+00  0.3022E+01  0.5846E+01  0.4851E+01
      1.047  0.2021E+00  0.1977E+01  0.5867E+01  0.5251E+01
      1.146  0.1914E+00  0.8356E+00  0.5886E+01  0.5382E+01
      1.246  0.1829E+00  0.7316E+00  0.5905E+01  0.5459E+01
      1.345  0.1881E+00  0.6527E+00  0.5923E+01  0.5528E+01
      1.444  0.1839E+00  0.5816E+00  0.5942E+01  0.5589E+01
      1.544  0.1807E+00  0.5469E+00  0.5960E+01  0.5645E+01
      1.643  0.1956E+00  0.4674E+00  0.5979E+01  0.5696E+01
      1.742  0.1456E+00  0.4012E+00  0.5996E+01  0.5739E+01
      1.842  0.1592E+00  0.3503E+00  0.6011E+01  0.5776E+01
      1.941  0.1745E+00  0.3096E+00  0.6028E+01  0.5809E+01
      2.041  0.1821E+00  0.2723E+00  0.6046E+01  0.5837E+01
      2.140  0.1913E+00  0.2442E+00  0.6064E+01  0.5863E+01
      2.239  0.2153E+00  0.2231E+00  0.6084E+01  0.5887E+01
      2.339  0.2365E+00  0.1970E+00  0.6107E+01  0.5907E+01
      2.438  0.3383E+00  0.1973E+00  0.6139E+01  0.5927E+01
      2.537  0.4113E+00  0.2018E+00  0.6176E+01  0.5947E+01
      2.637  0.4122E+00  0.2140E+00  0.6219E+01  0.5967E+01
      2.736  0.3757E+00  0.2072E+00  0.6258E+01  0.5990E+01
      2.835  0.3548E+00  0.2414E+00  0.6294E+01  0.6012E+01
      2.935  0.2667E+00  0.2896E+00  0.6328E+01  0.6038E+01
      3.034  0.2607E+00  0.3522E+00  0.6354E+01  0.6071E+01
      3.134  0.2555E+00  0.4001E+00  0.6380E+01  0.6108E+01
      3.233  0.2511E+00  0.4500E+00  0.6405E+01  0.6151E+01
      3.332  0.2474E+00  0.4588E+00  0.6430E+01  0.6199E+01
      3.432  0.2446E+00  0.4257E+00  0.6454E+01  0.6243E+01
      3.531  0.2426E+00  0.4000E+00  0.6479E+01  0.6286E+01
      3.630  0.2494E+00  0.3207E+00  0.6503E+01  0.6321E+01
      3.730  0.2850E+00  0.2939E+00  0.6533E+01  0.6351E+01
      3.829  0.2825E+00  0.2867E+00  0.6561E+01  0.6379E+01
      3.928  0.2836E+00  0.2806E+00  0.6589E+01  0.6408E+01
      4.028  0.2865E+00  0.2754E+00  0.6617E+01  0.6435E+01
      4.127  0.2908E+00  0.2970E+00  0.6646E+01  0.6463E+01
      4.227  0.2965E+00  0.3250E+00  0.6675E+01  0.6494E+01
      4.326  0.3139E+00  0.3206E+00  0.6707E+01  0.6526E+01
      4.425  0.3224E+00  0.3151E+00  0.6738E+01  0.6558E+01
      4.525  0.3283E+00  0.3132E+00  0.6771E+01  0.6589E+01
      4.624  0.3347E+00  0.3149E+00  0.6803E+01  0.6620E+01
      4.723  0.3346E+00  0.3182E+00  0.6838E+01  0.6652E+01
      4.823  0.3401E+00  0.3346E+00  0.6872E+01  0.6685E+01
      4.922  0.3448E+00  0.3290E+00  0.6906E+01  0.6720E+01
      5.021  0.3659E+00  0.3358E+00  0.6943E+01  0.6753E+01
      5.121  0.3772E+00  0.3431E+00  0.6980E+01  0.6786E+01
      5.220  0.3624E+00  0.3494E+00  0.7016E+01  0.6821E+01
      5.320  0.3612E+00  0.3548E+00  0.7052E+01  0.6856E+01
      5.419  0.3361E+00  0.3591E+00  0.7088E+01  0.6891E+01
      5.518  0.3322E+00  0.3797E+00  0.7121E+01  0.6930E+01
      5.618  0.3340E+00  0.4147E+00  0.7154E+01  0.6968E+01
      5.717  0.3322E+00  0.3769E+00  0.7188E+01  0.7007E+01
      5.816  0.3274E+00  0.3440E+00  0.7221E+01  0.7043E+01
      5.916  0.3245E+00  0.3403E+00  0.7253E+01  0.7077E+01
      6.015  0.3252E+00  0.3366E+00  0.7285E+01  0.7110E+01
      6.114  0.3227E+00  0.3328E+00  0.7318E+01  0.7144E+01
      6.214  0.3194E+00  0.3359E+00  0.7350E+01  0.7177E+01
      6.313  0.3169E+00  0.3267E+00  0.7381E+01  0.7210E+01
      6.413  0.3160E+00  0.3203E+00  0.7413E+01  0.7242E+01
      6.512  0.3151E+00  0.3190E+00  0.7444E+01  0.7274E+01
      6.611  0.3144E+00  0.3147E+00  0.7475E+01  0.7305E+01
      6.711  0.3137E+00  0.3101E+00  0.7506E+01  0.7336E+01
      6.810  0.3142E+00  0.3121E+00  0.7538E+01  0.7368E+01
      6.909  0.3221E+00  0.3104E+00  0.7569E+01  0.7399E+01
      7.009  0.3411E+00  0.3090E+00  0.7602E+01  0.7430E+01
      7.108  0.3329E+00  0.3079E+00  0.7635E+01  0.7460E+01
      7.207  0.3348E+00  0.3075E+00  0.7668E+01  0.7491E+01
      7.307  0.3365E+00  0.3084E+00  0.7702E+01  0.7522E+01
      7.406  0.3392E+00  0.3086E+00  0.7735E+01  0.7552E+01
      7.506  0.3471E+00  0.3109E+00  0.7772E+01  0.7583E+01
      7.605  0.3501E+00  0.3131E+00  0.7806E+01  0.7614E+01
      7.704  0.3563E+00  0.3179E+00  0.7841E+01  0.7645E+01
      7.804  0.3621E+00  0.3574E+00  0.7877E+01  0.7678E+01
      7.903  0.3726E+00  0.3399E+00  0.7914E+01  0.7712E+01
      8.002  0.3789E+00  0.3496E+00  0.7951E+01  0.7749E+01
      8.102  0.3819E+00  0.3568E+00  0.7989E+01  0.7784E+01
      8.201  0.3887E+00  0.3632E+00  0.8028E+01  0.7820E+01
      8.300  0.3780E+00  0.3687E+00  0.8066E+01  0.7856E+01
      8.400  0.3896E+00  0.3793E+00  0.8104E+01  0.7894E+01
      8.499  0.4065E+00  0.3858E+00  0.8143E+01  0.7932E+01
      8.599  0.4491E+00  0.3897E+00  0.8186E+01  0.7970E+01
      8.698  0.4604E+00  0.3973E+00  0.8231E+01  0.8010E+01
      8.797  0.4789E+00  0.3918E+00  0.8278E+01  0.8049E+01
      8.897  0.5130E+00  0.4077E+00  0.8328E+01  0.8089E+01
      8.996  0.5266E+00  0.4255E+00  0.8379E+01  0.8130E+01
      9.095  0.5477E+00  0.4455E+00  0.8433E+01  0.8173E+01
      9.195  0.5765E+00  0.4836E+00  0.8488E+01  0.8221E+01
      9.294  0.6211E+00  0.5101E+00  0.8548E+01  0.8270E+01
      9.393  0.5881E+00  0.5343E+00  0.8608E+01  0.8322E+01
      9.493  0.5755E+00  0.5597E+00  0.8666E+01  0.8377E+01
      9.592  0.5515E+00  0.5717E+00  0.8722E+01  0.8433E+01
      9.692  0.5198E+00  0.5774E+00  0.8776E+01  0.8493E+01
      9.791  0.4628E+00  0.5979E+00  0.8825E+01  0.8551E+01
      9.890  0.3692E+00  0.5911E+00  0.8866E+01  0.8610E+01
      9.990  0.2896E+00  0.5797E+00  0.8899E+01  0.8669E+01
     10.089  0.2724E+00  0.5589E+00  0.8927E+01  0.8725E+01
     10.188  0.2566E+00  0.5259E+00  0.8953E+01  0.8779E+01
     10.288  0.2425E+00  0.4698E+00  0.8978E+01  0.8829E+01
     10.387  0.2370E+00  0.3861E+00  0.9002E+01  0.8872E+01
     10.486  0.2309E+00  0.2879E+00  0.9025E+01  0.8904E+01
     10.586  0.2255E+00  0.2740E+00  0.9048E+01  0.8932E+01
     10.685  0.2218E+00  0.2646E+00  0.9070E+01  0.8959E+01
     10.785  0.2539E+00  0.2575E+00  0.9093E+01  0.8985E+01
     10.884  0.2316E+00  0.2537E+00  0.9115E+01  0.9010E+01
     10.983  0.2264E+00  0.2532E+00  0.9138E+01  0.9035E+01
     11.083  0.1954E+00  0.2513E+00  0.9159E+01  0.9062E+01
     11.182  0.1939E+00  0.2391E+00  0.9178E+01  0.9086E+01
     11.281  0.1931E+00  0.2399E+00  0.9197E+01  0.9109E+01
     11.381  0.1927E+00  0.2488E+00  0.9216E+01  0.9134E+01
     11.480  0.1957E+00  0.2384E+00  0.9235E+01  0.9158E+01
     11.579  0.1981E+00  0.2041E+00  0.9255E+01  0.9180E+01
     11.679  0.2022E+00  0.2054E+00  0.9275E+01  0.9200E+01
     11.778  0.2077E+00  0.2110E+00  0.9295E+01  0.9220E+01
     11.878  0.2114E+00  0.2138E+00  0.9317E+01  0.9242E+01
     11.977  0.2087E+00  0.2168E+00  0.9339E+01  0.9263E+01
     12.076  0.2223E+00  0.2245E+00  0.9360E+01  0.9285E+01
     12.176  0.2368E+00  0.2335E+00  0.9383E+01  0.9308E+01
     12.275  0.4068E+00  0.2445E+00  0.9413E+01  0.9331E+01
     12.374  0.3566E+00  0.2575E+00  0.9455E+01  0.9356E+01
     12.474  0.3411E+00  0.2697E+00  0.9488E+01  0.9382E+01
     12.573  0.3560E+00  0.4206E+00  0.9523E+01  0.9413E+01
     12.672  0.3689E+00  0.3843E+00  0.9559E+01  0.9466E+01
     12.772  0.3890E+00  0.3514E+00  0.9597E+01  0.9504E+01
     12.871  0.4056E+00  0.3391E+00  0.9636E+01  0.9538E+01
     12.971  0.4219E+00  0.3476E+00  0.9677E+01  0.9572E+01
     13.070  0.4477E+00  0.3636E+00  0.9721E+01  0.9607E+01
     13.169  0.4678E+00  0.3813E+00  0.9766E+01  0.9644E+01
     13.269  0.4913E+00  0.3959E+00  0.9814E+01  0.9683E+01
     13.368  0.5176E+00  0.4499E+00  0.9864E+01  0.9725E+01
     13.467  0.5423E+00  0.4704E+00  0.9917E+01  0.9770E+01
     13.567  0.5646E+00  0.4807E+00  0.9972E+01  0.9818E+01
     13.666  0.5941E+00  0.5072E+00  0.1003E+02  0.9867E+01
     13.765  0.6130E+00  0.5342E+00  0.1009E+02  0.9919E+01
     13.865  0.6355E+00  0.5631E+00  0.1015E+02  0.9974E+01
     13.964  0.6362E+00  0.5963E+00  0.1022E+02  0.1003E+02
     14.064  0.6272E+00  0.6131E+00  0.1028E+02  0.1009E+02
     14.163  0.6039E+00  0.6101E+00  0.1034E+02  0.1015E+02
     14.262  0.5741E+00  0.6092E+00  0.1040E+02  0.1021E+02
     14.362  0.4880E+00  0.6011E+00  0.1045E+02  0.1027E+02
     14.461  0.4462E+00  0.5859E+00  0.1050E+02  0.1033E+02
     14.560  0.4537E+00  0.5596E+00  0.1054E+02  0.1039E+02
     14.660  0.4323E+00  0.5930E+00  0.1058E+02  0.1045E+02
     14.759  0.4200E+00  0.5669E+00  0.1063E+02  0.1051E+02
     14.858  0.4446E+00  0.4734E+00  0.1067E+02  0.1056E+02
     14.958  0.4654E+00  0.4427E+00  0.1072E+02  0.1060E+02
     15.057  0.4870E+00  0.4707E+00  0.1076E+02  0.1065E+02
     15.157  0.4947E+00  0.4858E+00  0.1081E+02  0.1070E+02
     15.256  0.5030E+00  0.5113E+00  0.1086E+02  0.1074E+02
     15.355  0.4965E+00  0.5175E+00  0.1091E+02  0.1080E+02
     15.455  0.5092E+00  0.5188E+00  0.1096E+02  0.1085E+02
     15.554  0.5152E+00  0.5039E+00  0.1101E+02  0.1090E+02
     15.653  0.5254E+00  0.5082E+00  0.1107E+02  0.1095E+02
     15.753  0.5371E+00  0.5165E+00  0.1112E+02  0.1100E+02
     15.852  0.5606E+00  0.5069E+00  0.1117E+02  0.1105E+02
     15.951  0.5517E+00  0.5175E+00  0.1123E+02  0.1110E+02
     16.051  0.5280E+00  0.6142E+00  0.1128E+02  0.1115E+02
     16.150  0.4920E+00  0.5484E+00  0.1133E+02  0.1121E+02
     16.250  0.3961E+00  0.5292E+00  0.1138E+02  0.1126E+02
     16.349  0.3816E+00  0.4967E+00  0.1142E+02  0.1131E+02
     16.448  0.3685E+00  0.4008E+00  0.1145E+02  0.1136E+02
     16.548  0.3568E+00  0.3848E+00  0.1149E+02  0.1140E+02
     16.647  0.3473E+00  0.3706E+00  0.1152E+02  0.1144E+02
     16.746  0.3336E+00  0.3582E+00  0.1156E+02  0.1147E+02
     16.846  0.3328E+00  0.3494E+00  0.1159E+02  0.1151E+02
     16.945  0.3119E+00  0.3368E+00  0.1162E+02  0.1154E+02
     17.044  0.2978E+00  0.3263E+00  0.1165E+02  0.1158E+02
     17.144  0.2838E+00  0.3189E+00  0.1168E+02  0.1161E+02
     17.243  0.2872E+00  0.3143E+00  0.1171E+02  0.1164E+02
     17.343  0.2816E+00  0.2904E+00  0.1174E+02  0.1167E+02
     17.442  0.2606E+00  0.3032E+00  0.1177E+02  0.1170E+02
     17.541  0.2065E+00  0.3126E+00  0.1179E+02  0.1173E+02
     17.641  0.1909E+00  0.2278E+00  0.1181E+02  0.1176E+02
     17.740  0.1761E+00  0.2117E+00  0.1183E+02  0.1178E+02
     17.839  0.1623E+00  0.1965E+00  0.1184E+02  0.1180E+02
     17.939  0.1494E+00  0.1820E+00  0.1186E+02  0.1182E+02
     18.038  0.1374E+00  0.1684E+00  0.1187E+02  0.1184E+02
     18.138  0.1284E+00  0.1556E+00  0.1189E+02  0.1185E+02
     18.237  0.1143E+00  0.1436E+00  0.1190E+02  0.1187E+02
     18.336  0.1025E+00  0.1358E+00  0.1191E+02  0.1188E+02
     18.436  0.9297E-01  0.1220E+00  0.1192E+02  0.1190E+02
     18.535  0.8567E-01  0.1099E+00  0.1193E+02  0.1191E+02
     18.634  0.7952E-01  0.9951E-01  0.1194E+02  0.1192E+02
     18.734  0.7437E-01  0.9086E-01  0.1195E+02  0.1193E+02
     18.833  0.5551E-01  0.8704E-01  0.1196E+02  0.1194E+02
     18.932  0.3806E-01  0.6449E-01  0.1196E+02  0.1195E+02
     19.032  0.3553E-01  0.5926E-01  0.1196E+02  0.1195E+02
     19.131  0.3319E-01  0.5656E-01  0.1197E+02  0.1196E+02
     19.231  0.3104E-01  0.3505E-01  0.1197E+02  0.1197E+02
     19.330  0.2902E-01  0.3284E-01  0.1197E+02  0.1197E+02
     19.429  0.2707E-01  0.3069E-01  0.1198E+02  0.1197E+02
     19.529  0.2519E-01  0.2862E-01  0.1198E+02  0.1198E+02
     19.628  0.2339E-01  0.2662E-01  0.1198E+02  0.1198E+02
     19.727  0.2165E-01  0.2469E-01  0.1198E+02  0.1198E+02
     19.827  0.1998E-01  0.2282E-01  0.1199E+02  0.1198E+02
     19.926  0.1839E-01  0.2103E-01  0.1199E+02  0.1199E+02
     20.025  0.1686E-01  0.1931E-01  0.1199E+02  0.1199E+02
     20.125  0.1541E-01  0.1766E-01  0.1199E+02  0.1199E+02
     20.224  0.1403E-01  0.1608E-01  0.1199E+02  0.1199E+02
     20.324  0.5648E-02  0.1457E-01  0.1200E+02  0.1199E+02
     20.423  0.5289E-02  0.1313E-01  0.1200E+02  0.1199E+02
     20.522  0.4941E-02  0.5484E-02  0.1200E+02  0.1200E+02
     20.622  0.4605E-02  0.5085E-02  0.1200E+02  0.1200E+02
     20.721  0.4279E-02  0.4700E-02  0.1200E+02  0.1200E+02
     20.820  0.3964E-02  0.4328E-02  0.1200E+02  0.1200E+02
     20.920  0.3661E-02  0.3971E-02  0.1200E+02  0.1200E+02
     21.019  0.3368E-02  0.3628E-02  0.1200E+02  0.1200E+02
     21.118  0.3087E-02  0.3299E-02  0.1200E+02  0.1200E+02
     21.218  0.2817E-02  0.2983E-02  0.1200E+02  0.1200E+02
     21.317  0.2557E-02  0.2682E-02  0.1200E+02  0.1200E+02
     21.417  0.0000E+00  0.0000E+00  0.1200E+02  0.1200E+02
     21.516  0.0000E+00  0.0000E+00  0.1200E+02  0.1200E+02
     21.615  0.0000E+00  0.0000E+00  0.1200E+02  0.1200E+02
     21.715  0.0000E+00  0.0000E+00  0.1200E+02  0.1200E+02
     21.814  0.0000E+00  0.0000E+00  0.1200E+02  0.1200E+02
     21.913  0.0000E+00  0.0000E+00  0.1200E+02  0.1200E+02
     22.013  0.0000E+00  0.0000E+00  0.1200E+02  0.1200E+02
     22.112  0.0000E+00  0.0000E+00  0.1200E+02  0.1200E+02
     22.211  0.0000E+00  0.0000E+00  0.1200E+02  0.1200E+02
     22.311  0.0000E+00  0.0000E+00  0.1200E+02  0.1200E+02
     22.410  0.0000E+00  0.0000E+00  0.1200E+02  0.1200E+02
     22.510  0.0000E+00  0.0000E+00  0.1200E+02  0.1200E+02
     22.609  0.0000E+00  0.0000E+00  0.1200E+02  0.1200E+02
     22.708  0.0000E+00  0.0000E+00  0.1200E+02  0.1200E+02
     22.808  0.0000E+00  0.0000E+00  0.1200E+02  0.1200E+02
     22.907  0.0000E+00  0.0000E+00  0.1200E+02  0.1200E+02
     23.006  0.0000E+00  0.0000E+00  0.1200E+02  0.1200E+02
     23.106  0.0000E+00  0.0000E+00  0.1200E+02  0.1200E+02
     23.205  0.0000E+00  0.0000E+00  0.1200E+02  0.1200E+02
     23.304  0.0000E+00  0.0000E+00  0.1200E+02  0.1200E+02
     23.404  0.0000E+00  0.0000E+00  0.1200E+02  0.1200E+02
     23.40377706     -6.40533649  301      0.09343005      1.00000000
     -6.405  0.0000E+00  0.0000E+00  0.0000E+00  0.0000E+00  0.0000E+00  0.0000E+00  0.0000E+00  0.0000E+00  0.0000E+00  0.0000E+00  0.0000E+00  0.0000E+00  0.0000E+00  0.0000E+00  0.0000E+00  0.0000E+00  0.0000E+00  0.0000E+00
     -6.306  0.0000E+00  0.0000E+00  0.0000E+00  0.0000E+00  0.0000E+00  0.0000E+00  0.0000E+00  0.0000E+00  0.0000E+00  0.0000E+00  0.0000E+00  0.0000E+00  0.0000E+00  0.0000E+00  0.0000E+00  0.0000E+00  0.0000E+00  0.0000E+00
     -6.207  0.0000E+00  0.0000E+00  0.0000E+00  0.0000E+00  0.0000E+00  0.0000E+00  0.0000E+00  0.0000E+00  0.0000E+00  0.0000E+00  0.0000E+00  0.0000E+00  0.0000E+00  0.0000E+00  0.0000E+00  0.0000E+00  0.0000E+00  0.0000E+00
     -6.107  0.0000E+00  0.0000E+00  0.0000E+00  0.0000E+00  0.0000E+00  0.0000E+00  0.0000E+00  0.0000E+00  0.0000E+00  0.0000E+00  0.0000E+00  0.0000E+00  0.0000E+00  0.0000E+00  0.0000E+00  0.0000E+00  0.0000E+00  0.0000E+00
     -6.008  0.0000E+00  0.0000E+00  0.0000E+00  0.0000E+00  0.0000E+00  0.0000E+00  0.0000E+00  0.0000E+00  0.0000E+00  0.0000E+00  0.0000E+00  0.0000E+00  0.0000E+00  0.0000E+00  0.0000E+00  0.0000E+00  0.0000E+00  0.0000E+00
     -5.909  0.0000E+00  0.0000E+00  0.0000E+00  0.0000E+00  0.0000E+00  0.0000E+00  0.0000E+00  0.0000E+00  0.0000E+00  0.0000E+00  0.0000E+00  0.0000E+00  0.0000E+00  0.0000E+00  0.0000E+00  0.0000E+00  0.0000E+00  0.0000E+00
     -5.809  0.0000E+00  0.0000E+00  0.0000E+00  0.0000E+00  0.0000E+00  0.0000E+00  0.0000E+00  0.0000E+00  0.0000E+00  0.0000E+00  0.0000E+00  0.0000E+00  0.0000E+00  0.0000E+00  0.0000E+00  0.0000E+00  0.0000E+00  0.0000E+00
     -5.710  0.0000E+00  0.0000E+00  0.0000E+00  0.0000E+00  0.0000E+00  0.0000E+00  0.0000E+00  0.0000E+00  0.0000E+00  0.0000E+00  0.0000E+00  0.0000E+00  0.0000E+00  0.0000E+00  0.0000E+00  0.0000E+00  0.0000E+00  0.0000E+00
     -5.610  0.0000E+00  0.0000E+00  0.0000E+00  0.0000E+00  0.0000E+00  0.0000E+00  0.0000E+00  0.0000E+00  0.0000E+00  0.0000E+00  0.0000E+00  0.0000E+00  0.0000E+00  0.0000E+00  0.0000E+00  0.0000E+00  0.0000E+00  0.0000E+00
     -5.511  0.0000E+00  0.0000E+00  0.0000E+00  0.0000E+00  0.0000E+00  0.0000E+00  0.0000E+00  0.0000E+00  0.0000E+00  0.0000E+00  0.0000E+00  0.0000E+00  0.0000E+00  0.0000E+00  0.0000E+00  0.0000E+00  0.0000E+00  0.0000E+00
     -5.412  0.0000E+00  0.0000E+00  0.0000E+00  0.0000E+00  0.0000E+00  0.0000E+00  0.0000E+00  0.0000E+00  0.0000E+00  0.0000E+00  0.0000E+00  0.0000E+00  0.0000E+00  0.0000E+00  0.0000E+00  0.0000E+00  0.0000E+00  0.0000E+00
     -5.312  0.0000E+00  0.0000E+00  0.0000E+00  0.0000E+00  0.0000E+00  0.0000E+00  0.0000E+00  0.0000E+00  0.0000E+00  0.0000E+00  0.0000E+00  0.0000E+00  0.0000E+00  0.0000E+00  0.0000E+00  0.0000E+00  0.0000E+00  0.0000E+00
     -5.213  0.0000E+00  0.0000E+00  0.0000E+00  0.0000E+00  0.0000E+00  0.0000E+00  0.0000E+00  0.0000E+00  0.0000E+00  0.0000E+00  0.0000E+00  0.0000E+00  0.0000E+00  0.0000E+00  0.0000E+00  0.0000E+00  0.0000E+00  0.0000E+00
     -5.114  0.0000E+00  0.0000E+00  0.0000E+00  0.0000E+00  0.0000E+00  0.0000E+00  0.0000E+00  0.0000E+00  0.0000E+00  0.0000E+00  0.0000E+00  0.0000E+00  0.0000E+00  0.0000E+00  0.0000E+00  0.0000E+00  0.0000E+00  0.0000E+00
     -5.014  0.0000E+00  0.0000E+00  0.0000E+00  0.0000E+00  0.0000E+00  0.0000E+00  0.0000E+00  0.0000E+00  0.0000E+00  0.0000E+00  0.0000E+00  0.0000E+00  0.0000E+00  0.0000E+00  0.0000E+00  0.0000E+00  0.0000E+00  0.0000E+00
     -4.915  0.0000E+00  0.0000E+00  0.0000E+00  0.0000E+00  0.0000E+00  0.0000E+00  0.0000E+00  0.0000E+00  0.0000E+00  0.0000E+00  0.0000E+00  0.0000E+00  0.0000E+00  0.0000E+00  0.0000E+00  0.0000E+00  0.0000E+00  0.0000E+00
     -4.816  0.0000E+00  0.0000E+00  0.0000E+00  0.0000E+00  0.0000E+00  0.0000E+00  0.0000E+00  0.0000E+00  0.0000E+00  0.0000E+00  0.0000E+00  0.0000E+00  0.0000E+00  0.0000E+00  0.0000E+00  0.0000E+00  0.0000E+00  0.0000E+00
     -4.716  0.0000E+00  0.0000E+00  0.0000E+00  0.0000E+00  0.0000E+00  0.0000E+00  0.0000E+00  0.0000E+00  0.0000E+00  0.0000E+00  0.0000E+00  0.0000E+00  0.0000E+00  0.0000E+00  0.0000E+00  0.0000E+00  0.0000E+00  0.0000E+00
     -4.617  0.0000E+00  0.0000E+00  0.0000E+00  0.0000E+00  0.0000E+00  0.0000E+00  0.0000E+00  0.0000E+00  0.0000E+00  0.0000E+00  0.0000E+00  0.0000E+00  0.0000E+00  0.0000E+00  0.0000E+00  0.0000E+00  0.0000E+00  0.0000E+00
     -4.517  0.0000E+00  0.0000E+00  0.0000E+00  0.0000E+00  0.0000E+00  0.0000E+00  0.0000E+00  0.0000E+00  0.0000E+00  0.0000E+00  0.0000E+00  0.0000E+00  0.0000E+00  0.0000E+00  0.0000E+00  0.0000E+00  0.0000E+00  0.0000E+00
     -4.418  0.0000E+00  0.0000E+00  0.0000E+00  0.0000E+00  0.0000E+00  0.0000E+00  0.0000E+00  0.0000E+00  0.0000E+00  0.0000E+00  0.0000E+00  0.0000E+00  0.0000E+00  0.0000E+00  0.0000E+00  0.0000E+00  0.0000E+00  0.0000E+00
     -4.319  0.1023E-01  0.0000E+00  0.5545E-04  0.0000E+00  0.3558E-04  0.0000E+00  0.1990E-03  0.0000E+00  0.1049E-03  0.0000E+00  0.3215E-04  0.0000E+00  0.4450E-04  0.0000E+00  0.2351E-04  0.0000E+00  0.5469E-04  0.0000E+00
     -4.219  0.1413E-01  0.0000E+00  0.9916E-04  0.0000E+00  0.5657E-04  0.0000E+00  0.3321E-03  0.0000E+00  0.2241E-03  0.0000E+00  0.8941E-04  0.0000E+00  0.1063E-03  0.0000E+00  0.4955E-04  0.0000E+00  0.1499E-03  0.0000E+00
     -4.120  0.1701E-01  0.8666E-02  0.1436E-03  0.5321E-04  0.7148E-04  0.3379E-04  0.4809E-03  0.1867E-03  0.3786E-03  0.1251E-04  0.1767E-03  0.3872E-05  0.1945E-03  0.3605E-05  0.8288E-04  0.3409E-05  0.2971E-03  0.4712E-05
     -4.021  0.2199E-01  0.1198E-01  0.2301E-03  0.9668E-04  0.1170E-03  0.5504E-04  0.7041E-03  0.3126E-03  0.6962E-03  0.2571E-04  0.4791E-03  0.8429E-05  0.3808E-03  0.7911E-05  0.1835E-03  0.6176E-05  0.5725E-03  0.1064E-04
     -3.921  0.2574E-01  0.1438E-01  0.3225E-03  0.1414E-03  0.1755E-03  0.7106E-04  0.9047E-03  0.4527E-03  0.1209E-02  0.4200E-04  0.1028E-02  0.1440E-04  0.7076E-03  0.1376E-04  0.3887E-03  0.9006E-05  0.1002E-02  0.1915E-04
     -3.822  0.2596E-01  0.1811E-01  0.4119E-03  0.2217E-03  0.2536E-03  0.1122E-03  0.1081E-02  0.6540E-03  0.2028E-02  0.6913E-04  0.2015E-02  0.3164E-04  0.1346E-02  0.2272E-04  0.8292E-03  0.1620E-04  0.2024E-02  0.3242E-04
     -3.723  0.2888E-01  0.2108E-01  0.4969E-03  0.3136E-03  0.3211E-03  0.1705E-03  0.1305E-02  0.8427E-03  0.3760E-02  0.1046E-03  0.2851E-02  0.6241E-04  0.2962E-02  0.3377E-04  0.1336E-02  0.2932E-04  0.3184E-02  0.4960E-04
     -3.623  0.3206E-01  0.2264E-01  0.5862E-03  0.4082E-03  0.3925E-03  0.2395E-03  0.1561E-02  0.1002E-02  0.6021E-02  0.1467E-03  0.3907E-02  0.1052E-03  0.5176E-02  0.4650E-04  0.2015E-02  0.4780E-04  0.4641E-02  0.7019E-04
     -3.524  0.3550E-01  0.2176E-01  0.6798E-03  0.4838E-03  0.4680E-03  0.3172E-03  0.1848E-02  0.1153E-02  0.8812E-02  0.2110E-03  0.5181E-02  0.1582E-03  0.7989E-02  0.7157E-04  0.2865E-02  0.7830E-04  0.6397E-02  0.1181E-03
     -3.424  0.3919E-01  0.2339E-01  0.7776E-03  0.5659E-03  0.5474E-03  0.3786E-03  0.2166E-02  0.1352E-02  0.1213E-01  0.2969E-03  0.6675E-02  0.2011E-03  0.1140E-01  0.1012E-03  0.3887E-02  0.1062E-03  0.8451E-02  0.1598E-03
     -3.325  0.4470E-01  0.2507E-01  0.9633E-03  0.6509E-03  0.7212E-03  0.4419E-03  0.2572E-02  0.1572E-02  0.1781E-01  0.3973E-03  0.1140E-01  0.2507E-03  0.1770E-01  0.1361E-03  0.6639E-02  0.1394E-03  0.1183E-01  0.2076E-03
     -3.226  0.5889E-01  0.2682E-01  0.1396E-02  0.7386E-03  0.1146E-02  0.5072E-03  0.3678E-02  0.1811E-02  0.3774E-01  0.5123E-03  0.2819E-01  0.3072E-03  0.4450E-01  0.1763E-03  0.1442E-01  0.1781E-03  0.2440E-01  0.2614E-03
     -3.126  0.8403E-01  0.2864E-01  0.1834E-02  0.8291E-03  0.1480E-02  0.5744E-03  0.6527E-02  0.2072E-02  0.1144E+00  0.6417E-03  0.6640E-01  0.3704E-03  0.2888E+00  0.2216E-03  0.2827E-01  0.2220E-03  0.1664E+00  0.3212E-03
     -3.027  0.1213E+00  0.3052E-01  0.2799E-02  0.9224E-03  0.2294E-02  0.6436E-03  0.1209E-01  0.2352E-02  0.5158E+00  0.7857E-03  0.2827E+00  0.4404E-03  0.1753E+01  0.2723E-03  0.6248E-01  0.2714E-03  0.6815E+00  0.3872E-03
     -2.928  0.5135E-01  0.3116E-01  0.2691E-02  0.1020E-02  0.2144E-02  0.7531E-03  0.7778E-02  0.2625E-02  0.2642E+00  0.1050E-02  0.4113E+00  0.6620E-03  0.8601E+00  0.3684E-03  0.1456E+00  0.4024E-03  0.1000E+01  0.4826E-03
     -2.828  0.1913E-01  0.3224E-01  0.2212E-02  0.1135E-02  0.8494E-03  0.8738E-03  0.6591E-02  0.2917E-02  0.2087E+00  0.1360E-02  0.4531E+00  0.9192E-03  0.4233E+00  0.4864E-03  0.4880E+00  0.5252E-03  0.1162E+01  0.6192E-03
     -2.729  0.2052E-02  0.3294E-01  0.9406E-03  0.1236E-02  0.5512E-03  0.9933E-03  0.9776E-03  0.3202E-02  0.3720E+00  0.1710E-02  0.2574E+00  0.1211E-02  0.6017E+00  0.6273E-03  0.4394E+00  0.6592E-03  0.3834E+00  0.7938E-03
     -2.630  0.3952E-01  0.3322E-01  0.5564E-02  0.1301E-02  0.1012E-01  0.1089E-02  0.7646E-02  0.3459E-02  0.1104E+01  0.2146E-02  0.1548E+01  0.1520E-02  0.1613E+01  0.7974E-03  0.1513E+01  0.8082E-03  0.2617E+01  0.9966E-03
     -2.530  0.5344E-01  0.3380E-01  0.6250E-02  0.1376E-02  0.5555E-02  0.1185E-02  0.3287E-02  0.3730E-02  0.2869E+01  0.2687E-02  0.2132E+01  0.1853E-02  0.2734E+01  0.9980E-03  0.1468E+01  0.9692E-03  0.2977E+01  0.1217E-02
     -2.431  0.2492E-01  0.3478E-01  0.4349E-02  0.1462E-02  0.4810E-02  0.1280E-02  0.2667E-02  0.4021E-02  0.1404E+01  0.3365E-02  0.7656E+00  0.2213E-02  0.5509E+00  0.1238E-02  0.1056E+01  0.1139E-02  0.3595E+00  0.1454E-02
     -2.331  0.2751E-01  0.3607E-01  0.4150E-02  0.1557E-02  0.3973E-02  0.1371E-02  0.4231E-02  0.4343E-02  0.7853E+00  0.4219E-02  0.1312E+01  0.2629E-02  0.1635E+00  0.1530E-02  0.1131E+01  0.1320E-02  0.1634E+00  0.1711E-02
     -2.232  0.2657E-01  0.3744E-01  0.3509E-02  0.1654E-02  0.2150E-02  0.1464E-02  0.5315E-02  0.4685E-02  0.6696E+00  0.5213E-02  0.1979E+01  0.3107E-02  0.2661E-01  0.1867E-02  0.1713E+01  0.1520E-02  0.8331E-01  0.1988E-02
     -2.133  0.2004E-01  0.3891E-01  0.1420E-02  0.1753E-02  0.9432E-03  0.1558E-02  0.3003E-02  0.5048E-02  0.3649E-01  0.6345E-02  0.3211E-01  0.3646E-02  0.5630E-02  0.2249E-02  0.2927E-01  0.1737E-02  0.1597E-01  0.2286E-02
     -2.033  0.2155E-01  0.4047E-01  0.1560E-02  0.1855E-02  0.1071E-02  0.1653E-02  0.3303E-02  0.5430E-02  0.3391E-01  0.7617E-02  0.2789E-01  0.4248E-02  0.5382E-02  0.2675E-02  0.2561E-01  0.1974E-02  0.1506E-01  0.2604E-02
     -1.934  0.2344E-01  0.4187E-01  0.1737E-02  0.1949E-02  0.1194E-02  0.1747E-02  0.3680E-02  0.5836E-02  0.3297E-01  0.9045E-02  0.2541E-01  0.5274E-02  0.5250E-02  0.3169E-02  0.2343E-01  0.2304E-02  0.1448E-01  0.2960E-02
     -1.835  0.2536E-01  0.4241E-01  0.1917E-02  0.2024E-02  0.1316E-02  0.1852E-02  0.4070E-02  0.6278E-02  0.3201E-01  0.1097E-01  0.2316E-01  0.7039E-02  0.5133E-02  0.3990E-02  0.2142E-01  0.2981E-02  0.1395E-01  0.3867E-02
     -1.735  0.2730E-01  0.4348E-01  0.2102E-02  0.2102E-02  0.1438E-02  0.1974E-02  0.4474E-02  0.6700E-02  0.3104E-01  0.1324E-01  0.2116E-01  0.9246E-02  0.5032E-02  0.4932E-02  0.1957E-01  0.3748E-02  0.1346E-01  0.4724E-02
     -1.636  0.2926E-01  0.4553E-01  0.2291E-02  0.2235E-02  0.1559E-02  0.2153E-02  0.4892E-02  0.7175E-02  0.3005E-01  0.1661E-01  0.1939E-01  0.1252E-01  0.4946E-02  0.6262E-02  0.1789E-01  0.4648E-02  0.1301E-01  0.5812E-02
     -1.537  0.3039E-01  0.4782E-01  0.2451E-02  0.2363E-02  0.1679E-02  0.2329E-02  0.5212E-02  0.7672E-02  0.2832E-01  0.2068E-01  0.1774E-01  0.1663E-01  0.4410E-02  0.7869E-02  0.1623E-01  0.5659E-02  0.1121E-01  0.7072E-02
     -1.437  0.3173E-01  0.5040E-01  0.2604E-02  0.2470E-02  0.1767E-02  0.2476E-02  0.5585E-02  0.8198E-02  0.2623E-01  0.2598E-01  0.1591E-01  0.2131E-01  0.4286E-02  0.9921E-02  0.1421E-01  0.6779E-02  0.1072E-01  0.8452E-02