    1    1    1    2
  0.3200000E+02  0.3464102E-09  0.3464102E-09  0.3464102E-09  0.5000000E-15
  1.000000000000000E-004
  CAR 
 Fe BCC                                  
      8     26     12
 
  0.6250000E-01  0.6250000E-01  0.6250000E-01  0.1562500E-01
    1       -4.110411     -3.900541   1.000000   1.000000
    2       -2.672461      0.104922   1.000000   0.461561
    3       -2.672461      0.104922   1.000000   0.170610
    4       -2.590017      0.314797   1.000000   0.000000
    5       -2.590017      0.940749   1.000000   0.000000
    6       -2.516000      0.940749   1.000000   0.000000
    7        9.894947     10.715248   0.000000   0.000000
    8       10.804857     11.240616   0.000000   0.000000
    9       10.804857     11.240616   0.000000   0.000000
   10       14.382134     14.818069   0.000000   0.000000
   11       14.382134     14.818069   0.000000   0.000000
   12       15.730851     15.270586   0.000000   0.000000
 
  0.1875000E+00  0.6250000E-01  0.6250000E-01  0.4687500E-01
    1       -3.347436     -3.022618   1.000000   1.000000
    2       -2.732678     -0.010027   1.000000   1.032358
    3       -2.690772      0.049612   1.000000   0.966733
    4       -2.578261      0.571772   1.000000   0.000000
    5       -2.554784      0.880270   1.000000   0.000000
    6       -2.259554      0.969533   1.000134   0.000000
    7        6.739858      7.347054   0.000000   0.000000
    8        8.823850      9.395126   0.000000   0.000000
    9        9.499003      9.868713   0.000000   0.000000
   10       14.104411     14.517728   0.000000   0.000000
   11       14.289955     14.560159   0.000000   0.000000
   12       15.924537     16.016415   0.000000   0.000000
 
  0.3125000E+00  0.6250000E-01  0.6250000E-01  0.4687500E-01
    1       -3.047542     -1.736249   1.000000   1.000000
    2       -2.783900     -0.117578   1.000000   1.001789
    3       -2.573918      0.037915   1.000000   0.867109
    4       -2.543263      0.858137   1.000000   0.000000
    5       -2.341120      0.897352   1.000000   0.000000
    6       -1.255992      0.997024   1.067742   0.000000
    7        3.529683      4.226177   0.000000   0.000000
    8        7.773623      8.328049   0.000000   0.000000
    9        8.659776      9.005416   0.000000   0.000000
   10       13.569478     13.843304   0.000000   0.000000
   11       13.658908     14.047590   0.000000   0.000000
   12       17.352244     17.617783   0.000000   0.000000
 
  0.4375000E+00  0.6250000E-01  0.6250000E-01  0.2343750E-01
    1       -3.063515     -0.966098   1.000000   1.000000
    2       -2.804094     -0.160452   1.000000   1.000000
    3       -2.572680      0.237658   1.000000   0.081659
    4       -2.519525      0.863487   1.000000   0.000000
    5       -2.230094      1.008692   1.000000   0.000000
    6        0.763147      1.304325   0.155849   0.000000
    7        0.874502      2.346633   0.000000   0.000000
    8        7.412306      7.942935   0.000000   0.000000
    9        8.372944      8.709370   0.000000   0.000000
   10       13.376963     13.613663   0.000000   0.000000
   11       13.425554     13.871002   0.000000   0.000000
   12       18.745069     19.141189   0.000000   0.000000
 
 -0.6250000E-01  0.6250000E-01  0.6250000E-01  0.1171875E-01
    1       -4.405336     -4.202337   1.000000   1.000000
    2       -2.632330      0.155880   1.000000  -0.140175
    3       -2.632329      0.155882   1.000000  -0.010135
    4       -2.619261      0.182271   1.000000   0.000000
    5       -2.609088      0.927781   1.000000   0.000000
    6       -2.582462      0.978839   1.000000   0.000000
    7       11.849044     12.729697   0.000000   0.000000
    8       11.916672     12.729699   0.000000   0.000000
    9       11.916678     12.750351   0.000000   0.000000
   10       13.739135     13.519945   0.000000   0.000000
   11       14.802323     14.721179   0.000000   0.000000
   12       14.802325     14.721180   0.000000   0.000000
 
  0.1875000E+00  0.1875000E+00  0.6250000E-01  0.4687500E-01
    1       -2.899410     -1.946397   1.000000   1.000000
    2       -2.790881     -0.091162   1.000000   1.002000
    3       -2.641739     -0.082257   1.000000   1.043329
    4       -2.542012      0.884335   1.000000   0.000000
    5       -2.539075      0.906231   1.000000   0.000000
    6       -1.452773      1.010936   1.062592   0.000000
    7        5.136278      5.776817   0.000000   0.000000
    8        6.112544      6.584010   0.000000   0.000000
    9        8.098868      8.534261   0.000000   0.000000
   10       15.297755     15.534569   0.000000   0.000000
   11       15.425222     15.864068   0.000000   0.000000
   12       17.220662     17.428812   0.000000   0.000000
 
  0.3125000E+00  0.1875000E+00  0.6250000E-01  0.9375000E-01
    1       -2.913473     -0.828359   1.000000   1.000000
    2       -2.789496     -0.171471   1.000000   1.000000
    3       -2.612217     -0.075478   1.000000   1.026137
    4       -2.513623      0.896247   1.000000   0.000000
    5       -2.401471      0.981087   1.000000   0.000000
    6        0.235632      1.592493   0.332866   0.000000
    7        2.595441      3.328778   0.000000   0.000000
    8        5.089521      5.617504   0.000000   0.000000
    9        7.502635      7.939947   0.000000   0.000000
   10       14.969987     15.250522   0.000000   0.000000
   11       16.783894     17.250279   0.000000   0.000000
   12       17.502650     17.600158   0.000000   0.000000
 
 -0.1875000E+00  0.1875000E+00  0.6250000E-01  0.4687500E-01
    1       -3.828723     -3.601705   1.000000   1.000000
    2       -2.679881      0.083176   1.000000   0.775013
    3       -2.672585      0.143229   1.000000  -0.025327
    4       -2.577547      0.348963   1.000000   0.000000
    5       -2.564162      0.839386   1.000000   0.000000
    6       -2.500105      0.996248   1.000000   0.000000
    7        8.514439      9.108581   0.000000   0.000000
    8       10.312547     10.986320   0.000000   0.000000
    9       11.007505     11.521779   0.000000   0.000000
   10       13.012664     13.321535   0.000000   0.000000
   11       13.776679     13.911037   0.000000   0.000000
   12       14.540990     14.576073   0.000000   0.000000
 
  0.3125000E+00  0.3125000E+00  0.6250000E-01  0.1562500E-01
    1       -2.843619     -0.407182   1.000000   1.000000
    2       -2.720836     -0.162352   1.000000   1.000000
    3       -2.720835     -0.162351   1.000000   1.015593
    4       -2.459853      0.941296   1.000000   0.000000
    5       -2.459851      0.941297   1.000000   0.000000
    6        1.737944      2.763357  -0.043664   0.000000
    7        2.670367      3.301250   0.000000   0.000000
    8        2.670372      3.301251   0.000000   0.000000
    9        7.205419      7.660702   0.000000   0.000000
   10       16.735614     16.920321   0.000000   0.000000
   11       16.920009     16.920322   0.000000   0.000000
   12       16.920013     17.566105   0.000000   0.000000
 
 -0.3125000E+00  0.3125000E+00  0.6250000E-01  0.4687500E-01
    1       -3.142925     -2.470517   1.000000   1.000000
    2       -2.735501     -0.028653   1.000000   1.033986
    3       -2.659012      0.107718   1.000000   0.389607
    4       -2.542064      0.621663   1.000000   0.000000
    5       -2.314186      0.793883   1.000000   0.000000
    6       -2.120600      1.009886   1.009851   0.000000
    7        5.040655      5.668552   0.000000   0.000000
    8        8.978040      9.571046   0.000000   0.000000
    9        9.984125     10.377050   0.000000   0.000000
   10       12.754307     13.050734   0.000000   0.000000
   11       12.840844     13.170462   0.000000   0.000000
   12       15.083175     15.238401   0.000000   0.000000
 
 -0.1875000E+00  0.3125000E+00  0.6250000E-01  0.4687500E-01
    1       -3.170973     -2.735124   1.000000   1.000000
    2       -2.771882      0.056514   1.000000   0.928411
    3       -2.642074      0.083192   1.000000   0.566337
    4       -2.561352      0.560093   1.000000   0.000000
    5       -2.482054      0.739958   1.000000   0.000000
    6       -2.214267      1.024169   1.001825   0.000000
    7        6.726394      7.371875   0.000000   0.000000
    8        7.489907      7.945714   0.000000   0.000000
    9       10.565381     11.217401   0.000000   0.000000
   10       12.460837     12.583915   0.000000   0.000000
   11       13.314357     13.591668   0.000000   0.000000
   12       16.240645     16.437417   0.000000   0.000000
 
 -0.4375000E+00  0.4375000E+00  0.6250000E-01  0.4687500E-01
    1       -3.092701     -1.228176   1.000000   1.000000
    2       -2.779721     -0.106605   1.000000   1.009374
    3       -2.612910      0.264382   1.000000  -0.143561
    4       -2.526279      0.809150   1.000000   0.000000
    5       -2.173092      0.839127   1.000000   0.000000
    6       -0.415119      1.084327   0.920553   0.000000
    7        2.034066      2.956536   0.000000   0.000000
    8        8.242568      8.766053   0.000000   0.000000
    9        9.421334      9.766541   0.000000   0.000000
   10       12.376759     12.628725   0.000000   0.000000
   11       12.498425     12.957891   0.000000   0.000000
   12       16.578806     16.772393   0.000000   0.000000
 
 -0.3125000E+00  0.4375000E+00  0.6250000E-01  0.9375000E-01
    1       -2.979319     -1.481327   1.000000   1.000000
    2       -2.784400     -0.032213   1.000000   1.025635
    3       -2.668941      0.048650   1.000000   0.827844
    4       -2.513693      0.737138   1.000000   0.000000
    5       -2.301126      0.824102   1.000000   0.000000
    6       -0.985667      1.130892   1.021579   0.000000
    7        3.799032      4.468102   0.000000   0.000000
    8        6.252098      6.762251   0.000000   0.000000
    9        9.936151     10.451730   0.000000   0.000000
   10       12.365295     12.613057   0.000000   0.000000
   11       13.826840     14.151167   0.000000   0.000000
   12       16.170293     16.417324   0.000000   0.000000
 
 -0.4375000E+00 -0.4375000E+00  0.6250000E-01  0.4687500E-01
    1       -3.007940     -0.752190   1.000000   1.000000
    2       -2.753276     -0.070601   1.000000   1.004105
    3       -2.697647      0.124765   1.000000   0.350118
    4       -2.502013      0.766768   1.000000   0.000000
    5       -2.216686      0.884651   1.000000   0.000000
    6        1.069733      1.799715  -0.010371   0.000000
    7        1.153657      2.422874   0.000000   0.000000
    8        5.902709      6.404774   0.000000   0.000000
    9        9.661984     10.132959   0.000000   0.000000
   10       12.220731     12.523562   0.000000   0.000000
   11       15.133584     15.722321   0.000000   0.000000
   12       15.834879     15.848926   0.000000   0.000000
 
 -0.3125000E+00 -0.4375000E+00  0.6250000E-01  0.4687500E-01
    1       -2.858685     -0.539831   1.000000   1.000000
    2       -2.853494     -0.084703   1.000000   1.004868
    3       -2.737151     -0.018509   1.000000   1.075444
    4       -2.417770      0.768864   1.000000   0.000000
    5       -2.313692      0.852400   1.000000   0.000000
    6        0.789248      1.961112   0.063136   0.000000
    7        2.928510      3.633258   0.000000   0.000000
    8        3.608972      4.199211   0.000000   0.000000
    9        9.876609     10.408744   0.000000   0.000000
   10       13.348916     13.443701   0.000000   0.000000
   11       13.525003     13.940809   0.000000   0.000000
   12       15.470400     15.767130   0.000000   0.000000
 
  0.1875000E+00  0.1875000E+00  0.1875000E+00  0.1562500E-01
    1       -2.778130     -0.886965   1.000000   1.000000
    2       -2.778130     -0.198580   1.000000   1.000000
    3       -2.601765     -0.198580   1.000000   1.003977
    4       -2.553465      0.982291   1.000000   0.000000
    5       -2.553465      0.982291   1.000000   0.000000
    6       -0.040074      1.509346   0.508356   0.000000
    7        3.939920      4.557885   0.000000   0.000000
    8        5.243655      5.736113   0.000000   0.000000
    9        5.243655      5.736113   0.000000   0.000000
   10       18.393583     18.782378   0.000000   0.000000
   11       18.393583     19.098301   0.000000   0.000000
   12       19.232839     19.098301   0.000000   0.000000
 
  0.3125000E+00  0.1875000E+00  0.1875000E+00  0.2343750E-01
    1       -2.774134     -0.384072   1.000000   1.000000
    2       -2.761630     -0.238689   1.000000   1.000000
    3       -2.569348     -0.182709   1.000000   1.008574
    4       -2.568054      0.985179   1.000000   0.000000
    5       -2.540768      1.015475   1.000000   0.000000
    6        1.630455      2.643373  -0.039915   0.000000
    7        2.341619      2.974362   0.000000   0.000000
    8        4.272329      4.822418   0.000000   0.000000
    9        4.948864      5.448664   0.000000   0.000000
   10       18.767660     18.911480   0.000000   0.000000
   11       18.835162     19.215035   0.000000   0.000000
   12       20.228226     20.447355   0.000000   0.000000
 
 -0.1875000E+00  0.1875000E+00  0.1875000E+00  0.1171875E-01
    1       -3.328321     -3.012474   1.000000   1.000000
    2       -2.751405      0.186980   1.000000  -0.099114
    3       -2.581778      0.186981   1.000000  -0.076975
    4       -2.581777      0.360512   1.000000   0.000000
    5       -2.498339      0.645512   1.000000   0.000000
    6       -2.432610      1.038619   1.000000   0.000000
    7        8.737423      9.302524   0.000000   0.000000
    8        8.737430      9.302524   0.000000   0.000000
    9        8.868265      9.631113   0.000000   0.000000
   10       10.681330     10.698672   0.000000   0.000000
   11       15.912919     16.099157   0.000000   0.000000
   12       15.912919     16.099157   0.000000   0.000000
 
 -0.3125000E+00  0.3125000E+00  0.1875000E+00  0.4687500E-01
    1       -2.966701     -1.918036   1.000000   1.000000
    2       -2.836463      0.149784   1.000000   0.286602
    3       -2.602195      0.174418   1.000000  -0.054672
    4       -2.523447      0.548829   1.000000   0.000000
    5       -2.333247      0.593448   1.000000   0.000000
    6       -1.617744      1.071174   1.032664   0.000000
    7        5.562407      6.163193   0.000000   0.000000
    8        7.445494      7.950865   0.000000   0.000000
    9        8.553022      9.124270   0.000000   0.000000
   10       10.792736     11.073369   0.000000   0.000000
   11       15.319316     15.572450   0.000000   0.000000
   12       15.773103     16.049993   0.000000   0.000000
 
 -0.4375000E+00  0.4375000E+00  0.1875000E+00  0.4687500E-01
    1       -3.008184     -0.776019   1.000000   1.000000
    2       -2.816017      0.090017   1.000000   0.916725
    3       -2.634494      0.094507   1.000000   0.229567
    4       -2.503422      0.617059   1.000000   0.000000
    5       -2.186772      0.818630   1.000000   0.000000
    6        0.169171      1.500101   0.419406   0.000000
    7        2.604754      3.368917   0.000000   0.000000
    8        6.736673      7.184808   0.000000   0.000000
    9        8.147513      8.694390   0.000000   0.000000
   10       12.255989     12.670087   0.000000   0.000000
   11       14.537958     14.830178   0.000000   0.000000
   12       14.813058     15.078152   0.000000   0.000000
 
 -0.3125000E+00  0.4375000E+00  0.1875000E+00  0.4687500E-01
    1       -2.942635     -0.830550   1.000000   1.000000
    2       -2.923224      0.064195   1.000000   0.898168
    3       -2.595009      0.195286   1.000000  -0.050417
    4       -2.418966      0.554694   1.000000   0.000000
    5       -2.260816      0.749383   1.000000   0.000000
    6       -0.154518      1.384486   0.587254   0.000000
    7        4.362885      4.992020   0.000000   0.000000
    8        5.017110      5.518550   0.000000   0.000000
    9        9.036621      9.741225   0.000000   0.000000
   10       10.395280     10.596489   0.000000   0.000000
   11       14.255687     14.571957   0.000000   0.000000
   12       15.144207     15.370159   0.000000   0.000000
 
 -0.4375000E+00 -0.4375000E+00  0.1875000E+00  0.4687500E-01
    1       -2.986459     -0.251558   1.000000   1.000000
    2       -2.916374     -0.027388   1.000000   1.006235
    3       -2.615564      0.112711   1.000000   0.187668
    4       -2.369064      0.632312   1.000000   0.000000
    5       -2.215216      0.803666   1.000000   0.000000
    6        1.726740      2.762039  -0.062402   0.000000
    7        2.192980      2.787998   0.000000   0.000000
    8        4.429133      4.954885   0.000000   0.000000
    9        9.157384      9.788949   0.000000   0.000000
   10       11.539808     11.986243   0.000000   0.000000
   11       12.285714     12.414563   0.000000   0.000000
   12       14.758396     15.014333   0.000000   0.000000
 
 -0.3125000E+00  0.3125000E+00  0.3125000E+00  0.1171875E-01
    1       -2.968915     -0.981213   1.000000   1.000000
    2       -2.964064      0.207373   1.000000  -0.004077
    3       -2.425407      0.390126   1.000000  -0.017673
    4       -2.425405      0.390128   1.000000   0.000000
    5       -2.330335      0.609176   1.000000   0.000000
    6       -0.496331      1.217051   0.796008   0.000000
    7        6.142938      6.573371   0.000000   0.000000
    8        6.142945      6.573372   0.000000   0.000000
    9        6.806597      7.672507   0.000000   0.000000
   10        8.760542      9.035335   0.000000   0.000000
   11       14.226225     14.541632   0.000000   0.000000
   12       18.483478     18.775859   0.000000   0.000000
 
 -0.4375000E+00  0.4375000E+00  0.3125000E+00  0.4687500E-01
    1       -3.051022     -0.269053   1.000000   1.000000
    2       -3.016520     -0.011628   1.000000   1.018741
    3       -2.407051      0.436021   1.000000  -0.018690
    4       -2.356020      0.526935   1.000000   0.000000
    5       -2.205879      0.790263   1.000000   0.000000
    6        1.276759      2.157107  -0.024474   0.000000
    7        3.699314      4.255132   0.000000   0.000000
    8        5.418386      5.770246   0.000000   0.000000
    9        7.017948      7.804577   0.000000   0.000000
   10        9.263061      9.634975   0.000000   0.000000
   11       11.468018     11.776725   0.000000   0.000000
   12       18.043146     18.262243   0.000000   0.000000
 
 -0.4375000E+00 -0.4375000E+00  0.3125000E+00  0.1562500E-01
    1       -3.077321     -0.103845   1.000000   1.000000
    2       -3.077321     -0.103845   1.000000   1.004478
    3       -2.384847      0.436365   1.000000  -0.015796
    4       -2.226104      0.752526   1.000000   0.000000
    5       -2.226102      0.752529   1.000000   0.000000
    6        2.819158      3.578308  -0.012401   0.000000
    7        3.634196      4.052900   0.000000   0.000000
    8        3.634203      4.052902   0.000000   0.000000
    9        7.575582      8.443426   0.000000   0.000000
   10        9.382257      9.672904   0.000000   0.000000
   11        9.382259      9.672904   0.000000   0.000000
   12       18.086866     18.312832   0.000000   0.000000
 
 -0.4375000E+00  0.4375000E+00  0.4375000E+00  0.1171875E-01
    1       -3.133645     -0.174642   1.000000   1.000000
    2       -3.126369     -0.123184   1.000000   1.009676
    3       -2.232076      0.732731   1.000000   0.000000
    4       -2.232074      0.732733   1.000000   0.000000
    5       -2.213547      0.782337   1.000000   0.000000
    6        2.921991      3.458649  -0.010766   0.000000
    7        4.673913      4.913238   0.000000   0.000000
    8        4.673920      4.913240   0.000000   0.000000
    9        5.687002      6.730012   0.000000   0.000000
   10        7.861289      8.318841   0.000000   0.000000
   11        8.892646      9.271105   0.000000   0.000000
   12       21.403777     21.366523   0.000000   0.000000
