<?xml version="1.0" encoding="ISO-8859-1"?>
<modeling>
 <generator>
  <i name="program" type="string">vasp </i>
  <i name="version" type="string">5.4.1  </i>
  <i name="subversion" type="string">24Jun15 (build Jul 19 2016 16:50:41) complex                          parallel </i>
  <i name="platform" type="string">IFC91_ompi </i>
  <i name="date" type="string">2019 10 17 </i>
  <i name="time" type="string">11:29:12 </i>
 </generator>
 <incar>
  <i type="string" name="SYSTEM"> Fe BCC</i>
  <i type="string" name="PREC">accurate</i>
  <i type="int" name="ISPIN">     2</i>
  <i name="EDIFF">      0.00000100</i>
  <i name="ENMAX">    400.00000000</i>
  <v name="MAGMOM">      4.00000000</v>
  <i type="int" name="ISMEAR">    -5</i>
  <i type="logical" name="LORBIT"> F  </i>
  <v type="int" name="KPOINT_BSE">    -1     0     0     0</v>
 </incar>
 <kpoints>
  <generation param="Monkhorst-Pack">
   <v type="int" name="divisions">       8        8        8 </v>
   <v name="usershift">      0.00000000       0.00000000       0.00000000 </v>
   <v name="genvec1">      0.12500000       0.00000000       0.00000000 </v>
   <v name="genvec2">      0.00000000       0.12500000       0.00000000 </v>
   <v name="genvec3">      0.00000000       0.00000000       0.12500000 </v>
   <v name="shift">      0.50000000       0.50000000       0.50000000 </v>
  </generation>
  <varray name="kpointlist" >
   <v>       0.06250000       0.06250000       0.06250000 </v>
   <v>       0.18750000       0.06250000       0.06250000 </v>
   <v>       0.31250000       0.06250000       0.06250000 </v>
   <v>       0.43750000       0.06250000       0.06250000 </v>
   <v>      -0.06250000       0.06250000       0.06250000 </v>
   <v>       0.18750000       0.18750000       0.06250000 </v>
   <v>       0.31250000       0.18750000       0.06250000 </v>
   <v>      -0.18750000       0.18750000       0.06250000 </v>
   <v>       0.31250000       0.31250000       0.06250000 </v>
   <v>      -0.31250000       0.31250000       0.06250000 </v>
   <v>      -0.18750000       0.31250000       0.06250000 </v>
   <v>      -0.43750000       0.43750000       0.06250000 </v>
   <v>      -0.31250000       0.43750000       0.06250000 </v>
   <v>      -0.43750000      -0.43750000       0.06250000 </v>
   <v>      -0.31250000      -0.43750000       0.06250000 </v>
   <v>       0.18750000       0.18750000       0.18750000 </v>
   <v>       0.31250000       0.18750000       0.18750000 </v>
   <v>      -0.18750000       0.18750000       0.18750000 </v>
   <v>      -0.31250000       0.31250000       0.18750000 </v>
   <v>      -0.43750000       0.43750000       0.18750000 </v>
   <v>      -0.31250000       0.43750000       0.18750000 </v>
   <v>      -0.43750000      -0.43750000       0.18750000 </v>
   <v>      -0.31250000       0.31250000       0.31250000 </v>
   <v>      -0.43750000       0.43750000       0.31250000 </v>
   <v>      -0.43750000      -0.43750000       0.31250000 </v>
   <v>      -0.43750000       0.43750000       0.43750000 </v>
  </varray>
  <varray name="weights" >
   <v>       0.01562500 </v>
   <v>       0.04687500 </v>
   <v>       0.04687500 </v>
   <v>       0.02343750 </v>
   <v>       0.01171875 </v>
   <v>       0.04687500 </v>
   <v>       0.09375000 </v>
   <v>       0.04687500 </v>
   <v>       0.01562500 </v>
   <v>       0.04687500 </v>
   <v>       0.04687500 </v>
   <v>       0.04687500 </v>
   <v>       0.09375000 </v>
   <v>       0.04687500 </v>
   <v>       0.04687500 </v>
   <v>       0.01562500 </v>
   <v>       0.02343750 </v>
   <v>       0.01171875 </v>
   <v>       0.04687500 </v>
   <v>       0.04687500 </v>
   <v>       0.04687500 </v>
   <v>       0.04687500 </v>
   <v>       0.01171875 </v>
   <v>       0.04687500 </v>
   <v>       0.01562500 </v>
   <v>       0.01171875 </v>
  </varray>
  <varray name="tetrahedronlist"  type="int" >
   <v type="int" >        4        1        2        2        6 </v>
   <v type="int" >        8        2        2        6        6 </v>
   <v type="int" >        4        2        6        6       16 </v>
   <v type="int" >        4        2        3        6        7 </v>
   <v type="int" >        4        2        6        6        7 </v>
   <v type="int" >       12        6        6        7       16 </v>
   <v type="int" >        8        3        6        7        7 </v>
   <v type="int" >        8        6        7        7       17 </v>
   <v type="int" >        8        6        7       16       17 </v>
   <v type="int" >        4        3        4        7        7 </v>
   <v type="int" >        4        3        7        7        7 </v>
   <v type="int" >       16        7        7        7       17 </v>
   <v type="int" >        8        4        7        7        7 </v>
   <v type="int" >        4        7        7        7       16 </v>
   <v type="int" >       20        7        7       16       17 </v>
   <v type="int" >        4        3        4        6        7 </v>
   <v type="int" >        4        4        6        7        7 </v>
   <v type="int" >       16        6        7        7       16 </v>
   <v type="int" >        8        3        6        6        7 </v>
   <v type="int" >        4        6        6        6        7 </v>
   <v type="int" >        4        2        2        3        6 </v>
   <v type="int" >        8        2        3        6        6 </v>
   <v type="int" >        4        2        6        6        6 </v>
   <v type="int" >        4        2        2        2        6 </v>
   <v type="int" >        8        2        2        6       11 </v>
   <v type="int" >        4        2        6        6       11 </v>
   <v type="int" >       16        1        2        2        8 </v>
   <v type="int" >        4        2        2        2        8 </v>
   <v type="int" >       12        2        2        8       11 </v>
   <v type="int" >       16        1        2        8        8 </v>
   <v type="int" >        4        2        8        8       18 </v>
   <v type="int" >        4        2        8       11       18 </v>
   <v type="int" >       20        1        5        8        8 </v>
   <v type="int" >        4        1        8        8        8 </v>
   <v type="int" >        4        8        8        8       18 </v>
   <v type="int" >        8        5        8        8        8 </v>
   <v type="int" >        4        8        8        8       11 </v>
   <v type="int" >        4        8        8       11       18 </v>
   <v type="int" >        8        1        2        5        8 </v>
   <v type="int" >        8        2        5        8        8 </v>
   <v type="int" >        8        2        8        8       11 </v>
   <v type="int" >        4        2        2        6        8 </v>
   <v type="int" >        4        2        6        8       11 </v>
   <v type="int" >        4        6        7        9       16 </v>
   <v type="int" >       16        7        9       16       17 </v>
   <v type="int" >       12        9       16       17       17 </v>
   <v type="int" >       20        7        7        9       17 </v>
   <v type="int" >       12        7        9       17       17 </v>
   <v type="int" >        8        7        7       17       17 </v>
   <v type="int" >       12        3        6        7       16 </v>
   <v type="int" >        8        3        7        7       16 </v>
   <v type="int" >        8        3        6        6       16 </v>
   <v type="int" >        4        3        6       13       16 </v>
   <v type="int" >        4        3        7       13       16 </v>
   <v type="int" >        4        2        6        6       10 </v>
   <v type="int" >        4        3        6        6       10 </v>
   <v type="int" >        8        3        6       10       13 </v>
   <v type="int" >       12        2        6       10       11 </v>
   <v type="int" >        4        6       10       11       19 </v>
   <v type="int" >        4        6       10       13       19 </v>
   <v type="int" >        4        2        8       11       11 </v>
   <v type="int" >        4        2       10       11       11 </v>
   <v type="int" >        4       10       11       11       19 </v>
   <v type="int" >        8        8       11       11       18 </v>
   <v type="int" >        8       11       11       18       19 </v>
   <v type="int" >        4       11       11       19       19 </v>
   <v type="int" >        4        8        8       10       18 </v>
   <v type="int" >       12        8       10       11       18 </v>
   <v type="int" >       12       10       11       18       19 </v>
   <v type="int" >        4       10       11       13       18 </v>
   <v type="int" >        4       10       13       18       19 </v>
   <v type="int" >        4        2        3        8       11 </v>
   <v type="int" >        4        3        8       10       11 </v>
   <v type="int" >        8        3       10       11       13 </v>
   <v type="int" >       16        2        3        6       11 </v>
   <v type="int" >        4        3        6        7       11 </v>
   <v type="int" >        4        3        7       11       13 </v>
   <v type="int" >        4        4        7        9       17 </v>
   <v type="int" >        8        4        7        7       17 </v>
   <v type="int" >        4        4        7       14       17 </v>
   <v type="int" >        4        3        7        7       12 </v>
   <v type="int" >        8        4        7        7       12 </v>
   <v type="int" >        8        4        7       12       14 </v>
   <v type="int" >        8        3        7       12       13 </v>
   <v type="int" >        4        7       12       13       20 </v>
   <v type="int" >        4        7       12       14       20 </v>
   <v type="int" >        4        3       10       13       13 </v>
   <v type="int" >        4        3       12       13       13 </v>
   <v type="int" >        4       12       13       13       20 </v>
   <v type="int" >        8       10       13       13       19 </v>
   <v type="int" >       12       13       13       19       21 </v>
   <v type="int" >        4       13       13       20       21 </v>
   <v type="int" >        8       10       11       13       19 </v>
   <v type="int" >        8       11       13       19       19 </v>
   <v type="int" >        4       13       19       19       20 </v>
   <v type="int" >        8       13       19       20       21 </v>
   <v type="int" >        4       10       11       12       19 </v>
   <v type="int" >        4       11       12       13       19 </v>
   <v type="int" >        8       12       13       19       20 </v>
   <v type="int" >        8       10       12       13       19 </v>
   <v type="int" >        4       12       13       14       19 </v>
   <v type="int" >        4       12       14       19       20 </v>
   <v type="int" >        4        3        4       10       13 </v>
   <v type="int" >        4        4       10       12       13 </v>
   <v type="int" >       12        4       12       13       14 </v>
   <v type="int" >       12        3        4        7       13 </v>
   <v type="int" >        8        4        7        7       13 </v>
   <v type="int" >       12        4        7       13       14 </v>
   <v type="int" >        4        4       12       14       14 </v>
   <v type="int" >        4       12       14       14       20 </v>
   <v type="int" >        4       14       14       20       22 </v>
   <v type="int" >        4       12       13       15       20 </v>
   <v type="int" >        4       12       14       15       20 </v>
   <v type="int" >        8       14       15       20       22 </v>
   <v type="int" >       12       13       15       20       21 </v>
   <v type="int" >       12       15       20       21       22 </v>
   <v type="int" >        4       15       20       22       22 </v>
   <v type="int" >        4       13       13       14       21 </v>
   <v type="int" >       12       13       14       15       21 </v>
   <v type="int" >       16       14       15       21       22 </v>
   <v type="int" >        8       13       14       20       21 </v>
   <v type="int" >        4       14       20       20       21 </v>
   <v type="int" >       12       14       20       21       22 </v>
   <v type="int" >        4       12       12       13       20 </v>
   <v type="int" >        8       12       13       14       20 </v>
   <v type="int" >        8       12       14       20       20 </v>
   <v type="int" >        8       12       12       14       20 </v>
   <v type="int" >        4       12       13       20       20 </v>
   <v type="int" >       16        3        4       12       14 </v>
   <v type="int" >        8        3       12       12       14 </v>
   <v type="int" >        8        3       12       13       14 </v>
   <v type="int" >       16        3        4        7       14 </v>
   <v type="int" >        4        3        6        7       14 </v>
   <v type="int" >        4        3        6       13       14 </v>
   <v type="int" >        8       14       15       15       22 </v>
   <v type="int" >        8       15       15       22       22 </v>
   <v type="int" >        8       15       21       22       22 </v>
   <v type="int" >       12       13       14       15       22 </v>
   <v type="int" >        4       13       15       15       22 </v>
   <v type="int" >        8       13       15       21       22 </v>
   <v type="int" >       12       13       14       20       22 </v>
   <v type="int" >        4       13       19       20       22 </v>
   <v type="int" >        4       13       19       21       22 </v>
   <v type="int" >        4       10       12       14       20 </v>
   <v type="int" >        4       10       13       14       20 </v>
   <v type="int" >        8       10       13       19       20 </v>
   <v type="int" >        8       10       12       13       20 </v>
   <v type="int" >        4       10       11       13       20 </v>
   <v type="int" >        4       10       11       19       20 </v>
   <v type="int" >        4        2        3       12       13 </v>
   <v type="int" >        4        2       10       12       13 </v>
   <v type="int" >        8        2       10       11       13 </v>
   <v type="int" >       12        2        3        6       13 </v>
   <v type="int" >        4        2        2        6       13 </v>
   <v type="int" >        4        2        2       11       13 </v>
   <v type="int" >        4       11       13       15       21 </v>
   <v type="int" >        8       11       13       19       21 </v>
   <v type="int" >        4       11       18       19       21 </v>
   <v type="int" >        4        8       10       13       19 </v>
   <v type="int" >        4        8       11       13       19 </v>
   <v type="int" >        8        8       11       18       19 </v>
   <v type="int" >        8        8       10       11       19 </v>
   <v type="int" >        4        8        8       11       19 </v>
   <v type="int" >        4        8        8       18       19 </v>
   <v type="int" >        4        1        2       10       11 </v>
   <v type="int" >        4        1        8       10       11 </v>
   <v type="int" >        8        1        8        8       11 </v>
   <v type="int" >        8        1        2        2       11 </v>
   <v type="int" >       12        1        2        8       11 </v>
   <v type="int" >        4        5        8       11       18 </v>
   <v type="int" >        4        5        8        8       18 </v>
   <v type="int" >        4        1        5        8       18 </v>
   <v type="int" >        4        5        5        8        8 </v>
   <v type="int" >       12        1        5        5        8 </v>
   <v type="int" >        6        1        1        5        5 </v>
   <v type="int" >        8        1        1        5        8 </v>
   <v type="int" >        4        1        1        2        8 </v>
   <v type="int" >        4        2        3        6       16 </v>
   <v type="int" >        4        3        7       16       17 </v>
   <v type="int" >       12        7       16       17       17 </v>
   <v type="int" >        8        7       17       17       17 </v>
   <v type="int" >       12        7        7        9       16 </v>
   <v type="int" >        4        6        6        7        7 </v>
   <v type="int" >       16        3        6        7       13 </v>
   <v type="int" >       12        6        7        7       13 </v>
   <v type="int" >        4        3        6        6       11 </v>
   <v type="int" >       12        3        6       11       13 </v>
   <v type="int" >       12        2        3       10       11 </v>
   <v type="int" >        4        3       10       11       19 </v>
   <v type="int" >        4        3       11       13       19 </v>
   <v type="int" >        4        2        8       10       18 </v>
   <v type="int" >        4        2       10       11       18 </v>
   <v type="int" >        4       10       18       19       19 </v>
   <v type="int" >        4        8        8       11       11 </v>
   <v type="int" >        4        8       10       11       11 </v>
   <v type="int" >        4       10       11       11       13 </v>
   <v type="int" >        4       11       11       13       19 </v>
   <v type="int" >        4        2        6        8       10 </v>
   <v type="int" >        4        6        8       10       11 </v>
   <v type="int" >       12        6       10       11       13 </v>
   <v type="int" >        8        2        3        6       10 </v>
   <v type="int" >        4        3        6        7       10 </v>
   <v type="int" >        4        6        7       10       13 </v>
   <v type="int" >        4       16       17       17       17 </v>
   <v type="int" >        4       17       17       17       17 </v>
   <v type="int" >        4        9       17       17       17 </v>
   <v type="int" >        8        7        7       15       17 </v>
   <v type="int" >        8        7        9       15       17 </v>
   <v type="int" >        4        6        7       13       16 </v>
   <v type="int" >        4        7        7       13       16 </v>
   <v type="int" >       12        7        7       13       15 </v>
   <v type="int" >        8        6        7       13       13 </v>
   <v type="int" >        4        7       13       13       21 </v>
   <v type="int" >        4        7       13       15       21 </v>
   <v type="int" >        4        6       11       13       19 </v>
   <v type="int" >        4        6       13       13       19 </v>
   <v type="int" >        4       13       19       19       23 </v>
   <v type="int" >        4       13       19       21       23 </v>
   <v type="int" >        4       11       18       19       19 </v>
   <v type="int" >        4       11       19       19       19 </v>
   <v type="int" >        4       19       19       19       23 </v>
   <v type="int" >        4       18       19       19       19 </v>
   <v type="int" >        4       19       19       19       21 </v>
   <v type="int" >        4       19       19       21       23 </v>
   <v type="int" >        4       11       13       18       19 </v>
   <v type="int" >        4       13       18       19       19 </v>
   <v type="int" >        8       13       19       19       21 </v>
   <v type="int" >       12       11       13       13       19 </v>
   <v type="int" >        4       13       13       15       19 </v>
   <v type="int" >        4       13       15       19       21 </v>
   <v type="int" >        4        6        7       11       13 </v>
   <v type="int" >        4        7       11       13       13 </v>
   <v type="int" >        8        7       13       13       15 </v>
   <v type="int" >        4        7        7        9       13 </v>
   <v type="int" >        4        7        9       13       15 </v>
   <v type="int" >        4        7        9       14       17 </v>
   <v type="int" >       12        7        9       14       15 </v>
   <v type="int" >        4        9       14       15       22 </v>
   <v type="int" >        4        7       13       15       20 </v>
   <v type="int" >        4        7       14       15       20 </v>
   <v type="int" >        4       15       20       21       24 </v>
   <v type="int" >        4       15       20       22       24 </v>
   <v type="int" >        4       13       19       21       21 </v>
   <v type="int" >        4       13       20       21       21 </v>
   <v type="int" >        4       20       21       21       24 </v>
   <v type="int" >        8       19       21       21       23 </v>
   <v type="int" >        8       21       21       23       24 </v>
   <v type="int" >        4       21       21       24       24 </v>
   <v type="int" >        4       19       19       20       23 </v>
   <v type="int" >       12       19       20       21       23 </v>
   <v type="int" >       12       20       21       23       24 </v>
   <v type="int" >        4       20       21       22       23 </v>
   <v type="int" >        4       20       22       23       24 </v>
   <v type="int" >        4       13       14       19       21 </v>
   <v type="int" >        4       14       19       20       21 </v>
   <v type="int" >        4       14       15       15       21 </v>
   <v type="int" >       16        7       13       14       15 </v>
   <v type="int" >        8        7       14       15       15 </v>
   <v type="int" >       16        7        7        9       15 </v>
   <v type="int" >        4        7        7       15       15 </v>
   <v type="int" >        4       14       20       22       22 </v>
   <v type="int" >        8       20       22       22       24 </v>
   <v type="int" >       16       22       22       24       25 </v>
   <v type="int" >       16       20       21       22       24 </v>
   <v type="int" >        8       21       22       24       24 </v>
   <v type="int" >        4       22       24       24       24 </v>
   <v type="int" >       16       22       24       24       25 </v>
   <v type="int" >        4       20       20       21       24 </v>
   <v type="int" >       12       20       22       24       24 </v>
   <v type="int" >        8       20       20       22       24 </v>
   <v type="int" >        4       20       21       24       24 </v>
   <v type="int" >        4       13       20       20       22 </v>
   <v type="int" >        8       13       20       21       22 </v>
   <v type="int" >        4       13       13       15       22 </v>
   <v type="int" >        4       13       13       21       22 </v>
   <v type="int" >        4        6        7       14       15 </v>
   <v type="int" >        4        6       13       14       15 </v>
   <v type="int" >        4        6       13       13       15 </v>
   <v type="int" >        4        6        7        7       15 </v>
   <v type="int" >        4        3        6        7       15 </v>
   <v type="int" >        4        3        6       13       15 </v>
   <v type="int" >        8       21       22       22       25 </v>
   <v type="int" >       12       21       22       24       25 </v>
   <v type="int" >        4       21       23       24       25 </v>
   <v type="int" >        4       19       20       22       24 </v>
   <v type="int" >        4       19       21       22       24 </v>
   <v type="int" >        8       19       21       23       24 </v>
   <v type="int" >        8       19       20       21       24 </v>
   <v type="int" >        4       19       19       21       24 </v>
   <v type="int" >        4       19       19       23       24 </v>
   <v type="int" >        4       11       13       20       21 </v>
   <v type="int" >        4       11       19       20       21 </v>
   <v type="int" >        4       11       19       19       21 </v>
   <v type="int" >        4       11       13       13       21 </v>
   <v type="int" >        4       10       11       13       21 </v>
   <v type="int" >        4       10       11       19       21 </v>
   <v type="int" >        4        2        6       13       13 </v>
   <v type="int" >        4        2       11       13       13 </v>
   <v type="int" >       12        2        3       10       13 </v>
   <v type="int" >        4        2       10       10       13 </v>
   <v type="int" >        4       18       19       21       23 </v>
   <v type="int" >        4       18       19       19       23 </v>
   <v type="int" >        4       11       18       19       23 </v>
   <v type="int" >        4        8       11       19       19 </v>
   <v type="int" >        4        8       18       19       19 </v>
   <v type="int" >        4        2        8       10       19 </v>
   <v type="int" >        4        2        8       11       19 </v>
   <v type="int" >       16        2        8       10       11 </v>
   <v type="int" >        4        8        8       10       11 </v>
   <v type="int" >       12        2        8        8       10 </v>
   <v type="int" >        8        2        8       10       10 </v>
   <v type="int" >        4        8       10       10       11 </v>
   <v type="int" >        4        1        8       11       18 </v>
   <v type="int" >        4        2        8        8        8 </v>
   <v type="int" >        8        2        2        8       10 </v>
   <v type="int" >        4        2        2        3       10 </v>
   <v type="int" >        4        3        4        7       17 </v>
   <v type="int" >        4        4        7       16       17 </v>
   <v type="int" >        4        7        7        7        9 </v>
   <v type="int" >        4        4        7        7       14 </v>
   <v type="int" >        4        7        7        7       14 </v>
   <v type="int" >       12        3        4       12       13 </v>
   <v type="int" >        4        4       12       13       20 </v>
   <v type="int" >        4        4       13       14       20 </v>
   <v type="int" >        4        3       10       12       19 </v>
   <v type="int" >        4        3       12       13       19 </v>
   <v type="int" >        4       12       13       19       21 </v>
   <v type="int" >        4       12       19       20       21 </v>
   <v type="int" >        4       10       13       19       19 </v>
   <v type="int" >        8       13       13       19       20 </v>
   <v type="int" >        4       10       11       13       13 </v>
   <v type="int" >        4       10       12       13       13 </v>
   <v type="int" >        4       12       13       13       14 </v>
   <v type="int" >        4       13       13       14       20 </v>
   <v type="int" >        4        3        7       10       12 </v>
   <v type="int" >        4        7       10       12       13 </v>
   <v type="int" >        8        7       12       13       14 </v>
   <v type="int" >        8        3        4        7       12 </v>
   <v type="int" >        4        7        7       12       14 </v>
   <v type="int" >        4        7        9       15       16 </v>
   <v type="int" >       12        7        9       15       15 </v>
   <v type="int" >        8        7        7       14       15 </v>
   <v type="int" >        4        7       14       15       22 </v>
   <v type="int" >        4        7       15       15       22 </v>
   <v type="int" >        4        7       13       14       21 </v>
   <v type="int" >        4        7       14       15       21 </v>
   <v type="int" >        4       14       20       21       24 </v>
   <v type="int" >        4       14       21       22       24 </v>
   <v type="int" >        4       13       19       20       23 </v>
   <v type="int" >        4       13       20       21       23 </v>
   <v type="int" >        4       20       23       24       24 </v>
   <v type="int" >        4       19       19       21       21 </v>
   <v type="int" >        4       19       20       21       21 </v>
   <v type="int" >        4       20       21       21       22 </v>
   <v type="int" >        4       21       21       22       24 </v>
   <v type="int" >        4       13       15       19       20 </v>
   <v type="int" >        4       15       19       20       21 </v>
   <v type="int" >        8       13       14       15       20 </v>
   <v type="int" >        4       14       15       15       20 </v>
   <v type="int" >        4       15       15       20       22 </v>
   <v type="int" >        4        7        9       13       14 </v>
   <v type="int" >        4        9       13       14       15 </v>
   <v type="int" >        8        9       14       15       15 </v>
   <v type="int" >        8        7        7        9       14 </v>
   <v type="int" >        4        9       15       15       22 </v>
   <v type="int" >        4       15       22       22       25 </v>
   <v type="int" >        4       15       21       22       24 </v>
   <v type="int" >        4       15       22       22       24 </v>
   <v type="int" >        8       22       24       24       26 </v>
   <v type="int" >        8       22       24       25       26 </v>
   <v type="int" >        4       21       23       24       24 </v>
   <v type="int" >        4       21       24       24       24 </v>
   <v type="int" >        8       24       24       24       26 </v>
   <v type="int" >        4       23       24       24       24 </v>
   <v type="int" >        4       24       24       24       25 </v>
   <v type="int" >       20       24       24       25       26 </v>
   <v type="int" >        4       21       22       23       24 </v>
   <v type="int" >        4       22       23       24       24 </v>
   <v type="int" >       12       21       22       22       24 </v>
   <v type="int" >        4       22       22       22       24 </v>
   <v type="int" >        4       15       15       21       22 </v>
   <v type="int" >        4       15       22       22       22 </v>
   <v type="int" >        4       15       15       15       22 </v>
   <v type="int" >        4       14       15       22       22 </v>
   <v type="int" >        4        7       15       15       15 </v>
   <v type="int" >        4        4        7        7       15 </v>
   <v type="int" >        4        4        7       14       15 </v>
   <v type="int" >        4       22       24       25       25 </v>
   <v type="int" >        8       24       25       25       26 </v>
   <v type="int" >        6       25       25       26       26 </v>
   <v type="int" >       12       24       25       26       26 </v>
   <v type="int" >        4       24       24       26       26 </v>
   <v type="int" >        8       21       24       24       25 </v>
   <v type="int" >        4       20       21       22       25 </v>
   <v type="int" >        4       20       21       24       25 </v>
   <v type="int" >        4       13       15       22       22 </v>
   <v type="int" >        4       13       21       22       22 </v>
   <v type="int" >        4       12       13       14       22 </v>
   <v type="int" >        4       12       13       20       22 </v>
   <v type="int" >        4        3        7       14       15 </v>
   <v type="int" >        4        3       13       14       15 </v>
   <v type="int" >        4       23       24       25       26 </v>
   <v type="int" >        4       23       24       24       26 </v>
   <v type="int" >        4       21       23       24       26 </v>
   <v type="int" >        4       19       21       24       24 </v>
   <v type="int" >        4       19       23       24       24 </v>
   <v type="int" >        4       13       19       20       24 </v>
   <v type="int" >        4       13       19       21       24 </v>
   <v type="int" >        4       10       13       20       21 </v>
   <v type="int" >        4       10       19       20       21 </v>
   <v type="int" >        4        3       10       12       20 </v>
   <v type="int" >        4        3       10       13       20 </v>
   <v type="int" >        8        3       10       12       13 </v>
   <v type="int" >        4       10       10       12       13 </v>
   <v type="int" >        8        3       10       10       12 </v>
   <v type="int" >        8        3       10       12       12 </v>
   <v type="int" >        4       10       12       12       13 </v>
   <v type="int" >        4       11       19       21       23 </v>
   <v type="int" >        4        6       11       13       21 </v>
   <v type="int" >        4        2       10       13       19 </v>
   <v type="int" >        4        2       11       13       19 </v>
   <v type="int" >        8        2        6       11       13 </v>
   <v type="int" >        4        2        6        6       13 </v>
   <v type="int" >        4        3       10       10       11 </v>
   <v type="int" >        4        3       11       13       13 </v>
   <v type="int" >        4        2        2        6       10 </v>
   <v type="int" >        4        6       10       12       13 </v>
   <v type="int" >        4        3        6       10       12 </v>
   <v type="int" >        4        2        3        3       10 </v>
   <v type="int" >        4        3        3       10       12 </v>
   <v type="int" >        4        3        3        4       12 </v>
   <v type="int" >        4        3        4        7       16 </v>
   <v type="int" >        4        6        7        7        7 </v>
   <v type="int" >        4        6        6        7       13 </v>
   <v type="int" >        8        3        7        7       14 </v>
   <v type="int" >        8        3        7       13       14 </v>
   <v type="int" >        4        3       12       14       20 </v>
   <v type="int" >        4        3       13       14       20 </v>
   <v type="int" >        4        4       12       12       20 </v>
   <v type="int" >        4        4       12       14       20 </v>
   <v type="int" >        4       12       14       20       22 </v>
   <v type="int" >        4       12       20       20       22 </v>
   <v type="int" >        4       12       13       14       21 </v>
   <v type="int" >        4       12       14       20       21 </v>
   <v type="int" >        4       14       21       22       22 </v>
   <v type="int" >        4       13       13       15       20 </v>
   <v type="int" >        4       14       15       20       20 </v>
   <v type="int" >        4       15       20       20       22 </v>
   <v type="int" >        4       12       13       14       14 </v>
   <v type="int" >        4       13       14       14       20 </v>
   <v type="int" >        2       14       14       20       20 </v>
   <v type="int" >        2       12       12       14       14 </v>
   <v type="int" >        8        4        7       12       12 </v>
   <v type="int" >        4        7       12       12       14 </v>
   <v type="int" >        4        3        6        7       12 </v>
   <v type="int" >        4        6        7       12       13 </v>
   <v type="int" >        4        6        7       15       16 </v>
   <v type="int" >        8        6        7       13       15 </v>
   <v type="int" >        4        6       13       15       21 </v>
   <v type="int" >        4        7       13       14       22 </v>
   <v type="int" >        4        7       13       15       22 </v>
   <v type="int" >        4       13       20       22       24 </v>
   <v type="int" >        4       13       21       22       24 </v>
   <v type="int" >        4       14       20       20       24 </v>
   <v type="int" >        4       14       20       22       24 </v>
   <v type="int" >        4       20       22       24       25 </v>
   <v type="int" >        4       20       24       24       25 </v>
   <v type="int" >        6       22       22       24       24 </v>
   <v type="int" >        4       20       21       22       22 </v>
   <v type="int" >        2       20       20       22       22 </v>
   <v type="int" >        4        7        7       13       14 </v>
   <v type="int" >        4        3        7       13       13 </v>
   <v type="int" >        4       15       21       22       25 </v>
   <v type="int" >        4       21       24       25       26 </v>
   <v type="int" >        4       24       26       26       26 </v>
   <v type="int" >        6       24       24       25       25 </v>
   <v type="int" >        4        4        7       13       15 </v>
   <v type="int" >        4        4       13       14       15 </v>
   <v type="int" >        8        4       12       12       13 </v>
   <v type="int" >        4       25       26       26       26 </v>
   <v type="int" >        2       26       26       26       26 </v>
   <v type="int" >        4        4       12       12       14 </v>
   <v type="int" >        4       12       12       12       14 </v>
   <v type="int" >        8        4       12       12       12 </v>
   <v type="int" >        4        3        4        4       12 </v>
   <v type="int" >        4        4        4       12       12 </v>
   <v type="int" >        4        1        5        8       11 </v>
   <v type="int" >        4        1        2        6       11 </v>
   <v type="int" >        4        2        8       10       13 </v>
   <v type="int" >        4        2        8       11       13 </v>
   <v type="int" >        4        2        3        7       13 </v>
   <v type="int" >        4        2        6        7       13 </v>
   <v type="int" >        4        3       10       12       14 </v>
   <v type="int" >        4        3       10       13       14 </v>
   <v type="int" >        4        3        4        6       13 </v>
   <v type="int" >        4        4        6        7       13 </v>
   <v type="int" >        4        3       10       11       12 </v>
   <v type="int" >        4        3       11       12       13 </v>
   <v type="int" >        4        2        2        3       11 </v>
   <v type="int" >        6        2        2        8        8 </v>
   <v type="int" >        6        1        1        8        8 </v>
   <v type="int" >        4        5        5        5        8 </v>
   <v type="int" >        4        6       11       13       15 </v>
   <v type="int" >        4        6        7        9       15 </v>
   <v type="int" >        4        7       13       15       15 </v>
   <v type="int" >        4        7        7        7       15 </v>
   <v type="int" >        4        7       13       13       14 </v>
   <v type="int" >        4        3        7        7       13 </v>
   <v type="int" >        4        6       10       13       13 </v>
   <v type="int" >        4        2        6       10       10 </v>
   <v type="int" >        4        3        6       10       10 </v>
   <v type="int" >        4        2        2       10       11 </v>
   <v type="int" >        2        2        2       10       10 </v>
   <v type="int" >        4        1        8        8       10 </v>
   <v type="int" >        4        1        2        8       10 </v>
   <v type="int" >        4        2        3        8       10 </v>
   <v type="int" >        4        3        8       10       10 </v>
   <v type="int" >        4        4        7        9       14 </v>
   <v type="int" >        4        7       12       13       15 </v>
   <v type="int" >        4        7       12       14       15 </v>
   <v type="int" >        4        3        7       12       12 </v>
   <v type="int" >        4        3        3       10       13 </v>
   <v type="int" >        4        3        3       12       13 </v>
   <v type="int" >        2        3        3       12       12 </v>
   <v type="int" >        2        3        3       10       10 </v>
   <v type="int" >        4        2       10       10       12 </v>
   <v type="int" >        4        2        3       10       12 </v>
   <v type="int" >        4        3        4       10       12 </v>
   <v type="int" >        4        4       10       12       12 </v>
   <v type="int" >        4        4        4       12       14 </v>
   <v type="int" >        4        3       12       12       12 </v>
   <v type="int" >        4        3        4       12       12 </v>
   <v type="int" >        4        1        5        5        5 </v>
   <v type="int" >        2        5        5        5        5 </v>
  </varray>
  <i name="volumeweight">      0.00032552 </i>
 </kpoints>
 <parameters>
  <separator name="general" >
   <i type="string" name="SYSTEM">Fe BCC</i>
   <i type="logical" name="LCOMPAT"> F  </i>
  </separator>
  <separator name="electronic" >
   <i type="string" name="PREC">accura</i>
   <i name="ENMAX">    400.00000000</i>
   <i name="ENAUG">    511.36800000</i>
   <i name="EDIFF">      0.00000100</i>
   <i type="int" name="IALGO">    38</i>
   <i type="int" name="IWAVPR">    10</i>
   <i type="int" name="NBANDS">    12</i>
   <i name="NELECT">      8.00000000</i>
   <i type="int" name="TURBO">     0</i>
   <i type="int" name="IRESTART">     0</i>
   <i type="int" name="NREBOOT">     0</i>
   <i type="int" name="NMIN">     0</i>
   <i name="EREF">      0.00000000</i>
   <separator name="electronic smearing" >
    <i type="int" name="ISMEAR">    -5</i>
    <i name="SIGMA">      0.20000000</i>
    <i name="KSPACING">      0.50000000</i>
    <i type="logical" name="KGAMMA"> T  </i>
   </separator>
   <separator name="electronic projectors" >
    <i type="logical" name="LREAL"> F  </i>
    <v name="ROPT">      0.00000000</v>
    <i type="int" name="LMAXPAW">  -100</i>
    <i type="int" name="LMAXMIX">     2</i>
    <i type="logical" name="NLSPLINE"> F  </i>
   </separator>
   <separator name="electronic startup" >
    <i type="int" name="ISTART">     0</i>
    <i type="int" name="ICHARG">     2</i>
    <i type="int" name="INIWAV">     1</i>
   </separator>
   <separator name="electronic spin" >
    <i type="int" name="ISPIN">     2</i>
    <i type="logical" name="LNONCOLLINEAR"> F  </i>
    <v name="MAGMOM">      4.00000000</v>
    <i name="NUPDOWN">     -1.00000000</i>
    <i type="logical" name="LSORBIT"> F  </i>
    <v name="SAXIS">      0.00000000      0.00000000      1.00000000</v>
    <i type="logical" name="LSPIRAL"> F  </i>
    <v name="QSPIRAL">      0.00000000      0.00000000      0.00000000</v>
    <i type="logical" name="LZEROZ"> F  </i>
   </separator>
   <separator name="electronic exchange-correlation" >
    <i type="logical" name="LASPH"> F  </i>
    <i type="logical" name="LMETAGGA"> F  </i>
   </separator>
   <separator name="electronic convergence" >
    <i type="int" name="NELM">    60</i>
    <i type="int" name="NELMDL">    -5</i>
    <i type="int" name="NELMIN">     2</i>
    <i name="ENINI">    400.00000000</i>
    <separator name="electronic convergence detail" >
     <i type="logical" name="LDIAG"> T  </i>
     <i type="logical" name="LSUBROT"> F  </i>
     <i name="WEIMIN">      0.00000000</i>
     <i name="EBREAK">      0.00000002</i>
     <i name="DEPER">      0.30000000</i>
     <i type="int" name="NRMM">     4</i>
     <i name="TIME">      0.40000000</i>
    </separator>
   </separator>
   <separator name="electronic mixer" >
    <i name="AMIX">      0.40000000</i>
    <i name="BMIX">      1.00000000</i>
    <i name="AMIN">      0.10000000</i>
    <i name="AMIX_MAG">      1.60000000</i>
    <i name="BMIX_MAG">      1.00000000</i>
    <separator name="electronic mixer details" >
     <i type="int" name="IMIX">     4</i>
     <i type="logical" name="MIXFIRST"> F  </i>
     <i type="int" name="MAXMIX">   -45</i>
     <i name="WC">    100.00000000</i>
     <i type="int" name="INIMIX">     1</i>
     <i type="int" name="MIXPRE">     1</i>
     <i type="int" name="MREMOVE">     5</i>
    </separator>
   </separator>
   <separator name="electronic dipolcorrection" >
    <i type="logical" name="LDIPOL"> F  </i>
    <i type="logical" name="LMONO"> F  </i>
    <i type="int" name="IDIPOL">     0</i>
    <i name="EPSILON">      1.00000000</i>
    <v name="DIPOL">   -100.00000000   -100.00000000   -100.00000000</v>
    <i name="EFIELD">      0.00000000</i>
   </separator>
  </separator>
  <separator name="grids" >
   <i type="int" name="NGX">    24</i>
   <i type="int" name="NGY">    24</i>
   <i type="int" name="NGZ">    24</i>
   <i type="int" name="NGXF">    48</i>
   <i type="int" name="NGYF">    48</i>
   <i type="int" name="NGZF">    48</i>
   <i type="logical" name="ADDGRID"> F  </i>
  </separator>
  <separator name="ionic" >
   <i type="int" name="NSW">     0</i>
   <i type="int" name="IBRION">    -1</i>
   <i type="int" name="ISIF">     2</i>
   <i name="PSTRESS">      0.00000000</i>
   <i name="EDIFFG">      0.00001000</i>
   <i type="int" name="NFREE">     0</i>
   <i name="POTIM">      0.50000000</i>
   <i name="SMASS">     -3.00000000</i>
   <i name="SCALEE">      1.00000000</i>
  </separator>
  <separator name="ionic md" >
   <i name="TEBEG">      0.00010000</i>
   <i name="TEEND">      0.00010000</i>
   <i type="int" name="NBLOCK">     1</i>
   <i type="int" name="KBLOCK">     1</i>
   <i type="int" name="NPACO">   256</i>
   <i name="APACO">     16.00000000</i>
  </separator>
  <separator name="symmetry" >
   <i type="int" name="ISYM">     2</i>
   <i name="SYMPREC">      0.00001000</i>
  </separator>
  <separator name="dos" >
   <i type="logical" name="LORBIT"> F  </i>
   <v name="RWIGS">     -1.00000000</v>
   <i type="int" name="NEDOS">   301</i>
   <i name="EMIN">     10.00000000</i>
   <i name="EMAX">    -10.00000000</i>
   <i name="EFERMI">      0.00000000</i>
  </separator>
  <separator name="writing" >
   <i type="int" name="NWRITE">     2</i>
   <i type="logical" name="LWAVE"> T  </i>
   <i type="logical" name="LCHARG"> T  </i>
   <i type="logical" name="LPARD"> F  </i>
   <i type="logical" name="LVTOT"> F  </i>
   <i type="logical" name="LVHAR"> F  </i>
   <i type="logical" name="LELF"> F  </i>
   <i type="logical" name="LOPTICS"> F  </i>
   <v name="STM">      0.00000000      0.00000000      0.00000000      0.00000000      0.00000000      0.00000000      0.00000000</v>
  </separator>
  <separator name="performance" >
   <i type="int" name="NPAR">     4</i>
   <i type="int" name="NSIM">     4</i>
   <i type="int" name="NBLK">    -1</i>
   <i type="logical" name="LPLANE"> T  </i>
   <i type="logical" name="LSCALAPACK"> F  </i>
   <i type="logical" name="LSCAAWARE"> F  </i>
   <i type="logical" name="LSCALU"> F  </i>
   <i type="logical" name="LASYNC"> F  </i>
   <i type="logical" name="LORBITALREAL"> F  </i>
  </separator>
  <separator name="miscellaneous" >
   <i type="int" name="IDIOT">     3</i>
   <i type="logical" name="LMUSIC"> F  </i>
   <v name="POMASS">     55.84700000</v>
   <v name="DARWINR">      0.00000000</v>
   <v name="DARWINV">      1.00000000</v>
   <i type="logical" name="LCORR"> T  </i>
  </separator>
  <i type="logical" name="GGA_COMPAT"> T  </i>
  <i type="logical" name="LBERRY"> F  </i>
  <i type="int" name="ICORELEVEL">     0</i>
  <i type="logical" name="LDAU"> F  </i>
  <i type="int" name="I_CONSTRAINED_M">     0</i>
  <separator name="electronic exchange-correlation" >
   <i type="string" name="GGA">--</i>
   <i type="int" name="VOSKOWN">     0</i>
   <i type="logical" name="LHFCALC"> F  </i>
   <i type="string" name="PRECFOCK"></i>
   <i type="logical" name="LSYMGRAD"> F  </i>
   <i type="logical" name="LHFONE"> F  </i>
   <i type="logical" name="LRHFCALC"> F  </i>
   <i type="logical" name="LTHOMAS"> F  </i>
   <i type="logical" name="LMODELHF"> F  </i>
   <i name="ENCUT4O">     -1.00000000</i>
   <i type="int" name="EXXOEP">     0</i>
   <i type="int" name="FOURORBIT">     0</i>
   <i name="AEXX">      0.00000000</i>
   <i name="HFALPHA">      0.00000000</i>
   <i name="MCALPHA">      0.00000000</i>
   <i name="ALDAX">      1.00000000</i>
   <i name="AGGAX">      1.00000000</i>
   <i name="ALDAC">      1.00000000</i>
   <i name="AGGAC">      1.00000000</i>
   <i type="int" name="NKREDX">     1</i>
   <i type="int" name="NKREDY">     1</i>
   <i type="int" name="NKREDZ">     1</i>
   <i type="logical" name="SHIFTRED"> F  </i>
   <i type="logical" name="ODDONLY"> F  </i>
   <i type="logical" name="EVENONLY"> F  </i>
   <i type="int" name="LMAXFOCK">     0</i>
   <i type="int" name="NMAXFOCKAE">     0</i>
   <i type="logical" name="LFOCKAEDFT"> F  </i>
   <i name="HFSCREEN">      0.00000000</i>
   <i name="HFSCREENC">      0.00000000</i>
   <i type="int" name="NBANDSGWLOW">     0</i>
  </separator>
  <separator name="vdW DFT" >
   <i type="logical" name="LUSE_VDW"> F  </i>
   <i name="Zab_VDW">     -0.84910000</i>
   <i name="PARAM1">      0.12340000</i>
   <i name="PARAM2">      1.00000000</i>
   <i name="PARAM3">      0.00000000</i>
  </separator>
  <separator name="model GW" >
   <i type="int" name="MODEL_GW">     0</i>
   <i name="MODEL_EPS0">     19.20000000</i>
   <i name="MODEL_ALPHA">      1.00000000</i>
  </separator>
  <separator name="linear response parameters" >
   <i type="logical" name="LEPSILON"> F  </i>
   <i type="logical" name="LRPA"> F  </i>
   <i type="logical" name="LNABLA"> F  </i>
   <i type="logical" name="LVEL"> F  </i>
   <i type="int" name="KINTER">     0</i>
   <i name="CSHIFT">      0.10000000</i>
   <i name="OMEGAMAX">     -1.00000000</i>
   <i name="DEG_THRESHOLD">      0.00200000</i>
  </separator>
  <separator name="orbital magnetization" >
   <i type="logical" name="NUCIND"> F  </i>
   <v name="MAGPOS">      0.00000000      0.00000000      0.00000000</v>
   <i type="logical" name="LNICSALL"> T  </i>
   <i type="logical" name="ORBITALMAG"> F  </i>
   <i type="logical" name="LMAGBLOCH"> F  </i>
   <i type="logical" name="LCHIMAG"> F  </i>
   <i type="logical" name="LGAUGE"> T  </i>
   <i type="int" name="MAGATOM">     0</i>
   <v name="MAGDIPOL">      0.00000000      0.00000000      0.00000000</v>
   <v name="AVECCONST">      0.00000000      0.00000000      0.00000000</v>
  </separator>
  <separator name="response functions" >
   <i type="logical" name="LADDER"> F  </i>
   <i type="logical" name="LFXC"> F  </i>
   <i type="logical" name="LHARTREE"> T  </i>
   <i type="int" name="IBSE">     0</i>
   <v type="int" name="KPOINT">    -1     0     0     0</v>
   <i type="logical" name="LTCTE"> F  </i>
   <i type="logical" name="LTETE"> F  </i>
   <i type="logical" name="LTRIPLET"> F  </i>
   <i type="logical" name="LFXCEPS"> F  </i>
   <i type="logical" name="LFXHEG"> F  </i>
   <i type="int" name="NATURALO">     0</i>
   <i type="logical" name="L2ORDER"> F  </i>
   <i type="logical" name="LUSEW"> F  </i>
   <i name="ENCUTGW">     -2.00000000</i>
   <i name="ENCUTGWSOFT">     -2.00000000</i>
   <i name="ENCUTLF">     -1.00000000</i>
   <i type="int" name="LMAXMP2">    -1</i>
   <i name="SCISSOR">      0.00000000</i>
   <i type="int" name="NOMEGA">     0</i>
   <i type="int" name="NOMEGAR">     0</i>
   <i type="int" name="NBANDSGW">    -1</i>
   <i type="int" name="NBANDSO">    -1</i>
   <i type="int" name="NBANDSV">    -1</i>
   <i type="int" name="NELM">     1</i>
   <i type="int" name="NELMHF">     1</i>
   <i type="int" name="DIM">     3</i>
   <i type="int" name="ANTIRES">     0</i>
   <i name="OMEGAMAX">    -30.00000000</i>
   <i name="OMEGAMIN">    -30.00000000</i>
   <i name="OMEGATL">   -200.00000000</i>
   <i type="int" name="OMEGAGRID">     0</i>
   <i name="CSHIFT">     -0.10000000</i>
   <i type="logical" name="SELFENERGY"> F  </i>
   <i type="logical" name="LSPECTRAL"> F  </i>
   <i type="logical" name="LSPECTRALGW"> F  </i>
   <i type="logical" name="LSINGLES"> F  </i>
   <i type="logical" name="LFERMIGW"> F  </i>
   <i type="logical" name="ODDONLYGW"> F  </i>
   <i type="logical" name="EVENONLYGW"> F  </i>
   <i type="int" name="NKREDLFX">     1</i>
   <i type="int" name="NKREDLFY">     1</i>
   <i type="int" name="NKREDLFZ">     1</i>
   <i type="int" name="MAXMEM">  1800</i>
   <i type="int" name="TELESCOPE">     0</i>
   <i type="int" name="TAUPAR">     1</i>
   <i type="int" name="OMEGAPAR">    -1</i>
   <i name="LAMBDA">      1.00000000</i>
  </separator>
  <separator name="External order field" >
   <i name="OFIELD_KAPPA">      0.00000000</i>
   <v name="OFIELD_K">      0.00000000      0.00000000      0.00000000</v>
   <i name="OFIELD_Q6_NEAR">      0.00000000</i>
   <i name="OFIELD_Q6_FAR">      0.00000000</i>
   <i name="OFIELD_A">      0.00000000</i>
  </separator>
 </parameters>
 <atominfo>
  <atoms>       1 </atoms>
  <types>       1 </types>
  <array name="atoms" >
   <dimension dim="1">ion</dimension>
   <field type="string">element</field>
   <field type="int">atomtype</field>
   <set>
    <rc><c>Fe</c><c>   1</c></rc>
   </set>
  </array>
  <array name="atomtypes" >
   <dimension dim="1">type</dimension>
   <field type="int">atomspertype</field>
   <field type="string">element</field>
   <field>mass</field>
   <field>valence</field>
   <field type="string">pseudopotential</field>
   <set>
    <rc><c>   1</c><c>Fe</c><c>     55.84700000</c><c>      8.00000000</c><c>  PAW_PBE Fe 06Sep2000                  </c></rc>
   </set>
  </array>
 </atominfo>
 <structure name="initialpos" >
  <crystal>
   <varray name="basis" >
    <v>      -2.00000000       2.00000000       2.00000000 </v>
    <v>       2.00000000      -2.00000000       2.00000000 </v>
    <v>       2.00000000       2.00000000      -2.00000000 </v>
   </varray>
   <i name="volume">     32.00000000 </i>
   <varray name="rec_basis" >
    <v>       0.00000000       0.25000000       0.25000000 </v>
    <v>       0.25000000       0.00000000       0.25000000 </v>
    <v>       0.25000000       0.25000000       0.00000000 </v>
   </varray>
  </crystal>
  <varray name="positions" >
   <v>       0.00000000       0.00000000       0.00000000 </v>
  </varray>
 </structure>
 <calculation>
  <scstep>
   <time name="dav">    4.80    2.95</time>
   <time name="total">    5.01    3.09</time>
   <energy>
    <i name="alphaZ">     21.59805500 </i>
    <i name="ewald">   -419.23349694 </i>
    <i name="hartreedc">   -196.51430032 </i>
    <i name="XCdc">      3.96208346 </i>
    <i name="pawpsdc">    552.89180568 </i>
    <i name="pawaedc">   -560.64780826 </i>
    <i name="eentropy">      0.00000000 </i>
    <i name="bandstr">     24.02750473 </i>
    <i name="atom">    594.30652615 </i>
    <i name="e_fr_energy">     20.39036950 </i>
    <i name="e_wo_entrp">     20.39036950 </i>
    <i name="e_0_energy">     20.39036950 </i>
   </energy>
  </scstep>
  <scstep>
   <time name="dav">    5.01    3.03</time>
   <time name="total">    5.09    3.09</time>
   <energy>
    <i name="e_fr_energy">     -5.48252675 </i>
    <i name="e_wo_entrp">     -5.48252675 </i>
    <i name="e_0_energy">     -5.48252675 </i>
   </energy>
  </scstep>
  <scstep>
   <time name="dav">    5.57    3.44</time>
   <time name="total">    5.64    3.49</time>
   <energy>
    <i name="e_fr_energy">     -6.10104948 </i>
    <i name="e_wo_entrp">     -6.10104948 </i>
    <i name="e_0_energy">     -6.10104948 </i>
   </energy>
  </scstep>
  <scstep>
   <time name="dav">    5.31    3.28</time>
   <time name="total">    5.40    3.34</time>
   <energy>
    <i name="e_fr_energy">     -6.10460824 </i>
    <i name="e_wo_entrp">     -6.10460824 </i>
    <i name="e_0_energy">     -6.10460824 </i>
   </energy>
  </scstep>
  <scstep>
   <time name="dav">    5.87    3.66</time>
   <time name="total">    6.10    3.79</time>
   <energy>
    <i name="e_fr_energy">     -6.10465242 </i>
    <i name="e_wo_entrp">     -6.10465242 </i>
    <i name="e_0_energy">     -6.10465242 </i>
   </energy>
  </scstep>
  <scstep>
   <time name="dav">    5.42    3.44</time>
   <time name="total">    5.72    3.62</time>
   <energy>
    <i name="e_fr_energy">     -6.26048343 </i>
    <i name="e_wo_entrp">     -6.26048343 </i>
    <i name="e_0_energy">     -6.26048343 </i>
   </energy>
  </scstep>
  <scstep>
   <time name="dav">    5.77    3.59</time>
   <time name="total">    6.15    3.80</time>
   <energy>
    <i name="e_fr_energy">     -5.41695632 </i>
    <i name="e_wo_entrp">     -5.41695632 </i>
    <i name="e_0_energy">     -5.41695632 </i>
   </energy>
  </scstep>
  <scstep>
   <time name="dav">    5.97    3.74</time>
   <time name="total">    6.28    3.92</time>
   <energy>
    <i name="e_fr_energy">     -5.42209013 </i>
    <i name="e_wo_entrp">     -5.42209013 </i>
    <i name="e_0_energy">     -5.42209013 </i>
   </energy>
  </scstep>
  <scstep>
   <time name="dav">    5.82    3.65</time>
   <time name="total">    6.14    3.84</time>
   <energy>
    <i name="e_fr_energy">     -5.42264467 </i>
    <i name="e_wo_entrp">     -5.42264467 </i>
    <i name="e_0_energy">     -5.42264467 </i>
   </energy>
  </scstep>
  <scstep>
   <time name="dav">    6.05    4.03</time>
   <time name="total">    6.36    4.22</time>
   <energy>
    <i name="e_fr_energy">     -5.42415882 </i>
    <i name="e_wo_entrp">     -5.42415882 </i>
    <i name="e_0_energy">     -5.42415882 </i>
   </energy>
  </scstep>
  <scstep>
   <time name="dav">    5.49    3.45</time>
   <time name="total">    5.78    3.64</time>
   <energy>
    <i name="e_fr_energy">     -5.42537753 </i>
    <i name="e_wo_entrp">     -5.42537753 </i>
    <i name="e_0_energy">     -5.42537753 </i>
   </energy>
  </scstep>
  <scstep>
   <time name="dav">    4.77    3.02</time>
   <time name="total">    5.12    3.23</time>
   <energy>
    <i name="e_fr_energy">     -5.42601712 </i>
    <i name="e_wo_entrp">     -5.42601712 </i>
    <i name="e_0_energy">     -5.42601712 </i>
   </energy>
  </scstep>
  <scstep>
   <time name="dav">    5.54    3.42</time>
   <time name="total">    5.89    3.63</time>
   <energy>
    <i name="e_fr_energy">     -5.42622082 </i>
    <i name="e_wo_entrp">     -5.42622082 </i>
    <i name="e_0_energy">     -5.42622082 </i>
   </energy>
  </scstep>
  <scstep>
   <time name="dav">    6.08    3.90</time>
   <time name="total">    6.44    4.12</time>
   <energy>
    <i name="e_fr_energy">     -5.42612953 </i>
    <i name="e_wo_entrp">     -5.42612953 </i>
    <i name="e_0_energy">     -5.42612953 </i>
   </energy>
  </scstep>
  <scstep>
   <time name="dav">    5.08    3.17</time>
   <time name="total">    5.42    3.39</time>
   <energy>
    <i name="e_fr_energy">     -5.42622535 </i>
    <i name="e_wo_entrp">     -5.42622535 </i>
    <i name="e_0_energy">     -5.42622535 </i>
   </energy>
  </scstep>
  <scstep>
   <time name="dav">    4.97    3.11</time>
   <time name="total">    5.31    3.32</time>
   <energy>
    <i name="e_fr_energy">     -5.42619880 </i>
    <i name="e_wo_entrp">     -5.42619880 </i>
    <i name="e_0_energy">     -5.42619880 </i>
   </energy>
  </scstep>
  <scstep>
   <time name="dav">    3.26    2.02</time>
   <time name="total">    3.60    2.23</time>
   <energy>
    <i name="e_fr_energy">     -5.42619624 </i>
    <i name="e_wo_entrp">     -5.42619624 </i>
    <i name="e_0_energy">     -5.42619624 </i>
   </energy>
  </scstep>
  <scstep>
   <time name="dav">    2.95    1.83</time>
   <time name="total">    3.20    1.99</time>
   <energy>
    <i name="alphaZ">     21.59805500 </i>
    <i name="ewald">   -419.23349694 </i>
    <i name="hartreedc">   -181.50125176 </i>
    <i name="XCdc">      3.56817794 </i>
    <i name="pawpsdc">    552.81707762 </i>
    <i name="pawaedc">   -561.24209086 </i>
    <i name="eentropy">      0.00000000 </i>
    <i name="bandstr">    -15.73919255 </i>
    <i name="atom">    594.30652615 </i>
    <i name="e_fr_energy">     -5.42619540 </i>
    <i name="e_wo_entrp">     -5.42619540 </i>
    <i name="e_0_energy">     -5.42619540 </i>
   </energy>
  </scstep>
  <structure>
   <crystal>
    <varray name="basis" >
     <v>      -2.00000000       2.00000000       2.00000000 </v>
     <v>       2.00000000      -2.00000000       2.00000000 </v>
     <v>       2.00000000       2.00000000      -2.00000000 </v>
    </varray>
    <i name="volume">     32.00000000 </i>
    <varray name="rec_basis" >
     <v>       0.00000000       0.25000000       0.25000000 </v>
     <v>       0.25000000       0.00000000       0.25000000 </v>
     <v>       0.25000000       0.25000000       0.00000000 </v>
    </varray>
   </crystal>
   <varray name="positions" >
    <v>       0.00000000       0.00000000       0.00000000 </v>
   </varray>
  </structure>
  <varray name="forces" >
   <v>       0.00000000      -0.00000000       0.00000000 </v>
  </varray>
  <varray name="stress" >
   <v>    -166.18191164       0.00000000       0.00000000 </v>
   <v>      -0.00000000    -166.18191164      -0.00000000 </v>
   <v>       0.00000000      -0.00000000    -166.18191164 </v>
  </varray>
  <energy>
   <i name="e_fr_energy">     -5.42619540 </i>
   <i name="e_wo_entrp">     -5.42619540 </i>
   <i name="e_0_energy">      0.00000000 </i>
  </energy>
  <time name="totalsc">   99.47   62.55</time>
  <eigenvalues>
   <array>
    <dimension dim="1">band</dimension>
    <dimension dim="2">kpoint</dimension>
    <dimension dim="3">spin</dimension>
    <field>eigene</field>
    <field>occ</field>
    <set>
     <set comment="spin 1">
      <set comment="kpoint 1">
       <r>   -4.1104    1.0000 </r>
       <r>   -2.6725    1.0000 </r>
       <r>   -2.6725    1.0000 </r>
       <r>   -2.5900    1.0000 </r>
       <r>   -2.5900    1.0000 </r>
       <r>   -2.5160    1.0000 </r>
       <r>    9.8949    0.0000 </r>
       <r>   10.8049    0.0000 </r>
       <r>   10.8049    0.0000 </r>
       <r>   14.3821    0.0000 </r>
       <r>   14.3821    0.0000 </r>
       <r>   15.7309    0.0000 </r>
      </set>
      <set comment="kpoint 2">
       <r>   -3.3474    1.0000 </r>
       <r>   -2.7327    1.0000 </r>
       <r>   -2.6908    1.0000 </r>
       <r>   -2.5783    1.0000 </r>
       <r>   -2.5548    1.0000 </r>
       <r>   -2.2596    1.0001 </r>
       <r>    6.7399    0.0000 </r>
       <r>    8.8238    0.0000 </r>
       <r>    9.4990    0.0000 </r>
       <r>   14.1044    0.0000 </r>
       <r>   14.2900    0.0000 </r>
       <r>   15.9245    0.0000 </r>
      </set>
      <set comment="kpoint 3">
       <r>   -3.0475    1.0000 </r>
       <r>   -2.7839    1.0000 </r>
       <r>   -2.5739    1.0000 </r>
       <r>   -2.5433    1.0000 </r>
       <r>   -2.3411    1.0000 </r>
       <r>   -1.2560    1.0677 </r>
       <r>    3.5297    0.0000 </r>
       <r>    7.7736    0.0000 </r>
       <r>    8.6598    0.0000 </r>
       <r>   13.5695    0.0000 </r>
       <r>   13.6589    0.0000 </r>
       <r>   17.3522    0.0000 </r>
      </set>
      <set comment="kpoint 4">
       <r>   -3.0635    1.0000 </r>
       <r>   -2.8041    1.0000 </r>
       <r>   -2.5727    1.0000 </r>
       <r>   -2.5195    1.0000 </r>
       <r>   -2.2301    1.0000 </r>
       <r>    0.7631    0.1558 </r>
       <r>    0.8745    0.0000 </r>
       <r>    7.4123    0.0000 </r>
       <r>    8.3729    0.0000 </r>
       <r>   13.3770    0.0000 </r>
       <r>   13.4256    0.0000 </r>
       <r>   18.7451    0.0000 </r>
      </set>
      <set comment="kpoint 5">
       <r>   -4.4053    1.0000 </r>
       <r>   -2.6323    1.0000 </r>
       <r>   -2.6323    1.0000 </r>
       <r>   -2.6193    1.0000 </r>
       <r>   -2.6091    1.0000 </r>
       <r>   -2.5825    1.0000 </r>
       <r>   11.8490    0.0000 </r>
       <r>   11.9167    0.0000 </r>
       <r>   11.9167    0.0000 </r>
       <r>   13.7391    0.0000 </r>
       <r>   14.8023    0.0000 </r>
       <r>   14.8023    0.0000 </r>
      </set>
      <set comment="kpoint 6">
       <r>   -2.8994    1.0000 </r>
       <r>   -2.7909    1.0000 </r>
       <r>   -2.6417    1.0000 </r>
       <r>   -2.5420    1.0000 </r>
       <r>   -2.5391    1.0000 </r>
       <r>   -1.4528    1.0626 </r>
       <r>    5.1363    0.0000 </r>
       <r>    6.1125    0.0000 </r>
       <r>    8.0989    0.0000 </r>
       <r>   15.2978    0.0000 </r>
       <r>   15.4252    0.0000 </r>
       <r>   17.2207    0.0000 </r>
      </set>
      <set comment="kpoint 7">
       <r>   -2.9135    1.0000 </r>
       <r>   -2.7895    1.0000 </r>
       <r>   -2.6122    1.0000 </r>
       <r>   -2.5136    1.0000 </r>
       <r>   -2.4015    1.0000 </r>
       <r>    0.2356    0.3329 </r>
       <r>    2.5954    0.0000 </r>
       <r>    5.0895    0.0000 </r>
       <r>    7.5026    0.0000 </r>
       <r>   14.9700    0.0000 </r>
       <r>   16.7839    0.0000 </r>
       <r>   17.5027    0.0000 </r>
      </set>
      <set comment="kpoint 8">
       <r>   -3.8287    1.0000 </r>
       <r>   -2.6799    1.0000 </r>
       <r>   -2.6726    1.0000 </r>
       <r>   -2.5775    1.0000 </r>
       <r>   -2.5642    1.0000 </r>
       <r>   -2.5001    1.0000 </r>
       <r>    8.5144    0.0000 </r>
       <r>   10.3125    0.0000 </r>
       <r>   11.0075    0.0000 </r>
       <r>   13.0127    0.0000 </r>
       <r>   13.7767    0.0000 </r>
       <r>   14.5410    0.0000 </r>
      </set>
      <set comment="kpoint 9">
       <r>   -2.8436    1.0000 </r>
       <r>   -2.7208    1.0000 </r>
       <r>   -2.7208    1.0000 </r>
       <r>   -2.4599    1.0000 </r>
       <r>   -2.4599    1.0000 </r>
       <r>    1.7379   -0.0437 </r>
       <r>    2.6704    0.0000 </r>
       <r>    2.6704    0.0000 </r>
       <r>    7.2054    0.0000 </r>
       <r>   16.7356    0.0000 </r>
       <r>   16.9200    0.0000 </r>
       <r>   16.9200    0.0000 </r>
      </set>
      <set comment="kpoint 10">
       <r>   -3.1429    1.0000 </r>
       <r>   -2.7355    1.0000 </r>
       <r>   -2.6590    1.0000 </r>
       <r>   -2.5421    1.0000 </r>
       <r>   -2.3142    1.0000 </r>
       <r>   -2.1206    1.0099 </r>
       <r>    5.0407    0.0000 </r>
       <r>    8.9780    0.0000 </r>
       <r>    9.9841    0.0000 </r>
       <r>   12.7543    0.0000 </r>
       <r>   12.8408    0.0000 </r>
       <r>   15.0832    0.0000 </r>
      </set>
      <set comment="kpoint 11">
       <r>   -3.1710    1.0000 </r>
       <r>   -2.7719    1.0000 </r>
       <r>   -2.6421    1.0000 </r>
       <r>   -2.5614    1.0000 </r>
       <r>   -2.4821    1.0000 </r>
       <r>   -2.2143    1.0018 </r>
       <r>    6.7264    0.0000 </r>
       <r>    7.4899    0.0000 </r>
       <r>   10.5654    0.0000 </r>
       <r>   12.4608    0.0000 </r>
       <r>   13.3144    0.0000 </r>
       <r>   16.2406    0.0000 </r>
      </set>
      <set comment="kpoint 12">
       <r>   -3.0927    1.0000 </r>
       <r>   -2.7797    1.0000 </r>
       <r>   -2.6129    1.0000 </r>
       <r>   -2.5263    1.0000 </r>
       <r>   -2.1731    1.0000 </r>
       <r>   -0.4151    0.9206 </r>
       <r>    2.0341    0.0000 </r>
       <r>    8.2426    0.0000 </r>
       <r>    9.4213    0.0000 </r>
       <r>   12.3768    0.0000 </r>
       <r>   12.4984    0.0000 </r>
       <r>   16.5788    0.0000 </r>
      </set>
      <set comment="kpoint 13">
       <r>   -2.9793    1.0000 </r>
       <r>   -2.7844    1.0000 </r>
       <r>   -2.6689    1.0000 </r>
       <r>   -2.5137    1.0000 </r>
       <r>   -2.3011    1.0000 </r>
       <r>   -0.9857    1.0216 </r>
       <r>    3.7990    0.0000 </r>
       <r>    6.2521    0.0000 </r>
       <r>    9.9362    0.0000 </r>
       <r>   12.3653    0.0000 </r>
       <r>   13.8268    0.0000 </r>
       <r>   16.1703    0.0000 </r>
      </set>
      <set comment="kpoint 14">
       <r>   -3.0079    1.0000 </r>
       <r>   -2.7533    1.0000 </r>
       <r>   -2.6976    1.0000 </r>
       <r>   -2.5020    1.0000 </r>
       <r>   -2.2167    1.0000 </r>
       <r>    1.0697   -0.0104 </r>
       <r>    1.1537    0.0000 </r>
       <r>    5.9027    0.0000 </r>
       <r>    9.6620    0.0000 </r>
       <r>   12.2207    0.0000 </r>
       <r>   15.1336    0.0000 </r>
       <r>   15.8349    0.0000 </r>
      </set>
      <set comment="kpoint 15">
       <r>   -2.8587    1.0000 </r>
       <r>   -2.8535    1.0000 </r>
       <r>   -2.7372    1.0000 </r>
       <r>   -2.4178    1.0000 </r>
       <r>   -2.3137    1.0000 </r>
       <r>    0.7892    0.0631 </r>
       <r>    2.9285    0.0000 </r>
       <r>    3.6090    0.0000 </r>
       <r>    9.8766    0.0000 </r>
       <r>   13.3489    0.0000 </r>
       <r>   13.5250    0.0000 </r>
       <r>   15.4704    0.0000 </r>
      </set>
      <set comment="kpoint 16">
       <r>   -2.7781    1.0000 </r>
       <r>   -2.7781    1.0000 </r>
       <r>   -2.6018    1.0000 </r>
       <r>   -2.5535    1.0000 </r>
       <r>   -2.5535    1.0000 </r>
       <r>   -0.0401    0.5084 </r>
       <r>    3.9399    0.0000 </r>
       <r>    5.2437    0.0000 </r>
       <r>    5.2437    0.0000 </r>
       <r>   18.3936    0.0000 </r>
       <r>   18.3936    0.0000 </r>
       <r>   19.2328    0.0000 </r>
      </set>
      <set comment="kpoint 17">
       <r>   -2.7741    1.0000 </r>
       <r>   -2.7616    1.0000 </r>
       <r>   -2.5693    1.0000 </r>
       <r>   -2.5681    1.0000 </r>
       <r>   -2.5408    1.0000 </r>
       <r>    1.6305   -0.0399 </r>
       <r>    2.3416    0.0000 </r>
       <r>    4.2723    0.0000 </r>
       <r>    4.9489    0.0000 </r>
       <r>   18.7677    0.0000 </r>
       <r>   18.8352    0.0000 </r>
       <r>   20.2282    0.0000 </r>
      </set>
      <set comment="kpoint 18">
       <r>   -3.3283    1.0000 </r>
       <r>   -2.7514    1.0000 </r>
       <r>   -2.5818    1.0000 </r>
       <r>   -2.5818    1.0000 </r>
       <r>   -2.4983    1.0000 </r>
       <r>   -2.4326    1.0000 </r>
       <r>    8.7374    0.0000 </r>
       <r>    8.7374    0.0000 </r>
       <r>    8.8683    0.0000 </r>
       <r>   10.6813    0.0000 </r>
       <r>   15.9129    0.0000 </r>
       <r>   15.9129    0.0000 </r>
      </set>
      <set comment="kpoint 19">
       <r>   -2.9667    1.0000 </r>
       <r>   -2.8365    1.0000 </r>
       <r>   -2.6022    1.0000 </r>
       <r>   -2.5234    1.0000 </r>
       <r>   -2.3332    1.0000 </r>
       <r>   -1.6177    1.0327 </r>
       <r>    5.5624    0.0000 </r>
       <r>    7.4455    0.0000 </r>
       <r>    8.5530    0.0000 </r>
       <r>   10.7927    0.0000 </r>
       <r>   15.3193    0.0000 </r>
       <r>   15.7731    0.0000 </r>
      </set>
      <set comment="kpoint 20">
       <r>   -3.0082    1.0000 </r>
       <r>   -2.8160    1.0000 </r>
       <r>   -2.6345    1.0000 </r>
       <r>   -2.5034    1.0000 </r>
       <r>   -2.1868    1.0000 </r>
       <r>    0.1692    0.4194 </r>
       <r>    2.6048    0.0000 </r>
       <r>    6.7367    0.0000 </r>
       <r>    8.1475    0.0000 </r>
       <r>   12.2560    0.0000 </r>
       <r>   14.5380    0.0000 </r>
       <r>   14.8131    0.0000 </r>
      </set>
      <set comment="kpoint 21">
       <r>   -2.9426    1.0000 </r>
       <r>   -2.9232    1.0000 </r>
       <r>   -2.5950    1.0000 </r>
       <r>   -2.4190    1.0000 </r>
       <r>   -2.2608    1.0000 </r>
       <r>   -0.1545    0.5873 </r>
       <r>    4.3629    0.0000 </r>
       <r>    5.0171    0.0000 </r>
       <r>    9.0366    0.0000 </r>
       <r>   10.3953    0.0000 </r>
       <r>   14.2557    0.0000 </r>
       <r>   15.1442    0.0000 </r>
      </set>
      <set comment="kpoint 22">
       <r>   -2.9865    1.0000 </r>
       <r>   -2.9164    1.0000 </r>
       <r>   -2.6156    1.0000 </r>
       <r>   -2.3691    1.0000 </r>
       <r>   -2.2152    1.0000 </r>
       <r>    1.7267   -0.0624 </r>
       <r>    2.1930    0.0000 </r>
       <r>    4.4291    0.0000 </r>
       <r>    9.1574    0.0000 </r>
       <r>   11.5398    0.0000 </r>
       <r>   12.2857    0.0000 </r>
       <r>   14.7584    0.0000 </r>
      </set>
      <set comment="kpoint 23">
       <r>   -2.9689    1.0000 </r>
       <r>   -2.9641    1.0000 </r>
       <r>   -2.4254    1.0000 </r>
       <r>   -2.4254    1.0000 </r>
       <r>   -2.3303    1.0000 </r>
       <r>   -0.4963    0.7960 </r>
       <r>    6.1429    0.0000 </r>
       <r>    6.1429    0.0000 </r>
       <r>    6.8066    0.0000 </r>
       <r>    8.7605    0.0000 </r>
       <r>   14.2262    0.0000 </r>
       <r>   18.4835    0.0000 </r>
      </set>
      <set comment="kpoint 24">
       <r>   -3.0510    1.0000 </r>
       <r>   -3.0165    1.0000 </r>
       <r>   -2.4071    1.0000 </r>
       <r>   -2.3560    1.0000 </r>
       <r>   -2.2059    1.0000 </r>
       <r>    1.2768   -0.0245 </r>
       <r>    3.6993    0.0000 </r>
       <r>    5.4184    0.0000 </r>
       <r>    7.0179    0.0000 </r>
       <r>    9.2631    0.0000 </r>
       <r>   11.4680    0.0000 </r>
       <r>   18.0431    0.0000 </r>
      </set>
      <set comment="kpoint 25">
       <r>   -3.0773    1.0000 </r>
       <r>   -3.0773    1.0000 </r>
       <r>   -2.3848    1.0000 </r>
       <r>   -2.2261    1.0000 </r>
       <r>   -2.2261    1.0000 </r>
       <r>    2.8192   -0.0124 </r>
       <r>    3.6342    0.0000 </r>
       <r>    3.6342    0.0000 </r>
       <r>    7.5756    0.0000 </r>
       <r>    9.3823    0.0000 </r>
       <r>    9.3823    0.0000 </r>
       <r>   18.0869    0.0000 </r>
      </set>
      <set comment="kpoint 26">
       <r>   -3.1336    1.0000 </r>
       <r>   -3.1264    1.0000 </r>
       <r>   -2.2321    1.0000 </r>
       <r>   -2.2321    1.0000 </r>
       <r>   -2.2135    1.0000 </r>
       <r>    2.9220   -0.0108 </r>
       <r>    4.6739    0.0000 </r>
       <r>    4.6739    0.0000 </r>
       <r>    5.6870    0.0000 </r>
       <r>    7.8613    0.0000 </r>
       <r>    8.8926    0.0000 </r>
       <r>   21.4038    0.0000 </r>
      </set>
     </set>
     <set comment="spin 2">
      <set comment="kpoint 1">
       <r>   -3.9005    1.0000 </r>
       <r>    0.1049    0.4616 </r>
       <r>    0.1049    0.1706 </r>
       <r>    0.3148    0.0000 </r>
       <r>    0.9407    0.0000 </r>
       <r>    0.9407    0.0000 </r>
       <r>   10.7152    0.0000 </r>
       <r>   11.2406    0.0000 </r>
       <r>   11.2406    0.0000 </r>
       <r>   14.8181    0.0000 </r>
       <r>   14.8181    0.0000 </r>
       <r>   15.2706    0.0000 </r>
      </set>
      <set comment="kpoint 2">
       <r>   -3.0226    1.0000 </r>
       <r>   -0.0100    1.0324 </r>
       <r>    0.0496    0.9667 </r>
       <r>    0.5718    0.0000 </r>
       <r>    0.8803    0.0000 </r>
       <r>    0.9695    0.0000 </r>
       <r>    7.3471    0.0000 </r>
       <r>    9.3951    0.0000 </r>
       <r>    9.8687    0.0000 </r>
       <r>   14.5177    0.0000 </r>
       <r>   14.5602    0.0000 </r>
       <r>   16.0164    0.0000 </r>
      </set>
      <set comment="kpoint 3">
       <r>   -1.7362    1.0000 </r>
       <r>   -0.1176    1.0018 </r>
       <r>    0.0379    0.8671 </r>
       <r>    0.8581    0.0000 </r>
       <r>    0.8974    0.0000 </r>
       <r>    0.9970    0.0000 </r>
       <r>    4.2262    0.0000 </r>
       <r>    8.3280    0.0000 </r>
       <r>    9.0054    0.0000 </r>
       <r>   13.8433    0.0000 </r>
       <r>   14.0476    0.0000 </r>
       <r>   17.6178    0.0000 </r>
      </set>
      <set comment="kpoint 4">
       <r>   -0.9661    1.0000 </r>
       <r>   -0.1605    1.0000 </r>
       <r>    0.2377    0.0817 </r>
       <r>    0.8635    0.0000 </r>
       <r>    1.0087    0.0000 </r>
       <r>    1.3043    0.0000 </r>
       <r>    2.3466    0.0000 </r>
       <r>    7.9429    0.0000 </r>
       <r>    8.7094    0.0000 </r>
       <r>   13.6137    0.0000 </r>
       <r>   13.8710    0.0000 </r>
       <r>   19.1412    0.0000 </r>
      </set>
      <set comment="kpoint 5">
       <r>   -4.2023    1.0000 </r>
       <r>    0.1559   -0.1402 </r>
       <r>    0.1559   -0.0101 </r>
       <r>    0.1823    0.0000 </r>
       <r>    0.9278    0.0000 </r>
       <r>    0.9788    0.0000 </r>
       <r>   12.7297    0.0000 </r>
       <r>   12.7297    0.0000 </r>
       <r>   12.7504    0.0000 </r>
       <r>   13.5199    0.0000 </r>
       <r>   14.7212    0.0000 </r>
       <r>   14.7212    0.0000 </r>
      </set>
      <set comment="kpoint 6">
       <r>   -1.9464    1.0000 </r>
       <r>   -0.0912    1.0020 </r>
       <r>   -0.0823    1.0433 </r>
       <r>    0.8843    0.0000 </r>
       <r>    0.9062    0.0000 </r>
       <r>    1.0109    0.0000 </r>
       <r>    5.7768    0.0000 </r>
       <r>    6.5840    0.0000 </r>
       <r>    8.5343    0.0000 </r>
       <r>   15.5346    0.0000 </r>
       <r>   15.8641    0.0000 </r>
       <r>   17.4288    0.0000 </r>
      </set>
      <set comment="kpoint 7">
       <r>   -0.8284    1.0000 </r>
       <r>   -0.1715    1.0000 </r>
       <r>   -0.0755    1.0261 </r>
       <r>    0.8962    0.0000 </r>
       <r>    0.9811    0.0000 </r>
       <r>    1.5925    0.0000 </r>
       <r>    3.3288    0.0000 </r>
       <r>    5.6175    0.0000 </r>
       <r>    7.9399    0.0000 </r>
       <r>   15.2505    0.0000 </r>
       <r>   17.2503    0.0000 </r>
       <r>   17.6002    0.0000 </r>
      </set>
      <set comment="kpoint 8">
       <r>   -3.6017    1.0000 </r>
       <r>    0.0832    0.7750 </r>
       <r>    0.1432   -0.0253 </r>
       <r>    0.3490    0.0000 </r>
       <r>    0.8394    0.0000 </r>
       <r>    0.9962    0.0000 </r>
       <r>    9.1086    0.0000 </r>
       <r>   10.9863    0.0000 </r>
       <r>   11.5218    0.0000 </r>
       <r>   13.3215    0.0000 </r>
       <r>   13.9110    0.0000 </r>
       <r>   14.5761    0.0000 </r>
      </set>
      <set comment="kpoint 9">
       <r>   -0.4072    1.0000 </r>
       <r>   -0.1624    1.0000 </r>
       <r>   -0.1624    1.0156 </r>
       <r>    0.9413    0.0000 </r>
       <r>    0.9413    0.0000 </r>
       <r>    2.7634    0.0000 </r>
       <r>    3.3013    0.0000 </r>
       <r>    3.3013    0.0000 </r>
       <r>    7.6607    0.0000 </r>
       <r>   16.9203    0.0000 </r>
       <r>   16.9203    0.0000 </r>
       <r>   17.5661    0.0000 </r>
      </set>
      <set comment="kpoint 10">
       <r>   -2.4705    1.0000 </r>
       <r>   -0.0287    1.0340 </r>
       <r>    0.1077    0.3896 </r>
       <r>    0.6217    0.0000 </r>
       <r>    0.7939    0.0000 </r>
       <r>    1.0099    0.0000 </r>
       <r>    5.6686    0.0000 </r>
       <r>    9.5710    0.0000 </r>
       <r>   10.3770    0.0000 </r>
       <r>   13.0507    0.0000 </r>
       <r>   13.1705    0.0000 </r>
       <r>   15.2384    0.0000 </r>
      </set>
      <set comment="kpoint 11">
       <r>   -2.7351    1.0000 </r>
       <r>    0.0565    0.9284 </r>
       <r>    0.0832    0.5663 </r>
       <r>    0.5601    0.0000 </r>
       <r>    0.7400    0.0000 </r>
       <r>    1.0242    0.0000 </r>
       <r>    7.3719    0.0000 </r>
       <r>    7.9457    0.0000 </r>
       <r>   11.2174    0.0000 </r>
       <r>   12.5839    0.0000 </r>
       <r>   13.5917    0.0000 </r>
       <r>   16.4374    0.0000 </r>
      </set>
      <set comment="kpoint 12">
       <r>   -1.2282    1.0000 </r>
       <r>   -0.1066    1.0094 </r>
       <r>    0.2644   -0.1436 </r>
       <r>    0.8092    0.0000 </r>
       <r>    0.8391    0.0000 </r>
       <r>    1.0843    0.0000 </r>
       <r>    2.9565    0.0000 </r>
       <r>    8.7661    0.0000 </r>
       <r>    9.7665    0.0000 </r>
       <r>   12.6287    0.0000 </r>
       <r>   12.9579    0.0000 </r>
       <r>   16.7724    0.0000 </r>
      </set>
      <set comment="kpoint 13">
       <r>   -1.4813    1.0000 </r>
       <r>   -0.0322    1.0256 </r>
       <r>    0.0487    0.8278 </r>
       <r>    0.7371    0.0000 </r>
       <r>    0.8241    0.0000 </r>
       <r>    1.1309    0.0000 </r>
       <r>    4.4681    0.0000 </r>
       <r>    6.7623    0.0000 </r>
       <r>   10.4517    0.0000 </r>
       <r>   12.6131    0.0000 </r>
[...]
       </set>
       <set comment="band 5">
        <r>  0.0005  0.0000  0.0000  0.0000  0.0854  0.2576  0.1289  0.0854  0.3868 </r>
       </set>
       <set comment="band 6">
        <r>  0.1184  0.0058  0.0058  0.0437  0.1252  0.0515  0.0496  0.1252  0.1489 </r>
       </set>
       <set comment="band 7">
        <r>  0.2391  0.0270  0.0270  0.0425  0.0161  0.0761  0.0069  0.0161  0.0208 </r>
       </set>
       <set comment="band 8">
        <r>  0.0000  0.0863  0.0863  0.0000  0.0742  0.0000  0.0759  0.0742  0.0253 </r>
       </set>
       <set comment="band 9">
        <r>  0.0011  0.1127  0.1127  0.0859  0.0116  0.0208  0.0000  0.0116  0.0001 </r>
       </set>
       <set comment="band 10">
        <r>  0.0000  0.0341  0.0341  0.0000  0.0046  0.0000  0.0948  0.0046  0.0316 </r>
       </set>
       <set comment="band 11">
        <r>  0.1070  0.0306  0.0306  0.0018  0.0331  0.0499  0.0127  0.0331  0.0382 </r>
       </set>
       <set comment="band 12">
        <r>  0.0583  0.0053  0.0053  0.1290  0.0213  0.0093  0.0180  0.0213  0.0540 </r>
       </set>
      </set>
      <set comment="kpoint 16">
       <set comment="band 1">
        <r>  0.1171  0.0196  0.0196  0.0196  0.0910  0.0910  0.0000  0.0910  0.0000 </r>
       </set>
       <set comment="band 2">
        <r>  0.0000  0.0036  0.0031  0.0063  0.1858  0.3781  0.0073  0.2132  0.0130 </r>
       </set>
       <set comment="band 3">
        <r>  0.0000  0.0051  0.0055  0.0023  0.3322  0.1400  0.0130  0.3049  0.0073 </r>
       </set>
       <set comment="band 4">
        <r>  0.0000  0.0000  0.0000  0.0000  0.0102  0.0157  0.4696  0.0039  0.4472 </r>
       </set>
       <set comment="band 5">
        <r>  0.0000  0.0000  0.0000  0.0000  0.0097  0.0042  0.4472  0.0160  0.4696 </r>
       </set>
       <set comment="band 6">
        <r>  0.0800  0.0086  0.0086  0.0086  0.2319  0.2319  0.0000  0.2319  0.0000 </r>
       </set>
       <set comment="band 7">
        <r>  0.2969  0.0438  0.0438  0.0438  0.0011  0.0011  0.0000  0.0011  0.0000 </r>
       </set>
       <set comment="band 8">
        <r>  0.0000  0.0612  0.0505  0.0578  0.0533  0.0609  0.0062  0.0646  0.0077 </r>
       </set>
       <set comment="band 9">
        <r>  0.0000  0.0518  0.0625  0.0552  0.0659  0.0582  0.0077  0.0546  0.0062 </r>
       </set>
       <set comment="band 10">
        <r>  0.0000  0.0000  0.0000  0.0000  0.0000  0.0000  0.0000  0.0000  0.0000 </r>
       </set>
       <set comment="band 11">
        <r>  0.0000  0.1035  0.1727  0.0152  0.0098  0.0009  0.1074  0.0059  0.0135 </r>
       </set>
       <set comment="band 12">
        <r>  0.0000  0.0908  0.0216  0.1791  0.0012  0.0102  0.0135  0.0052  0.1074 </r>
       </set>
      </set>
      <set comment="kpoint 17">
       <set comment="band 1">
        <r>  0.0279  0.0000  0.0000  0.0239  0.0000  0.6405  0.0057  0.0000  0.0171 </r>
       </set>
       <set comment="band 2">
        <r>  0.0000  0.0074  0.0074  0.0000  0.3933  0.0000  0.0000  0.3933  0.0000 </r>
       </set>
       <set comment="band 3">
        <r>  0.0000  0.0233  0.0233  0.0000  0.3245  0.0000  0.0000  0.3245  0.0000 </r>
       </set>
       <set comment="band 4">
        <r>  0.0000  0.0000  0.0000  0.0000  0.0000  0.0411  0.2267  0.0000  0.6800 </r>
       </set>
       <set comment="band 5">
        <r>  0.0000  0.0000  0.0000  0.0000  0.0000  0.0000  0.7129  0.0000  0.2376 </r>
       </set>
       <set comment="band 6">
        <r>  0.3872  0.0000  0.0000  0.0076  0.0000  0.1700  0.0023  0.0000  0.0068 </r>
       </set>
       <set comment="band 7">
        <r>  0.0000  0.0727  0.0727  0.0000  0.1644  0.0000  0.0000  0.1644  0.0000 </r>
       </set>
       <set comment="band 8">
        <r>  0.0910  0.0000  0.0000  0.1645  0.0000  0.1306  0.0029  0.0000  0.0088 </r>
       </set>
       <set comment="band 9">
        <r>  0.0000  0.0836  0.0836  0.0000  0.0999  0.0000  0.0000  0.0999  0.0000 </r>
       </set>
       <set comment="band 10">
        <r>  0.0000  0.0096  0.0096  0.0000  0.0558  0.0000  0.0000  0.0558  0.0000 </r>
       </set>
       <set comment="band 11">
        <r>  0.0278  0.0000  0.0000  0.1939  0.0000  0.0067  0.0309  0.0000  0.0928 </r>
       </set>
       <set comment="band 12">
        <r>  0.0000  0.0485  0.0487  0.0000  0.0034  0.0000  0.0000  0.0035  0.0000 </r>
       </set>
      </set>
      <set comment="kpoint 18">
       <set comment="band 1">
        <r>  0.2382  0.0000  0.0000  0.0329  0.0000  0.0000  0.0021  0.0000  0.0064 </r>
       </set>
       <set comment="band 2">
        <r>  0.0000  0.0019  0.0019  0.0000  0.4463  0.0000  0.0000  0.4463  0.0000 </r>
       </set>
       <set comment="band 3">
        <r>  0.0000  0.0019  0.0019  0.0000  0.4463  0.0000  0.0000  0.4463  0.0000 </r>
       </set>
       <set comment="band 4">
        <r>  0.0000  0.0000  0.0000  0.0000  0.0000  0.9269  0.0000  0.0000  0.0000 </r>
       </set>
       <set comment="band 5">
        <r>  0.0000  0.0000  0.0000  0.0000  0.0000  0.0000  0.6684  0.0000  0.2228 </r>
       </set>
       <set comment="band 6">
        <r>  0.0056  0.0000  0.0000  0.0003  0.0000  0.0000  0.2347  0.0000  0.7042 </r>
       </set>
       <set comment="band 7">
        <r>  0.0000  0.1418  0.1418  0.0000  0.0548  0.0000  0.0000  0.0548  0.0000 </r>
       </set>
       <set comment="band 8">
        <r>  0.0000  0.1418  0.1418  0.0000  0.0548  0.0000  0.0000  0.0548  0.0000 </r>
       </set>
       <set comment="band 9">
        <r>  0.2122  0.0000  0.0000  0.2313  0.0000  0.0000  0.0004  0.0000  0.0011 </r>
       </set>
       <set comment="band 10">
        <r>  0.0000  0.0000  0.0000  0.0000  0.0000  0.0000  0.1233  0.0000  0.0411 </r>
       </set>
       <set comment="band 11">
        <r>  0.0000  0.0610  0.1171  0.0000  0.0212  0.0000  0.0000  0.0408  0.0000 </r>
       </set>
       <set comment="band 12">
        <r>  0.0000  0.1171  0.0610  0.0000  0.0408  0.0000  0.0000  0.0212  0.0000 </r>
       </set>
      </set>
      <set comment="kpoint 19">
       <set comment="band 1">
        <r>  0.1966  0.0024  0.0000  0.0515  0.0157  0.0000  0.0135  0.0000  0.0271 </r>
       </set>
       <set comment="band 2">
        <r>  0.0000  0.0000  0.0038  0.0000  0.0000  0.2561  0.0000  0.6299  0.0000 </r>
       </set>
       <set comment="band 3">
        <r>  0.0004  0.0083  0.0000  0.0027  0.6388  0.0000  0.1143  0.0000  0.0798 </r>
       </set>
       <set comment="band 4">
        <r>  0.0000  0.0004  0.0000  0.0002  0.2157  0.0000  0.5550  0.0000  0.1201 </r>
       </set>
       <set comment="band 5">
        <r>  0.0000  0.0000  0.0013  0.0000  0.0000  0.6785  0.0000  0.2632  0.0000 </r>
       </set>
       <set comment="band 6">
        <r>  0.0228  0.0004  0.0000  0.0030  0.0060  0.0000  0.1956  0.0000  0.6921 </r>
       </set>
       <set comment="band 7">
        <r>  0.1154  0.1346  0.0000  0.0445  0.0853  0.0000  0.0124  0.0000  0.0162 </r>
       </set>
       <set comment="band 8">
        <r>  0.0000  0.0000  0.2837  0.0000  0.0000  0.0021  0.0000  0.0931  0.0000 </r>
       </set>
       <set comment="band 9">
        <r>  0.1319  0.0483  0.0000  0.0972  0.0083  0.0000  0.0733  0.0000  0.0023 </r>
       </set>
       <set comment="band 10">
        <r>  0.0203  0.1022  0.0000  0.0244  0.0172  0.0000  0.0718  0.0000  0.0435 </r>
       </set>
       <set comment="band 11">
        <r>  0.0000  0.0000  0.0993  0.0000  0.0000  0.1222  0.0000  0.0662  0.0000 </r>
       </set>
       <set comment="band 12">
        <r>  0.0672  0.0904  0.0000  0.0166  0.0627  0.0000  0.0213  0.0000  0.0208 </r>
       </set>
      </set>
      <set comment="kpoint 20">
       <set comment="band 1">
        <r>  0.1078  0.0005  0.0000  0.0337  0.2311  0.0000  0.1127  0.0000  0.0406 </r>
       </set>
       <set comment="band 2">
        <r>  0.0006  0.0255  0.0000  0.0204  0.1459  0.0000  0.0857  0.0000  0.3969 </r>
       </set>
       <set comment="band 3">
        <r>  0.0000  0.0000  0.0039  0.0000  0.0000  0.3895  0.0000  0.4893  0.0000 </r>
       </set>
       <set comment="band 4">
        <r>  0.0018  0.0006  0.0000  0.0005  0.3258  0.0000  0.5772  0.0000  0.0001 </r>
       </set>
       <set comment="band 5">
        <r>  0.0000  0.0000  0.0003  0.0000  0.0000  0.5419  0.0000  0.4220  0.0000 </r>
       </set>
       <set comment="band 6">
        <r>  0.0700  0.0126  0.0000  0.0367  0.1080  0.0000  0.0670  0.0000  0.4461 </r>
       </set>
       <set comment="band 7">
        <r>  0.1684  0.0838  0.0000  0.0182  0.1492  0.0000  0.0347  0.0000  0.0511 </r>
       </set>
       <set comment="band 8">
        <r>  0.0000  0.0000  0.2897  0.0000  0.0000  0.0177  0.0000  0.0550  0.0000 </r>
       </set>
       <set comment="band 9">
        <r>  0.1254  0.0495  0.0000  0.0652  0.0044  0.0000  0.1052  0.0000  0.0004 </r>
       </set>
       <set comment="band 10">
        <r>  0.0180  0.1520  0.0000  0.0349  0.0072  0.0000  0.0602  0.0000  0.0473 </r>
       </set>
       <set comment="band 11">
        <r>  0.0001  0.0170  0.0000  0.1471  0.0023  0.0000  0.0418  0.0000  0.0842 </r>
       </set>
       <set comment="band 12">
        <r>  0.0000  0.0000  0.0866  0.0000  0.0000  0.1160  0.0000  0.0923  0.0000 </r>
       </set>
      </set>
      <set comment="kpoint 21">
       <set comment="band 1">
        <r>  0.1162  0.0013  0.0013  0.0540  0.0469  0.0001  0.0427  0.0469  0.1281 </r>
       </set>
       <set comment="band 2">
        <r>  0.0000  0.0054  0.0054  0.0000  0.1748  0.0000  0.3317  0.1748  0.1106 </r>
       </set>
       <set comment="band 3">
        <r>  0.0001  0.0032  0.0032  0.0045  0.2125  0.3541  0.0176  0.2125  0.0528 </r>
       </set>
       <set comment="band 4">
        <r>  0.0000  0.0008  0.0008  0.0000  0.2646  0.0000  0.2854  0.2646  0.0951 </r>
       </set>
       <set comment="band 5">
        <r>  0.0009  0.0003  0.0003  0.0000  0.1311  0.5619  0.0311  0.1311  0.0932 </r>
       </set>
       <set comment="band 6">
        <r>  0.0816  0.0017  0.0017  0.0265  0.0566  0.0186  0.1363  0.0566  0.4089 </r>
       </set>
       <set comment="band 7">
        <r>  0.1852  0.0559  0.0559  0.0404  0.0292  0.0120  0.0049  0.0292  0.0148 </r>
       </set>
       <set comment="band 8">
        <r>  0.0000  0.1033  0.1033  0.0000  0.0463  0.0000  0.0589  0.0463  0.0196 </r>
       </set>
       <set comment="band 9">
        <r>  0.1286  0.0944  0.0944  0.0758  0.0075  0.0008  0.0056  0.0075  0.0167 </r>
       </set>
       <set comment="band 10">
        <r>  0.0000  0.0291  0.0291  0.0000  0.0046  0.0000  0.1273  0.0046  0.0424 </r>
       </set>
       <set comment="band 11">
        <r>  0.0001  0.0142  0.0142  0.1287  0.0057  0.0178  0.0277  0.0057  0.0831 </r>
       </set>
       <set comment="band 12">
        <r>  0.0884  0.0144  0.0144  0.0187  0.0394  0.0576  0.0033  0.0394  0.0099 </r>
       </set>
      </set>
      <set comment="kpoint 22">
       <set comment="band 1">
        <r>  0.0401  0.0068  0.0023  0.0068  0.3457  0.0148  0.2804  0.0148  0.0000 </r>
       </set>
       <set comment="band 2">
        <r>  0.0000  0.0193  0.0000  0.0193  0.0000  0.0401  0.0000  0.0401  0.5587 </r>
       </set>
       <set comment="band 3">
        <r>  0.0055  0.0001  0.0073  0.0001  0.0186  0.3351  0.1457  0.3351  0.0000 </r>
       </set>
       <set comment="band 4">
        <r>  0.0025  0.0003  0.0005  0.0003  0.4047  0.0815  0.3502  0.0815  0.0000 </r>
       </set>
       <set comment="band 5">
        <r>  0.0000  0.0003  0.0000  0.0003  0.0000  0.4179  0.0000  0.4179  0.1201 </r>
       </set>
       <set comment="band 6">
        <r>  0.2902  0.0172  0.0008  0.0172  0.1846  0.0075  0.0591  0.0075  0.0000 </r>
       </set>
       <set comment="band 7">
        <r>  0.0000  0.0835  0.0000  0.0835  0.0000  0.0257  0.0000  0.0257  0.2433 </r>
       </set>
       <set comment="band 8">
        <r>  0.0554  0.0125  0.1683  0.0125  0.0071  0.0330  0.0690  0.0330  0.0000 </r>
       </set>
       <set comment="band 9">
        <r>  0.0978  0.0473  0.1197  0.0473  0.0010  0.0036  0.0685  0.0036  0.0000 </r>
       </set>
       <set comment="band 10">
        <r>  0.0417  0.1030  0.0020  0.1030  0.0055  0.0004  0.1016  0.0004  0.0000 </r>
       </set>
       <set comment="band 11">
        <r>  0.0000  0.0313  0.0000  0.0313  0.0000  0.0006  0.0000  0.0006  0.1516 </r>
       </set>
       <set comment="band 12">
        <r>  0.0897  0.0044  0.0239  0.0044  0.0481  0.0620  0.0001  0.0620  0.0000 </r>
       </set>
      </set>
      <set comment="kpoint 23">
       <set comment="band 1">
        <r>  0.1283  0.0000  0.0000  0.0646  0.0000  0.0000  0.0474  0.0000  0.1423 </r>
       </set>
       <set comment="band 2">
        <r>  0.0000  0.0000  0.0000  0.0000  0.0000  0.0000  0.6178  0.0000  0.2059 </r>
       </set>
       <set comment="band 3">
        <r>  0.0000  0.0038  0.0038  0.0000  0.4470  0.0000  0.0000  0.4470  0.0000 </r>
       </set>
       <set comment="band 4">
        <r>  0.0000  0.0038  0.0038  0.0000  0.4470  0.0000  0.0000  0.4470  0.0000 </r>
       </set>
       <set comment="band 5">
        <r>  0.0000  0.0000  0.0000  0.0000  0.0000  0.9476  0.0000  0.0000  0.0000 </r>
       </set>
       <set comment="band 6">
        <r>  0.0776  0.0000  0.0000  0.0190  0.0000  0.0000  0.1798  0.0000  0.5395 </r>
       </set>
       <set comment="band 7">
        <r>  0.0000  0.1370  0.1370  0.0000  0.0428  0.0000  0.0000  0.0428  0.0000 </r>
       </set>
       <set comment="band 8">
        <r>  0.0000  0.1370  0.1370  0.0000  0.0428  0.0000  0.0000  0.0428  0.0000 </r>
       </set>
       <set comment="band 9">
        <r>  0.3302  0.0000  0.0000  0.1126  0.0000  0.0000  0.0107  0.0000  0.0321 </r>
       </set>
       <set comment="band 10">
        <r>  0.0000  0.0000  0.0000  0.0000  0.0000  0.0000  0.1874  0.0000  0.0625 </r>
       </set>
       <set comment="band 11">
        <r>  0.0310  0.0000  0.0000  0.1457  0.0000  0.0000  0.0316  0.0000  0.0947 </r>
       </set>
       <set comment="band 12">
        <r>  0.0000  0.1430  0.0301  0.0000  0.0958  0.0000  0.0000  0.0202  0.0000 </r>
       </set>
      </set>
      <set comment="kpoint 24">
       <set comment="band 1">
        <r>  0.0278  0.0003  0.0000  0.0314  0.0517  0.0000  0.2139  0.0000  0.3129 </r>
       </set>
       <set comment="band 2">
        <r>  0.0004  0.0067  0.0000  0.0008  0.0532  0.0000  0.3918  0.0000  0.3201 </r>
       </set>
       <set comment="band 3">
        <r>  0.0000  0.0000  0.0059  0.0000  0.0000  0.3248  0.0000  0.5799  0.0000 </r>
       </set>
       <set comment="band 4">
        <r>  0.0065  0.0044  0.0000  0.0003  0.7421  0.0000  0.1477  0.0000  0.0040 </r>
       </set>
       <set comment="band 5">
        <r>  0.0000  0.0000  0.0003  0.0000  0.0000  0.6222  0.0000  0.3392  0.0000 </r>
       </set>
       <set comment="band 6">
        <r>  0.1520  0.0024  0.0000  0.0835  0.0556  0.0000  0.0612  0.0000  0.1980 </r>
       </set>
       <set comment="band 7">
        <r>  0.1041  0.1588  0.0000  0.0150  0.0586  0.0000  0.0107  0.0000  0.0599 </r>
       </set>
       <set comment="band 8">
        <r>  0.0000  0.0000  0.2761  0.0000  0.0000  0.0104  0.0000  0.0495  0.0000 </r>
       </set>
       <set comment="band 9">
        <r>  0.2329  0.0464  0.0000  0.0547  0.0046  0.0000  0.1112  0.0000  0.0017 </r>
       </set>
       <set comment="band 10">
        <r>  0.0369  0.0696  0.0000  0.0114  0.0054  0.0000  0.1069  0.0000  0.0731 </r>
       </set>
       <set comment="band 11">
        <r>  0.0358  0.0010  0.0000  0.1122  0.0010  0.0000  0.0349  0.0000  0.1090 </r>
       </set>
       <set comment="band 12">
        <r>  0.0000  0.0000  0.0778  0.0000  0.0000  0.1105  0.0000  0.0806  0.0000 </r>
       </set>
      </set>
      <set comment="kpoint 25">
       <set comment="band 1">
        <r>  0.0000  0.0017  0.0066  0.0017  0.0129  0.0032  0.7202  0.0032  0.0000 </r>
       </set>
       <set comment="band 2">
        <r>  0.0000  0.0050  0.0000  0.0050  0.0000  0.0097  0.0000  0.0097  0.7202 </r>
       </set>
       <set comment="band 3">
        <r>  0.0095  0.0023  0.0023  0.0023  0.2929  0.2928  0.0000  0.2928  0.0000 </r>
       </set>
       <set comment="band 4">
        <r>  0.0000  0.0010  0.0000  0.0010  0.0000  0.4609  0.0000  0.4609  0.0277 </r>
       </set>
       <set comment="band 5">
        <r>  0.0000  0.0003  0.0013  0.0003  0.6145  0.1536  0.0277  0.1536  0.0000 </r>
       </set>
       <set comment="band 6">
        <r>  0.3113  0.0280  0.0280  0.0280  0.0244  0.0244  0.0000  0.0244  0.0000 </r>
       </set>
       <set comment="band 7">
        <r>  0.0000  0.0367  0.1469  0.0367  0.0165  0.0041  0.1152  0.0041  0.0000 </r>
       </set>
       <set comment="band 8">
        <r>  0.0000  0.1102  0.0000  0.1102  0.0000  0.0124  0.0000  0.0124  0.1152 </r>
       </set>
       <set comment="band 9">
        <r>  0.2923  0.0735  0.0735  0.0735  0.0033  0.0033  0.0000  0.0033  0.0000 </r>
       </set>
       <set comment="band 10">
        <r>  0.0000  0.0076  0.0303  0.0076  0.0007  0.0002  0.2170  0.0002  0.0000 </r>
       </set>
       <set comment="band 11">
        <r>  0.0000  0.0227  0.0000  0.0227  0.0000  0.0005  0.0000  0.0005  0.2170 </r>
       </set>
       <set comment="band 12">
        <r>  0.0294  0.0271  0.0271  0.0271  0.0520  0.0520  0.0000  0.0520  0.0000 </r>
       </set>
      </set>
      <set comment="kpoint 26">
       <set comment="band 1">
        <r>  0.0013  0.0000  0.0000  0.0070  0.0000  0.0000  0.1842  0.0000  0.5526 </r>
       </set>
       <set comment="band 2">
        <r>  0.0000  0.0000  0.0000  0.0000  0.0000  0.0000  0.5812  0.0000  0.1937 </r>
       </set>
       <set comment="band 3">
        <r>  0.0000  0.0014  0.0014  0.0000  0.4731  0.0000  0.0000  0.4731  0.0000 </r>
       </set>
       <set comment="band 4">
        <r>  0.0000  0.0014  0.0014  0.0000  0.4731  0.0000  0.0000  0.4731  0.0000 </r>
       </set>
       <set comment="band 5">
        <r>  0.0000  0.0000  0.0000  0.0000  0.0000  0.9622  0.0000  0.0000  0.0000 </r>
       </set>
       <set comment="band 6">
        <r>  0.1430  0.0000  0.0000  0.1635  0.0000  0.0000  0.0200  0.0000  0.0600 </r>
       </set>
       <set comment="band 7">
        <r>  0.0000  0.1392  0.1392  0.0000  0.0099  0.0000  0.0000  0.0099  0.0000 </r>
       </set>
       <set comment="band 8">
        <r>  0.0000  0.1392  0.1392  0.0000  0.0099  0.0000  0.0000  0.0099  0.0000 </r>
       </set>
       <set comment="band 9">
        <r>  0.4658  0.0000  0.0000  0.0635  0.0000  0.0000  0.0107  0.0000  0.0322 </r>
       </set>
       <set comment="band 10">
        <r>  0.0000  0.0000  0.0000  0.0000  0.0000  0.0000  0.2305  0.0000  0.0768 </r>
       </set>
       <set comment="band 11">
        <r>  0.0217  0.0000  0.0000  0.0537  0.0000  0.0000  0.0557  0.0000  0.1671 </r>
       </set>
       <set comment="band 12">
        <r>  0.0000  0.0000  0.0000  0.0000  0.0000  0.1147  0.0000  0.0000  0.0000 </r>
       </set>
      </set>
     </set>
    </set>
   </array>
  </projected>
 </calculation>
 <structure name="finalpos" >
  <crystal>
   <varray name="basis" >
    <v>      -2.00000000       2.00000000       2.00000000 </v>
    <v>       2.00000000      -2.00000000       2.00000000 </v>
    <v>       2.00000000       2.00000000      -2.00000000 </v>
   </varray>
   <i name="volume">     32.00000000 </i>
   <varray name="rec_basis" >
    <v>       0.00000000       0.25000000       0.25000000 </v>
    <v>       0.25000000       0.00000000       0.25000000 </v>
    <v>       0.25000000       0.25000000       0.00000000 </v>
   </varray>
  </crystal>
  <varray name="positions" >
   <v>       0.00000000       0.00000000       0.00000000 </v>
  </varray>
 </structure>
</modeling>
