Fe BCC                                  
   2.85000000000000     
    -0.500000    0.500000    0.500000
     0.500000   -0.500000    0.500000
     0.500000    0.500000   -0.500000
   Fe
     1
Direct
  0.000000  0.000000  0.000000
 
   32   32   32
  98.116      95.813      89.250      79.360      67.409      54.706      42.377      31.278      21.980      14.800    
  9.7967      6.7623      5.2328      4.5676      4.1714      3.9250      3.8422      3.9250      4.1714      4.5676    
  5.2328      6.7623      9.7967      14.800      21.980      31.278      42.377      54.706      67.409      79.360    
  89.250      95.813      95.813      95.052      89.930      81.192      70.004      57.664      45.354      34.008    
  24.280      16.560      10.990      7.4479      5.5492      4.7038      4.2631      3.9685      3.8328      3.8600    
  4.0497      4.3943      4.9107      6.0337      8.4240      12.614      18.903      27.324      37.652      49.409    
  61.849      73.946      84.458      92.099      89.250      89.930      86.398      79.174      69.258      57.860    
  46.157      35.120      25.455      17.612      11.796      7.9606      5.8021      4.7984      4.3155      3.9852    
  3.8043      3.7788      3.9089      4.1920      4.6141      5.3758      7.0880      10.330      15.486      22.689    
  31.816      42.492      54.090      65.717      76.249      84.458      79.360      81.192      79.174      73.610    
  65.288      55.278      44.681      34.456      25.329      17.784      12.068      8.1934      5.9317      4.8357    
  4.3223      3.9711      3.7568      3.6861      3.7595      3.9770      4.3323      4.8514      5.9587      8.2443    
  12.163      17.946      25.579      34.798      45.099      55.731      65.717      73.946      67.409      70.004    
  69.258      65.288      58.677      50.308      41.163      32.138      23.940      17.057      11.757      8.0941    
  5.8997      4.8006      4.2814      3.9245      3.6905      3.5859      3.6104      3.7648      4.0493      4.4536    
  5.1209      6.5669      9.2856      13.597      19.596      27.137      35.841      45.099      54.090      61.849    
  54.706      57.664      57.860      55.278      50.308      43.646      36.121      28.529      21.522      15.565    
  10.927      7.6807      5.7039      4.6899      4.1951      3.8465      3.6068      3.4813      3.4682      3.5673    
  3.7821      4.1126      4.5580      5.3825      7.0708      10.005      14.382      20.175      27.137      34.798    
  42.492      49.409      42.377      45.354      46.157      44.681      41.163      36.121      30.222      24.139    
  18.445      13.559      9.7293      7.0332      5.3793      4.5163      4.0703      3.7415      3.5086      3.3750    
  3.3368      3.3923      3.5452      3.8011      4.1590      4.6435      5.5741      7.3554      10.262      14.382    
  19.596      25.579      31.816      37.652      31.278      34.008      35.120      34.456      32.138      28.529    
  24.139      19.511      15.125      11.337      8.3612      6.2684      4.9850      4.3041      3.9168      3.6161    
  3.4002      3.2695      3.2185      3.2434      3.3464      3.5348      3.8156      4.1862      4.6931      5.6445    
  7.3554      10.005      13.597      17.946      22.689      27.324      21.980      24.280      25.455      25.329    
  23.940      21.522      18.445      15.125      11.940      9.1800      7.0176      5.5072      4.5853      4.0795    
  3.7458      3.4791      3.2871      3.1677      3.1139      3.1203      3.1872      3.3206      3.5302      3.8230    
  4.1950      4.6931      5.5741      7.0708      9.2856      12.163      15.486      18.903      14.800      16.560    
  17.612      17.784      17.057      15.565      13.559      11.337      9.1800      7.3081      5.8513      4.8447    
  4.2287      3.8584      3.5691      3.3395      3.1752      3.0723      3.0230      3.0210      3.0645      3.1576    
  3.3091      3.5289      3.8230      4.1862      4.6435      5.3825      6.5669      8.2443      10.330      12.614    
  9.7967      10.990      11.796      12.068      11.757      10.927      9.7293      8.3612      7.0176      5.8513    
  4.9508      4.3311      3.9343      3.6429      3.3971      3.2056      3.0701      2.9860      2.9456      2.9423    
  2.9729      3.0395      3.1484      3.3091      3.5302      3.8156      4.1590      4.5580      5.1209      5.9587    
  7.0880      8.4240      6.7623      7.4479      7.9606      8.1934      8.0941      7.6807      7.0332      6.2684    
  5.5072      4.8447      4.3311      3.9631      3.6838      3.4404      3.2385      3.0840      2.9766      2.9114    
  2.8817      2.8814      2.9069      2.9582      3.0395      3.1576      3.3206      3.5348      3.8011      4.1126    
  4.4536      4.8514      5.3758      6.0337      5.2328      5.5492      5.8021      5.9317      5.8997      5.7039    
  5.3793      4.9850      4.5853      4.2287      3.9343      3.6838      3.4564      3.2595      3.0997      2.9796    
  2.8978      2.8503      2.8316      2.8366      2.8620      2.9069      2.9729      3.0645      3.1872      3.3464    
  3.5452      3.7821      4.0493      4.3323      4.6141      4.9107      4.5676      4.7038      4.7984      4.8357    
  4.8006      4.6899      4.5163      4.3041      4.0795      3.8584      3.6429      3.4404      3.2595      3.1064    
  2.9847      2.8950      2.8359      2.8042      2.7960      2.8077      2.8366      2.8814      2.9423      3.0210    
  3.1203      3.2434      3.3923      3.5673      3.7648      3.9770      4.1920      4.3943      4.1714      4.2631    
  4.3155      4.3223      4.2814      4.1951      4.0703      3.9168      3.7458      3.5691      3.3971      3.2385    
  3.0997      2.9847      2.8952      2.8313      2.7916      2.7740      2.7762      2.7960      2.8316      2.8817    
  2.9456      3.0230      3.1139      3.2185      3.3368      3.4682      3.6104      3.7595      3.9089      4.0497    
  3.9250      3.9685      3.9852      3.9711      3.9245      3.8465      3.7415      3.6161      3.4791      3.3395    
  3.2056      3.0840      2.9796      2.8950      2.8313      2.7883      2.7652      2.7607      2.7740      2.8042    
  2.8503      2.9114      2.9860      3.0723      3.1677      3.2695      3.3750      3.4813      3.5859      3.6861    
  3.7788      3.8600      3.8422      3.8328      3.8043      3.7568      3.6905      3.6068      3.5086      3.4002    
  3.2871      3.1752      3.0701      2.9766      2.8978      2.8359      2.7916      2.7652      2.7564      2.7652    
  2.7916      2.8359      2.8978      2.9766      3.0701      3.1752      3.2871      3.4002      3.5086      3.6068    
  3.6905      3.7568      3.8043      3.8328      3.9250      3.8600      3.7788      3.6861      3.5859      3.4813    
  3.3750      3.2695      3.1677      3.0723      2.9860      2.9114      2.8503      2.8042      2.7740      2.7607    
  2.7652      2.7883      2.8313      2.8950      2.9796      3.0840      3.2056      3.3395      3.4791      3.6161    
  3.7415      3.8465      3.9245      3.9711      3.9852      3.9685      4.1714      4.0497      3.9089      3.7595    
  3.6104      3.4682      3.3368      3.2185      3.1139      3.0230      2.9456      2.8817      2.8316      2.7960    
  2.7762      2.7740      2.7916      2.8313      2.8952      2.9847      3.0997      3.2385      3.3971      3.5691    
  3.7458      3.9168      4.0703      4.1951      4.2814      4.3223      4.3155      4.2631      4.5676      4.3943    
  4.1920      3.9770      3.7648      3.5673      3.3923      3.2434      3.1203      3.0210      2.9423      2.8814    
  2.8366      2.8077      2.7960      2.8042      2.8359      2.8950      2.9847      3.1064      3.2595      3.4404    
  3.6429      3.8584      4.0795      4.3041      4.5163      4.6899      4.8006      4.8357      4.7984      4.7038    
  5.2328      4.9107      4.6141      4.3323      4.0493      3.7821      3.5452      3.3464      3.1872      3.0645    
  2.9729      2.9069      2.8620      2.8366      2.8316      2.8503      2.8978      2.9796      3.0997      3.2595    
  3.4564      3.6838      3.9343      4.2287      4.5853      4.9850      5.3793      5.7039      5.8997      5.9317    
  5.8021      5.5492      6.7623      6.0337      5.3758      4.8514      4.4536      4.1126      3.8011      3.5348    
  3.3206      3.1576      3.0395      2.9582      2.9069      2.8814      2.8817      2.9114      2.9766      3.0840    
  3.2385      3.4404      3.6838      3.9631      4.3311      4.8447      5.5072      6.2684      7.0332      7.6807    
  8.0941      8.1934      7.9606      7.4479      9.7967      8.4240      7.0880      5.9587      5.1209      4.5580    
  4.1590      3.8156      3.5302      3.3091      3.1484      3.0395      2.9729      2.9423      2.9456      2.9860    
  3.0701      3.2056      3.3971      3.6429      3.9343      4.3311      4.9508      5.8513      7.0176      8.3612    
  9.7293      10.927      11.757      12.068      11.796      10.990      14.800      12.614      10.330      8.2443    
  6.5669      5.3825      4.6435      4.1862      3.8230      3.5289      3.3091      3.1576      3.0645      3.0210    
  3.0230      3.0723      3.1752      3.3395      3.5691      3.8584      4.2287      4.8447      5.8513      7.3081    
  9.1800      11.337      13.559      15.565      17.057      17.784      17.612      16.560      21.980      18.903    
  15.486      12.163      9.2856      7.0708      5.5741      4.6931      4.1950      3.8230      3.5302      3.3206    
  3.1872      3.1203      3.1139      3.1677      3.2871      3.4791      3.7458      4.0795      4.5853      5.5072    
  7.0176      9.1800      11.940      15.125      18.445      21.522      23.940      25.329      25.455      24.280    
  31.278      27.324      22.689      17.946      13.597      10.005      7.3554      5.6445      4.6931      4.1862    
  3.8156      3.5348      3.3464      3.2434      3.2185      3.2695      3.4002      3.6161      3.9168      4.3041    
  4.9850      6.2684      8.3612      11.337      15.125      19.511      24.139      28.529      32.138      34.456    
  35.120      34.008      42.377      37.652      31.816      25.579      19.596      14.382      10.262      7.3554    
  5.5741      4.6435      4.1590      3.8011      3.5452      3.3923      3.3368      3.3750      3.5086      3.7415    
  4.0703      4.5163      5.3793      7.0332      9.7293      13.559      18.445      24.139      30.222      36.121    
  41.163      44.681      46.157      45.354      54.706      49.409      42.492      34.798      27.137      20.175    
  14.382      10.005      7.0708      5.3825      4.5580      4.1126      3.7821      3.5673      3.4682      3.4813    
  3.6068      3.8465      4.1951      4.6899      5.7039      7.6807      10.927      15.565      21.522      28.529    
  36.121      43.646      50.308      55.278      57.860      57.664      67.409      61.849      54.090      45.099    
  35.841      27.137      19.596      13.597      9.2856      6.5669      5.1209      4.4536      4.0493      3.7648    
  3.6104      3.5859      3.6905      3.9245      4.2814      4.8006      5.8997      8.0941      11.757      17.057    
  23.940      32.138      41.163      50.308      58.677      65.288      69.258      70.004      79.360      73.946    
  65.717      55.731      45.099      34.798      25.579      17.946      12.163      8.2443      5.9587      4.8514    
  4.3323      3.9770      3.7595      3.6861      3.7568      3.9711      4.3223      4.8357      5.9317      8.1934    
  12.068      17.784      25.329      34.456      44.681      55.278      65.288      73.610      79.174      81.192    
  89.250      84.458      76.249      65.717      54.090      42.492      31.816      22.689      15.486      10.330    
  7.0880      5.3758      4.6141      4.1920      3.9089      3.7788      3.8043      3.9852      4.3155      4.7984    
  5.8021      7.9606      11.796      17.612      25.455      35.120      46.157      57.860      69.258      79.174    
  86.398      89.930      95.813      92.099      84.458      73.946      61.849      49.409      37.652      27.324    
  18.903      12.614      8.4240      6.0337      4.9107      4.3943      4.0497      3.8600      3.8328      3.9685    
  4.2631      4.7038      5.5492      7.4479      10.990      16.560      24.280      34.008      45.354      57.664    
  70.004      81.192      89.930      95.052      95.813      95.052      89.930      81.192      70.004      57.664    
  45.354      34.008      24.280      16.560      10.990      7.4479      5.5492      4.7038      4.2631      3.9685    
  3.8328      3.8600      4.0497      4.3943      4.9107      6.0337      8.4240      12.614      18.903      27.324    
  37.652      49.409      61.849      73.946      84.458      92.099      95.052      95.813      92.099      84.458    
  73.946      61.849      49.409      37.652      27.324      18.903      12.614      8.4240      6.0337      4.9107    
  4.3943      4.0497      3.8600      3.8328      3.9685      4.2631      4.7038      5.5492      7.4479      10.990    
  16.560      24.280      34.008      45.354      57.664      70.004      81.192      89.930      89.930      92.099    
  89.930      83.749      74.433      63.176      51.212      39.615      29.196      20.503      13.830      9.2219    
  6.4619      5.0903      4.4840      4.1025      3.8667      3.7876      3.8667      4.1025      4.4840      5.0903    
  6.4619      9.2219      13.830      20.503      29.196      39.615      51.212      63.176      74.433      83.749    
  81.192      84.458      83.749      79.174      71.397      61.455      50.506      39.613      29.617      21.107    
  14.430      9.6898      6.7439      5.2095      4.5242      4.1203      3.8502      3.7269      3.7522      3.9260    
  4.2445      4.7022      5.6048      7.5617      11.089      16.495      23.839      32.930      43.336      54.374    
  65.113      74.433      70.004      73.946      74.433      71.397      65.288      56.951      47.410      37.663    
  28.535      20.627      14.312      9.7349      6.8125      5.2353      4.5116      4.0992      3.8090      3.6527    
  3.6318      3.7465      3.9970      4.3751      4.9495      6.1972      8.6597      12.723      18.549      26.060    
  34.940      44.639      54.374      63.176      57.664      61.849      63.176      61.455      56.951      50.308    
  42.387      34.073      26.136      19.156      13.505      9.3486      6.6461      5.1511      4.4446      4.0388    
  3.7430      3.5668      3.5109      3.5742      3.7587      4.0650      4.4843      5.2129      6.7531      9.5404    
  13.831      19.662      26.837      34.940      43.336      51.212      45.354      49.409      51.212      50.506    
  47.410      42.387      36.121      29.364      22.794      16.942      12.157      8.6066      6.2746      4.9652    
  4.3273      3.9425      3.6543      3.4716      3.3933      3.4165      3.5430      3.7774      4.1196      4.5776    
  5.4394      7.1477      10.029      14.223      19.662      26.060      32.930      39.615      34.008      37.652    
  39.615      39.613      37.663      34.073      29.364      24.139      18.971      14.319      10.493      7.6444    
  5.7690      4.7084      4.1712      3.8173      3.5475      3.3699      3.2813      3.2772      3.3574      3.5274    
  3.7941      4.1557      4.6446      5.5705      7.2902      10.029      13.831      18.549      23.839      29.196    
  24.280      27.324      29.196      29.617      28.535      26.136      22.794      18.971      15.125      11.634    
  8.7561      6.6190      5.2182      4.4225      3.9909      3.6722      3.4288      3.2653      3.1769      3.1573    
  3.2044      3.3225      3.5202      3.8047      4.1733      4.6694      5.5705      7.1477      9.5404      12.723    
  16.495      20.503      16.560      18.903      20.503      21.107      20.627      19.156      16.942      14.319    
  11.634      9.1800      7.1600      5.6710      4.7033      4.1448      3.7977      3.5178      3.3054      3.1621    
  3.0815      3.0563      3.0827      3.1628      3.3043      3.5173      3.8083      4.1733      4.6446      5.4394    
  6.7531      8.6597      11.089      13.830      10.990      12.614      13.830      14.430      14.312      13.505    
  12.157      10.493      8.7561      7.1600      5.8513      4.8962      4.2765      3.8938      3.6029      3.3639    
  3.1848      3.0646      2.9964      2.9726      2.9883      3.0436      3.1440      3.2987      3.5173      3.8047    
  4.1558      4.5776      5.2129      6.1972      7.5617      9.2219      7.4479      8.4240      9.2219      9.6898    
  9.7349      9.3486      8.6066      7.6444      6.6190      5.6710      4.8962      4.3311      3.9483      3.6625    
  3.4169      3.2191      3.0733      2.9767      2.9229      2.9047      2.9169      2.9581      3.0315      3.1440    
  3.3043      3.5202      3.7941      4.1196      4.4843      4.9495      5.6048      6.4619      5.5492      6.0337    
  6.4619      6.7439      6.8125      6.6461      6.2746      5.7690      5.2182      4.7033      4.2765      3.9483    
  3.6838      3.4482      3.2482      3.0902      2.9757      2.9015      2.8621      2.8515      2.8648      2.8999    
  2.9581      3.0436      3.1628      3.3225      3.5274      3.7774      4.0650      4.3751      4.7022      5.0903    
  4.7038      4.9107      5.0903      5.2095      5.2353      5.1511      4.9652      4.7084      4.4225      4.1448    
  3.8938      3.6625      3.4482      3.2595      3.1029      2.9814      2.8951      2.8411      2.8152      2.8127    
  2.8300      2.8648      2.9169      2.9883      3.0827      3.2044      3.3574      3.5430      3.7587      3.9970    
  4.2445      4.4840      4.2631      4.3943      4.4840      4.5242      4.5116      4.4446      4.3273      4.1712    
  3.9909      3.7977      3.6029      3.4169      3.2482      3.1029      2.9847      2.8950      2.8330      2.7967    
  2.7832      2.7894      2.8127      2.8515      2.9047      2.9726      3.0563      3.1573      3.2772      3.4165    
  3.5742      3.7465      3.9260      4.1025      3.9685      4.0497      4.1025      4.1203      4.0992      4.0388    
  3.9425      3.8173      3.6722      3.5178      3.3639      3.2191      3.0902      2.9814      2.8950      2.8313    
  2.7898      2.7690      2.7673      2.7832      2.8152      2.8621      2.9229      2.9964      3.0815      3.1769    
  3.2813      3.3933      3.5109      3.6318      3.7522      3.8667      3.8328      3.8600      3.8667      3.8502    
  3.8090      3.7430      3.6543      3.5475      3.4288      3.3054      3.1848      3.0733      2.9757      2.8951    
  2.8330      2.7898      2.7652      2.7584      2.7690      2.7967      2.8411      2.9015      2.9767      3.0646    
  3.1621      3.2653      3.3699      3.4716      3.5668      3.6527      3.7269      3.7876      3.8600      3.8328    
  3.7876      3.7269      3.6527      3.5668      3.4716      3.3699      3.2653      3.1621      3.0646      2.9767    
  2.9015      2.8411      2.7967      2.7690      2.7584      2.7652      2.7898      2.8330      2.8951      2.9757    
  3.0733      3.1848      3.3054      3.4288      3.5475      3.6543      3.7430      3.8090      3.8502      3.8667    
  4.0497      3.9685      3.8667      3.7522      3.6318      3.5109      3.3933      3.2813      3.1769      3.0815    
  2.9964      2.9229      2.8621      2.8152      2.7832      2.7673      2.7690      2.7898      2.8313      2.8950    
  2.9814      3.0902      3.2191      3.3639      3.5178      3.6722      3.8173      3.9425      4.0388      4.0992    
  4.1203      4.1025      4.3943      4.2631      4.1025      3.9260      3.7465      3.5742      3.4165      3.2772    
  3.1573      3.0563      2.9726      2.9047      2.8515      2.8127      2.7894      2.7832      2.7967      2.8330    
  2.8950      2.9847      3.1029      3.2482      3.4169      3.6029      3.7977      3.9909      4.1712      4.3273    
  4.4446      4.5116      4.5242      4.4840      4.9107      4.7038      4.4840      4.2445      3.9970      3.7587    
  3.5430      3.3574      3.2044      3.0827      2.9883      2.9169      2.8648      2.8300      2.8127      2.8152    
  2.8411      2.8951      2.9814      3.1029      3.2595      3.4482      3.6625      3.8938      4.1448      4.4225    
  4.7084      4.9652      5.1511      5.2353      5.2095      5.0903      6.0337      5.5492      5.0903      4.7022    
  4.3751      4.0650      3.7774      3.5274      3.3225      3.1628      3.0436      2.9581      2.8999      2.8648    
  2.8515      2.8621      2.9015      2.9757      3.0902      3.2482      3.4482      3.6838      3.9483      4.2765    
  4.7033      5.2182      5.7690      6.2746      6.6461      6.8125      6.7439      6.4619      8.4240      7.4479    
  6.4619      5.6048      4.9495      4.4843      4.1196      3.7941      3.5202      3.3043      3.1440      3.0315    
  2.9581      2.9169      2.9047      2.9229      2.9767      3.0733      3.2191      3.4169      3.6625      3.9483    
  4.3311      4.8962      5.6710      6.6190      7.6444      8.6066      9.3486      9.7349      9.6898      9.2219    
  12.614      10.990      9.2219      7.5617      6.1972      5.2129      4.5776      4.1557      3.8047      3.5173    
  3.2987      3.1440      3.0436      2.9883      2.9726      2.9964      3.0646      3.1848      3.3639      3.6029    
  3.8938      4.2765      4.8962      5.8513      7.1600      8.7561      10.493      12.157      13.505      14.312    
  14.430      13.830      18.903      16.560      13.830      11.089      8.6597      6.7531      5.4394      4.6446    
  4.1733      3.8083      3.5173      3.3043      3.1628      3.0827      3.0563      3.0815      3.1621      3.3054    
  3.5178      3.7977      4.1448      4.7033      5.6710      7.1600      9.1800      11.634      14.319      16.942    
  19.156      20.627      21.107      20.503      27.324      24.280      20.503      16.495      12.723      9.5404    
  7.1477      5.5705      4.6694      4.1733      3.8047      3.5202      3.3225      3.2044      3.1573      3.1769    
  3.2653      3.4288      3.6722      3.9909      4.4225      5.2182      6.6190      8.7561      11.634      15.125    
  18.971      22.794      26.136      28.535      29.617      29.196      37.652      34.008      29.196      23.839    
  18.549      13.831      10.029      7.2902      5.5705      4.6446      4.1558      3.7941      3.5274      3.3574    
  3.2772      3.2813      3.3699      3.5475      3.8173      4.1712      4.7084      5.7690      7.6444      10.493    
  14.319      18.971      24.139      29.364      34.073      37.663      39.613      39.615      49.409      45.354    
  39.615      32.930      26.060      19.662      14.223      10.029      7.1477      5.4394      4.5776      4.1196    
  3.7774      3.5430      3.4165      3.3933      3.4716      3.6543      3.9425      4.3273      4.9652      6.2746    
  8.6066      12.157      16.942      22.794      29.364      36.121      42.387      47.410      50.506      51.212    
  61.849      57.664      51.212      43.336      34.940      26.837      19.662      13.831      9.5404      6.7531    
  5.2129      4.4843      4.0650      3.7587      3.5742      3.5109      3.5668      3.7430      4.0388      4.4446    
  5.1511      6.6461      9.3486      13.505      19.156      26.136      34.073      42.387      50.308      56.951    
  61.455      63.176      73.946      70.004      63.176      54.374      44.639      34.940      26.060      18.549    
  12.723      8.6597      6.1972      4.9495      4.3751      3.9970      3.7465      3.6318      3.6527      3.8090    
  4.0992      4.5116      5.2353      6.8125      9.7349      14.312      20.627      28.535      37.663      47.410    
  56.951      65.288      71.397      74.433      84.458      81.192      74.433      65.113      54.374      43.336    
  32.930      23.839      16.495      11.089      7.5617      5.6048      4.7022      4.2445      3.9260      3.7522    
  3.7269      3.8502      4.1203      4.5242      5.2095      6.7439      9.6898      14.430      21.107      29.617    
  39.613      50.506      61.455      71.397      79.174      83.749      92.099      89.930      83.749      74.433    
  63.176      51.212      39.615      29.196      20.503      13.830      9.2219      6.4619      5.0903      4.4840    
  4.1025      3.8667      3.7876      3.8667      4.1025      4.4840      5.0903      6.4619      9.2219      13.830    
  20.503      29.196      39.615      51.212      63.176      74.433      83.749      89.930      89.250      89.930    
  86.398      79.174      69.258      57.860      46.157      35.120      25.455      17.612      11.796      7.9606    
  5.8021      4.7984      4.3155      3.9852      3.8043      3.7788      3.9089      4.1920      4.6141      5.3758    
  7.0880      10.330      15.486      22.689      31.816      42.492      54.090      65.717      76.249      84.458    
  89.930      92.099      89.930      83.749      74.433      63.176      51.212      39.615      29.196      20.503    
  13.830      9.2219      6.4619      5.0903      4.4840      4.1025      3.8667      3.7876      3.8667      4.1025    
  4.4840      5.0903      6.4619      9.2219      13.830      20.503      29.196      39.615      51.212      63.176    
  74.433      83.749      86.398      89.930      89.250      84.458      76.249      65.717      54.090      42.492    
  31.816      22.689      15.486      10.330      7.0880      5.3758      4.6141      4.1920      3.9089      3.7788    
  3.8043      3.9852      4.3155      4.7984      5.8021      7.9606      11.796      17.612      25.455      35.120    
  46.157      57.860      69.258      79.174      79.174      83.749      84.458      81.192      74.433      65.113    
  54.374      43.336      32.930      23.839      16.495      11.089      7.5617      5.6048      4.7022      4.2445    
  3.9260      3.7522      3.7269      3.8502      4.1203      4.5242      5.2095      6.7439      9.6898      14.430    
  21.107      29.617      39.613      50.506      61.455      71.397      69.258      74.433      76.249      74.433    
  69.258      61.455      52.030      42.031      32.378      23.775      16.690      11.360      7.7830      5.7237    
  4.7363      4.2538      3.9141      3.7076      3.6389      3.7076      3.9141      4.2538      4.7363      5.7237    
  7.7830      11.360      16.690      23.775      32.378      42.031      52.030      61.455      57.860      63.176    
  65.717      65.113      61.455      55.278      47.410      38.783      30.258      22.521      16.046      11.092    
  7.7014      5.6970      4.7041      4.2174      3.8713      3.6453      3.5439      3.5657      3.7113      3.9819    
  4.3686      4.9712      6.2628      8.7227      12.669      18.207      25.213      33.343      42.031      50.506    
  46.157      51.212      54.090      54.374      52.030      47.410      41.163      34.073      26.904      20.289    
  14.681      10.341      7.3309      5.5217      4.6029      4.1376      3.7985      3.5665      3.4449      3.4305    
  3.5231      3.7263      4.0412      4.4617      5.1987      6.7114      9.3738      13.386      18.739      25.213    
  32.378      39.613      35.120      39.615      42.492      43.336      42.031      38.783      34.073      28.529    
  22.794      17.424      12.827      9.2432      6.7435      5.2287      4.4438      4.0202      3.6996      3.4738    
  3.3441      3.3058      3.3568      3.5005      3.7430      4.0845      4.5352      5.3656      6.9653      9.6061    
  13.386      18.207      23.775      29.617      25.455      29.196      31.816      32.930      32.378      30.258    
  26.904      22.794      18.445      14.319      10.762      7.9836      6.0464      4.8715      4.2484      3.8747    
  3.5810      3.3712      3.2442      3.1936      3.2154      3.3115      3.4891      3.7556      4.1099      4.5774    
  5.4269      6.9653      9.3738      12.669      16.690      21.107      17.612      20.503      22.689      23.839    
  23.775      22.521      20.289      17.424      14.319      11.337      8.7561      6.7448      5.3514      4.5078    
  4.0389      3.7119      3.4510      3.2640      3.1476      3.0944      3.0987      3.1605      3.2857      3.4838    
  3.7621      4.1181      4.5774      5.3656      6.7114      8.7227      11.360      14.430      11.796      13.830    
  15.486      16.495      16.690      16.046      14.681      12.827      10.762      8.7561      7.0176      5.6710    
  4.7465      4.1810      3.8278      3.5429      3.3182      3.1578      3.0572      3.0083      3.0047      3.0444    
  3.1314      3.2740      3.4822      3.7621      4.1099      4.5352      5.1987      6.2628      7.7830      9.6898    
  7.9606      9.2219      10.330      11.089      11.360      11.092      10.341      9.2432      7.9836      6.7448    
  5.6710      4.8447      4.2765      3.9056      3.6195      3.3780      3.1905      3.0581      2.9755      2.9352    
  2.9304      2.9581      3.0200      3.1223      3.2740      3.4838      3.7556      4.0845      4.4617      4.9712    
  5.7237      6.7439      5.8021      6.4619      7.0880      7.5617      7.7830      7.7014      7.3309      6.7435    
  6.0464      5.3514      4.7465      4.2765      3.9343      3.6625      3.4235      3.2257      3.0746      2.9693    