Fe BCC                                  
   2.85000000000000     
    -0.500000    0.500000    0.500000
     0.500000   -0.500000    0.500000
     0.500000    0.500000   -0.500000
   Fe
     1
Direct
  0.000000  0.000000  0.000000
 
   32   32   32
 0.98116136388E+02 0.95813338859E+02 0.89250000070E+02 0.79359734055E+02 0.67409299273E+02
 0.54705603640E+02 0.42377258724E+02 0.31277612674E+02 0.21980020042E+02 0.14799776306E+02
 0.97966989929E+01 0.67622692032E+01 0.52327852576E+01 0.45675549966E+01 0.41713634712E+01
 0.39250452235E+01 0.38422277753E+01 0.39250452235E+01 0.41713634712E+01 0.45675549966E+01
 0.52327852576E+01 0.67622692032E+01 0.97966989929E+01 0.14799776306E+02 0.21980020042E+02
 0.31277612674E+02 0.42377258724E+02 0.54705603640E+02 0.67409299273E+02 0.79359734055E+02
 0.89250000070E+02 0.95813338859E+02 0.95813338859E+02 0.95052322185E+02 0.89930289929E+02
 0.81192411596E+02 0.70004235913E+02 0.57663704701E+02 0.45354012518E+02 0.34008234916E+02
 0.24279737730E+02 0.16560348968E+02 0.10990384189E+02 0.74478954942E+01 0.55491711313E+01
 0.47037695319E+01 0.42630862016E+01 0.39684862221E+01 0.38327803518E+01 0.38600311847E+01
 0.40497145513E+01 0.43942835554E+01 0.49106695438E+01 0.60337226465E+01 0.84239910674E+01
 0.12613952082E+02 0.18902977127E+02 0.27324027462E+02 0.37651944725E+02 0.49409097734E+02
 0.61848842852E+02 0.73946128769E+02 0.84457811424E+02 0.92098624673E+02 0.89250000070E+02
 0.89930289929E+02 0.86397599712E+02 0.79174463334E+02 0.69257636718E+02 0.57860314193E+02
 0.46157427633E+02 0.35119781377E+02 0.25454906950E+02 0.17612364831E+02 0.11796484163E+02
 0.79606326340E+01 0.58020778803E+01 0.47983870506E+01 0.43155137935E+01 0.39851702657E+01
 0.38043363102E+01 0.37787973190E+01 0.39089276077E+01 0.41919814725E+01 0.46141424257E+01
 0.53757653830E+01 0.70880496566E+01 0.10329643801E+02 0.15485758817E+02 0.22689323615E+02
 0.31815664268E+02 0.42491747546E+02 0.54090056523E+02 0.65717409997E+02 0.76248715195E+02
 0.84457811424E+02 0.79359734055E+02 0.81192411596E+02 0.79174463334E+02 0.73609645374E+02
 0.65288422368E+02 0.55277805725E+02 0.44681015275E+02 0.34455958353E+02 0.25329407946E+02
 0.17783990140E+02 0.12067814672E+02 0.81933563246E+01 0.59316666410E+01 0.48356903726E+01
 0.43223164875E+01 0.39711036667E+01 0.37567799031E+01 0.36861280034E+01 0.37595270027E+01
 0.39770255601E+01 0.43322973663E+01 0.48514014252E+01 0.59586640901E+01 0.82443012454E+01
 0.12162666496E+02 0.17946262938E+02 0.25578507847E+02 0.34797567676E+02 0.45099016284E+02
 0.55731497576E+02 0.65717409997E+02 0.73946128769E+02 0.67409299273E+02 0.70004235913E+02
 0.69257636718E+02 0.65288422368E+02 0.58676828877E+02 0.50308088345E+02 0.41163080044E+02
 0.32137864450E+02 0.23939931971E+02 0.17056582976E+02 0.11757107862E+02 0.80941085260E+01
 0.58996512709E+01 0.48006071432E+01 0.42813639087E+01 0.39245091357E+01 0.36904670941E+01
 0.35859292663E+01 0.36104216560E+01 0.37647546521E+01 0.40493057493E+01 0.44536270964E+01
 0.51208694463E+01 0.65669010766E+01 0.92856073377E+01 0.13597369398E+02 0.19595876205E+02
 0.27136642921E+02 0.35840787280E+02 0.45099016284E+02 0.54090056523E+02 0.61848842852E+02
 0.54705603640E+02 0.57663704701E+02 0.57860314193E+02 0.55277805725E+02 0.50308088345E+02
 0.43646374942E+02 0.36121138633E+02 0.28528544096E+02 0.21521880353E+02 0.15565328122E+02
 0.10927076958E+02 0.76806920577E+01 0.57039182890E+01 0.46899021647E+01 0.41951420434E+01
 0.38465413552E+01 0.36067947231E+01 0.34813247556E+01 0.34681558118E+01 0.35672748719E+01
 0.37820958823E+01 0.41125990898E+01 0.45580327616E+01 0.53825259515E+01 0.70708237156E+01
 0.10005305999E+02 0.14381605353E+02 0.20175283070E+02 0.27136642921E+02 0.34797567676E+02
 0.42491747546E+02 0.49409097734E+02 0.42377258724E+02 0.45354012518E+02 0.46157427633E+02
 0.44681015275E+02 0.41163080044E+02 0.36121138633E+02 0.30221818196E+02 0.24138706259E+02
 0.18445080538E+02 0.13559218285E+02 0.97293053438E+01 0.70331670470E+01 0.53792690923E+01
 0.45162510577E+01 0.40703414175E+01 0.37414525399E+01 0.35086021333E+01 0.33749948554E+01
 0.33368234913E+01 0.33923462090E+01 0.35451841451E+01 0.38011238236E+01 0.41590002913E+01
 0.46434842466E+01 0.55741470059E+01 0.73554372202E+01 0.10261741257E+02 0.14381605353E+02
 0.19595876205E+02 0.25578507847E+02 0.31815664268E+02 0.37651944725E+02 0.31277612674E+02
 0.34008234916E+02 0.35119781377E+02 0.34455958353E+02 0.32137864450E+02 0.28528544096E+02
 0.24138706259E+02 0.19511320940E+02 0.15124912209E+02 0.11336621939E+02 0.83612231114E+01
 0.62684153095E+01 0.49850413034E+01 0.43040815236E+01 0.39167567740E+01 0.36161339162E+01
 0.34002190639E+01 0.32695392589E+01 0.32184945573E+01 0.32433839139E+01 0.33463734300E+01
 0.35347626934E+01 0.38155510204E+01 0.41861991444E+01 0.46930649273E+01 0.56444711039E+01
 0.73554372202E+01 0.10005305999E+02 0.13597369398E+02 0.17946262938E+02 0.22689323615E+02
 0.27324027462E+02 0.21980020042E+02 0.24279737730E+02 0.25454906950E+02 0.25329407946E+02
 0.23939931971E+02 0.21521880353E+02 0.18445080538E+02 0.15124912209E+02 0.11940379103E+02
 0.91799776871E+01 0.70175757120E+01 0.55071811624E+01 0.45852735475E+01 0.40794838726E+01
 0.37458131074E+01 0.34791493072E+01 0.32871089477E+01 0.31676837519E+01 0.31138803692E+01
 0.31203346993E+01 0.31871702840E+01 0.33206084825E+01 0.35302240534E+01 0.38229595146E+01
 0.41950193316E+01 0.46930649273E+01 0.55741470059E+01 0.70708237156E+01 0.92856073377E+01
 0.12162666496E+02 0.15485758817E+02 0.18902977127E+02 0.14799776306E+02 0.16560348968E+02
 0.17612364831E+02 0.17783990140E+02 0.17056582976E+02 0.15565328122E+02 0.13559218285E+02
 0.11336621939E+02 0.91799776871E+01 0.73080581051E+01 0.58513377597E+01 0.48446505746E+01
 0.42287446949E+01 0.38583626497E+01 0.35690852202E+01 0.33395188190E+01 0.31752044667E+01
 0.30722619939E+01 0.30229865110E+01 0.30209814154E+01 0.30644991183E+01 0.31576029305E+01
 0.33090685937E+01 0.35289368164E+01 0.38229595146E+01 0.41861991444E+01 0.46434842466E+01
 0.53825259515E+01 0.65669010766E+01 0.82443012454E+01 0.10329643801E+02 0.12613952082E+02
 0.97966989929E+01 0.10990384189E+02 0.11796484163E+02 0.12067814672E+02 0.11757107862E+02
 0.10927076958E+02 0.97293053438E+01 0.83612231114E+01 0.70175757120E+01 0.58513377597E+01
 0.49508286006E+01 0.43310961157E+01 0.39342622399E+01 0.36428600464E+01 0.33970936857E+01
 0.32055553657E+01 0.30701350834E+01 0.29860234575E+01 0.29456169070E+01 0.29422664141E+01
 0.29729431385E+01 0.30394964244E+01 0.31484238846E+01 0.33090685937E+01 0.35302240534E+01
 0.38155510204E+01 0.41590002913E+01 0.45580327616E+01 0.51208694463E+01 0.59586640901E+01
 0.70880496566E+01 0.84239910674E+01 0.67622692032E+01 0.74478954942E+01 0.79606326340E+01
 0.81933563246E+01 0.80941085260E+01 0.76806920577E+01 0.70331670470E+01 0.62684153095E+01
 0.55071811624E+01 0.48446505746E+01 0.43310961157E+01 0.39631323111E+01 0.36838231964E+01
 0.34403877690E+01 0.32385006610E+01 0.30840007970E+01 0.29765698119E+01 0.29113916589E+01
 0.28817134629E+01 0.28813936679E+01 0.29068628268E+01 0.29582396622E+01 0.30394964244E+01
 0.31576029305E+01 0.33206084825E+01 0.35347626934E+01 0.38011238236E+01 0.41125990898E+01
 0.44536270964E+01 0.48514014252E+01 0.53757653830E+01 0.60337226465E+01 0.52327852576E+01
 0.55491711313E+01 0.58020778803E+01 0.59316666410E+01 0.58996512709E+01 0.57039182890E+01
 0.53792690923E+01 0.49850413034E+01 0.45852735475E+01 0.42287446949E+01 0.39342622399E+01
 0.36838231964E+01 0.34564298781E+01 0.32594955988E+01 0.30996917134E+01 0.29795889470E+01
 0.28978417465E+01 0.28502979147E+01 0.28315708823E+01 0.28366174537E+01 0.28620273119E+01
 0.29068628268E+01 0.29729431385E+01 0.30644991183E+01 0.31871702840E+01 0.33463734300E+01
 0.35451841451E+01 0.37820958823E+01 0.40493057493E+01 0.43322973663E+01 0.46141424257E+01
 0.49106695438E+01 0.45675549966E+01 0.47037695319E+01 0.47983870506E+01 0.48356903726E+01
 0.48006071432E+01 0.46899021647E+01 0.45162510577E+01 0.43040815236E+01 0.40794838726E+01
 0.38583626497E+01 0.36428600464E+01 0.34403877690E+01 0.32594955988E+01 0.31064173262E+01
 0.29846752762E+01 0.28950340849E+01 0.28359138840E+01 0.28041616011E+01 0.27959610619E+01
 0.28076896795E+01 0.28366174537E+01 0.28813936679E+01 0.29422664141E+01 0.30209814154E+01
 0.31203346993E+01 0.32433839139E+01 0.33923462090E+01 0.35672748719E+01 0.37647546521E+01
 0.39770255601E+01 0.41919814725E+01 0.43942835554E+01 0.41713634712E+01 0.42630862016E+01
 0.43155137935E+01 0.43223164875E+01 0.42813639087E+01 0.41951420434E+01 0.40703414175E+01
 0.39167567740E+01 0.37458131074E+01 0.35690852202E+01 0.33970936857E+01 0.32385006610E+01
 0.30996917134E+01 0.29846752762E+01 0.28952428993E+01 0.28313476317E+01 0.27916343822E+01
 0.27740157260E+01 0.27761796879E+01 0.27959610619E+01 0.28315708823E+01 0.28817134629E+01
 0.29456169070E+01 0.30229865110E+01 0.31138803692E+01 0.32184945573E+01 0.33368234913E+01
 0.34681558118E+01 0.36104216560E+01 0.37595270027E+01 0.39089276077E+01 0.40497145513E+01
 0.39250452235E+01 0.39684862221E+01 0.39851702657E+01 0.39711036667E+01 0.39245091357E+01
 0.38465413552E+01 0.37414525399E+01 0.36161339162E+01 0.34791493072E+01 0.33395188190E+01
 0.32055553657E+01 0.30840007970E+01 0.29795889470E+01 0.28950340849E+01 0.28313476317E+01
 0.27883392455E+01 0.27651536142E+01 0.27607177583E+01 0.27740157260E+01 0.28041616011E+01
 0.28502979147E+01 0.29113916589E+01 0.29860234575E+01 0.30722619939E+01 0.31676837519E+01
 0.32695392589E+01 0.33749948554E+01 0.34813247556E+01 0.35859292663E+01 0.36861280034E+01
 0.37787973190E+01 0.38600311847E+01 0.38422277753E+01 0.38327803518E+01 0.38043363102E+01
 0.37567799031E+01 0.36904670941E+01 0.36067947231E+01 0.35086021333E+01 0.34002190639E+01
 0.32871089477E+01 0.31752044667E+01 0.30701350834E+01 0.29765698119E+01 0.28978417465E+01
 0.28359138840E+01 0.27916343822E+01 0.27651536142E+01 0.27563524666E+01 0.27651536142E+01
 0.27916343822E+01 0.28359138840E+01 0.28978417465E+01 0.29765698119E+01 0.30701350834E+01
 0.31752044667E+01 0.32871089477E+01 0.34002190639E+01 0.35086021333E+01 0.36067947231E+01
 0.36904670941E+01 0.37567799031E+01 0.38043363102E+01 0.38327803518E+01 0.39250452235E+01
 0.38600311847E+01 0.37787973190E+01 0.36861280034E+01 0.35859292663E+01 0.34813247556E+01
 0.33749948554E+01 0.32695392589E+01 0.31676837519E+01 0.30722619939E+01 0.29860234575E+01
 0.29113916589E+01 0.28502979147E+01 0.28041616011E+01 0.27740157260E+01 0.27607177583E+01
 0.27651536142E+01 0.27883392455E+01 0.28313476317E+01 0.28950340849E+01 0.29795889470E+01
 0.30840007970E+01 0.32055553657E+01 0.33395188190E+01 0.34791493072E+01 0.36161339162E+01
 0.37414525399E+01 0.38465413552E+01 0.39245091357E+01 0.39711036667E+01 0.39851702657E+01
 0.39684862221E+01 0.41713634712E+01 0.40497145513E+01 0.39089276077E+01 0.37595270027E+01
 0.36104216560E+01 0.34681558118E+01 0.33368234913E+01 0.32184945573E+01 0.31138803692E+01
 0.30229865110E+01 0.29456169070E+01 0.28817134629E+01 0.28315708823E+01 0.27959610619E+01
 0.27761796879E+01 0.27740157260E+01 0.27916343822E+01 0.28313476317E+01 0.28952428993E+01
 0.29846752762E+01 0.30996917134E+01 0.32385006610E+01 0.33970936857E+01 0.35690852202E+01
 0.37458131074E+01 0.39167567740E+01 0.40703414175E+01 0.41951420434E+01 0.42813639087E+01
 0.43223164875E+01 0.43155137935E+01 0.42630862016E+01 0.45675549966E+01 0.43942835554E+01
 0.41919814725E+01 0.39770255601E+01 0.37647546521E+01 0.35672748719E+01 0.33923462090E+01
 0.32433839139E+01 0.31203346993E+01 0.30209814154E+01 0.29422664141E+01 0.28813936679E+01
 0.28366174537E+01 0.28076896795E+01 0.27959610619E+01 0.28041616011E+01 0.28359138840E+01
 0.28950340849E+01 0.29846752762E+01 0.31064173262E+01 0.32594955988E+01 0.34403877690E+01
 0.36428600464E+01 0.38583626497E+01 0.40794838726E+01 0.43040815236E+01 0.45162510577E+01
 0.46899021647E+01 0.48006071432E+01 0.48356903726E+01 0.47983870506E+01 0.47037695319E+01
 0.52327852576E+01 0.49106695438E+01 0.46141424257E+01 0.43322973663E+01 0.40493057493E+01
 0.37820958823E+01 0.35451841451E+01 0.33463734300E+01 0.31871702840E+01 0.30644991183E+01
 0.29729431385E+01 0.29068628268E+01 0.28620273119E+01 0.28366174537E+01 0.28315708823E+01
 0.28502979147E+01 0.28978417465E+01 0.29795889470E+01 0.30996917134E+01 0.32594955988E+01
 0.34564298781E+01 0.36838231964E+01 0.39342622399E+01 0.42287446949E+01 0.45852735475E+01
 0.49850413034E+01 0.53792690923E+01 0.57039182890E+01 0.58996512709E+01 0.59316666410E+01
 0.58020778803E+01 0.55491711313E+01 0.67622692032E+01 0.60337226465E+01 0.53757653830E+01
 0.48514014252E+01 0.44536270964E+01 0.41125990898E+01 0.38011238236E+01 0.35347626934E+01
 0.33206084825E+01 0.31576029305E+01 0.30394964244E+01 0.29582396622E+01 0.29068628268E+01
 0.28813936679E+01 0.28817134629E+01 0.29113916589E+01 0.29765698119E+01 0.30840007970E+01
 0.32385006610E+01 0.34403877690E+01 0.36838231964E+01 0.39631323111E+01 0.43310961157E+01
 0.48446505746E+01 0.55071811624E+01 0.62684153095E+01 0.70331670470E+01 0.76806920577E+01
 0.80941085260E+01 0.81933563246E+01 0.79606326340E+01 0.74478954942E+01 0.97966989929E+01
 0.84239910674E+01 0.70880496566E+01 0.59586640901E+01 0.51208694463E+01 0.45580327616E+01
 0.41590002913E+01 0.38155510204E+01 0.35302240534E+01 0.33090685937E+01 0.31484238846E+01
 0.30394964244E+01 0.29729431385E+01 0.29422664141E+01 0.29456169070E+01 0.29860234575E+01
 0.30701350834E+01 0.32055553657E+01 0.33970936857E+01 0.36428600464E+01 0.39342622399E+01
 0.43310961157E+01 0.49508286006E+01 0.58513377597E+01 0.70175757120E+01 0.83612231114E+01
 0.97293053438E+01 0.10927076958E+02 0.11757107862E+02 0.12067814672E+02 0.11796484163E+02
 0.10990384189E+02 0.14799776306E+02 0.12613952082E+02 0.10329643801E+02 0.82443012454E+01
 0.65669010766E+01 0.53825259515E+01 0.46434842466E+01 0.41861991444E+01 0.38229595146E+01
 0.35289368164E+01 0.33090685937E+01 0.31576029305E+01 0.30644991183E+01 0.30209814154E+01
 0.30229865110E+01 0.30722619939E+01 0.31752044667E+01 0.33395188190E+01 0.35690852202E+01
 0.38583626497E+01 0.42287446949E+01 0.48446505746E+01 0.58513377597E+01 0.73080581051E+01
 0.91799776871E+01 0.11336621939E+02 0.13559218285E+02 0.15565328122E+02 0.17056582976E+02
 0.17783990140E+02 0.17612364831E+02 0.16560348968E+02 0.21980020042E+02 0.18902977127E+02
 0.15485758817E+02 0.12162666496E+02 0.92856073377E+01 0.70708237156E+01 0.55741470059E+01
 0.46930649273E+01 0.41950193316E+01 0.38229595146E+01 0.35302240534E+01 0.33206084825E+01
 0.31871702840E+01 0.31203346993E+01 0.31138803692E+01 0.31676837519E+01 0.32871089477E+01
 0.34791493072E+01 0.37458131074E+01 0.40794838726E+01 0.45852735475E+01 0.55071811624E+01
 0.70175757120E+01 0.91799776871E+01 0.11940379103E+02 0.15124912209E+02 0.18445080538E+02
 0.21521880353E+02 0.23939931971E+02 0.25329407946E+02 0.25454906950E+02 0.24279737730E+02
 0.31277612674E+02 0.27324027462E+02 0.22689323615E+02 0.17946262938E+02 0.13597369398E+02
 0.10005305999E+02 0.73554372202E+01 0.56444711039E+01 0.46930649273E+01 0.41861991444E+01
 0.38155510204E+01 0.35347626934E+01 0.33463734300E+01 0.32433839139E+01 0.32184945573E+01
 0.32695392589E+01 0.34002190639E+01 0.36161339162E+01 0.39167567740E+01 0.43040815236E+01
 0.49850413034E+01 0.62684153095E+01 0.83612231114E+01 0.11336621939E+02 0.15124912209E+02
 0.19511320940E+02 0.24138706259E+02 0.28528544096E+02 0.32137864450E+02 0.34455958353E+02
 0.35119781377E+02 0.34008234916E+02 0.42377258724E+02 0.37651944725E+02 0.31815664268E+02
 0.25578507847E+02 0.19595876205E+02 0.14381605353E+02 0.10261741257E+02 0.73554372202E+01
 0.55741470059E+01 0.46434842466E+01 0.41590002913E+01 0.38011238236E+01 0.35451841451E+01
 0.33923462090E+01 0.33368234913E+01 0.33749948554E+01 0.35086021333E+01 0.37414525399E+01
 0.40703414175E+01 0.45162510577E+01 0.53792690923E+01 0.70331670470E+01 0.97293053438E+01
 0.13559218285E+02 0.18445080538E+02 0.24138706259E+02 0.30221818196E+02 0.36121138633E+02
 0.41163080044E+02 0.44681015275E+02 0.46157427633E+02 0.45354012518E+02 0.54705603640E+02
 0.49409097734E+02 0.42491747546E+02 0.34797567676E+02 0.27136642921E+02 0.20175283070E+02
 0.14381605353E+02 0.10005305999E+02 0.70708237156E+01 0.53825259515E+01 0.45580327616E+01
 0.41125990898E+01 0.37820958823E+01 0.35672748719E+01 0.34681558118E+01 0.34813247556E+01
 0.36067947231E+01 0.38465413552E+01 0.41951420434E+01 0.46899021647E+01 0.57039182890E+01
 0.76806920577E+01 0.10927076958E+02 0.15565328122E+02 0.21521880353E+02 0.28528544096E+02
 0.36121138633E+02 0.43646374942E+02 0.50308088345E+02 0.55277805725E+02 0.57860314193E+02
 0.57663704701E+02 0.67409299273E+02 0.61848842852E+02 0.54090056523E+02 0.45099016284E+02
 0.35840787280E+02 0.27136642921E+02 0.19595876205E+02 0.13597369398E+02 0.92856073377E+01
 0.65669010766E+01 0.51208694463E+01 0.44536270964E+01 0.40493057493E+01 0.37647546521E+01
 0.36104216560E+01 0.35859292663E+01 0.36904670941E+01 0.39245091357E+01 0.42813639087E+01
 0.48006071432E+01 0.58996512709E+01 0.80941085260E+01 0.11757107862E+02 0.17056582976E+02
 0.23939931971E+02 0.32137864450E+02 0.41163080044E+02 0.50308088345E+02 0.58676828877E+02
 0.65288422368E+02 0.69257636718E+02 0.70004235913E+02 0.79359734055E+02 0.73946128769E+02
 0.65717409997E+02 0.55731497576E+02 0.45099016284E+02 0.34797567676E+02 0.25578507847E+02
 0.17946262938E+02 0.12162666496E+02 0.82443012454E+01 0.59586640901E+01 0.48514014252E+01
 0.43322973663E+01 0.39770255601E+01 0.37595270027E+01 0.36861280034E+01 0.37567799031E+01
 0.39711036667E+01 0.43223164875E+01 0.48356903726E+01 0.59316666410E+01 0.81933563246E+01
 0.12067814672E+02 0.17783990140E+02 0.25329407946E+02 0.34455958353E+02 0.44681015275E+02
 0.55277805725E+02 0.65288422368E+02 0.73609645374E+02 0.79174463334E+02 0.81192411596E+02
 0.89250000070E+02 0.84457811424E+02 0.76248715195E+02 0.65717409997E+02 0.54090056523E+02
 0.42491747546E+02 0.31815664268E+02 0.22689323615E+02 0.15485758817E+02 0.10329643801E+02
 0.70880496566E+01 0.53757653830E+01 0.46141424257E+01 0.41919814725E+01 0.39089276077E+01
 0.37787973190E+01 0.38043363102E+01 0.39851702657E+01 0.43155137935E+01 0.47983870506E+01
 0.58020778803E+01 0.79606326340E+01 0.11796484163E+02 0.17612364831E+02 0.25454906950E+02
 0.35119781377E+02 0.46157427633E+02 0.57860314193E+02 0.69257636718E+02 0.79174463334E+02
 0.86397599712E+02 0.89930289929E+02 0.95813338859E+02 0.92098624673E+02 0.84457811424E+02
 0.73946128769E+02 0.61848842852E+02 0.49409097734E+02 0.37651944725E+02 0.27324027462E+02
 0.18902977127E+02 0.12613952082E+02 0.84239910674E+01 0.60337226465E+01 0.49106695438E+01
 0.43942835554E+01 0.40497145513E+01 0.38600311847E+01 0.38327803518E+01 0.39684862221E+01
 0.42630862016E+01 0.47037695319E+01 0.55491711313E+01 0.74478954942E+01 0.10990384189E+02
 0.16560348968E+02 0.24279737730E+02 0.34008234916E+02 0.45354012518E+02 0.57663704701E+02
 0.70004235913E+02 0.81192411596E+02 0.89930289929E+02 0.95052322185E+02 0.95813338859E+02
 0.95052322185E+02 0.89930289929E+02 0.81192411596E+02 0.70004235913E+02 0.57663704701E+02
 0.45354012518E+02 0.34008234916E+02 0.24279737730E+02 0.16560348968E+02 0.10990384189E+02
 0.74478954942E+01 0.55491711313E+01 0.47037695319E+01 0.42630862016E+01 0.39684862221E+01
 0.38327803518E+01 0.38600311847E+01 0.40497145513E+01 0.43942835554E+01 0.49106695438E+01
 0.60337226465E+01 0.84239910674E+01 0.12613952082E+02 0.18902977127E+02 0.27324027462E+02
 0.37651944725E+02 0.49409097734E+02 0.61848842852E+02 0.73946128769E+02 0.84457811424E+02
 0.92098624673E+02 0.95052322185E+02 0.95813338113E+02 0.92098623240E+02 0.84457809421E+02
 0.73946126355E+02 0.61848840214E+02 0.49409095069E+02 0.37651942220E+02 0.27324025274E+02
 0.18902975365E+02 0.12613950798E+02 0.84239902481E+01 0.60337222243E+01 0.49106694093E+01
 0.43942835818E+01 0.40497146210E+01 0.38600312150E+01 0.38327803132E+01 0.39684861453E+01
 0.42630861715E+01 0.47037696696E+01 0.55491715668E+01 0.74478963368E+01 0.10990385500E+02
 0.16560350744E+02 0.24279739894E+02 0.34008237328E+02 0.45354014989E+02 0.57663707018E+02
 0.70004237869E+02 0.81192413010E+02 0.89930290671E+02 0.89930289929E+02 0.92098623240E+02
 0.89930288664E+02 0.83749329221E+02 0.74433410699E+02 0.63175952222E+02 0.51212430047E+02
 0.39614562752E+02 0.29195964806E+02 0.20502810697E+02 0.13830028038E+02 0.92219073871E+01
 0.64619237249E+01 0.50902621408E+01 0.44839890338E+01 0.41025155833E+01 0.38666945646E+01
 0.37876206126E+01 0.38666944493E+01 0.41025154527E+01 0.44839890665E+01 0.50902625553E+01
 0.64619247322E+01 0.92219091443E+01 0.13830030610E+02 0.20502814039E+02 0.29195968759E+02
 0.39614567059E+02 0.51212434387E+02 0.63175956243E+02 0.74433414065E+02 0.83749331641E+02
 0.81192411596E+02 0.84457809421E+02 0.83749329221E+02 0.79174461945E+02 0.71397368066E+02
 0.61455177902E+02 0.50506308952E+02 0.39612673195E+02 0.29616533404E+02 0.21107311701E+02
 0.14430039179E+02 0.96898264925E+01 0.67438717041E+01 0.52094968200E+01 0.45241620186E+01
 0.41203376081E+01 0.38502353188E+01 0.37269235565E+01 0.37522005385E+01 0.39260482307E+01
 0.42444978028E+01 0.47021750375E+01 0.56048431614E+01 0.75617100099E+01 0.11089043077E+02
 0.16495096004E+02 0.23838748718E+02 0.32930150927E+02 0.43336443500E+02 0.54374437304E+02
 0.65112647079E+02 0.74433413347E+02 0.70004235913E+02 0.73946126355E+02 0.74433410699E+02
 0.71397368066E+02 0.65288421299E+02 0.56950841819E+02 0.47410147147E+02 0.37662536448E+02
 0.28534566264E+02 0.20627264063E+02 0.14311983996E+02 0.97349091746E+01 0.68125282061E+01
 0.52352887038E+01 0.45116116119E+01 0.40992405164E+01 0.38089944441E+01 0.36526928727E+01
 0.36318489766E+01 0.37464739310E+01 0.39969682753E+01 0.43751335531E+01 0.49494689900E+01
 0.61972197089E+01 0.86596763104E+01 0.12722598784E+02 0.18548702427E+02 0.26059715413E+02
 0.34940198647E+02 0.44639129248E+02 0.54374436655E+02 0.63175954908E+02 0.57663704701E+02
 0.61848840214E+02 0.63175952222E+02 0.61455177902E+02 0.56950841819E+02 0.50308087940E+02
 0.42386732431E+02 0.34073136066E+02 0.26136454319E+02 0.19156279561E+02 0.13504906989E+02
 0.93486287229E+01 0.66461243815E+01 0.51510690405E+01 0.44445670278E+01 0.40388273572E+01
 0.37429623887E+01 0.35668374122E+01 0.35109476571E+01 0.35742344111E+01 0.37587391649E+01
 0.40650094624E+01 0.44843388702E+01 0.52129432029E+01 0.67530708726E+01 0.95404222436E+01
 0.13831467426E+02 0.19661653539E+02 0.26837411372E+02 0.34940198126E+02 0.43336442350E+02
 0.51212432600E+02 0.45354012518E+02 0.49409095069E+02 0.51212430047E+02 0.50506308952E+02
 0.47410147147E+02 0.42386732431E+02 0.36121138989E+02 0.29363527076E+02 0.22793884868E+02
 0.16941694888E+02 0.12156952479E+02 0.86066209828E+01 0.62746426636E+01 0.49651725765E+01
 0.43272575665E+01 0.39425439825E+01 0.36543130026E+01 0.34715920213E+01 0.33932529877E+01
 0.34165111194E+01 0.35429557809E+01 0.37773701522E+01 0.41195545931E+01 0.45775733766E+01
 0.54393750066E+01 0.71477454339E+01 0.10028548870E+02 0.14223180994E+02 0.19661653192E+02
 0.26059714559E+02 0.32930149475E+02 0.39614565028E+02 0.34008234916E+02 0.37651942220E+02
 0.39614562752E+02 0.39612673195E+02 0.37662536448E+02 0.34073136066E+02 0.29363527076E+02
 0.24138707191E+02 0.18970796797E+02 0.14318823951E+02 0.10492611405E+02 0.76443643109E+01
 0.57689932839E+01 0.47083932635E+01 0.41712030076E+01 0.38172568716E+01 0.35474875723E+01
 0.33698593699E+01 0.32813106231E+01 0.32771592870E+01 0.33573511939E+01 0.35274351598E+01
 0.37940625833E+01 0.41557499720E+01 0.46446358756E+01 0.55705455868E+01 0.72902286900E+01
 0.10028548703E+02 0.13831466926E+02 0.18548701446E+02 0.23838747182E+02 0.29195966705E+02
 0.24279737730E+02 0.27324025274E+02 0.29195964806E+02 0.29616533404E+02 0.28534566264E+02
 0.26136454319E+02 0.22793884868E+02 0.18970796797E+02 0.15124913346E+02 0.11633814561E+02
 0.87560769075E+01 0.66189871795E+01 0.52181640705E+01 0.44225161179E+01 0.39908701336E+01
 0.36722272732E+01 0.34287682492E+01 0.32653001953E+01 0.31769214709E+01 0.31573090494E+01
 0.32044225688E+01 0.33225138790E+01 0.35202100577E+01 0.38047414466E+01 0.41732881264E+01
 0.46693673189E+01 0.55705455599E+01 0.71477452541E+01 0.95404217585E+01 0.12722597861E+02
 0.16495094581E+02 0.20502812162E+02 0.16560348968E+02 0.18902975365E+02 0.20502810697E+02
 0.21107311701E+02 0.20627264063E+02 0.19156279561E+02 0.16941694888E+02 0.14318823951E+02
 0.11633814561E+02 0.91799786582E+01 0.71599560760E+01 0.56709984161E+01 0.47032785335E+01
 0.41448044597E+01 0.37977298265E+01 0.35177596600E+01 0.33054475209E+01 0.31621190104E+01
 0.30815312591E+01 0.30562966046E+01 0.30826637580E+01 0.31627912407E+01 0.33043432659E+01
 0.35173257687E+01 0.38083199895E+01 0.41732881701E+01 0.46446359037E+01 0.54393749089E+01
 0.67530705144E+01 0.86596755750E+01 0.11089041912E+02 0.13830029063E+02 0.10990384189E+02
 0.12613950798E+02 0.13830028038E+02 0.14430039179E+02 0.14311983996E+02 0.13504906989E+02
 0.12156952479E+02 0.10492611405E+02 0.87560769075E+01 0.71599560760E+01 0.58513383562E+01
 0.48962420071E+01 0.42764714028E+01 0.38938051223E+01 0.36029325756E+01 0.33638554030E+01
 0.31848219290E+01 0.30646221009E+01 0.29964493013E+01 0.29726117258E+01 0.29882772962E+01
 0.30435863855E+01 0.31439848022E+01 0.32987045554E+01 0.35173258173E+01 0.38047415448E+01
 0.41557500737E+01 0.45775733909E+01 0.52129430164E+01 0.61972192229E+01 0.75617091798E+01
 0.92219080087E+01 0.74478954942E+01 0.84239902481E+01 0.92219073871E+01 0.96898264925E+01
 0.97349091746E+01 0.93486287229E+01 0.86066209828E+01 0.76443643109E+01 0.66189871795E+01
 0.56709984161E+01 0.48962420071E+01 0.43310963376E+01 0.39482513034E+01 0.36625318355E+01
 0.34169209509E+01 0.32191413448E+01 0.30732743693E+01 0.29767106507E+01 0.29229173947E+01
 0.29046833955E+01 0.29168585518E+01 0.29581069000E+01 0.30315148819E+01 0.31439848171E+01
 0.33043433296E+01 0.35202101780E+01 0.37940627292E+01 0.41195546960E+01 0.44843388415E+01
 0.49494687502E+01 0.56048426716E+01 0.64619240181E+01 0.55491711313E+01 0.60337222243E+01
 0.64619237249E+01 0.67438717041E+01 0.68125282061E+01 0.66461243815E+01 0.62746426636E+01
 0.57689932839E+01 0.52181640705E+01 0.47032785335E+01 0.42764714028E+01 0.39482513034E+01
 0.36838231800E+01 0.34481898914E+01 0.32481699869E+01 0.30902145186E+01 0.29756564620E+01
 0.29014839652E+01 0.28621111864E+01 0.28514520700E+01 0.28647582643E+01 0.28999235442E+01
 0.29581068766E+01 0.30435863743E+01 0.31627912755E+01 0.33225139745E+01 0.35274353010E+01
 0.37773702936E+01 0.40650095404E+01 0.43751335077E+01 0.47021748349E+01 0.50902622062E+01
 0.47037695319E+01 0.49106694093E+01 0.50902621408E+01 0.52094968200E+01 0.52352887038E+01
 0.51510690405E+01 0.49651725765E+01 0.47083932635E+01 0.44225161179E+01 0.41448044597E+01
 0.38938051223E+01 0.36625318355E+01 0.34481898914E+01 0.32594954986E+01 0.31028514943E+01
 0.29814162254E+01 0.28950700858E+01 0.28410706506E+01 0.28151506519E+01 0.28127302483E+01
 0.28300025475E+01 0.28647582201E+01 0.29168584824E+01 0.29882772337E+01 0.30826637353E+01
 0.32044226062E+01 0.33573512898E+01 0.35429559105E+01 0.37587392875E+01 0.39969683481E+01
 0.42444977973E+01 0.44839889804E+01 0.42630862016E+01 0.43942835818E+01 0.44839890338E+01
 0.45241620186E+01 0.45116116119E+01 0.44445670278E+01 0.43272575665E+01 0.41712030076E+01
 0.39908701336E+01 0.37977298265E+01 0.36029325756E+01 0.34169209509E+01 0.32481699869E+01
 0.31028514943E+01 0.29846751835E+01 0.28949656826E+01 0.28330224826E+01 0.27967121295E+01
 0.27831538786E+01 0.27893566767E+01 0.28127302050E+01 0.28514519843E+01 0.29046832839E+01
 0.29726116158E+01 0.30562965258E+01 0.31573090239E+01 0.32771593221E+01 0.34165112057E+01
 0.35742345254E+01 0.37464740451E+01 0.39260483211E+01 0.41025155093E+01 0.39684862221E+01
 0.40497146210E+01 0.41025155833E+01 0.41203376081E+01 0.40992405164E+01 0.40388273572E+01
 0.39425439825E+01 0.38172568716E+01 0.36722272732E+01 0.35177596600E+01 0.33638554030E+01
 0.32191413448E+01 0.30902145186E+01 0.29814162254E+01 0.28949656826E+01 0.28313475637E+01
 0.27898359738E+01 0.27690345487E+01 0.27673248071E+01 0.27831538492E+01 0.28151505848E+01
 0.28621110835E+01 0.29229172686E+01 0.29964491727E+01 0.30815311512E+01 0.31769214033E+01
 0.32813106063E+01 0.33932530210E+01 0.35109477294E+01 0.36318490705E+01 0.37522006363E+01
 0.38666945385E+01 0.38327803518E+01 0.38600312150E+01 0.38666945646E+01 0.38502353188E+01
 0.38089944441E+01 0.37429623887E+01 0.36543130026E+01 0.35474875723E+01 0.34287682492E+01
 0.33054475209E+01 0.31848219290E+01 0.30732743693E+01 0.29756564620E+01 0.28950700858E+01
 0.28330224826E+01 0.27898359738E+01 0.27651535510E+01 0.27583918690E+01 0.27690345337E+01
 0.27967120932E+01 0.28410705890E+01 0.29014838790E+01 0.29767105461E+01 0.30646219895E+01
 0.31621189065E+01 0.32653001125E+01 0.33698593179E+01 0.34715920036E+01 0.35668374253E+01
 0.36526929078E+01 0.37269236022E+01 0.37876206581E+01 0.38600311847E+01 0.38327803132E+01
 0.37876206126E+01 0.37269235565E+01 0.36526928727E+01 0.35668374122E+01 0.34715920213E+01
 0.33698593699E+01 0.32653001953E+01 0.31621190104E+01 0.30646221009E+01 0.29767106507E+01
 0.29014839652E+01 0.28410706506E+01 0.27967121295E+01 0.27690345487E+01 0.27583918690E+01
 0.27651535419E+01 0.27898359589E+01 0.28330224615E+01 0.28950700554E+01 0.29756564179E+01
 0.30732743088E+01 0.31848218523E+01 0.33054474326E+01 0.34287681571E+01 0.35474874856E+01
 0.36543129290E+01 0.37429623322E+01 0.38089944039E+01 0.38502352896E+01 0.38666945385E+01
 0.40497145513E+01 0.39684861453E+01 0.38666944493E+01 0.37522005385E+01 0.36318489766E+01
 0.35109476571E+01 0.33932529877E+01 0.32813106231E+01 0.31769214709E+01 0.30815312591E+01
 0.29964493013E+01 0.29229173947E+01 0.28621111864E+01 0.28151506519E+01 0.27831538786E+01
 0.27673248071E+01 0.27690345337E+01 0.27898359589E+01 0.28313475587E+01 0.28949656890E+01
 0.29814162352E+01 0.30902145177E+01 0.32191413178E+01 0.33638553386E+01 0.35177595554E+01
 0.36722271354E+01 0.38172567154E+01 0.39425438262E+01 0.40388272166E+01 0.40992404008E+01