   1   1   1   0
  0.1157456E+02  0.2468172E-09  0.2468172E-09  0.2468172E-09  0.5000000E-15
  1.000000000000000E-004
  CAR 
 Fe BCC                                  
     46.43640705     -4.66629404  301      5.56534710      1.00000000
     -4.666  0.0000E+00  0.0000E+00  0.0000E+00  0.0000E+00
     -4.496  0.0000E+00  0.0000E+00  0.0000E+00  0.0000E+00
     -4.326  0.0000E+00  0.0000E+00  0.0000E+00  0.0000E+00
     -4.155  0.0000E+00  0.0000E+00  0.0000E+00  0.0000E+00
     -3.985  0.0000E+00  0.0000E+00  0.0000E+00  0.0000E+00
     -3.815  0.0000E+00  0.0000E+00  0.0000E+00  0.0000E+00
     -3.644  0.0000E+00  0.0000E+00  0.0000E+00  0.0000E+00
     -3.474  0.0000E+00  0.0000E+00  0.0000E+00  0.0000E+00
     -3.304  0.0000E+00  0.0000E+00  0.0000E+00  0.0000E+00
     -3.133  0.0000E+00  0.0000E+00  0.0000E+00  0.0000E+00
     -2.963  0.0000E+00  0.0000E+00  0.0000E+00  0.0000E+00
     -2.793  0.0000E+00  0.0000E+00  0.0000E+00  0.0000E+00
     -2.622  0.0000E+00  0.0000E+00  0.0000E+00  0.0000E+00
     -2.452  0.0000E+00  0.0000E+00  0.0000E+00  0.0000E+00
     -2.282  0.1232E-01  0.0000E+00  0.1334E-02  0.0000E+00
     -2.111  0.1876E-01  0.1450E-01  0.3996E-02  0.2165E-02
     -1.941  0.2417E-01  0.2032E-01  0.7667E-02  0.5145E-02
     -1.770  0.2854E-01  0.2509E-01  0.1217E-01  0.9027E-02
     -1.600  0.3585E-01  0.2936E-01  0.1760E-01  0.1364E-01
     -1.430  0.4263E-01  0.3665E-01  0.2431E-01  0.1929E-01
     -1.259  0.4769E-01  0.4221E-01  0.3203E-01  0.2603E-01
     -1.089  0.4898E-01  0.4604E-01  0.4026E-01  0.3357E-01
     -0.919  0.5461E-01  0.4611E-01  0.4908E-01  0.4130E-01
     -0.748  0.6077E-01  0.5034E-01  0.5890E-01  0.4951E-01
     -0.578  0.6747E-01  0.5485E-01  0.6982E-01  0.5847E-01
     -0.408  0.7469E-01  0.5964E-01  0.8192E-01  0.6821E-01
     -0.237  0.8245E-01  0.6470E-01  0.9529E-01  0.7880E-01
     -0.067  0.9354E-01  0.7005E-01  0.1101E+00  0.9027E-01
      0.103  0.1109E+00  0.7480E-01  0.1275E+00  0.1026E+00
      0.274  0.1297E+00  0.8226E-01  0.1480E+00  0.1160E+00
      0.444  0.1525E+00  0.8951E-01  0.1718E+00  0.1306E+00
      0.614  0.1919E+00  0.9596E-01  0.2010E+00  0.1465E+00
      0.785  0.2441E+00  0.1028E+00  0.2379E+00  0.1634E+00
      0.955  0.4717E+00  0.1117E+00  0.2914E+00  0.1816E+00
      1.125  0.5868E+00  0.1230E+00  0.3806E+00  0.2015E+00
      1.296  0.8153E+00  0.1358E+00  0.4985E+00  0.2236E+00
      1.466  0.1169E+01  0.1500E+00  0.6668E+00  0.2479E+00
      1.636  0.9135E+00  0.1658E+00  0.8461E+00  0.2748E+00
      1.807  0.5758E+00  0.1861E+00  0.9725E+00  0.3045E+00
      1.977  0.4322E+00  0.2522E+00  0.1058E+01  0.3412E+00
      2.147  0.4077E+00  0.3769E+00  0.1121E+01  0.3928E+00
      2.318  0.1610E+01  0.3786E+00  0.1260E+01  0.4590E+00
      2.488  0.1649E+01  0.3932E+00  0.1560E+01  0.5248E+00
      2.658  0.8724E+00  0.3928E+00  0.1783E+01  0.5920E+00
      2.829  0.7893E+00  0.4614E+00  0.1916E+01  0.6608E+00
      2.999  0.1070E+01  0.7024E+00  0.2068E+01  0.7608E+00
      3.169  0.1860E+01  0.6263E+00  0.2305E+01  0.8876E+00
      3.340  0.1246E+01  0.4633E+00  0.2624E+01  0.9808E+00
      3.510  0.5092E+00  0.2257E+00  0.2750E+01  0.1043E+01
      3.680  0.4266E+00  0.1627E+00  0.2829E+01  0.1075E+01
      3.851  0.4175E+00  0.5015E+00  0.2900E+01  0.1119E+01
      4.021  0.6980E+00  0.1182E+01  0.2980E+01  0.1286E+01
      4.192  0.8560E+00  0.1538E+01  0.3103E+01  0.1507E+01
      4.362  0.1606E+01  0.1051E+01  0.3311E+01  0.1758E+01
      4.532  0.2234E+01  0.1150E+01  0.3659E+01  0.1943E+01
      4.703  0.1945E+01  0.1106E+01  0.4066E+01  0.2127E+01
      4.873  0.1359E+01  0.1465E+01  0.4422E+01  0.2343E+01
      5.043  0.1078E+01  0.1288E+01  0.4632E+01  0.2573E+01
      5.214  0.8502E+00  0.9045E+00  0.4789E+01  0.2760E+01
      5.384  0.8099E+00  0.2737E+00  0.4929E+01  0.2856E+01
      5.554  0.1171E+01  0.2085E+00  0.5087E+01  0.2898E+01
      5.725  0.2979E+00  0.1470E+00  0.5211E+01  0.2925E+01
      5.895  0.1511E+00  0.1639E+00  0.5244E+01  0.2951E+01
      6.065  0.1508E+00  0.2985E+00  0.5269E+01  0.2989E+01
      6.236  0.1558E+00  0.3774E+00  0.5295E+01  0.3045E+01
      6.406  0.1739E+00  0.5518E+00  0.5326E+01  0.3121E+01
      6.576  0.1650E+00  0.8090E+00  0.5355E+01  0.3235E+01
      6.747  0.1562E+00  0.1022E+01  0.5382E+01  0.3393E+01
      6.917  0.1514E+00  0.1486E+01  0.5408E+01  0.3613E+01
      7.087  0.1513E+00  0.1664E+01  0.5434E+01  0.3893E+01
      7.258  0.1512E+00  0.1218E+01  0.5460E+01  0.4127E+01
      7.428  0.1511E+00  0.1346E+01  0.5486E+01  0.4341E+01
      7.598  0.1510E+00  0.1557E+01  0.5511E+01  0.4748E+01
      7.769  0.1509E+00  0.1333E+01  0.5537E+01  0.4989E+01
      7.939  0.1502E+00  0.6469E+00  0.5563E+01  0.5189E+01
      8.109  0.1483E+00  0.2664E+00  0.5588E+01  0.5248E+01
      8.280  0.1453E+00  0.2769E+00  0.5613E+01  0.5297E+01
      8.450  0.1489E+00  0.2536E+00  0.5638E+01  0.5342E+01
      8.620  0.1431E+00  0.2230E+00  0.5663E+01  0.5383E+01
      8.791  0.1361E+00  0.2074E+00  0.5687E+01  0.5419E+01
      8.961  0.1520E+00  0.2036E+00  0.5711E+01  0.5454E+01
      9.131  0.1277E+00  0.2009E+00  0.5735E+01  0.5488E+01
      9.302  0.1227E+00  0.1993E+00  0.5756E+01  0.5522E+01
      9.472  0.1178E+00  0.1952E+00  0.5776E+01  0.5556E+01
      9.642  0.1129E+00  0.1883E+00  0.5796E+01  0.5589E+01
      9.813  0.1081E+00  0.1888E+00  0.5815E+01  0.5621E+01
      9.983  0.1033E+00  0.1724E+00  0.5833E+01  0.5651E+01
     10.153  0.9698E-01  0.1630E+00  0.5850E+01  0.5680E+01
     10.324  0.9059E-01  0.1639E+00  0.5866E+01  0.5707E+01
     10.494  0.8429E-01  0.1494E+00  0.5881E+01  0.5736E+01
     10.665  0.7808E-01  0.1423E+00  0.5895E+01  0.5760E+01
     10.835  0.8122E-01  0.1354E+00  0.5908E+01  0.5784E+01
     11.005  0.7448E-01  0.1288E+00  0.5921E+01  0.5807E+01
     11.176  0.6522E-01  0.1224E+00  0.5933E+01  0.5828E+01
     11.346  0.4645E-01  0.1161E+00  0.5943E+01  0.5848E+01
     11.516  0.4279E-01  0.1074E+00  0.5950E+01  0.5867E+01
     11.687  0.3934E-01  0.9876E-01  0.5957E+01  0.5885E+01
     11.857  0.3473E-01  0.9829E-01  0.5965E+01  0.5902E+01
     12.027  0.2708E-01  0.8781E-01  0.5970E+01  0.5918E+01
     12.198  0.2147E-01  0.7509E-01  0.5974E+01  0.5932E+01
     12.368  0.1790E-01  0.5460E-01  0.5978E+01  0.5943E+01
     12.538  0.1648E-01  0.4980E-01  0.5981E+01  0.5952E+01
     12.709  0.1862E-01  0.4529E-01  0.5984E+01  0.5960E+01
     12.879  0.2510E-01  0.3898E-01  0.5987E+01  0.5968E+01
     13.049  0.5459E-01  0.2988E-01  0.5994E+01  0.5974E+01
     13.220  0.8640E-01  0.2319E-01  0.6006E+01  0.5979E+01
     13.390  0.1241E+00  0.1889E-01  0.6024E+01  0.5982E+01
     13.560  0.1826E+00  0.1703E-01  0.6050E+01  0.5985E+01
     13.731  0.2350E+00  0.1810E-01  0.6088E+01  0.5988E+01
     13.901  0.2472E+00  0.2227E-01  0.6129E+01  0.5992E+01
     14.071  0.2579E+00  0.3285E-01  0.6172E+01  0.5997E+01
     14.242  0.2664E+00  0.5160E-01  0.6216E+01  0.6003E+01
     14.412  0.2258E+00  0.9687E-01  0.6260E+01  0.6016E+01
     14.582  0.1836E+00  0.1648E+00  0.6292E+01  0.6038E+01
     14.753  0.1794E+00  0.2298E+00  0.6323E+01  0.6073E+01
     14.923  0.1749E+00  0.2823E+00  0.6353E+01  0.6117E+01
     15.093  0.1704E+00  0.2990E+00  0.6382E+01  0.6167E+01
     15.264  0.1670E+00  0.3081E+00  0.6411E+01  0.6219E+01
     15.434  0.1695E+00  0.2149E+00  0.6440E+01  0.6266E+01
     15.604  0.1775E+00  0.2089E+00  0.6470E+01  0.6303E+01
     15.775  0.1784E+00  0.2021E+00  0.6500E+01  0.6338E+01
     15.945  0.1770E+00  0.2013E+00  0.6530E+01  0.6372E+01
     16.115  0.1669E+00  0.2028E+00  0.6561E+01  0.6406E+01
     16.286  0.1711E+00  0.2194E+00  0.6589E+01  0.6443E+01
     16.456  0.1768E+00  0.1709E+00  0.6619E+01  0.6476E+01
     16.626  0.1837E+00  0.1791E+00  0.6650E+01  0.6506E+01
     16.797  0.1990E+00  0.1823E+00  0.6684E+01  0.6537E+01
     16.967  0.2012E+00  0.1863E+00  0.6718E+01  0.6568E+01
     17.138  0.2034E+00  0.1908E+00  0.6752E+01  0.6600E+01
     17.308  0.2063E+00  0.1968E+00  0.6787E+01  0.6633E+01
     17.478  0.2089E+00  0.2134E+00  0.6823E+01  0.6669E+01
     17.649  0.2102E+00  0.2159E+00  0.6858E+01  0.6706E+01
     17.819  0.2175E+00  0.2180E+00  0.6897E+01  0.6743E+01
     17.989  0.2323E+00  0.2204E+00  0.6935E+01  0.6780E+01
     18.160  0.1932E+00  0.2226E+00  0.6971E+01  0.6818E+01
     18.330  0.1907E+00  0.2303E+00  0.7004E+01  0.6857E+01
     18.500  0.1882E+00  0.2299E+00  0.7036E+01  0.6897E+01
     18.671  0.1858E+00  0.2155E+00  0.7068E+01  0.6936E+01
     18.841  0.1837E+00  0.2022E+00  0.7099E+01  0.6972E+01
     19.011  0.1827E+00  0.1996E+00  0.7131E+01  0.7006E+01
     19.182  0.1812E+00  0.1971E+00  0.7162E+01  0.7040E+01
     19.352  0.1797E+00  0.1946E+00  0.7192E+01  0.7073E+01
     19.522  0.1810E+00  0.1924E+00  0.7224E+01  0.7106E+01
     19.693  0.1771E+00  0.1915E+00  0.7254E+01  0.7139E+01
     19.863  0.1738E+00  0.1901E+00  0.7284E+01  0.7172E+01
     20.033  0.1726E+00  0.1888E+00  0.7314E+01  0.7204E+01
     20.204  0.1704E+00  0.1921E+00  0.7343E+01  0.7237E+01
     20.374  0.1687E+00  0.1843E+00  0.7372E+01  0.7269E+01
     20.544  0.1673E+00  0.1833E+00  0.7400E+01  0.7300E+01
     20.715  0.1659E+00  0.1814E+00  0.7429E+01  0.7331E+01
     20.885  0.1645E+00  0.1793E+00  0.7457E+01  0.7362E+01
     21.055  0.1631E+00  0.1781E+00  0.7485E+01  0.7392E+01
     21.226  0.1619E+00  0.1769E+00  0.7512E+01  0.7423E+01
     21.396  0.1680E+00  0.1756E+00  0.7541E+01  0.7453E+01
     21.566  0.1696E+00  0.1744E+00  0.7570E+01  0.7482E+01
     21.737  0.1727E+00  0.1732E+00  0.7599E+01  0.7512E+01
     21.907  0.1766E+00  0.1721E+00  0.7629E+01  0.7541E+01
     22.077  0.1826E+00  0.1705E+00  0.7660E+01  0.7571E+01
     22.248  0.2083E+00  0.1781E+00  0.7692E+01  0.7601E+01
     22.418  0.2066E+00  0.1815E+00  0.7727E+01  0.7632E+01
     22.588  0.2234E+00  0.1890E+00  0.7764E+01  0.7663E+01
     22.759  0.2346E+00  0.1995E+00  0.7803E+01  0.7696E+01
     22.929  0.2283E+00  0.2246E+00  0.7842E+01  0.7732E+01
     23.100  0.2349E+00  0.2262E+00  0.7881E+01  0.7770E+01
     23.270  0.2411E+00  0.2445E+00  0.7922E+01  0.7811E+01
     23.440  0.2472E+00  0.2418E+00  0.7963E+01  0.7853E+01
     23.611  0.2517E+00  0.2495E+00  0.8006E+01  0.7894E+01
     23.781  0.2600E+00  0.2557E+00  0.8049E+01  0.7937E+01
     23.951  0.2610E+00  0.2613E+00  0.8094E+01  0.7981E+01
     24.122  0.2749E+00  0.2558E+00  0.8140E+01  0.8025E+01
     24.292  0.3112E+00  0.2600E+00  0.8188E+01  0.8069E+01
     24.462  0.2928E+00  0.2727E+00  0.8238E+01  0.8114E+01
     24.633  0.3125E+00  0.2820E+00  0.8290E+01  0.8161E+01
     24.803  0.3068E+00  0.2894E+00  0.8343E+01  0.8211E+01
     24.973  0.3042E+00  0.3001E+00  0.8395E+01  0.8261E+01
     25.144  0.3011E+00  0.3157E+00  0.8447E+01  0.8313E+01
     25.314  0.2896E+00  0.3182E+00  0.8497E+01  0.8369E+01
     25.484  0.2869E+00  0.3143E+00  0.8546E+01  0.8423E+01
     25.655  0.2798E+00  0.3046E+00  0.8594E+01  0.8476E+01
     25.825  0.2716E+00  0.3014E+00  0.8641E+01  0.8528E+01
     25.995  0.2623E+00  0.2913E+00  0.8687E+01  0.8578E+01
     26.166  0.2510E+00  0.2809E+00  0.8730E+01  0.8627E+01
     26.336  0.2371E+00  0.2705E+00  0.8772E+01  0.8674E+01
     26.506  0.2253E+00  0.2584E+00  0.8812E+01  0.8719E+01
     26.677  0.2025E+00  0.2441E+00  0.8848E+01  0.8762E+01
     26.847  0.1752E+00  0.2276E+00  0.8880E+01  0.8802E+01
     27.017  0.1609E+00  0.2124E+00  0.8909E+01  0.8839E+01
     27.188  0.1530E+00  0.1903E+00  0.8936E+01  0.8874E+01
     27.358  0.1533E+00  0.1744E+00  0.8962E+01  0.8904E+01
     27.528  0.1542E+00  0.1650E+00  0.8988E+01  0.8933E+01
     27.699  0.1513E+00  0.1565E+00  0.9015E+01  0.8961E+01
     27.869  0.1567E+00  0.1500E+00  0.9041E+01  0.8986E+01
     28.039  0.1495E+00  0.1517E+00  0.9067E+01  0.9012E+01
     28.210  0.1491E+00  0.1594E+00  0.9092E+01  0.9039E+01
     28.380  0.1486E+00  0.1530E+00  0.9117E+01  0.9066E+01
     28.550  0.1589E+00  0.1522E+00  0.9143E+01  0.9092E+01
     28.721  0.1554E+00  0.1482E+00  0.9170E+01  0.9118E+01
     28.891  0.1469E+00  0.1637E+00  0.9196E+01  0.9144E+01
     29.061  0.1455E+00  0.1521E+00  0.9221E+01  0.9171E+01
     29.232  0.1500E+00  0.1440E+00  0.9246E+01  0.9196E+01
     29.402  0.1561E+00  0.1474E+00  0.9272E+01  0.9221E+01
     29.573  0.1629E+00  0.1509E+00  0.9299E+01  0.9246E+01
     29.743  0.1703E+00  0.1559E+00  0.9328E+01  0.9272E+01
     29.913  0.1784E+00  0.1630E+00  0.9357E+01  0.9299E+01
     30.084  0.2425E+00  0.1668E+00  0.9392E+01  0.9328E+01
     30.254  0.3768E+00  0.1745E+00  0.9448E+01  0.9357E+01
     30.424  0.2713E+00  0.2253E+00  0.9509E+01  0.9390E+01
     30.595  0.2375E+00  0.3271E+00  0.9552E+01  0.9436E+01
     30.765  0.2191E+00  0.2981E+00  0.9591E+01  0.9502E+01
     30.935  0.1992E+00  0.2740E+00  0.9627E+01  0.9551E+01
     31.106  0.1756E+00  0.2470E+00  0.9659E+01  0.9596E+01
     31.276  0.1728E+00  0.2118E+00  0.9688E+01  0.9635E+01
     31.446  0.1734E+00  0.1914E+00  0.9717E+01  0.9669E+01
     31.617  0.1824E+00  0.1929E+00  0.9748E+01  0.9702E+01
     31.787  0.1898E+00  0.1851E+00  0.9780E+01  0.9734E+01
     31.957  0.1828E+00  0.1771E+00  0.9812E+01  0.9765E+01
     32.128  0.1818E+00  0.1748E+00  0.9843E+01  0.9795E+01
     32.298  0.1782E+00  0.1686E+00  0.9873E+01  0.9824E+01
     32.468  0.1730E+00  0.1628E+00  0.9903E+01  0.9852E+01
     32.639  0.1598E+00  0.1575E+00  0.9932E+01  0.9879E+01
     32.809  0.2269E+00  0.1620E+00  0.9966E+01  0.9912E+01
     32.979  0.2466E+00  0.1606E+00  0.1000E+02  0.9939E+01
     33.150  0.2679E+00  0.1517E+00  0.1005E+02  0.9966E+01
     33.320  0.2836E+00  0.2173E+00  0.1010E+02  0.1000E+02
     33.490  0.3058E+00  0.2507E+00  0.1015E+02  0.1004E+02
     33.661  0.3308E+00  0.2891E+00  0.1020E+02  0.1009E+02
     33.831  0.3368E+00  0.3152E+00  0.1026E+02  0.1014E+02
     34.001  0.3265E+00  0.3215E+00  0.1031E+02  0.1020E+02
     34.172  0.3248E+00  0.3315E+00  0.1037E+02  0.1025E+02
     34.342  0.3352E+00  0.3344E+00  0.1043E+02  0.1031E+02
     34.512  0.3294E+00  0.3303E+00  0.1048E+02  0.1037E+02
     34.683  0.3107E+00  0.3330E+00  0.1054E+02  0.1042E+02
     34.853  0.2687E+00  0.3220E+00  0.1059E+02  0.1048E+02
     35.023  0.2520E+00  0.3056E+00  0.1063E+02  0.1053E+02
     35.194  0.2446E+00  0.2828E+00  0.1067E+02  0.1058E+02
     35.364  0.2366E+00  0.2630E+00  0.1072E+02  0.1063E+02
     35.534  0.2246E+00  0.2496E+00  0.1076E+02  0.1067E+02
     35.705  0.2209E+00  0.2428E+00  0.1079E+02  0.1071E+02
     35.875  0.2099E+00  0.2361E+00  0.1083E+02  0.1075E+02
     36.046  0.2078E+00  0.2404E+00  0.1087E+02  0.1080E+02
     36.216  0.2086E+00  0.2442E+00  0.1090E+02  0.1084E+02
     36.386  0.2167E+00  0.2222E+00  0.1094E+02  0.1088E+02
     36.557  0.2337E+00  0.2050E+00  0.1098E+02  0.1091E+02
     36.727  0.2493E+00  0.2110E+00  0.1102E+02  0.1095E+02
     36.897  0.2648E+00  0.2222E+00  0.1106E+02  0.1098E+02
     37.068  0.2774E+00  0.2409E+00  0.1111E+02  0.1102E+02
     37.238  0.2915E+00  0.2576E+00  0.1116E+02  0.1107E+02
     37.408  0.3341E+00  0.2859E+00  0.1121E+02  0.1111E+02
     37.579  0.3484E+00  0.2984E+00  0.1128E+02  0.1116E+02
     37.749  0.3154E+00  0.3106E+00  0.1133E+02  0.1121E+02
     37.919  0.2780E+00  0.3537E+00  0.1138E+02  0.1127E+02
     38.090  0.2396E+00  0.3282E+00  0.1143E+02  0.1133E+02
     38.260  0.2264E+00  0.2947E+00  0.1147E+02  0.1138E+02
     38.430  0.2187E+00  0.2437E+00  0.1150E+02  0.1143E+02
     38.601  0.2110E+00  0.2271E+00  0.1154E+02  0.1147E+02
     38.771  0.2033E+00  0.2193E+00  0.1158E+02  0.1151E+02
     38.941  0.1956E+00  0.2114E+00  0.1161E+02  0.1154E+02
     39.112  0.1878E+00  0.2036E+00  0.1164E+02  0.1158E+02
     39.282  0.1801E+00  0.1904E+00  0.1167E+02  0.1161E+02
     39.452  0.1665E+00  0.1838E+00  0.1170E+02  0.1165E+02
     39.623  0.1722E+00  0.1773E+00  0.1173E+02  0.1168E+02
     39.793  0.1774E+00  0.1709E+00  0.1176E+02  0.1171E+02
     39.963  0.1782E+00  0.1751E+00  0.1179E+02  0.1174E+02
     40.134  0.1745E+00  0.1791E+00  0.1182E+02  0.1177E+02
     40.304  0.1218E+00  0.1799E+00  0.1185E+02  0.1180E+02
     40.474  0.9680E-01  0.1943E+00  0.1187E+02  0.1183E+02
     40.645  0.7685E-01  0.1230E+00  0.1189E+02  0.1186E+02
     40.815  0.6597E-01  0.9198E-01  0.1190E+02  0.1188E+02
     40.985  0.6094E-01  0.7198E-01  0.1191E+02  0.1189E+02
     41.156  0.5694E-01  0.6502E-01  0.1192E+02  0.1190E+02
     41.326  0.5311E-01  0.6086E-01  0.1193E+02  0.1191E+02
     41.496  0.4943E-01  0.5685E-01  0.1194E+02  0.1192E+02
     41.667  0.4590E-01  0.5300E-01  0.1195E+02  0.1193E+02
     41.837  0.4253E-01  0.4930E-01  0.1195E+02  0.1194E+02
     42.008  0.3931E-01  0.4574E-01  0.1196E+02  0.1195E+02
     42.178  0.3625E-01  0.4234E-01  0.1197E+02  0.1195E+02
     42.348  0.3334E-01  0.3909E-01  0.1197E+02  0.1196E+02
     42.519  0.3059E-01  0.3600E-01  0.1198E+02  0.1197E+02
     42.689  0.2341E-01  0.2829E-01  0.1198E+02  0.1198E+02
     42.859  0.2151E-01  0.2604E-01  0.1199E+02  0.1198E+02
     43.030  0.1975E-01  0.2393E-01  0.1199E+02  0.1198E+02
     43.200  0.1280E-01  0.2195E-01  0.1200E+02  0.1199E+02
     43.370  0.4194E-02  0.2067E-01  0.1200E+02  0.1199E+02
     43.541  0.3125E-02  0.1356E-01  0.1200E+02  0.1200E+02
     43.711  0.2694E-02  0.8185E-02  0.1200E+02  0.1200E+02
     43.881  0.2285E-02  0.4533E-02  0.1200E+02  0.1200E+02
     44.052  0.0000E+00  0.2610E-02  0.1200E+02  0.1200E+02
     44.222  0.0000E+00  0.0000E+00  0.1200E+02  0.1200E+02
     44.392  0.0000E+00  0.0000E+00  0.1200E+02  0.1200E+02
     44.563  0.0000E+00  0.0000E+00  0.1200E+02  0.1200E+02
     44.733  0.0000E+00  0.0000E+00  0.1200E+02  0.1200E+02
     44.903  0.0000E+00  0.0000E+00  0.1200E+02  0.1200E+02
     45.074  0.0000E+00  0.0000E+00  0.1200E+02  0.1200E+02
     45.244  0.0000E+00  0.0000E+00  0.1200E+02  0.1200E+02
     45.414  0.0000E+00  0.0000E+00  0.1200E+02  0.1200E+02
     45.585  0.0000E+00  0.0000E+00  0.1200E+02  0.1200E+02
     45.755  0.0000E+00  0.0000E+00  0.1200E+02  0.1200E+02
     45.925  0.0000E+00  0.0000E+00  0.1200E+02  0.1200E+02
     46.096  0.0000E+00  0.0000E+00  0.1200E+02  0.1200E+02
     46.266  0.0000E+00  0.0000E+00  0.1200E+02  0.1200E+02
     46.436  0.0000E+00  0.0000E+00  0.1200E+02  0.1200E+02
     46.43640705     -4.66629404  301      5.56534710      1.00000000
     -4.666  0.0000E+00  0.0000E+00  0.0000E+00  0.0000E+00  0.0000E+00  0.0000E+00  0.0000E+00  0.0000E+00  0.0000E+00  0.0000E+00  0.0000E+00  0.0000E+00  0.0000E+00  0.0000E+00  0.0000E+00  0.0000E+00  0.0000E+00  0.0000E+00
     -4.496  0.0000E+00  0.0000E+00  0.0000E+00  0.0000E+00  0.0000E+00  0.0000E+00  0.0000E+00  0.0000E+00  0.0000E+00  0.0000E+00  0.0000E+00  0.0000E+00  0.0000E+00  0.0000E+00  0.0000E+00  0.0000E+00  0.0000E+00  0.0000E+00
     -4.326  0.0000E+00  0.0000E+00  0.0000E+00  0.0000E+00  0.0000E+00  0.0000E+00  0.0000E+00  0.0000E+00  0.0000E+00  0.0000E+00  0.0000E+00  0.0000E+00  0.0000E+00  0.0000E+00  0.0000E+00  0.0000E+00  0.0000E+00  0.0000E+00
     -4.155  0.0000E+00  0.0000E+00  0.0000E+00  0.0000E+00  0.0000E+00  0.0000E+00  0.0000E+00  0.0000E+00  0.0000E+00  0.0000E+00  0.0000E+00  0.0000E+00  0.0000E+00  0.0000E+00  0.0000E+00  0.0000E+00  0.0000E+00  0.0000E+00
     -3.985  0.0000E+00  0.0000E+00  0.0000E+00  0.0000E+00  0.0000E+00  0.0000E+00  0.0000E+00  0.0000E+00  0.0000E+00  0.0000E+00  0.0000E+00  0.0000E+00  0.0000E+00  0.0000E+00  0.0000E+00  0.0000E+00  0.0000E+00  0.0000E+00
     -3.815  0.0000E+00  0.0000E+00  0.0000E+00  0.0000E+00  0.0000E+00  0.0000E+00  0.0000E+00  0.0000E+00  0.0000E+00  0.0000E+00  0.0000E+00  0.0000E+00  0.0000E+00  0.0000E+00  0.0000E+00  0.0000E+00  0.0000E+00  0.0000E+00
     -3.644  0.0000E+00  0.0000E+00  0.0000E+00  0.0000E+00  0.0000E+00  0.0000E+00  0.0000E+00  0.0000E+00  0.0000E+00  0.0000E+00  0.0000E+00  0.0000E+00  0.0000E+00  0.0000E+00  0.0000E+00  0.0000E+00  0.0000E+00  0.0000E+00
     -3.474  0.0000E+00  0.0000E+00  0.0000E+00  0.0000E+00  0.0000E+00  0.0000E+00  0.0000E+00  0.0000E+00  0.0000E+00  0.0000E+00  0.0000E+00  0.0000E+00  0.0000E+00  0.0000E+00  0.0000E+00  0.0000E+00  0.0000E+00  0.0000E+00
     -3.304  0.0000E+00  0.0000E+00  0.0000E+00  0.0000E+00  0.0000E+00  0.0000E+00  0.0000E+00  0.0000E+00  0.0000E+00  0.0000E+00  0.0000E+00  0.0000E+00  0.0000E+00  0.0000E+00  0.0000E+00  0.0000E+00  0.0000E+00  0.0000E+00
     -3.133  0.0000E+00  0.0000E+00  0.0000E+00  0.0000E+00  0.0000E+00  0.0000E+00  0.0000E+00  0.0000E+00  0.0000E+00  0.0000E+00  0.0000E+00  0.0000E+00  0.0000E+00  0.0000E+00  0.0000E+00  0.0000E+00  0.0000E+00  0.0000E+00
     -2.963  0.0000E+00  0.0000E+00  0.0000E+00  0.0000E+00  0.0000E+00  0.0000E+00  0.0000E+00  0.0000E+00  0.0000E+00  0.0000E+00  0.0000E+00  0.0000E+00  0.0000E+00  0.0000E+00  0.0000E+00  0.0000E+00  0.0000E+00  0.0000E+00
     -2.793  0.0000E+00  0.0000E+00  0.0000E+00  0.0000E+00  0.0000E+00  0.0000E+00  0.0000E+00  0.0000E+00  0.0000E+00  0.0000E+00  0.0000E+00  0.0000E+00  0.0000E+00  0.0000E+00  0.0000E+00  0.0000E+00  0.0000E+00  0.0000E+00
     -2.622  0.0000E+00  0.0000E+00  0.0000E+00  0.0000E+00  0.0000E+00  0.0000E+00  0.0000E+00  0.0000E+00  0.0000E+00  0.0000E+00  0.0000E+00  0.0000E+00  0.0000E+00  0.0000E+00  0.0000E+00  0.0000E+00  0.0000E+00  0.0000E+00
     -2.452  0.0000E+00  0.0000E+00  0.0000E+00  0.0000E+00  0.0000E+00  0.0000E+00  0.0000E+00  0.0000E+00  0.0000E+00  0.0000E+00  0.0000E+00  0.0000E+00  0.0000E+00  0.0000E+00  0.0000E+00  0.0000E+00  0.0000E+00  0.0000E+00
     -2.282  0.8288E-02  0.0000E+00  0.8302E-04  0.0000E+00  0.5624E-04  0.0000E+00  0.3527E-03  0.0000E+00  0.2632E-04  0.0000E+00  0.6937E-05  0.0000E+00  0.9745E-05  0.0000E+00  0.6612E-05  0.0000E+00  0.1116E-04  0.0000E+00
     -2.111  0.1241E-01  0.9683E-02  0.1805E-03  0.1189E-03  0.1130E-03  0.7796E-04  0.6296E-03  0.4461E-03  0.6413E-04  0.2367E-04  0.1898E-04  0.6849E-05  0.2462E-04  0.8364E-05  0.1442E-04  0.6201E-05  0.2827E-04  0.1006E-04
     -1.941  0.1574E-01  0.1336E-01  0.2806E-03  0.2166E-03  0.1595E-03  0.1303E-03  0.9375E-03  0.7271E-03  0.1116E-03  0.4793E-04  0.3617E-04  0.1470E-04  0.4551E-04  0.1779E-04  0.2246E-04  0.1109E-04  0.5481E-04  0.2169E-04
     -1.770  0.1828E-01  0.1626E-01  0.3831E-03  0.3169E-03  0.1957E-03  0.1728E-03  0.1276E-02  0.1037E-02  0.1686E-03  0.7743E-04  0.5851E-04  0.2487E-04  0.7241E-04  0.3040E-04  0.3073E-04  0.1591E-04  0.9076E-04  0.3825E-04
     -1.600  0.2251E-01  0.1872E-01  0.5725E-03  0.4310E-03  0.2928E-03  0.2138E-03  0.1777E-02  0.1395E-02  0.2640E-03  0.1141E-03  0.1225E-03  0.3926E-04  0.1161E-03  0.4676E-04  0.5121E-04  0.2134E-04  0.1482E-03  0.6044E-04
     -1.430  0.2619E-01  0.2296E-01  0.7914E-03  0.6409E-03  0.4284E-03  0.3314E-03  0.2268E-02  0.1900E-02  0.3929E-03  0.1746E-03  0.2379E-03  0.8191E-04  0.1767E-03  0.7206E-04  0.8957E-04  0.3663E-04  0.2270E-03  0.9482E-04
     -1.259  0.2857E-01  0.2594E-01  0.1017E-02  0.8570E-03  0.5863E-03  0.4705E-03  0.2706E-02  0.2349E-02  0.5493E-03  0.2458E-03  0.3991E-03  0.1457E-03  0.2523E-03  0.1022E-03  0.1442E-03  0.5970E-04  0.3247E-03  0.1370E-03
     -1.089  0.2787E-01  0.2767E-01  0.1225E-02  0.1079E-02  0.7865E-03  0.6311E-03  0.3159E-02  0.2744E-02  0.7910E-03  0.3278E-03  0.6414E-03  0.2308E-03  0.4030E-03  0.1373E-03  0.2482E-03  0.9055E-04  0.5524E-03  0.1870E-03
     -0.919  0.3012E-01  0.2653E-01  0.1430E-02  0.1270E-02  0.9475E-03  0.8243E-03  0.3712E-02  0.3148E-02  0.1173E-02  0.4494E-03  0.8297E-03  0.3455E-03  0.6287E-03  0.2060E-03  0.3490E-03  0.1453E-03  0.7591E-03  0.3035E-03
     -0.748  0.3249E-01  0.2831E-01  0.1643E-02  0.1467E-02  0.1115E-02  0.9757E-03  0.4328E-02  0.3646E-02  0.1631E-02  0.6202E-03  0.1051E-02  0.4318E-03  0.9054E-03  0.2918E-03  0.4727E-03  0.1938E-03  0.1001E-02  0.4005E-03
     -0.578  0.3500E-01  0.3016E-01  0.1863E-02  0.1670E-02  0.1290E-02  0.1132E-02  0.5008E-02  0.4195E-02  0.2165E-02  0.8185E-03  0.1305E-02  0.5298E-03  0.1233E-02  0.3930E-03  0.6193E-03  0.2511E-03  0.1278E-02  0.5110E-03
     -0.408  0.3764E-01  0.3209E-01  0.2091E-02  0.1880E-02  0.1471E-02  0.1294E-02  0.5750E-02  0.4793E-02  0.2774E-02  0.1044E-02  0.1592E-02  0.6395E-03  0.1612E-02  0.5096E-03  0.7888E-03  0.3171E-03  0.1590E-02  0.6351E-03
     -0.237  0.4041E-01  0.3409E-01  0.2327E-02  0.2096E-02  0.1659E-02  0.1461E-02  0.6555E-02  0.5440E-02  0.3458E-02  0.1298E-02  0.1911E-02  0.7609E-03  0.2042E-02  0.6417E-03  0.9812E-03  0.3917E-03  0.1937E-02  0.7728E-03
     -0.067  0.4343E-01  0.3616E-01  0.2687E-02  0.2318E-02  0.2027E-02  0.1633E-02  0.7555E-02  0.6138E-02  0.4636E-02  0.1578E-02  0.2899E-02  0.8940E-03  0.2871E-02  0.7892E-03  0.1500E-02  0.4750E-03  0.2488E-02  0.9240E-03
      0.103  0.4783E-01  0.3745E-01  0.3186E-02  0.2533E-02  0.2556E-02  0.1855E-02  0.8997E-02  0.6856E-02  0.6659E-02  0.1947E-02  0.4670E-02  0.1145E-02  0.4421E-02  0.1000E-02  0.2212E-02  0.6416E-03  0.3541E-02  0.1102E-02
      0.274  0.5160E-01  0.3949E-01  0.3600E-02  0.2891E-02  0.3051E-02  0.2224E-02  0.1065E-01  0.7774E-02  0.9191E-02  0.2555E-02  0.6799E-02  0.1669E-02  0.6525E-02  0.1365E-02  0.3048E-02  0.8611E-03  0.5001E-02  0.1407E-02
      0.444  0.5485E-01  0.4109E-01  0.3844E-02  0.3206E-02  0.3382E-02  0.2585E-02  0.1261E-01  0.8739E-02  0.1343E-01  0.3247E-02  0.9442E-02  0.2272E-02  0.1003E-01  0.1817E-02  0.3979E-02  0.1100E-02  0.7043E-02  0.1812E-02
      0.614  0.6177E-01  0.4194E-01  0.4270E-02  0.3432E-02  0.3773E-02  0.2900E-02  0.1515E-01  0.9700E-02  0.2178E-01  0.4044E-02  0.1374E-01  0.2934E-02  0.1645E-01  0.2371E-02  0.5006E-02  0.1356E-02  0.9766E-02  0.2314E-02
      0.785  0.7006E-01  0.4272E-01  0.4710E-02  0.3610E-02  0.4212E-02  0.3166E-02  0.1806E-01  0.1067E-01  0.3387E-01  0.5078E-02  0.1971E-01  0.3654E-02  0.2586E-01  0.3072E-02  0.6203E-02  0.1621E-02  0.1320E-01  0.2877E-02
      0.955  0.1009E+00  0.4432E-01  0.5762E-02  0.3839E-02  0.5617E-02  0.3446E-02  0.2372E-01  0.1174E-01  0.9016E-01  0.6438E-02  0.5979E-01  0.4480E-02  0.6964E-01  0.3946E-02  0.8020E-02  0.1896E-02  0.2885E-01  0.3495E-02
      1.125  0.9601E-01  0.4656E-01  0.5748E-02  0.4104E-02  0.6493E-02  0.3728E-02  0.2755E-01  0.1296E-01  0.9615E-01  0.8324E-02  0.6661E-01  0.5481E-02  0.1198E+00  0.5119E-02  0.1210E-01  0.2185E-02  0.6439E-01  0.4185E-02
      1.296  0.1036E+00  0.4902E-01  0.6285E-02  0.4375E-02  0.7789E-02  0.4021E-02  0.4177E-01  0.1427E-01  0.1199E+00  0.1061E-01  0.8361E-01  0.6647E-02  0.2006E+00  0.6538E-02  0.2026E-01  0.2502E-02  0.1100E+00  0.4952E-02
      1.466  0.9520E-01  0.5169E-01  0.7885E-02  0.4651E-02  0.8607E-02  0.4326E-02  0.5758E-01  0.1569E-01  0.1417E+00  0.1329E-01  0.9471E-01  0.7976E-02  0.3880E+00  0.8205E-02  0.3641E-01  0.2847E-02  0.1773E+00  0.5795E-02
      1.636  0.6274E-01  0.5457E-01  0.7613E-02  0.4932E-02  0.6936E-02  0.4642E-02  0.4160E-01  0.1721E-01  0.1093E+00  0.1638E-01  0.9600E-01  0.9470E-02  0.2609E+00  0.1012E-01  0.4718E-01  0.3220E-02  0.1620E+00  0.6714E-02
      1.807  0.3190E-01  0.5777E-01  0.6157E-02  0.5222E-02  0.3974E-02  0.4968E-02  0.2070E-01  0.1945E-01  0.6588E-01  0.2010E-01  0.1102E+00  0.1114E-01  0.9443E-01  0.1277E-01  0.5217E-01  0.3665E-02  0.1234E+00  0.8637E-02
      1.977  0.1576E-01  0.6724E-01  0.5858E-02  0.6251E-02  0.2264E-02  0.6608E-02  0.1466E-01  0.2343E-01  0.3592E-01  0.3143E-01  0.8966E-01  0.2395E-01  0.5854E-01  0.2083E-01  0.4117E-01  0.5470E-02  0.1207E+00  0.1357E-01
      2.147  0.4617E-02  0.8510E-01  0.8964E-02  0.6897E-02  0.3006E-02  0.7742E-02  0.1276E-01  0.2924E-01  0.1653E-01  0.6052E-01  0.6882E-01  0.4560E-01  0.7526E-01  0.3966E-01  0.3617E-01  0.7323E-02  0.1377E+00  0.2175E-01
      2.318  0.1369E-02  0.7657E-01  0.3145E-01  0.6085E-02  0.2635E-01  0.7545E-02  0.1634E-01  0.3036E-01  0.3763E+00  0.6236E-01  0.1412E+00  0.4667E-01  0.1672E+00  0.4512E-01  0.5234E+00  0.9015E-02  0.1992E+00  0.2372E-01
      2.488  0.3093E-02  0.7297E-01  0.2553E-01  0.5819E-02  0.1618E-01  0.7502E-02  0.1531E-01  0.3194E-01  0.2221E+00  0.6467E-01  0.2810E+00  0.5029E-01  0.1730E+00  0.5005E-01  0.5764E+00  0.1128E-01  0.2158E+00  0.2651E-01
      2.658  0.5179E-02  0.6673E-01  0.1360E-01  0.5440E-02  0.9068E-02  0.7232E-02  0.6972E-02  0.3253E-01  0.1358E+00  0.6348E-01  0.1301E+00  0.5151E-01  0.1172E+00  0.5289E-01  0.2878E+00  0.1373E-01  0.1035E+00  0.2874E-01
      2.829  0.9386E-02  0.6158E-01  0.1910E-01  0.5306E-02  0.2056E-01  0.7061E-02  0.1121E-01  0.3809E-01  0.1726E+00  0.6543E-01  0.1375E+00  0.5239E-01  0.7328E-01  0.7366E-01  0.2128E+00  0.1759E-01  0.7128E-01  0.6001E-01
      2.999  0.1525E-01  0.5943E-01  0.3030E-01  0.6938E-02  0.3123E-01  0.8049E-02  0.2075E-01  0.5270E-01  0.2337E+00  0.7106E-01  0.2400E+00  0.6759E-01  0.7437E-01  0.1549E+00  0.2245E+00  0.2637E-01  0.1137E+00  0.1384E+00
      3.169  0.2755E-01  0.4392E-01  0.5049E-01  0.8217E-02  0.3932E-01  0.8298E-02  0.4663E-01  0.3889E-01  0.4268E+00  0.6802E-01  0.4378E+00  0.7000E-01  0.1043E+00  0.1619E+00  0.3640E+00  0.2913E-01  0.2195E+00  0.9884E-01
      3.340  0.1979E-01  0.2815E-01  0.3505E-01  0.7618E-02  0.2519E-01  0.6474E-02  0.2753E-01  0.2470E-01  0.2718E+00  0.5006E-01  0.2454E+00  0.6338E-01  0.5938E-01  0.1173E+00  0.3115E+00  0.2887E-01  0.1587E+00  0.6681E-01
      3.510  0.1005E-01  0.6840E-02  0.1904E-01  0.5958E-02  0.1411E-01  0.2578E-02  0.1244E-01  0.1172E-01  0.6999E-01  0.9328E-02  0.1131E+00  0.4804E-01  0.2599E-01  0.4976E-01  0.1082E+00  0.9309E-02  0.9449E-01  0.4931E-01
      3.680  0.6768E-02  0.6126E-04  0.1362E-01  0.6644E-02  0.9660E-02  0.1075E-02  0.8964E-02  0.4847E-02  0.5661E-01  0.4136E-02  0.1032E+00  0.1276E-02  0.2353E-01  0.5313E-01  0.9505E-01  0.3843E-02  0.7827E-01  0.6241E-01
      3.851  0.4888E-02  0.1791E-03  0.1056E-01  0.2321E-01  0.7558E-02  0.1025E-01  0.6531E-02  0.1179E-01  0.6623E-01  0.9217E-01  0.1034E+00  0.1393E-01  0.2910E-01  0.7101E-01  0.9657E-01  0.1126E+00  0.6683E-01  0.1046E+00