    1    1    1    2
  0.1157456E+02  0.2468172E-09  0.2468172E-09  0.2468172E-09  0.5000000E-15
  1.000000000000000E-004
  CAR 
 Fe BCC                                  
      8     26     12
 
  0.6250000E-01  0.6250000E-01  0.6250000E-01  0.1562500E-01
    1       -1.733470     -1.618757   1.000000   1.000000
    2        3.143619      5.077232   1.000000   1.000000
    3        3.143619      5.077232   1.000000   1.000000
    4        3.927311      5.960215   1.000000  -0.023791
    5        4.502597      7.196441   1.000000   0.000000
    6        4.502597      7.196441   1.003387   0.000000
    7       26.839918     26.987822   0.000000   0.000000
    8       26.839918     26.987822   0.000000   0.000000
    9       30.625950     31.041521   0.000000   0.000000
   10       31.375619     31.457424   0.000000   0.000000
   11       36.269414     36.552233   0.000000   0.000000
   12       36.269414     36.552233   0.000000   0.000000
 
  0.1875000E+00  0.6250000E-01  0.6250000E-01  0.4687500E-01
    1       -0.155530      0.051155   1.000000   1.000000
    2        2.744545      4.589467   1.000000   1.000000
    3        2.951941      4.754505   1.000000   1.000000
    4        4.442450      7.002182   1.000000  -0.000950
    5        4.622281      7.052084   1.000911   0.000000
    6        4.927063      7.351698   0.883153   0.000000
    7       21.415934     21.980418   0.000000   0.000000
    8       24.500986     24.773647   0.000000   0.000000
    9       26.785622     27.497405   0.000000   0.000000
   10       31.682009     31.580241   0.000000   0.000000
   11       35.699236     36.244558   0.000000   0.000000
   12       36.915837     37.129452   0.000000   0.000000
 
  0.3125000E+00  0.6250000E-01  0.6250000E-01  0.4687500E-01
    1        0.974886      1.847975   1.000000   1.000000
    2        2.402625      4.169953   1.000000   1.000000
    3        3.720774      4.871226   1.000000   1.007440
    4        4.581107      7.145341   1.000000   0.000000
    5        4.716986      7.490053   1.033174   0.000000
    6        6.333185      8.282956   0.011045   0.000000
    7       15.967486     16.901459   0.000000   0.000000
    8       22.808723     23.069352   0.000000   0.000000
    9       24.467826     25.086936   0.000000   0.000000
   10       31.141397     31.293742   0.000000   0.000000
   11       35.007725     35.537729   0.000000   0.000000
   12       40.225993     40.374177   0.000000   0.000000
 
  0.4375000E+00  0.6250000E-01  0.6250000E-01  0.2343750E-01
    1        1.030875      2.326300   1.000000   1.000000
    2        2.271187      4.009332   1.000000   1.000000
    3        4.642910      5.635233   1.000000   0.897441
    4        4.702102      7.216899   1.000000   0.000000
    5        4.755651      7.549913   1.079973   0.000000
    6        7.721077      9.139055  -0.004863   0.000000
    7       12.875639     14.212951   0.000000   0.000000
    8       22.189146     22.428041   0.000000   0.000000
    9       23.603987     24.174038   0.000000   0.000000
   10       30.905992     31.135029   0.000000   0.000000
   11       34.902368     35.456566   0.000000   0.000000
   12       40.170694     40.141150   0.000000   0.000000
 
 -0.6250000E-01  0.6250000E-01  0.6250000E-01  0.1171875E-01
    1       -2.343444     -2.236474   1.000000   1.000000
    2        3.341736      5.313565   1.000000   1.000000
    3        3.341737      5.313565   1.000000   1.000000
    4        3.427538      5.421500   1.000000   0.378288
    5        4.429127      7.111930   1.000000   0.000000
    6        4.622880      7.362320   1.000000   0.000000
    7       28.780616     28.630989   0.000000   0.000000
    8       30.106461     29.952202   0.000000   0.000000
    9       30.106464     29.952204   0.000000   0.000000
   10       33.158461     33.504133   0.000000   0.000000
   11       35.259325     36.004714   0.000000   0.000000
   12       35.259325     36.004719   0.000000   0.000000
 
  0.1875000E+00  0.1875000E+00  0.6250000E-01  0.4687500E-01
    1        1.306509      1.831187   1.000000   1.000000
    2        2.471325      4.195892   1.000000   1.000000
    3        2.668467      4.302960   1.000000   1.000072
    4        4.521615      7.128900   1.000000   0.000000
    5        4.749159      7.483949   1.000752   0.000000
    6        6.535067      8.474396  -0.008082   0.000000
    7       18.919806     19.589132   0.000000   0.000000
    8       19.712878     20.328753   0.000000   0.000000
    9       23.592392     24.150089   0.000000   0.000000
   10       33.602050     33.493733   0.000000   0.000000
   11       37.203215     37.476733   0.000000   0.000000
   12       39.597309     39.860707   0.000000   0.000000
 
  0.3125000E+00  0.1875000E+00  0.6250000E-01  0.9375000E-01
    1        1.645499      2.937784   1.000000   1.000000
    2        2.308771      3.962224   1.000000   1.000000
    3        3.298214      4.544844   1.000000   1.002452
    4        4.658711      7.268617   1.000000   0.000000
    5        4.843564      7.554926   1.009759   0.000000
    6        8.981087     10.396756  -0.003577   0.000000
    7       14.295532     15.309777   0.000000   0.000000
    8       18.148695     18.781270   0.000000   0.000000
    9       22.322186     22.838041   0.000000   0.000000
   10       33.947464     33.980047   0.000000   0.000000
   11       38.254551     38.326134   0.000000   0.000000
   12       40.199719     40.579032   0.000000   0.000000
 
 -0.1875000E+00  0.1875000E+00  0.6250000E-01  0.4687500E-01
    1       -1.164038     -1.030115   1.000000   1.000000
    2        3.081675      4.995169   1.000000   1.000000
    3        3.271991      5.189888   1.000000   1.000000
    4        4.030631      6.085651   1.000000  -0.012197
    5        4.195083      6.760530   1.000000   0.000000
    6        4.719819      7.468521   1.010812   0.000000
    7       24.290828     24.670654   0.000000   0.000000
    8       27.673838     27.751541   0.000000   0.000000
    9       28.514480     28.843541   0.000000   0.000000
   10       32.541734     32.916780   0.000000   0.000000
   11       32.692518     33.217580   0.000000   0.000000
   12       34.257702     34.622186   0.000000   0.000000
 
  0.3125000E+00  0.3125000E+00  0.6250000E-01  0.1562500E-01
    1        1.958342      3.496153   1.000000   1.000000
    2        2.664089      4.091789   1.000000   1.000000
    3        2.664090      4.091790   1.000000   1.000087
    4        4.793702      7.443412   1.000000   0.000000
    5        4.793703      7.443413   1.000000   0.000000
    6       12.483637     13.505511   0.000000   0.000000
    7       12.483639     13.505511   0.000000   0.000000
    8       14.945369     15.834602   0.000000   0.000000
    9       21.853881     22.389976   0.000000   0.000000
   10       36.382114     36.369877   0.000000   0.000000
   11       36.382116     36.369881   0.000000   0.000000
   12       43.431918     44.113557   0.000000   0.000000
 
 -0.3125000E+00  0.3125000E+00  0.6250000E-01  0.4687500E-01
    1        0.458321      0.907762   1.000000   1.000000
    2        2.694377      4.528614   1.000000   1.000000
    3        3.335038      4.921561   1.000000   1.001758
    4        4.395906      6.825694   1.000000   0.000000
    5        4.901160      7.196439   1.017411   0.000000
    6        5.020258      7.587093   0.709485   0.000000
    7       18.518858     19.289354   0.000000   0.000000
    8       25.280635     25.364673   0.000000   0.000000
    9       26.363199     26.941858   0.000000   0.000000
   10       30.851885     31.280810   0.000000   0.000000
   11       32.725210     33.203926   0.000000   0.000000
   12       35.632127     35.869561   0.000000   0.000000
 
 -0.1875000E+00  0.3125000E+00  0.6250000E-01  0.4687500E-01
    1        0.272050      0.546050   1.000000   1.000000
    2        2.873240      4.776733   1.000000   1.000000
    3        3.072422      4.886538   1.000000   1.001790
    4        4.073756      6.486224   1.000000  -0.000533
    5        4.749714      6.934669   1.001796   0.000000
    6        5.097978      7.697881   0.760401   0.000000
    7       21.498649     22.066925   0.000000   0.000000
    8       22.457888     23.001410   0.000000   0.000000
    9       28.976979     29.160582   0.000000   0.000000
   10       29.186665     29.650512   0.000000   0.000000
   11       32.936424     33.296835   0.000000   0.000000
   12       37.553232     37.844115   0.000000   0.000000
 
 -0.4375000E+00  0.4375000E+00  0.6250000E-01  0.4687500E-01
    1        0.910080      2.111186   1.000000   1.000000
    2        2.431303      4.215212   1.000000   1.000000
    3        4.095622      5.500525   1.000000   0.986673
    4        4.558548      7.036934   1.000000   0.000000
    5        5.815602      7.959168   0.488697   0.000000
    6        6.265087      8.110977   0.000892   0.000000
    7       13.779771     14.983379   0.000000   0.000000
    8       23.916673     23.970242   0.000000   0.000000
    9       24.747257     25.299403   0.000000   0.000000
   10       30.141329     30.608496   0.000000   0.000000
   11       32.975902     33.530756   0.000000   0.000000
   12       37.333907     37.406308   0.000000   0.000000
 
 -0.3125000E+00  0.4375000E+00  0.6250000E-01  0.9375000E-01
    1        1.313558      2.255618   1.000000   1.000000
    2        2.574569      4.336543   1.000000   1.000000
    3        3.140383      4.732428   1.000000   1.005491
    4        4.367981      6.738823   1.000000   0.000000
    5        5.132753      7.591978   1.024631   0.000000
    6        6.818682      8.690280  -0.035907   0.000000
    7       16.344660     17.234259   0.000000   0.000000
    8       20.242533     20.819422   0.000000   0.000000
    9       26.788883     27.100462   0.000000   0.000000
   10       29.959558     30.300871   0.000000   0.000000
   11       33.572319     33.854442   0.000000   0.000000
   12       38.074737     38.465723   0.000000   0.000000
 
 -0.4375000E+00 -0.4375000E+00  0.6250000E-01  0.4687500E-01
    1        1.348751      2.740592   1.000000   1.000000
    2        2.564987      4.329912   1.000000   1.000000
    3        3.311414      4.820881   1.000000   1.009262
    4        4.469977      6.894205   1.000000   0.000000
    5        5.477869      7.820581   0.886746   0.000000
    6        8.823189     10.071392  -0.001821   0.000000
    7       12.979849     14.248280   0.000000   0.000000
    8       19.551096     20.115715   0.000000   0.000000
    9       25.955100     26.233099   0.000000   0.000000
   10       30.292394     30.721230   0.000000   0.000000
   11       34.561131     34.618706   0.000000   0.000000
   12       37.380227     37.869316   0.000000   0.000000
 
 -0.3125000E+00 -0.4375000E+00  0.6250000E-01  0.4687500E-01
    1        2.026667      3.441923   1.000000   1.000000
    2        2.279451      3.945779   1.000000   1.000000
    3        2.809285      4.441816   1.000000   1.005816
    4        4.661484      7.029221   1.000000   0.000000
    5        5.107319      7.509396   1.037834   0.000000
    6       10.042562     11.338937  -0.000593   0.000000
    7       14.425826     15.388001   0.000000   0.000000
    8       15.753371     16.557488   0.000000   0.000000
    9       27.174406     27.618592   0.000000   0.000000
   10       30.378467     30.532722   0.000000   0.000000
   11       32.556740     32.726417   0.000000   0.000000
   12       39.586689     40.413023   0.000000   0.000000
 
  0.1875000E+00  0.1875000E+00  0.1875000E+00  0.1562500E-01
    1        2.293659      3.338958   1.000000   1.000000
    2        2.293659      3.888295   1.000000   1.000000
    3        2.462441      3.888295   1.000000   1.000101
    4        4.732697      7.481694   1.000000   0.000000
    5        4.732697      7.481694   1.000000   0.000000
    6        8.959776     10.480483  -0.004529   0.000000
    7       17.279719     17.986389   0.000000   0.000000
    8       17.279719     17.986389   0.000000   0.000000
    9       18.572687     19.234882   0.000000   0.000000
   10       38.284153     37.961751   0.000000   0.000000
   11       40.922257     41.043474   0.000000   0.000000
   12       40.922257     41.043474   0.000000   0.000000
 
  0.3125000E+00  0.1875000E+00  0.1875000E+00  0.2343750E-01
    1        2.180721      3.581358   1.000000   1.000000
    2        2.256423      3.801545   1.000000   1.000000
    3        2.904270      4.204308   1.000000   1.000154
    4        4.765668      7.514428   1.000000   0.000000
    5        4.779938      7.582348   1.000000   0.000000
    6       11.778726     12.808068   0.000000   0.000000
    7       13.594478     14.612551   0.000000   0.000000
    8       16.716448     17.431044   0.000000   0.000000
    9       17.657971     18.310515   0.000000   0.000000
   10       39.309691     39.159252   0.000000   0.000000
   11       42.679583     42.674598   0.000000   0.000000
   12       43.070749     43.365867   0.000000   0.000000
 
 -0.1875000E+00  0.1875000E+00  0.1875000E+00  0.1171875E-01
    1       -0.130840      0.071038   1.000000   1.000000
    2        3.431284      5.410350   1.000000   1.000000
    3        3.492863      5.410350   1.000000   0.982706
    4        3.492864      5.821486   1.000000   0.000933
    5        4.044512      6.111776   1.000000   0.000000
    6        5.076195      7.777336   0.905890   0.000000
    7       24.439301     24.722345   0.000000   0.000000
    8       25.375187     25.927283   0.000000   0.000000
    9       25.375191     25.927286   0.000000   0.000000
   10       27.308211     27.670242   0.000000   0.000000
   11       36.718183     36.967492   0.000000   0.000000
   12       36.718185     36.967495   0.000000   0.000000
 
 -0.3125000E+00  0.3125000E+00  0.1875000E+00  0.4687500E-01
    1        1.161869      1.769695   1.000000   1.000000
    2        2.683598      4.691580   1.000000   1.000000
    3        3.357573      5.243897   1.000000   0.963337
    4        4.005420      6.095027   1.000000   0.000000
    5        4.906628      7.066353   1.032900   0.000000
    6        5.929612      8.196955   0.111241   0.000000
    7       19.370441     20.089760   0.000000   0.000000
    8       22.774563     23.369721   0.000000   0.000000
    9       23.977043     24.357634   0.000000   0.000000
   10       27.905194     28.278673   0.000000   0.000000
   11       35.782263     36.186639   0.000000   0.000000
   12       37.504655     37.852257   0.000000   0.000000
 
 -0.4375000E+00  0.4375000E+00  0.1875000E+00  0.4687500E-01
    1        1.445429      2.844792   1.000000   1.000000
    2        2.618267      4.287288   1.000000   1.000000
    3        3.164021      5.015267   1.000000   0.979689
    4        4.216643      6.432441   1.000000   0.000000
    5        5.736204      8.019788   0.355350   0.000000
    6        8.404434      9.752578  -0.011343   0.000000
    7       14.299397     15.348077   0.000000   0.000000
    8       21.166924     21.712346   0.000000   0.000000
    9       23.137580     23.542281   0.000000   0.000000
   10       30.428034     30.666354   0.000000   0.000000
   11       34.853650     35.280739   0.000000   0.000000
   12       35.504415     36.066186   0.000000   0.000000
 
 -0.3125000E+00  0.4375000E+00  0.1875000E+00  0.4687500E-01
    1        1.758656      2.977144   1.000000   1.000000
    2        2.069904      3.976668   1.000000   1.000000
    3        3.436817      5.315319   1.000000   0.847794
    4        4.393727      6.489273   1.000000   0.000000
    5        5.321608      7.572717   1.064860   0.000000
    6        8.280625      9.776369  -0.015120   0.000000
    7       17.236945     18.047291   0.000000   0.000000
    8       17.844038     18.507610   0.000000   0.000000
    9       25.402422     25.800887   0.000000   0.000000
   10       26.898938     27.282668   0.000000   0.000000
   11       34.499089     34.958771   0.000000   0.000000
   12       37.393541     38.058531   0.000000   0.000000
 
 -0.4375000E+00 -0.4375000E+00  0.1875000E+00  0.4687500E-01
    1        1.712108      3.409564   1.000000   1.000000
    2        2.080296      3.768754   1.000000   1.000000
    3        3.246667      5.052553   1.000000   0.898653
    4        4.697560      6.850282   1.000000   0.000000
    5        5.547935      7.808011   0.760067   0.000000
    6       11.271626     12.277308   0.000000   0.000000
    7       13.454033     14.488672   0.000000   0.000000
    8       16.863128     17.547722   0.000000   0.000000
    9       25.407835     25.800173   0.000000   0.000000
   10       28.565923     28.805686   0.000000   0.000000
   11       31.976327     32.651363   0.000000   0.000000
   12       36.400351     37.028955   0.000000   0.000000
 
 -0.3125000E+00  0.3125000E+00  0.3125000E+00  0.1171875E-01
    1        1.547507      2.711432   1.000000   1.000000
    2        2.025101      4.058190   1.000000   1.000000
    3        4.250607      6.207758   1.000000   0.014113
    4        4.250608      6.207759   1.000000   0.000000
    5        4.941375      7.122658   1.168086   0.000000
    6        7.652938      9.225062  -0.021998   0.000000
    7       19.851466     20.415284   0.000000   0.000000
    8       19.851469     20.415289   0.000000   0.000000
    9       22.118757     22.802294   0.000000   0.000000
   10       24.152492     24.655019   0.000000   0.000000
   11       35.837025     36.530585   0.000000   0.000000
   12       40.661957     41.053053   0.000000   0.000000
 
 -0.4375000E+00  0.4375000E+00  0.3125000E+00  0.4687500E-01
    1        1.449744      3.118599   1.000000   1.000000
    2        1.579342      3.406626   1.000000   1.000000
    3        4.385981      6.386024   1.000000  -0.020656
    4        4.662678      6.687126   1.000000   0.000000
    5        5.626402      7.894440   0.292145   0.000000
    6       10.757169     11.713472   0.000000   0.000000
    7       15.486952     16.207090   0.000000   0.000000
    8       18.047736     18.516996   0.000000   0.000000
    9       22.286176     22.978547   0.000000   0.000000
   10       25.162143     25.631913   0.000000   0.000000
   11       31.183361     32.027362   0.000000   0.000000
   12       40.146731     40.503502   0.000000   0.000000
 
 -0.4375000E+00 -0.4375000E+00  0.3125000E+00  0.1562500E-01
    1        1.312695      3.102517   1.000000   1.000000
    2        1.312695      3.102517   1.000000   1.000000
    3        4.490838      6.468959   1.000000  -0.028005
    4        5.474509      7.689392   1.000000   0.000000
    5        5.474511      7.689395   1.067254   0.000000
    6       14.139809     14.803916   0.000000   0.000000
    7       14.139812     14.803922   0.000000   0.000000
    8       15.257422     15.826706   0.000000   0.000000
    9       23.758901     24.314967   0.000000   0.000000
   10       23.758902     24.314969   0.000000   0.000000
   11       28.646971     29.632851   0.000000   0.000000
   12       40.688608     41.039426   0.000000   0.000000
 
 -0.4375000E+00  0.4375000E+00  0.4375000E+00  0.1171875E-01
    1        1.055617      2.822554   1.000000   1.000000
    2        1.056094      2.881453   1.000000   1.000000
    3        5.434668      7.632869   1.000000  -0.010702
    4        5.434669      7.632871   1.000000   0.000000
    5        5.592082      7.861593   0.232504   0.000000
    6       13.537885     14.045574   0.000000   0.000000
    7       16.048106     16.353806   0.000000   0.000000
    8       16.048109     16.353811   0.000000   0.000000
    9       21.236538     22.144975   0.000000   0.000000
   10       22.402327     23.138956   0.000000   0.000000
   11       27.136075     28.150409   0.000000   0.000000
   12       43.890429     44.105946   0.000000   0.000000
