 vasp.5.4.1 24Jun15 (build Jul 19 2016 16:50:41) complex                        
  
 executed on           IFC91_ompi date 2019.10.17  11:15:40
 running on    4 total cores
 distrk:  each k-point on    4 cores,    1 groups
 distr:  one band on NCORES_PER_BAND=   1 cores,    4 groups


--------------------------------------------------------------------------------------------------------


 INCAR:
 POTCAR:    PAW_PBE Fe 06Sep2000                  
 POTCAR:    PAW_PBE Fe 06Sep2000                  
   VRHFIN =Fe:  d7 s1                                                           
   LEXCH  = PE                                                                  
   EATOM  =   594.3153 eV,   43.6809 Ry                                         
                                                                                
   TITEL  = PAW_PBE Fe 06Sep2000                                                
   LULTRA =        F    use ultrasoft PP ?                                      
   IUNSCR =        1    unscreen: 0-lin 1-nonlin 2-no                           
   RPACOR =    2.000    partial core radius                                     
   POMASS =   55.847; ZVAL   =    8.000    mass and valenz                      
   RCORE  =    2.300    outmost cutoff radius                                   
   RWIGS  =    2.460; RWIGS  =    1.302    wigner-seitz radius (au A)           
   ENMAX  =  267.882; ENMIN  =  200.911 eV                                      
   RCLOC  =    1.701    cutoff for local pot                                    
   LCOR   =        T    correct aug charges                                     
   LPAW   =        T    paw PP                                                  
   EAUG   =  511.368                                                            
   DEXC   =    0.000                                                            
   RMAX   =    2.356    core radius for proj-oper                               
   RAUG   =    1.300    factor for augmentation sphere                          
   RDEP   =    2.442    radius for radial grids                                 
   RDEPT  =    1.890    core radius for aug-charge                              
                                                                                
   Atomic configuration                                                         
    9 entries                                                                   
     n  l   j            E        occ.                                          
     1  0  0.50     -6993.8440   2.0000                                         
     2  0  0.50      -814.6047   2.0000                                         
     2  1  1.50      -693.3689   6.0000                                         
     3  0  0.50       -89.4732   2.0000                                         
     3  1  1.50       -55.6373   6.0000                                         
     3  2  2.50        -3.8151   7.0000                                         
     4  0  0.50        -4.2551   1.0000                                         
     4  1  1.50        -3.4015   0.0000                                         
     4  3  2.50        -1.3606   0.0000                                         
   Description                                                                  
     l       E           TYP  RCUT    TYP  RCUT                                 
     2     -3.8151135     23  2.300                                             
     2     -5.1756961     23  2.300                                             
     0     -4.2550963     23  2.300                                             
     0      7.2035603     23  2.300                                             
     1     -2.7211652     23  2.300                                             
     1     18.4316424     23  2.300                                             
  local pseudopotential read in
  partial core-charges read in
  partial kinetic energy density read in
  atomic valenz-charges read in
  non local Contribution for L=           2  read in
    real space projection operators read in
  non local Contribution for L=           2  read in
    real space projection operators read in
  non local Contribution for L=           0  read in
    real space projection operators read in
  non local Contribution for L=           0  read in
    real space projection operators read in
  non local Contribution for L=           1  read in
    real space projection operators read in
  non local Contribution for L=           1  read in
    real space projection operators read in
    PAW grid and wavefunctions read in
 
   number of l-projection  operators is LMAX  =           6
   number of lm-projection operators is LMMAX =          18
 
  PAW_PBE Fe 06Sep2000                  :
 energy of atom  1       EATOM= -594.3153
 kinetic energy error for atom=    0.0205 (will be added to EATOM!!)
 
 
 POSCAR: Fe BCC                                  
  positions in direct lattice
  No initial velocities read in
 exchange correlation table for  LEXCH =        8
   RHO(1)=    0.500       N(1)  =     2000
   RHO(2)=  100.500       N(2)  =     4000
 


--------------------------------------------------------------------------------------------------------


 ion  position               nearest neighbor table
   1  0.000  0.000  0.000-
 
  LATTYP: Found a body centered cubic cell.
 ALAT       =     2.8500000000
  
  Lattice vectors:
  
 A1 = (  -1.4250000000,   1.4250000000,   1.4250000000)
 A2 = (   1.4250000000,  -1.4250000000,   1.4250000000)
 A3 = (   1.4250000000,   1.4250000000,  -1.4250000000)


Analysis of symmetry for initial positions (statically):
=====================================================================
 Subroutine PRICEL returns:
 Original cell was already a primitive cell.
 

 Routine SETGRP: Setting up the symmetry group for a 
 body centered cubic supercell.


 Subroutine GETGRP returns: Found 48 space group operations
 (whereof 48 operations were pure point group operations)
 out of a pool of 48 trial point group operations.


The static configuration has the point symmetry O_h .


Analysis of symmetry for dynamics (positions and initial velocities):
=====================================================================
 Subroutine PRICEL returns:
 Original cell was already a primitive cell.
 

 Routine SETGRP: Setting up the symmetry group for a 
 body centered cubic supercell.


 Subroutine GETGRP returns: Found 48 space group operations
 (whereof 48 operations were pure point group operations)
 out of a pool of 48 trial point group operations.


The dynamic configuration has the point symmetry O_h .


Analysis of structural, dynamic, and magnetic symmetry:
=====================================================================
 Subroutine PRICEL returns:
 Original cell was already a primitive cell.
 

 Routine SETGRP: Setting up the symmetry group for a 
 body centered cubic supercell.


 Subroutine GETGRP returns: Found 48 space group operations
 (whereof 48 operations were pure point group operations)
 out of a pool of 48 trial point group operations.


The magnetic configuration has the point symmetry O_h .


 Subroutine INISYM returns: Found 48 space group operations
 (whereof 48 operations are pure point group operations),
 and found     1 'primitive' translations

 
 
 KPOINTS: K-Points                                

Automatic generation of k-mesh.
Space group operators:
 irot       det(A)        alpha          n_x          n_y          n_z        tau_x        tau_y        tau_z
    1     1.000000     0.000000     1.000000     0.000000     0.000000     0.000000     0.000000     0.000000
    2    -1.000000     0.000000     1.000000     0.000000     0.000000     0.000000     0.000000     0.000000
    3     1.000000   120.000000    -0.577350    -0.577350    -0.577350     0.000000     0.000000     0.000000
    4    -1.000000   120.000000    -0.577350    -0.577350    -0.577350     0.000000     0.000000     0.000000
    5     1.000000   120.000000     0.577350     0.577350     0.577350     0.000000     0.000000     0.000000
    6    -1.000000   120.000000     0.577350     0.577350     0.577350     0.000000     0.000000     0.000000
    7     1.000000    90.000000     0.000000     0.000000    -1.000000     0.000000     0.000000     0.000000
    8    -1.000000    90.000000     0.000000     0.000000    -1.000000     0.000000     0.000000     0.000000
    9     1.000000   180.000000     0.000000     0.707107     0.707107     0.000000     0.000000     0.000000
   10    -1.000000   180.000000     0.000000     0.707107     0.707107     0.000000     0.000000     0.000000
   11     1.000000    90.000000     0.000000     1.000000     0.000000     0.000000     0.000000     0.000000
   12    -1.000000    90.000000     0.000000     1.000000     0.000000     0.000000     0.000000     0.000000
   13     1.000000   179.999999     0.000000     0.000000     1.000000     0.000000     0.000000     0.000000
   14    -1.000000   179.999999     0.000000     0.000000     1.000000     0.000000     0.000000     0.000000
   15     1.000000   120.000000    -0.577350     0.577350     0.577350     0.000000     0.000000     0.000000
   16    -1.000000   120.000000    -0.577350     0.577350     0.577350     0.000000     0.000000     0.000000
   17     1.000000   120.000000    -0.577350     0.577350    -0.577350     0.000000     0.000000     0.000000
   18    -1.000000   120.000000    -0.577350     0.577350    -0.577350     0.000000     0.000000     0.000000
   19     1.000000    90.000000     0.000000     0.000000     1.000000     0.000000     0.000000     0.000000
   20    -1.000000    90.000000     0.000000     0.000000     1.000000     0.000000     0.000000     0.000000
   21     1.000000    90.000000    -1.000000     0.000000     0.000000     0.000000     0.000000     0.000000
   22    -1.000000    90.000000    -1.000000     0.000000     0.000000     0.000000     0.000000     0.000000
   23     1.000000   180.000000     0.707107     0.000000     0.707107     0.000000     0.000000     0.000000
   24    -1.000000   180.000000     0.707107     0.000000     0.707107     0.000000     0.000000     0.000000
   25     1.000000   120.000000     0.577350    -0.577350     0.577350     0.000000     0.000000     0.000000
   26    -1.000000   120.000000     0.577350    -0.577350     0.577350     0.000000     0.000000     0.000000
   27     1.000000   120.000000    -0.577350    -0.577350     0.577350     0.000000     0.000000     0.000000
   28    -1.000000   120.000000    -0.577350    -0.577350     0.577350     0.000000     0.000000     0.000000
   29     1.000000   180.000000     1.000000     0.000000     0.000000     0.000000     0.000000     0.000000
   30    -1.000000   180.000000     1.000000     0.000000     0.000000     0.000000     0.000000     0.000000
   31     1.000000    90.000000     0.000000    -1.000000     0.000000     0.000000     0.000000     0.000000
   32    -1.000000    90.000000     0.000000    -1.000000     0.000000     0.000000     0.000000     0.000000
   33     1.000000   180.000000     0.707107     0.707107     0.000000     0.000000     0.000000     0.000000
   34    -1.000000   180.000000     0.707107     0.707107     0.000000     0.000000     0.000000     0.000000
   35     1.000000    90.000000     1.000000     0.000000     0.000000     0.000000     0.000000     0.000000
   36    -1.000000    90.000000     1.000000     0.000000     0.000000     0.000000     0.000000     0.000000
   37     1.000000   120.000000     0.577350    -0.577350    -0.577350     0.000000     0.000000     0.000000
   38    -1.000000   120.000000     0.577350    -0.577350    -0.577350     0.000000     0.000000     0.000000
   39     1.000000   180.000000     0.000000     1.000000     0.000000     0.000000     0.000000     0.000000
   40    -1.000000   180.000000     0.000000     1.000000     0.000000     0.000000     0.000000     0.000000
   41     1.000000   120.000000     0.577350     0.577350    -0.577350     0.000000     0.000000     0.000000
   42    -1.000000   120.000000     0.577350     0.577350    -0.577350     0.000000     0.000000     0.000000
   43     1.000000   180.000000     0.000000    -0.707107     0.707107     0.000000     0.000000     0.000000
   44    -1.000000   180.000000     0.000000    -0.707107     0.707107     0.000000     0.000000     0.000000
   45     1.000000   180.000000     0.707107    -0.707107     0.000000     0.000000     0.000000     0.000000
   46    -1.000000   180.000000     0.707107    -0.707107     0.000000     0.000000     0.000000     0.000000
   47     1.000000   180.000000     0.707107     0.000000    -0.707107     0.000000     0.000000     0.000000
   48    -1.000000   180.000000     0.707107     0.000000    -0.707107     0.000000     0.000000     0.000000
 
 Subroutine IBZKPT returns following result:
 ===========================================
 
 Found     26 irreducible k-points:
 
 Following reciprocal coordinates:
            Coordinates               Weight
  0.062500  0.062500  0.062500      8.000000
  0.187500  0.062500  0.062500     24.000000
  0.312500  0.062500  0.062500     24.000000
  0.437500  0.062500  0.062500     12.000000
 -0.062500  0.062500  0.062500      6.000000
  0.187500  0.187500  0.062500     24.000000
  0.312500  0.187500  0.062500     48.000000
 -0.187500  0.187500  0.062500     24.000000
  0.312500  0.312500  0.062500      8.000000
 -0.312500  0.312500  0.062500     24.000000
 -0.187500  0.312500  0.062500     24.000000
 -0.437500  0.437500  0.062500     24.000000
 -0.312500  0.437500  0.062500     48.000000
 -0.437500 -0.437500  0.062500     24.000000
 -0.312500 -0.437500  0.062500     24.000000
  0.187500  0.187500  0.187500      8.000000
  0.312500  0.187500  0.187500     12.000000
 -0.187500  0.187500  0.187500      6.000000
 -0.312500  0.312500  0.187500     24.000000
 -0.437500  0.437500  0.187500     24.000000
 -0.312500  0.437500  0.187500     24.000000
 -0.437500 -0.437500  0.187500     24.000000
 -0.312500  0.312500  0.312500      6.000000
 -0.437500  0.437500  0.312500     24.000000
 -0.437500 -0.437500  0.312500      8.000000
 -0.437500  0.437500  0.437500      6.000000
 
 Following cartesian coordinates:
            Coordinates               Weight
  0.125000  0.125000  0.125000      8.000000
  0.125000  0.250000  0.250000     24.000000
  0.125000  0.375000  0.375000     24.000000
  0.125000  0.500000  0.500000     12.000000
  0.125000  0.000000  0.000000      6.000000
  0.250000  0.250000  0.375000     24.000000
  0.250000  0.375000  0.500000     48.000000
  0.250000 -0.125000  0.000000     24.000000
  0.375000  0.375000  0.625000      8.000000
  0.375000 -0.250000  0.000000     24.000000
  0.375000 -0.125000  0.125000     24.000000
  0.500000 -0.375000  0.000000     24.000000
  0.500000 -0.250000  0.125000     48.000000
 -0.375000 -0.375000 -0.875000     24.000000
 -0.375000 -0.250000 -0.750000     24.000000
  0.375000  0.375000  0.375000      8.000000
  0.375000  0.500000  0.500000     12.000000
  0.375000  0.000000  0.000000      6.000000
  0.500000 -0.125000  0.000000     24.000000
  0.625000 -0.250000  0.000000     24.000000
  0.625000 -0.125000  0.125000     24.000000
 -0.250000 -0.250000 -0.875000     24.000000
  0.625000  0.000000  0.000000      6.000000
  0.750000 -0.125000  0.000000     24.000000
 -0.125000 -0.125000 -0.875000      8.000000
  0.875000  0.000000  0.000000      6.000000
 
 TETIRR: Found    534 inequivalent tetrahedra from     3072


--------------------------------------------------------------------------------------------------------




 Dimension of arrays:
   k-points           NKPTS =     26   k-points in BZ     NKDIM =     26   number of bands    NBANDS=     12
   number of dos      NEDOS =    301   number of ions     NIONS =      1
   non local maximal  LDIM  =      6   non local SUM 2l+1 LMDIM =     18
   total plane-waves  NPLWV =   4096
   max r-space proj   IRMAX =      1   max aug-charges    IRDMAX=  12804
   dimension x,y,z NGX =    16 NGY =   16 NGZ =   16
   dimension x,y,z NGXF=    32 NGYF=   32 NGZF=   32
   support grid    NGXF=    32 NGYF=   32 NGZF=   32
   ions per type =               1
 NGX,Y,Z   is equivalent  to a cutoff of  10.78, 10.78, 10.78 a.u.
 NGXF,Y,Z  is equivalent  to a cutoff of  21.55, 21.55, 21.55 a.u.


 I would recommend the setting:
   dimension x,y,z NGX =    15 NGY =   15 NGZ =   15
 SYSTEM =  Fe BCC                                  
 POSCAR =  Fe BCC                                  

 Startparameter for this run:
   NWRITE =      2    write-flag & timer
   PREC   = accura    normal or accurate (medium, high low for compatibility)
   ISTART =      0    job   : 0-new  1-cont  2-samecut
   ICHARG =      2    charge: 1-file 2-atom 10-const
   ISPIN  =      2    spin polarized calculation?
   LNONCOLLINEAR =      F non collinear calculations
   LSORBIT =      F    spin-orbit coupling
   INIWAV =      1    electr: 0-lowe 1-rand  2-diag
   LASPH  =      F    aspherical Exc in radial PAW
   METAGGA=      F    non-selfconsistent MetaGGA calc.

 Electronic Relaxation 1
   ENCUT  =  350.0 eV  25.72 Ry    5.07 a.u.   3.77  3.77  3.77*2*pi/ulx,y,z
   ENINI  =  350.0     initial cutoff
   ENAUG  =  511.4 eV  augmentation charge cutoff
   NELM   =     60;   NELMIN=  2; NELMDL= -5     # of ELM steps 
   EDIFF  = 0.1E-05   stopping-criterion for ELM
   LREAL  =      F    real-space projection
   NLSPLINE    = F    spline interpolate recip. space projectors
   LCOMPAT=      F    compatible to vasp.4.4
   GGA_COMPAT  = T    GGA compatible to vasp.4.4-vasp.4.6
   LMAXPAW     = -100 max onsite density
   LMAXMIX     =    2 max onsite mixed and CHGCAR
   VOSKOWN=      0    Vosko Wilk Nusair interpolation
   ROPT   =    0.00000
 Ionic relaxation
   EDIFFG = 0.1E-04   stopping-criterion for IOM
   NSW    =      0    number of steps for IOM
   NBLOCK =      1;   KBLOCK =      1    inner block; outer block 
   IBRION =     -1    ionic relax: 0-MD 1-quasi-New 2-CG
   NFREE  =      0    steps in history (QN), initial steepest desc. (CG)
   ISIF   =      2    stress and relaxation
   IWAVPR =     10    prediction:  0-non 1-charg 2-wave 3-comb
   ISYM   =      2    0-nonsym 1-usesym 2-fastsym
   LCORR  =      T    Harris-Foulkes like correction to forces

   POTIM  = 0.5000    time-step for ionic-motion
   TEIN   =    0.0    initial temperature
   TEBEG  =    0.0;   TEEND  =   0.0 temperature during run
   SMASS  =  -3.00    Nose mass-parameter (am)
   estimated Nose-frequenzy (Omega)   =  0.10E-29 period in steps =****** mass=  -0.139E-27a.u.
   SCALEE = 1.0000    scale energy and forces
   NPACO  =    256;   APACO  = 16.0  distance and # of slots for P.C.
   PSTRESS=    0.0 pullay stress

  Mass of Ions in am
   POMASS =  55.85
  Ionic Valenz
   ZVAL   =   8.00
  Atomic Wigner-Seitz radii
   RWIGS  =  -1.00
  virtual crystal weights 
   VCA    =   1.00
   NELECT =       8.0000    total number of electrons
   NUPDOWN=      -1.0000    fix difference up-down

 DOS related values:
   EMIN   =  10.00;   EMAX   =-10.00  energy-range for DOS
   EFERMI =   0.00
   ISMEAR =    -5;   SIGMA  =   0.20  broadening in eV -4-tet -1-fermi 0-gaus

 Electronic relaxation 2 (details)
   IALGO  =     38    algorithm
   LDIAG  =      T    sub-space diagonalisation (order eigenvalues)
   LSUBROT=      F    optimize rotation matrix (better conditioning)
   TURBO    =      0    0=normal 1=particle mesh
   IRESTART =      0    0=no restart 2=restart with 2 vectors
   NREBOOT  =      0    no. of reboots
   NMIN     =      0    reboot dimension
   EREF     =   0.00    reference energy to select bands
   IMIX   =      4    mixing-type and parameters
     AMIX     =   0.40;   BMIX     =  1.00
     AMIX_MAG =   1.60;   BMIX_MAG =  1.00
     AMIN     =   0.10
     WC   =   100.;   INIMIX=   1;  MIXPRE=   1;  MAXMIX= -45

 Intra band minimization:
   WEIMIN = 0.0000     energy-eigenvalue tresh-hold
   EBREAK =  0.21E-07  absolut break condition
   DEPER  =   0.30     relativ break condition  

   TIME   =   0.40     timestep for ELM

  volume/ion in A,a.u.               =      11.57        78.11
  Fermi-wavevector in a.u.,A,eV,Ry     =   1.447449  2.735282 28.505687  2.095109
  Thomas-Fermi vector in A             =   2.565403
 
 Write flags
   LWAVE  =      T    write WAVECAR
   LCHARG =      T    write CHGCAR
   LVTOT  =      F    write LOCPOT, total local potential
   LVHAR  =      F    write LOCPOT, Hartree potential only
   LELF   =      F    write electronic localiz. function (ELF)
   LORBIT =     11    0 simple, 1 ext, 2 COOP (PROOUT)


 Dipole corrections
   LMONO  =      F    monopole corrections only (constant potential shift)
   LDIPOL =      F    correct potential (dipole corrections)
   IDIPOL =      0    1-x, 2-y, 3-z, 4-all directions 
   EPSILON=  1.0000000 bulk dielectric constant

 Exchange correlation treatment:
   GGA     =    --    GGA type
   LEXCH   =     8    internal setting for exchange type
   VOSKOWN=      0    Vosko Wilk Nusair interpolation
   LHFCALC =     F    Hartree Fock is set to
   LHFONE  =     F    Hartree Fock one center treatment
   AEXX    =    0.0000 exact exchange contribution

 Linear response parameters
   LEPSILON=     F    determine dielectric tensor
   LRPA    =     F    only Hartree local field effects (RPA)
   LNABLA  =     F    use nabla operator in PAW spheres
   LVEL    =     F    velocity operator in full k-point grid
   LINTERFAST=   F  fast interpolation
   KINTER  =     0    interpolate to denser k-point grid
   CSHIFT  =0.1000    complex shift for real part using Kramers Kronig
   OMEGAMAX=  -1.0    maximum frequency
   DEG_THRESHOLD= 0.2000000E-02 threshold for treating states as degnerate
   RTIME   =    0.100 relaxation time in fs

 Orbital magnetization related:
   ORBITALMAG=     F  switch on orbital magnetization
   LCHIMAG   =     F  perturbation theory with respect to B field
   DQ        =  0.001000  dq finite difference perturbation B field



--------------------------------------------------------------------------------------------------------


 Static calculation
 charge density and potential will be updated during run
 spin polarized calculation
 Variant of blocked Davidson
 Davidson routine will perform the subspace rotation
 perform sub-space diagonalisation
    after iterative eigenvector-optimisation
 modified Broyden-mixing scheme, WC =      100.0
 initial mixing is a Kerker type mixing with AMIX =  0.4000 and BMIX =      1.0000
 Hartree-type preconditioning will be used
 using additional bands            8
 reciprocal scheme for non local part
 use partial core corrections
 calculate Harris-corrections to forces 
   (improved forces if not selfconsistent)
 use gradient corrections 
 use of overlap-Matrix (Vanderbilt PP)
 Fermi weights with tetrahedron method with Bloechl corrections


--------------------------------------------------------------------------------------------------------


  energy-cutoff  :      350.00
  volume of cell :       11.57
      direct lattice vectors                 reciprocal lattice vectors
    -1.425000000  1.425000000  1.425000000     0.000000000  0.350877193  0.350877193
     1.425000000 -1.425000000  1.425000000     0.350877193  0.000000000  0.350877193
     1.425000000  1.425000000 -1.425000000     0.350877193  0.350877193  0.000000000

  length of vectors
     2.468172401  2.468172401  2.468172401     0.496215285  0.496215285  0.496215285


 
 k-points in units of 2pi/SCALE and weight: K-Points                                
   0.12500000  0.12500000  0.12500000       0.016
   0.12500000  0.25000000  0.25000000       0.047
   0.12500000  0.37500000  0.37500000       0.047
   0.12500000  0.50000000  0.50000000       0.023
   0.12500000  0.00000000  0.00000000       0.012
   0.25000000  0.25000000  0.37500000       0.047
   0.25000000  0.37500000  0.50000000       0.094
   0.25000000 -0.12500000  0.00000000       0.047
   0.37500000  0.37500000  0.62500000       0.016
   0.37500000 -0.25000000  0.00000000       0.047
   0.37500000 -0.12500000  0.12500000       0.047
   0.50000000 -0.37500000  0.00000000       0.047
   0.50000000 -0.25000000  0.12500000       0.094
  -0.37500000 -0.37500000 -0.87500000       0.047
  -0.37500000 -0.25000000 -0.75000000       0.047
   0.37500000  0.37500000  0.37500000       0.016
   0.37500000  0.50000000  0.50000000       0.023
   0.37500000  0.00000000  0.00000000       0.012
   0.50000000 -0.12500000  0.00000000       0.047
   0.62500000 -0.25000000  0.00000000       0.047
   0.62500000 -0.12500000  0.12500000       0.047
  -0.25000000 -0.25000000 -0.87500000       0.047
   0.62500000  0.00000000  0.00000000       0.012
   0.75000000 -0.12500000  0.00000000       0.047
  -0.12500000 -0.12500000 -0.87500000       0.016
   0.87500000  0.00000000  0.00000000       0.012
 
 k-points in reciprocal lattice and weights: K-Points                                
   0.06250000  0.06250000  0.06250000       0.016
   0.18750000  0.06250000  0.06250000       0.047
   0.31250000  0.06250000  0.06250000       0.047
   0.43750000  0.06250000  0.06250000       0.023
  -0.06250000  0.06250000  0.06250000       0.012
   0.18750000  0.18750000  0.06250000       0.047
   0.31250000  0.18750000  0.06250000       0.094
  -0.18750000  0.18750000  0.06250000       0.047
   0.31250000  0.31250000  0.06250000       0.016
  -0.31250000  0.31250000  0.06250000       0.047
  -0.18750000  0.31250000  0.06250000       0.047
  -0.43750000  0.43750000  0.06250000       0.047
  -0.31250000  0.43750000  0.06250000       0.094
  -0.43750000 -0.43750000  0.06250000       0.047
  -0.31250000 -0.43750000  0.06250000       0.047
   0.18750000  0.18750000  0.18750000       0.016
   0.31250000  0.18750000  0.18750000       0.023
  -0.18750000  0.18750000  0.18750000       0.012
  -0.31250000  0.31250000  0.18750000       0.047
  -0.43750000  0.43750000  0.18750000       0.047
  -0.31250000  0.43750000  0.18750000       0.047
  -0.43750000 -0.43750000  0.18750000       0.047
  -0.31250000  0.31250000  0.31250000       0.012
  -0.43750000  0.43750000  0.31250000       0.047
  -0.43750000 -0.43750000  0.31250000       0.016
  -0.43750000  0.43750000  0.43750000       0.012
 
 position of ions in fractional coordinates (direct lattice) 
   0.00000000  0.00000000  0.00000000
 
 position of ions in cartesian coordinates  (Angst):
   0.00000000  0.00000000  0.00000000
 


--------------------------------------------------------------------------------------------------------


 k-point  1 :   0.0625 0.0625 0.0625  plane waves:     171
 k-point  2 :   0.1875 0.0625 0.0625  plane waves:     174
 k-point  3 :   0.3125 0.0625 0.0625  plane waves:     173
 k-point  4 :   0.4375 0.0625 0.0625  plane waves:     170
 k-point  5 :  -0.0625 0.0625 0.0625  plane waves:     173
 k-point  6 :   0.1875 0.1875 0.0625  plane waves:     170
 k-point  7 :   0.3125 0.1875 0.0625  plane waves:     170
 k-point  8 :  -0.1875 0.1875 0.0625  plane waves:     173
 k-point  9 :   0.3125 0.3125 0.0625  plane waves:     167
 k-point 10 :  -0.3125 0.3125 0.0625  plane waves:     171
 k-point 11 :  -0.1875 0.3125 0.0625  plane waves:     173
 k-point 12 :  -0.4375 0.4375 0.0625  plane waves:     178
 k-point 13 :  -0.3125 0.4375 0.0625  plane waves:     174
 k-point 14 :  -0.4375-0.4375 0.0625  plane waves:     170
 k-point 15 :  -0.3125-0.4375 0.0625  plane waves:     171
 k-point 16 :   0.1875 0.1875 0.1875  plane waves:     165
 k-point 17 :   0.3125 0.1875 0.1875  plane waves:     170
 k-point 18 :  -0.1875 0.1875 0.1875  plane waves:     176
 k-point 19 :  -0.3125 0.3125 0.1875  plane waves:     171
 k-point 20 :  -0.4375 0.4375 0.1875  plane waves:     173
 k-point 21 :  -0.3125 0.4375 0.1875  plane waves:     171
 k-point 22 :  -0.4375-0.4375 0.1875  plane waves:     175
 k-point 23 :  -0.3125 0.3125 0.3125  plane waves:     176
 k-point 24 :  -0.4375 0.4375 0.3125  plane waves:     175
 k-point 25 :  -0.4375-0.4375 0.3125  plane waves:     176
 k-point 26 :  -0.4375 0.4375 0.4375  plane waves:     176

 maximum and minimum number of plane-waves per node :       178      165

 maximum number of plane-waves:       178
 maximum index in each direction: 
   IXMAX=    4   IYMAX=    4   IZMAX=    3
   IXMIN=   -4   IYMIN=   -4   IZMIN=   -4

 WARNING: aliasing errors must be expected set NGX to  18 to avoid them
 WARNING: aliasing errors must be expected set NGY to  18 to avoid them
 NGZ is ok and might be reduce to  16
 aliasing errors are usually negligible using standard VASP settings
 and one can safely disregard these warnings

 serial   3D FFT for wavefunctions
 parallel 3D FFT for charge:
    minimum data exchange during FFTs selected (reduces bandwidth)


 total amount of memory used by VASP on root node    32462. kBytes
========================================================================

   base      :      30000. kBytes
   nonl-proj :        676. kBytes
   fftplans  :        302. kBytes
   grid      :        954. kBytes
   one-center:         31. kBytes
   wavefun   :        499. kBytes
 
     INWAV:  cpu time    0.0000: real time    0.0000
 Broyden mixing: mesh for mixing (old mesh)
   NGX =  7   NGY =  7   NGZ =  7
  (NGX  = 32   NGY  = 32   NGZ  = 32)
  gives a total of    343 points

 initial charge density was supplied:
 charge density of overlapping atoms calculated
 number of electron       8.0000000 magnetization       4.0000000
 keeping initial charge density in first step


--------------------------------------------------------------------------------------------------------


 Maximum index for augmentation-charges         2971 (set IRDMAX)


--------------------------------------------------------------------------------------------------------


 First call to EWALD:  gamma=   0.784
 Maximum number of real-space cells 3x 3x 3
 Maximum number of reciprocal cells 3x 3x 3

 FEWALD executed in parallel
    FEWALD:  cpu time    0.0020: real time    0.0010


----------------------------------------- Iteration    1(   1)  ---------------------------------------


    POTLOK:  cpu time    0.0240: real time    0.0118
    SETDIJ:  cpu time    0.0150: real time    0.0073
     EDDAV:  cpu time    1.0598: real time    0.5313
 BZINTS: Fermi energy: 12.869072;  8.000000 electrons
         Band energy:  63.602168;  BLOECHL correction: -0.396797
       DOS:  cpu time    0.0590: real time    0.0297
    --------------------------------------------
      LOOP:  cpu time    1.1608: real time    0.5818

 eigenvalue-minimisations  :  1404
 total energy-change (2. order) : 0.1443730E+02  (-0.3308978E+03)
 number of electron       8.0000000 magnetization       4.0000000
 augmentation part        8.0000000 magnetization       4.0000000

 Free energy of the ion-electron system (eV)
  ---------------------------------------------------
  alpha Z        PSCENC =        59.71178263
  Ewald energy   TEWEN  =      -588.39789044
  -Hartree energ DENC   =      -112.96750494
  -exchange      EXHF   =         0.00000000
  -V(xc)+E(xc)   XCENC  =         5.94992066
  PAW double counting   =       552.89180568     -560.64780826
  entropy T*S    EENTRO =         0.00000000
  eigenvalues    EBANDS =        63.60216754
  atomic energy  EATOM  =       594.29482811
  Solvation  Ediel_sol  =         0.00000000
  ---------------------------------------------------
  free energy    TOTEN  =        14.43730098 eV

  energy without entropy =       14.43730098  energy(sigma->0) =       14.43730098


--------------------------------------------------------------------------------------------------------




----------------------------------------- Iteration    1(   2)  ---------------------------------------


     EDDAV:  cpu time    1.0328: real time    0.5176
 BZINTS: Fermi energy:  7.874846;  8.000000 electrons
         Band energy:  40.907846;  BLOECHL correction: -0.063495
       DOS:  cpu time    0.0420: real time    0.0210
    --------------------------------------------
      LOOP:  cpu time    1.0828: real time    0.5422

 eigenvalue-minimisations  :  1328
 total energy-change (2. order) :-0.2269432E+02  (-0.2081287E+02)
 number of electron       8.0000000 magnetization       4.0000000
 augmentation part        8.0000000 magnetization       4.0000000

 Free energy of the ion-electron system (eV)
  ---------------------------------------------------
  alpha Z        PSCENC =        59.71178263
  Ewald energy   TEWEN  =      -588.39789044
  -Hartree energ DENC   =      -112.96750494
  -exchange      EXHF   =         0.00000000
  -V(xc)+E(xc)   XCENC  =         5.94992066
  PAW double counting   =       552.89180568     -560.64780826
  entropy T*S    EENTRO =         0.00000000
  eigenvalues    EBANDS =        40.90784588
  atomic energy  EATOM  =       594.29482811
  Solvation  Ediel_sol  =         0.00000000
  ---------------------------------------------------
  free energy    TOTEN  =        -8.25702069 eV

  energy without entropy =       -8.25702069  energy(sigma->0) =       -8.25702069


--------------------------------------------------------------------------------------------------------




----------------------------------------- Iteration    1(   3)  ---------------------------------------


     EDDAV:  cpu time    1.1398: real time    0.5711
 BZINTS: Fermi energy:  7.793900;  8.000000 electrons
         Band energy:  40.470066;  BLOECHL correction: -0.063784
       DOS:  cpu time    0.0580: real time    0.0295
    --------------------------------------------
      LOOP:  cpu time    1.2148: real time    0.6089

 eigenvalue-minimisations  :  1464
 total energy-change (2. order) :-0.4377798E+00  (-0.4354915E+00)
 number of electron       8.0000000 magnetization       4.0000000
 augmentation part        8.0000000 magnetization       4.0000000

 Free energy of the ion-electron system (eV)
  ---------------------------------------------------
  alpha Z        PSCENC =        59.71178263
  Ewald energy   TEWEN  =      -588.39789044
  -Hartree energ DENC   =      -112.96750494
  -exchange      EXHF   =         0.00000000
  -V(xc)+E(xc)   XCENC  =         5.94992066
  PAW double counting   =       552.89180568     -560.64780826
  entropy T*S    EENTRO =         0.00000000
  eigenvalues    EBANDS =        40.47006604
  atomic energy  EATOM  =       594.29482811
  Solvation  Ediel_sol  =         0.00000000
  ---------------------------------------------------
  free energy    TOTEN  =        -8.69480052 eV

  energy without entropy =       -8.69480052  energy(sigma->0) =       -8.69480052


--------------------------------------------------------------------------------------------------------




----------------------------------------- Iteration    1(   4)  ---------------------------------------


     EDDAV:  cpu time    1.4828: real time    0.7429
 BZINTS: Fermi energy:  7.793712;  8.000000 electrons
         Band energy:  40.468462;  BLOECHL correction: -0.063790
       DOS:  cpu time    0.0580: real time    0.0290
    --------------------------------------------
      LOOP:  cpu time    1.5488: real time    0.7757

 eigenvalue-minimisations  :  1384
 total energy-change (2. order) :-0.1604453E-02  (-0.1599748E-02)
 number of electron       8.0000000 magnetization       4.0000000
 augmentation part        8.0000000 magnetization       4.0000000

 Free energy of the ion-electron system (eV)
  ---------------------------------------------------
  alpha Z        PSCENC =        59.71178263
  Ewald energy   TEWEN  =      -588.39789044
  -Hartree energ DENC   =      -112.96750494
  -exchange      EXHF   =         0.00000000
  -V(xc)+E(xc)   XCENC  =         5.94992066
  PAW double counting   =       552.89180568     -560.64780826
  entropy T*S    EENTRO =         0.00000000
  eigenvalues    EBANDS =        40.46846158
  atomic energy  EATOM  =       594.29482811
  Solvation  Ediel_sol  =         0.00000000
  ---------------------------------------------------
  free energy    TOTEN  =        -8.69640498 eV

  energy without entropy =       -8.69640498  energy(sigma->0) =       -8.69640498


--------------------------------------------------------------------------------------------------------




----------------------------------------- Iteration    1(   5)  ---------------------------------------


     EDDAV:  cpu time    1.1108: real time    0.5568
 BZINTS: Fermi energy:  7.793711;  8.000000 electrons
         Band energy:  40.468450;  BLOECHL correction: -0.063790
       DOS:  cpu time    0.0490: real time    0.0248
    CHARGE:  cpu time    0.0280: real time    0.0139
    MIXING:  cpu time    0.0020: real time    0.0006
    --------------------------------------------
      LOOP:  cpu time    1.1968: real time    0.5992

 eigenvalue-minimisations  :  1432
 total energy-change (2. order) :-0.1127387E-04  (-0.1123949E-04)
 number of electron       8.0000002 magnetization       1.8392546
 augmentation part        3.6572902 magnetization       1.1266511

 Broyden mixing:
  rms(total) = 0.12199E+01    rms(broyden)= 0.12197E+01
  rms(prec ) = 0.33105E+01
  weight for this iteration     100.00

 Free energy of the ion-electron system (eV)
  ---------------------------------------------------
  alpha Z        PSCENC =        59.71178263
  Ewald energy   TEWEN  =      -588.39789044
  -Hartree energ DENC   =      -112.96750494
  -exchange      EXHF   =         0.00000000
  -V(xc)+E(xc)   XCENC  =         5.94992066
  PAW double counting   =       552.89180568     -560.64780826
  entropy T*S    EENTRO =         0.00000000
  eigenvalues    EBANDS =        40.46845031
  atomic energy  EATOM  =       594.29482811
  Solvation  Ediel_sol  =         0.00000000
  ---------------------------------------------------
  free energy    TOTEN  =        -8.69641625 eV

  energy without entropy =       -8.69641625  energy(sigma->0) =       -8.69641625


--------------------------------------------------------------------------------------------------------




----------------------------------------- Iteration    1(   6)  ---------------------------------------


    POTLOK:  cpu time    0.0260: real time    0.0132
    SETDIJ:  cpu time    0.0210: real time    0.0105
     EDDAV:  cpu time    1.0838: real time    0.5429
 BZINTS: Fermi energy:  5.180699;  8.000000 electrons
         Band energy:  24.886314;  BLOECHL correction: -0.064269
       DOS:  cpu time    0.0510: real time    0.0258
    CHARGE:  cpu time    0.0340: real time    0.0165
    MIXING:  cpu time    0.0010: real time    0.0007
    --------------------------------------------
      LOOP:  cpu time    1.2218: real time    0.6124

 eigenvalue-minimisations  :  1408
 total energy-change (2. order) : 0.3976210E+00  (-0.9621367E+00)
 number of electron       8.0000002 magnetization       2.2506393
 augmentation part        4.2638959 magnetization       1.9064301

 Broyden mixing:
  rms(total) = 0.50926E+00    rms(broyden)= 0.50899E+00
  rms(prec ) = 0.66628E+00
  weight for this iteration     100.00

 eigenvalues of (default mixing * dielectric matrix)
  average eigenvalue GAMMA=   0.7546
  0.7546

 Free energy of the ion-electron system (eV)
  ---------------------------------------------------
  alpha Z        PSCENC =        59.71178263
  Ewald energy   TEWEN  =      -588.39789044
  -Hartree energ DENC   =       -96.88704388
  -exchange      EXHF   =         0.00000000
  -V(xc)+E(xc)   XCENC  =         3.97738834
  PAW double counting   =       607.16774287     -613.05191718
  entropy T*S    EENTRO =         0.00000000
  eigenvalues    EBANDS =        24.88631429
  atomic energy  EATOM  =       594.29482811
  Solvation  Ediel_sol  =         0.00000000
  ---------------------------------------------------
  free energy    TOTEN  =        -8.29879526 eV

  energy without entropy =       -8.29879526  energy(sigma->0) =       -8.29879526


--------------------------------------------------------------------------------------------------------




----------------------------------------- Iteration    1(   7)  ---------------------------------------


    POTLOK:  cpu time    0.0270: real time    0.0132
    SETDIJ:  cpu time    0.0190: real time    0.0097
     EDDAV:  cpu time    1.5128: real time    0.7575
 BZINTS: Fermi energy:  5.668008;  8.000000 electrons
         Band energy:  27.957610;  BLOECHL correction: -0.063302
       DOS:  cpu time    0.0570: real time    0.0290
    CHARGE:  cpu time    0.0250: real time    0.0121
    MIXING:  cpu time    0.0010: real time    0.0008
    --------------------------------------------
      LOOP:  cpu time    1.6468: real time    0.8251

 eigenvalue-minimisations  :  1448
 total energy-change (2. order) : 0.4506255E-01  (-0.4555413E-01)
 number of electron       8.0000002 magnetization       2.2168534
 augmentation part        4.1295665 magnetization       1.8525167

 Broyden mixing:
  rms(total) = 0.31674E+00    rms(broyden)= 0.31673E+00
  rms(prec ) = 0.41619E+00
  weight for this iteration     100.00

 eigenvalues of (default mixing * dielectric matrix)
  average eigenvalue GAMMA=   0.7653
  0.9735  0.5570

 Free energy of the ion-electron system (eV)
  ---------------------------------------------------
  alpha Z        PSCENC =        59.71178263
  Ewald energy   TEWEN  =      -588.39789044
  -Hartree energ DENC   =       -98.67789539
  -exchange      EXHF   =         0.00000000
  -V(xc)+E(xc)   XCENC  =         4.40362323
  PAW double counting   =       644.46450983     -652.01030038
  entropy T*S    EENTRO =         0.00000000
  eigenvalues    EBANDS =        27.95760971
  atomic energy  EATOM  =       594.29482811
  Solvation  Ediel_sol  =         0.00000000
  ---------------------------------------------------
  free energy    TOTEN  =        -8.25373271 eV

  energy without entropy =       -8.25373271  energy(sigma->0) =       -8.25373271


--------------------------------------------------------------------------------------------------------




----------------------------------------- Iteration    1(   8)  ---------------------------------------


    POTLOK:  cpu time    0.0270: real time    0.0136
    SETDIJ:  cpu time    0.0190: real time    0.0098
     EDDAV:  cpu time    1.1338: real time    0.5681
 BZINTS: Fermi energy:  5.621154;  8.000000 electrons
         Band energy:  27.704187;  BLOECHL correction: -0.063441
       DOS:  cpu time    0.0500: real time    0.0249
    CHARGE:  cpu time    0.0310: real time    0.0153
    MIXING:  cpu time    0.0010: real time    0.0008
    --------------------------------------------
      LOOP:  cpu time    1.2668: real time    0.6347

 eigenvalue-minimisations  :  1504
 total energy-change (2. order) : 0.8262733E-02  (-0.6178463E-03)
 number of electron       8.0000002 magnetization       2.1951041
 augmentation part        4.1393547 magnetization       1.8338126

 Broyden mixing:
  rms(total) = 0.12516E+00    rms(broyden)= 0.12515E+00
  rms(prec ) = 0.20917E+00
  weight for this iteration     100.00

 eigenvalues of (default mixing * dielectric matrix)
  average eigenvalue GAMMA=   1.1371
  2.0122  0.7831  0.6159

 Free energy of the ion-electron system (eV)
  ---------------------------------------------------
  alpha Z        PSCENC =        59.71178263
  Ewald energy   TEWEN  =      -588.39789044
  -Hartree energ DENC   =       -97.84524832
  -exchange      EXHF   =         0.00000000
  -V(xc)+E(xc)   XCENC  =         4.33954234
  PAW double counting   =       666.44051494     -674.49318633
  entropy T*S    EENTRO =         0.00000000
  eigenvalues    EBANDS =        27.70418709
  atomic energy  EATOM  =       594.29482811
  Solvation  Ediel_sol  =         0.00000000
  ---------------------------------------------------
  free energy    TOTEN  =        -8.24546997 eV

  energy without entropy =       -8.24546997  energy(sigma->0) =       -8.24546997


--------------------------------------------------------------------------------------------------------




----------------------------------------- Iteration    1(   9)  ---------------------------------------


    POTLOK:  cpu time    0.0260: real time    0.0130
    SETDIJ:  cpu time    0.0190: real time    0.0100
     EDDAV:  cpu time    1.2458: real time    0.6238
 BZINTS: Fermi energy:  5.552587;  8.000000 electrons
         Band energy:  27.305000;  BLOECHL correction: -0.064257
       DOS:  cpu time    0.0490: real time    0.0249
    CHARGE:  cpu time    0.0290: real time    0.0143
    MIXING:  cpu time    0.0020: real time    0.0008
    --------------------------------------------
      LOOP:  cpu time    1.3768: real time    0.6896

 eigenvalue-minimisations  :  1680
 total energy-change (2. order) : 0.5977369E-02  (-0.8399688E-03)
 number of electron       8.0000002 magnetization       2.1991898
 augmentation part        4.1563226 magnetization       1.8405562

 Broyden mixing:
  rms(total) = 0.19769E-01    rms(broyden)= 0.19763E-01
  rms(prec ) = 0.26066E-01
  weight for this iteration     100.00

 eigenvalues of (default mixing * dielectric matrix)
  average eigenvalue GAMMA=   1.2054
  2.4075  1.0104  0.7723  0.6313

 Free energy of the ion-electron system (eV)
  ---------------------------------------------------
  alpha Z        PSCENC =        59.71178263
  Ewald energy   TEWEN  =      -588.39789044
  -Hartree energ DENC   =       -96.55635344
  -exchange      EXHF   =         0.00000000
  -V(xc)+E(xc)   XCENC  =         4.29663153
  PAW double counting   =       703.42265256     -712.31614328
  entropy T*S    EENTRO =         0.00000000
  eigenvalues    EBANDS =        27.30499971
  atomic energy  EATOM  =       594.29482811
  Solvation  Ediel_sol  =         0.00000000
  ---------------------------------------------------
  free energy    TOTEN  =        -8.23949261 eV

  energy without entropy =       -8.23949261  energy(sigma->0) =       -8.23949261


--------------------------------------------------------------------------------------------------------




----------------------------------------- Iteration    1(  10)  ---------------------------------------


    POTLOK:  cpu time    0.0260: real time    0.0132
    SETDIJ:  cpu time    0.0200: real time    0.0099
     EDDAV:  cpu time    1.4818: real time    0.7422
 BZINTS: Fermi energy:  5.569227;  8.000000 electrons
         Band energy:  27.405872;  BLOECHL correction: -0.064329
       DOS:  cpu time    0.0510: real time    0.0260
    CHARGE:  cpu time    0.0310: real time    0.0153
    MIXING:  cpu time    0.0020: real time    0.0009
    --------------------------------------------
      LOOP:  cpu time    1.6168: real time    0.8101

 eigenvalue-minimisations  :  1384
 total energy-change (2. order) : 0.3164219E-04  (-0.6858091E-04)
 number of electron       8.0000002 magnetization       2.2011922
 augmentation part        4.1519002 magnetization       1.8410124

 Broyden mixing:
  rms(total) = 0.51450E-02    rms(broyden)= 0.51434E-02
  rms(prec ) = 0.68507E-02
  weight for this iteration     100.00

 eigenvalues of (default mixing * dielectric matrix)
  average eigenvalue GAMMA=   1.1461
  2.4457  1.1037  0.6705  0.6705  0.8402

 Free energy of the ion-electron system (eV)
  ---------------------------------------------------
  alpha Z        PSCENC =        59.71178263
  Ewald energy   TEWEN  =      -588.39789044
  -Hartree energ DENC   =       -96.47271883
  -exchange      EXHF   =         0.00000000
  -V(xc)+E(xc)   XCENC  =         4.29757053
  PAW double counting   =       711.50250076     -720.58140581
  entropy T*S    EENTRO =         0.00000000
  eigenvalues    EBANDS =        27.40587210
  atomic energy  EATOM  =       594.29482811
  Solvation  Ediel_sol  =         0.00000000
  ---------------------------------------------------
  free energy    TOTEN  =        -8.23946096 eV

  energy without entropy =       -8.23946096  energy(sigma->0) =       -8.23946096


--------------------------------------------------------------------------------------------------------




----------------------------------------- Iteration    1(  11)  ---------------------------------------


    POTLOK:  cpu time    0.0260: real time    0.0131
    SETDIJ:  cpu time    0.0200: real time    0.0100
     EDDAV:  cpu time    1.0798: real time    0.5406
 BZINTS: Fermi energy:  5.566706;  8.000000 electrons
         Band energy:  27.387097;  BLOECHL correction: -0.064353
       DOS:  cpu time    0.0510: real time    0.0260
    CHARGE:  cpu time    0.0300: real time    0.0149
    MIXING:  cpu time    0.0020: real time    0.0009
    --------------------------------------------
      LOOP:  cpu time    1.2138: real time    0.6081

 eigenvalue-minimisations  :  1392
 total energy-change (2. order) :-0.2628166E-04  (-0.3758562E-05)
 number of electron       8.0000002 magnetization       2.1973613
 augmentation part        4.1526474 magnetization       1.8369701

 Broyden mixing:
  rms(total) = 0.38853E-02    rms(broyden)= 0.38847E-02
  rms(prec ) = 0.42053E-02
  weight for this iteration     100.00

 eigenvalues of (default mixing * dielectric matrix)
  average eigenvalue GAMMA=   1.2952
  2.3199  2.3199  1.0086  0.6556  0.7487  0.7184

 Free energy of the ion-electron system (eV)
  ---------------------------------------------------
  alpha Z        PSCENC =        59.71178263
  Ewald energy   TEWEN  =      -588.39789044
  -Hartree energ DENC   =       -96.46291028
  -exchange      EXHF   =         0.00000000
  -V(xc)+E(xc)   XCENC  =         4.29821158
  PAW double counting   =       711.99138370     -721.06198965
  entropy T*S    EENTRO =         0.00000000
  eigenvalues    EBANDS =        27.38709711
  atomic energy  EATOM  =       594.29482811
  Solvation  Ediel_sol  =         0.00000000
  ---------------------------------------------------
  free energy    TOTEN  =        -8.23948724 eV

  energy without entropy =       -8.23948724  energy(sigma->0) =       -8.23948724


--------------------------------------------------------------------------------------------------------




----------------------------------------- Iteration    1(  12)  ---------------------------------------


    POTLOK:  cpu time    0.0260: real time    0.0132
    SETDIJ:  cpu time    0.0210: real time    0.0103
     EDDAV:  cpu time    1.1048: real time    0.5537
 BZINTS: Fermi energy:  5.565811;  8.000000 electrons
         Band energy:  27.380288;  BLOECHL correction: -0.064368
       DOS:  cpu time    0.0510: real time    0.0260
    CHARGE:  cpu time    0.0310: real time    0.0148
    MIXING:  cpu time    0.0020: real time    0.0009
    --------------------------------------------
      LOOP:  cpu time    1.2408: real time    0.6214

 eigenvalue-minimisations  :  1416
 total energy-change (2. order) :-0.6520222E-05  (-0.2896595E-06)
 number of electron       8.0000002 magnetization       2.1980347
 augmentation part        4.1528095 magnetization       1.8377708

 Broyden mixing:
  rms(total) = 0.21602E-02    rms(broyden)= 0.21599E-02
  rms(prec ) = 0.22972E-02
  weight for this iteration     100.00

 eigenvalues of (default mixing * dielectric matrix)
  average eigenvalue GAMMA=   1.2655
  2.5584  2.5584  1.0819  0.8365  0.6681  0.6681  0.4873

 Free energy of the ion-electron system (eV)
  ---------------------------------------------------
  alpha Z        PSCENC =        59.71178263
  Ewald energy   TEWEN  =      -588.39789044
  -Hartree energ DENC   =       -96.48335840
  -exchange      EXHF   =         0.00000000
  -V(xc)+E(xc)   XCENC  =         4.29544462
  PAW double counting   =       712.05432601     -721.09491404
  entropy T*S    EENTRO =         0.00000000
  eigenvalues    EBANDS =        27.38028775
  atomic energy  EATOM  =       594.29482811
  Solvation  Ediel_sol  =         0.00000000
  ---------------------------------------------------
  free energy    TOTEN  =        -8.23949376 eV

  energy without entropy =       -8.23949376  energy(sigma->0) =       -8.23949376


--------------------------------------------------------------------------------------------------------




----------------------------------------- Iteration    1(  13)  ---------------------------------------


    POTLOK:  cpu time    0.0260: real time    0.0132
    SETDIJ:  cpu time    0.0210: real time    0.0103
     EDDAV:  cpu time    0.6309: real time    0.3163
 BZINTS: Fermi energy:  5.565320;  8.000000 electrons
         Band energy:  27.377482;  BLOECHL correction: -0.064370
       DOS:  cpu time    0.0570: real time    0.0286
    CHARGE:  cpu time    0.0230: real time    0.0114
    MIXING:  cpu time    0.0020: real time    0.0009
    --------------------------------------------
      LOOP:  cpu time    0.7649: real time    0.3833

 eigenvalue-minimisations  :   668
 total energy-change (2. order) : 0.1935250E-05  (-0.4110763E-07)
 number of electron       8.0000002 magnetization       2.1993323
 augmentation part        4.1529317 magnetization       1.8391222

 Broyden mixing:
  rms(total) = 0.13997E-02    rms(broyden)= 0.13997E-02
  rms(prec ) = 0.14235E-02
  weight for this iteration     100.00

 eigenvalues of (default mixing * dielectric matrix)
  average eigenvalue GAMMA=   1.2512
  2.6622  2.4767  1.1729  1.0128  0.7251  0.7251  0.6343  0.6002

 Free energy of the ion-electron system (eV)
  ---------------------------------------------------
  alpha Z        PSCENC =        59.71178263
  Ewald energy   TEWEN  =      -588.39789044
  -Hartree energ DENC   =       -96.48250577
  -exchange      EXHF   =         0.00000000
  -V(xc)+E(xc)   XCENC  =         4.29660887
  PAW double counting   =       712.05718842     -721.09698580
  entropy T*S    EENTRO =         0.00000000
  eigenvalues    EBANDS =        27.37748215
  atomic energy  EATOM  =       594.29482811
  Solvation  Ediel_sol  =         0.00000000
  ---------------------------------------------------
  free energy    TOTEN  =        -8.23949183 eV

  energy without entropy =       -8.23949183  energy(sigma->0) =       -8.23949183


--------------------------------------------------------------------------------------------------------




----------------------------------------- Iteration    1(  14)  ---------------------------------------


    POTLOK:  cpu time    0.0260: real time    0.0133
    SETDIJ:  cpu time    0.0210: real time    0.0101
     EDDAV:  cpu time    1.0528: real time    0.5277
 BZINTS: Fermi energy:  5.565347;  8.000000 electrons
         Band energy:  27.378126;  BLOECHL correction: -0.064370
       DOS:  cpu time    0.0520: real time    0.0260
    --------------------------------------------
      LOOP:  cpu time    1.1568: real time    0.5797

 eigenvalue-minimisations  :   692
 total energy-change (2. order) :-0.3138894E-08  (-0.2479558E-07)
 number of electron       8.0000002 magnetization       2.1993323
 augmentation part        4.1529317 magnetization       1.8391222

 Free energy of the ion-electron system (eV)
  ---------------------------------------------------
  alpha Z        PSCENC =        59.71178263
  Ewald energy   TEWEN  =      -588.39789044
  -Hartree energ DENC   =       -96.47798887
  -exchange      EXHF   =         0.00000000
  -V(xc)+E(xc)   XCENC  =         4.29784488
  PAW double counting   =       712.16765760     -721.21385143
  entropy T*S    EENTRO =         0.00000000
  eigenvalues    EBANDS =        27.37812568
  atomic energy  EATOM  =       594.29482811
  Solvation  Ediel_sol  =         0.00000000
  ---------------------------------------------------
  free energy    TOTEN  =        -8.23949183 eV

  energy without entropy =       -8.23949183  energy(sigma->0) =       -8.23949183


--------------------------------------------------------------------------------------------------------




 average (electrostatic) potential at core
  the test charge radii are     1.0103
  (the norm of the test charge is              1.0000)
       1 -43.4891
 
 
 
 E-fermi :   5.5653     XC(G=0): -13.0128     alpha+bet :-13.3918


 spin component 1

 k-point     1 :       0.0625    0.0625    0.0625
  band No.  band energies     occupation 
      1      -1.7335      1.00000
      2       3.1436      1.00000
      3       3.1436      1.00000
      4       3.9273      1.00000
      5       4.5026      1.00000
      6       4.5026      1.00339
      7      26.8399      0.00000
      8      26.8399      0.00000
      9      30.6259      0.00000
     10      31.3756      0.00000
     11      36.2694      0.00000
     12      36.2694      0.00000

 k-point     2 :       0.1875    0.0625    0.0625
  band No.  band energies     occupation 
      1      -0.1555      1.00000
      2       2.7445      1.00000
      3       2.9519      1.00000
      4       4.4424      1.00000
      5       4.6223      1.00091
      6       4.9271      0.88315
      7      21.4159      0.00000
      8      24.5010      0.00000
      9      26.7856      0.00000
     10      31.6820      0.00000
     11      35.6992      0.00000
     12      36.9158      0.00000

 k-point     3 :       0.3125    0.0625    0.0625
  band No.  band energies     occupation 
      1       0.9749      1.00000
      2       2.4026      1.00000
      3       3.7208      1.00000
      4       4.5811      1.00000
      5       4.7170      1.03317
      6       6.3332      0.01104
      7      15.9675      0.00000
      8      22.8087      0.00000
      9      24.4678      0.00000
     10      31.1414      0.00000
     11      35.0077      0.00000
     12      40.2260      0.00000

 k-point     4 :       0.4375    0.0625    0.0625
  band No.  band energies     occupation 
      1       1.0309      1.00000
      2       2.2712      1.00000
      3       4.6429      1.00000
      4       4.7021      1.00000
      5       4.7557      1.07997
      6       7.7211     -0.00486
      7      12.8756      0.00000
      8      22.1891      0.00000
      9      23.6040      0.00000
     10      30.9060      0.00000
     11      34.9024      0.00000
     12      40.1707      0.00000

 k-point     5 :      -0.0625    0.0625    0.0625
  band No.  band energies     occupation 
      1      -2.3434      1.00000
      2       3.3417      1.00000
      3       3.3417      1.00000
      4       3.4275      1.00000
      5       4.4291      1.00000
      6       4.6229      1.00000
      7      28.7806      0.00000
      8      30.1065      0.00000
      9      30.1065      0.00000
     10      33.1585      0.00000
     11      35.2593      0.00000
     12      35.2593      0.00000

 k-point     6 :       0.1875    0.1875    0.0625
  band No.  band energies     occupation 
      1       1.3065      1.00000
      2       2.4713      1.00000
      3       2.6685      1.00000
      4       4.5216      1.00000
      5       4.7492      1.00075
      6       6.5351     -0.00808
      7      18.9198      0.00000
      8      19.7129      0.00000
      9      23.5924      0.00000
     10      33.6020      0.00000
     11      37.2032      0.00000
     12      39.5973      0.00000

 k-point     7 :       0.3125    0.1875    0.0625
  band No.  band energies     occupation 
      1       1.6455      1.00000
      2       2.3088      1.00000
      3       3.2982      1.00000
      4       4.6587      1.00000
      5       4.8436      1.00976
      6       8.9811     -0.00358
      7      14.2955      0.00000
      8      18.1487      0.00000
      9      22.3222      0.00000
     10      33.9475      0.00000
     11      38.2546      0.00000
     12      40.1997      0.00000

 k-point     8 :      -0.1875    0.1875    0.0625
  band No.  band energies     occupation 
      1      -1.1640      1.00000
      2       3.0817      1.00000
      3       3.2720      1.00000
      4       4.0306      1.00000
      5       4.1951      1.00000
      6       4.7198      1.01081
      7      24.2908      0.00000
      8      27.6738      0.00000
      9      28.5145      0.00000
     10      32.5417      0.00000
     11      32.6925      0.00000
     12      34.2577      0.00000

 k-point     9 :       0.3125    0.3125    0.0625
  band No.  band energies     occupation 
      1       1.9583      1.00000
      2       2.6641      1.00000
      3       2.6641      1.00000
      4       4.7937      1.00000
      5       4.7937      1.00000
      6      12.4836      0.00000
      7      12.4836      0.00000
      8      14.9454      0.00000
      9      21.8539      0.00000
     10      36.3821      0.00000
     11      36.3821      0.00000
     12      43.4319      0.00000

 k-point    10 :      -0.3125    0.3125    0.0625
  band No.  band energies     occupation 
      1       0.4583      1.00000
      2       2.6944      1.00000
      3       3.3350      1.00000
      4       4.3959      1.00000
      5       4.9012      1.01741
      6       5.0203      0.70948
      7      18.5189      0.00000
      8      25.2806      0.00000
      9      26.3632      0.00000
     10      30.8519      0.00000
     11      32.7252      0.00000
     12      35.6321      0.00000

 k-point    11 :      -0.1875    0.3125    0.0625
  band No.  band energies     occupation 
      1       0.2721      1.00000
      2       2.8732      1.00000
      3       3.0724      1.00000
      4       4.0738      1.00000
      5       4.7497      1.00180
      6       5.0980      0.76040
      7      21.4986      0.00000
      8      22.4579      0.00000
      9      28.9770      0.00000
     10      29.1867      0.00000
     11      32.9364      0.00000
     12      37.5532      0.00000

 k-point    12 :      -0.4375    0.4375    0.0625
  band No.  band energies     occupation 
      1       0.9101      1.00000
      2       2.4313      1.00000
      3       4.0956      1.00000
      4       4.5585      1.00000
      5       5.8156      0.48870
      6       6.2651      0.00089
      7      13.7798      0.00000
      8      23.9167      0.00000
      9      24.7473      0.00000
     10      30.1413      0.00000
     11      32.9759      0.00000
     12      37.3339      0.00000

 k-point    13 :      -0.3125    0.4375    0.0625
  band No.  band energies     occupation 
      1       1.3136      1.00000
      2       2.5746      1.00000
      3       3.1404      1.00000
      4       4.3680      1.00000
      5       5.1328      1.02463
      6       6.8187     -0.03591
      7      16.3447      0.00000
      8      20.2425      0.00000
      9      26.7889      0.00000
     10      29.9596      0.00000
     11      33.5723      0.00000
     12      38.0747      0.00000

 k-point    14 :      -0.4375   -0.4375    0.0625
  band No.  band energies     occupation 
      1       1.3488      1.00000
      2       2.5650      1.00000
      3       3.3114      1.00000
      4       4.4700      1.00000
      5       5.4779      0.88675
      6       8.8232     -0.00182
      7      12.9798      0.00000
      8      19.5511      0.00000
      9      25.9551      0.00000
     10      30.2924      0.00000
     11      34.5611      0.00000
     12      37.3802      0.00000

 k-point    15 :      -0.3125   -0.4375    0.0625
  band No.  band energies     occupation 
      1       2.0267      1.00000
      2       2.2795      1.00000
      3       2.8093      1.00000
      4       4.6615      1.00000
      5       5.1073      1.03783
      6      10.0426     -0.00059
      7      14.4258      0.00000
      8      15.7534      0.00000
      9      27.1744      0.00000
     10      30.3785      0.00000
     11      32.5567      0.00000
     12      39.5867      0.00000

 k-point    16 :       0.1875    0.1875    0.1875
  band No.  band energies     occupation 
      1       2.2937      1.00000
      2       2.2937      1.00000
      3       2.4624      1.00000
      4       4.7327      1.00000
      5       4.7327      1.00000
      6       8.9598     -0.00453
      7      17.2797      0.00000
      8      17.2797      0.00000
      9      18.5727      0.00000
     10      38.2842      0.00000
     11      40.9223      0.00000
     12      40.9223      0.00000

 k-point    17 :       0.3125    0.1875    0.1875
  band No.  band energies     occupation 
      1       2.1807      1.00000
      2       2.2564      1.00000
      3       2.9043      1.00000
      4       4.7657      1.00000
      5       4.7799      1.00000
      6      11.7787      0.00000
      7      13.5945      0.00000
      8      16.7164      0.00000
      9      17.6580      0.00000
     10      39.3097      0.00000
     11      42.6796      0.00000
     12      43.0707      0.00000

 k-point    18 :      -0.1875    0.1875    0.1875
  band No.  band energies     occupation 
      1      -0.1308      1.00000
      2       3.4313      1.00000
      3       3.4929      1.00000
      4       3.4929      1.00000
      5       4.0445      1.00000
      6       5.0762      0.90589
      7      24.4393      0.00000
      8      25.3752      0.00000
      9      25.3752      0.00000
     10      27.3082      0.00000
     11      36.7182      0.00000
     12      36.7182      0.00000

 k-point    19 :      -0.3125    0.3125    0.1875
  band No.  band energies     occupation 
      1       1.1619      1.00000
      2       2.6836      1.00000
      3       3.3576      1.00000
      4       4.0054      1.00000
      5       4.9066      1.03290
      6       5.9296      0.11124
      7      19.3704      0.00000
      8      22.7746      0.00000
      9      23.9770      0.00000
     10      27.9052      0.00000
     11      35.7823      0.00000
     12      37.5047      0.00000

 k-point    20 :      -0.4375    0.4375    0.1875
  band No.  band energies     occupation 
      1       1.4454      1.00000
      2       2.6183      1.00000
      3       3.1640      1.00000
      4       4.2166      1.00000
      5       5.7362      0.35535
      6       8.4044     -0.01134
      7      14.2994      0.00000
      8      21.1669      0.00000
      9      23.1376      0.00000
     10      30.4280      0.00000
     11      34.8536      0.00000
     12      35.5044      0.00000

 k-point    21 :      -0.3125    0.4375    0.1875
  band No.  band energies     occupation 
      1       1.7587      1.00000
      2       2.0699      1.00000
      3       3.4368      1.00000
      4       4.3937      1.00000
      5       5.3216      1.06486
      6       8.2806     -0.01512
      7      17.2369      0.00000
      8      17.8440      0.00000
      9      25.4024      0.00000
     10      26.8989      0.00000
     11      34.4991      0.00000
     12      37.3935      0.00000

 k-point    22 :      -0.4375   -0.4375    0.1875
  band No.  band energies     occupation 
      1       1.7121      1.00000
      2       2.0803      1.00000
      3       3.2467      1.00000
      4       4.6976      1.00000
      5       5.5479      0.76007
      6      11.2716      0.00000
      7      13.4540      0.00000
      8      16.8631      0.00000
      9      25.4078      0.00000
     10      28.5659      0.00000
     11      31.9763      0.00000
     12      36.4004      0.00000

 k-point    23 :      -0.3125    0.3125    0.3125
  band No.  band energies     occupation 
      1       1.5475      1.00000
      2       2.0251      1.00000
      3       4.2506      1.00000
      4       4.2506      1.00000
      5       4.9414      1.16809
      6       7.6529     -0.02200
      7      19.8515      0.00000
      8      19.8515      0.00000
      9      22.1188      0.00000
     10      24.1525      0.00000
     11      35.8370      0.00000
     12      40.6620      0.00000

 k-point    24 :      -0.4375    0.4375    0.3125
  band No.  band energies     occupation 
      1       1.4497      1.00000
      2       1.5793      1.00000
      3       4.3860      1.00000
      4       4.6627      1.00000
      5       5.6264      0.29214
      6      10.7572      0.00000
      7      15.4870      0.00000
      8      18.0477      0.00000
      9      22.2862      0.00000
     10      25.1621      0.00000
     11      31.1834      0.00000
     12      40.1467      0.00000

 k-point    25 :      -0.4375   -0.4375    0.3125
  band No.  band energies     occupation 
      1       1.3127      1.00000
      2       1.3127      1.00000
      3       4.4908      1.00000
      4       5.4745      1.00000
      5       5.4745      1.06725
      6      14.1398      0.00000
      7      14.1398      0.00000
      8      15.2574      0.00000
      9      23.7589      0.00000
     10      23.7589      0.00000
     11      28.6470      0.00000
     12      40.6886      0.00000

 k-point    26 :      -0.4375    0.4375    0.4375
  band No.  band energies     occupation 
      1       1.0556      1.00000
      2       1.0561      1.00000
      3       5.4347      1.00000
      4       5.4347      1.00000
      5       5.5921      0.23250
      6      13.5379      0.00000
      7      16.0481      0.00000
      8      16.0481      0.00000
      9      21.2365      0.00000
     10      22.4023      0.00000
     11      27.1361      0.00000
     12      43.8904      0.00000

 spin component 2

 k-point     1 :       0.0625    0.0625    0.0625
  band No.  band energies     occupation 
      1      -1.6188      1.00000
      2       5.0772      1.00000
      3       5.0772      1.00000
      4       5.9602     -0.02379
      5       7.1964      0.00000
      6       7.1964      0.00000
      7      26.9878      0.00000
      8      26.9878      0.00000
      9      31.0415      0.00000
     10      31.4574      0.00000
     11      36.5522      0.00000
     12      36.5522      0.00000

 k-point     2 :       0.1875    0.0625    0.0625
  band No.  band energies     occupation 
      1       0.0512      1.00000
      2       4.5895      1.00000
      3       4.7545      1.00000
      4       7.0022     -0.00095
      5       7.0521      0.00000
      6       7.3517      0.00000
      7      21.9804      0.00000
      8      24.7736      0.00000
      9      27.4974      0.00000
     10      31.5802      0.00000
     11      36.2446      0.00000
     12      37.1295      0.00000

 k-point     3 :       0.3125    0.0625    0.0625
  band No.  band energies     occupation 
      1       1.8480      1.00000
      2       4.1700      1.00000
      3       4.8712      1.00744
      4       7.1453      0.00000
      5       7.4901      0.00000
      6       8.2830      0.00000
      7      16.9015      0.00000
      8      23.0694      0.00000
      9      25.0869      0.00000
     10      31.2937      0.00000
     11      35.5377      0.00000
     12      40.3742      0.00000

 k-point     4 :       0.4375    0.0625    0.0625
  band No.  band energies     occupation 
      1       2.3263      1.00000
      2       4.0093      1.00000
      3       5.6352      0.89744
      4       7.2169      0.00000
      5       7.5499      0.00000
      6       9.1391      0.00000
      7      14.2130      0.00000
      8      22.4280      0.00000
      9      24.1740      0.00000
     10      31.1350      0.00000
     11      35.4566      0.00000
     12      40.1412      0.00000

 k-point     5 :      -0.0625    0.0625    0.0625
  band No.  band energies     occupation 
      1      -2.2365      1.00000
      2       5.3136      1.00000
      3       5.3136      1.00000
      4       5.4215      0.37829
      5       7.1119      0.00000
      6       7.3623      0.00000
      7      28.6310      0.00000
      8      29.9522      0.00000
      9      29.9522      0.00000
     10      33.5041      0.00000
     11      36.0047      0.00000
     12      36.0047      0.00000

 k-point     6 :       0.1875    0.1875    0.0625
  band No.  band energies     occupation 
      1       1.8312      1.00000
      2       4.1959      1.00000
      3       4.3030      1.00007
      4       7.1289      0.00000
      5       7.4839      0.00000
      6       8.4744      0.00000
      7      19.5891      0.00000
      8      20.3288      0.00000
      9      24.1501      0.00000
     10      33.4937      0.00000
     11      37.4767      0.00000
     12      39.8607      0.00000

 k-point     7 :       0.3125    0.1875    0.0625
  band No.  band energies     occupation 
      1       2.9378      1.00000
      2       3.9622      1.00000
      3       4.5448      1.00245
      4       7.2686      0.00000
      5       7.5549      0.00000
      6      10.3968      0.00000
      7      15.3098      0.00000
      8      18.7813      0.00000
      9      22.8380      0.00000
     10      33.9800      0.00000
     11      38.3261      0.00000
     12      40.5790      0.00000

 k-point     8 :      -0.1875    0.1875    0.0625
  band No.  band energies     occupation 
      1      -1.0301      1.00000
      2       4.9952      1.00000
      3       5.1899      1.00000
      4       6.0857     -0.01220
      5       6.7605      0.00000
      6       7.4685      0.00000
      7      24.6707      0.00000
      8      27.7515      0.00000
      9      28.8435      0.00000
     10      32.9168      0.00000
     11      33.2176      0.00000
     12      34.6222      0.00000

 k-point     9 :       0.3125    0.3125    0.0625
  band No.  band energies     occupation 
      1       3.4962      1.00000
      2       4.0918      1.00000
      3       4.0918      1.00009
      4       7.4434      0.00000
      5       7.4434      0.00000
      6      13.5055      0.00000
      7      13.5055      0.00000
      8      15.8346      0.00000
      9      22.3900      0.00000
     10      36.3699      0.00000
     11      36.3699      0.00000
     12      44.1136      0.00000

 k-point    10 :      -0.3125    0.3125    0.0625
  band No.  band energies     occupation 
      1       0.9078      1.00000
      2       4.5286      1.00000
      3       4.9216      1.00176
      4       6.8257      0.00000
      5       7.1964      0.00000
      6       7.5871      0.00000
      7      19.2894      0.00000
      8      25.3647      0.00000
      9      26.9419      0.00000
     10      31.2808      0.00000
     11      33.2039      0.00000
     12      35.8696      0.00000

 k-point    11 :      -0.1875    0.3125    0.0625
  band No.  band energies     occupation 
      1       0.5461      1.00000
      2       4.7767      1.00000
      3       4.8865      1.00179
      4       6.4862     -0.00053
      5       6.9347      0.00000
      6       7.6979      0.00000
      7      22.0669      0.00000
      8      23.0014      0.00000
      9      29.1606      0.00000
     10      29.6505      0.00000
     11      33.2968      0.00000
     12      37.8441      0.00000

 k-point    12 :      -0.4375    0.4375    0.0625
  band No.  band energies     occupation 
      1       2.1112      1.00000
      2       4.2152      1.00000
      3       5.5005      0.98667
      4       7.0369      0.00000
      5       7.9592      0.00000
      6       8.1110      0.00000
      7      14.9834      0.00000
      8      23.9702      0.00000
      9      25.2994      0.00000
     10      30.6085      0.00000
     11      33.5308      0.00000
     12      37.4063      0.00000

 k-point    13 :      -0.3125    0.4375    0.0625
  band No.  band energies     occupation 
      1       2.2556      1.00000
      2       4.3365      1.00000
      3       4.7324      1.00549
      4       6.7388      0.00000
      5       7.5920      0.00000
      6       8.6903      0.00000
      7      17.2343      0.00000
      8      20.8194      0.00000
      9      27.1005      0.00000
     10      30.3009      0.00000
     11      33.8544      0.00000
     12      38.4657      0.00000

 k-point    14 :      -0.4375   -0.4375    0.0625
  band No.  band energies     occupation 
      1       2.7406      1.00000
      2       4.3299      1.00000
      3       4.8209      1.00926
      4       6.8942      0.00000
      5       7.8206      0.00000
      6      10.0714      0.00000
      7      14.2483      0.00000
      8      20.1157      0.00000
      9      26.2331      0.00000
     10      30.7212      0.00000
     11      34.6187      0.00000
     12      37.8693      0.00000

 k-point    15 :      -0.3125   -0.4375    0.0625
  band No.  band energies     occupation 
      1       3.4419      1.00000
      2       3.9458      1.00000
      3       4.4418      1.00582
      4       7.0292      0.00000
      5       7.5094      0.00000
      6      11.3389      0.00000
      7      15.3880      0.00000
      8      16.5575      0.00000
      9      27.6186      0.00000
     10      30.5327      0.00000
     11      32.7264      0.00000
     12      40.4130      0.00000

 k-point    16 :       0.1875    0.1875    0.1875
  band No.  band energies     occupation 
      1       3.3390      1.00000
      2       3.8883      1.00000
      3       3.8883      1.00010
      4       7.4817      0.00000
      5       7.4817      0.00000
      6      10.4805      0.00000
      7      17.9864      0.00000
      8      17.9864      0.00000
      9      19.2349      0.00000
     10      37.9618      0.00000
     11      41.0435      0.00000
     12      41.0435      0.00000

 k-point    17 :       0.3125    0.1875    0.1875
  band No.  band energies     occupation 
      1       3.5814      1.00000
      2       3.8015      1.00000
      3       4.2043      1.00015
      4       7.5144      0.00000
      5       7.5823      0.00000
      6      12.8081      0.00000
      7      14.6126      0.00000
      8      17.4310      0.00000
      9      18.3105      0.00000
     10      39.1593      0.00000
     11      42.6746      0.00000
     12      43.3659      0.00000

 k-point    18 :      -0.1875    0.1875    0.1875
  band No.  band energies     occupation 
      1       0.0710      1.00000
      2       5.4103      1.00000
      3       5.4104      0.98271
      4       5.8215      0.00093
      5       6.1118      0.00000
      6       7.7773      0.00000
      7      24.7223      0.00000
      8      25.9273      0.00000
      9      25.9273      0.00000
     10      27.6702      0.00000
     11      36.9675      0.00000
     12      36.9675      0.00000

 k-point    19 :      -0.3125    0.3125    0.1875
  band No.  band energies     occupation 
      1       1.7697      1.00000
      2       4.6916      1.00000
      3       5.2439      0.96334
      4       6.0950      0.00000
      5       7.0664      0.00000
      6       8.1970      0.00000
      7      20.0898      0.00000
      8      23.3697      0.00000
      9      24.3576      0.00000
     10      28.2787      0.00000
     11      36.1866      0.00000
     12      37.8523      0.00000

 k-point    20 :      -0.4375    0.4375    0.1875
  band No.  band energies     occupation 
      1       2.8448      1.00000
      2       4.2873      1.00000
      3       5.0153      0.97969
      4       6.4324      0.00000
      5       8.0198      0.00000
      6       9.7526      0.00000
      7      15.3481      0.00000
      8      21.7123      0.00000
      9      23.5423      0.00000
     10      30.6664      0.00000
     11      35.2807      0.00000
     12      36.0662      0.00000

 k-point    21 :      -0.3125    0.4375    0.1875
  band No.  band energies     occupation 
      1       2.9771      1.00000
      2       3.9767      1.00000
      3       5.3153      0.84779
      4       6.4893      0.00000
      5       7.5727      0.00000
      6       9.7764      0.00000
      7      18.0473      0.00000
      8      18.5076      0.00000
      9      25.8009      0.00000
     10      27.2827      0.00000
     11      34.9588      0.00000
     12      38.0585      0.00000

 k-point    22 :      -0.4375   -0.4375    0.1875
  band No.  band energies     occupation 
      1       3.4096      1.00000
      2       3.7688      1.00000
      3       5.0526      0.89865
      4       6.8503      0.00000
      5       7.8080      0.00000
      6      12.2773      0.00000
      7      14.4887      0.00000
      8      17.5477      0.00000
      9      25.8002      0.00000
     10      28.8057      0.00000
     11      32.6514      0.00000
     12      37.0290      0.00000

 k-point    23 :      -0.3125    0.3125    0.3125
  band No.  band energies     occupation 
      1       2.7114      1.00000
      2       4.0582      1.00000
      3       6.2078      0.01411
      4       6.2078      0.00000
      5       7.1227      0.00000
      6       9.2251      0.00000
      7      20.4153      0.00000
      8      20.4153      0.00000
      9      22.8023      0.00000
     10      24.6550      0.00000
     11      36.5306      0.00000
     12      41.0531      0.00000

 k-point    24 :      -0.4375    0.4375    0.3125
  band No.  band energies     occupation 
      1       3.1186      1.00000
      2       3.4066      1.00000
      3       6.3860     -0.02066
      4       6.6871      0.00000
      5       7.8944      0.00000
      6      11.7135      0.00000
      7      16.2071      0.00000
      8      18.5170      0.00000
      9      22.9785      0.00000
     10      25.6319      0.00000
     11      32.0274      0.00000
     12      40.5035      0.00000

 k-point    25 :      -0.4375   -0.4375    0.3125
  band No.  band energies     occupation 
      1       3.1025      1.00000
      2       3.1025      1.00000
      3       6.4690     -0.02800
      4       7.6894      0.00000
      5       7.6894      0.00000
      6      14.8039      0.00000
      7      14.8039      0.00000
      8      15.8267      0.00000
      9      24.3150      0.00000
     10      24.3150      0.00000
     11      29.6329      0.00000
     12      41.0394      0.00000

 k-point    26 :      -0.4375    0.4375    0.4375
  band No.  band energies     occupation 
      1       2.8226      1.00000
      2       2.8815      1.00000
      3       7.6329     -0.01070
      4       7.6329      0.00000
      5       7.8616      0.00000
      6      14.0456      0.00000
      7      16.3538      0.00000
      8      16.3538      0.00000
      9      22.1450      0.00000
     10      23.1390      0.00000
     11      28.1504      0.00000
     12      44.1059      0.00000


--------------------------------------------------------------------------------------------------------


 soft charge-density along one line, spin component           1
         0         1         2         3         4         5         6         7         8         9
 total charge-density along one line
 
 soft charge-density along one line, spin component           2
         0         1         2         3         4         5         6         7         8         9
 total charge-density along one line
 
 pseudopotential strength for first ion, spin component:           1
 -5.735  -0.000  -0.000  -0.000   0.000  -6.261  -0.000  -0.000
 -0.000  -5.735   0.000  -0.000  -0.000  -0.000  -6.261   0.000
 -0.000   0.000  -5.897   0.000   0.000  -0.000   0.000  -6.419
 -0.000  -0.000   0.000  -5.735   0.000  -0.000  -0.000   0.000
  0.000  -0.000   0.000   0.000  -5.897   0.000  -0.000   0.000
 -6.261  -0.000  -0.000  -0.000   0.000  -6.746  -0.000  -0.000
 -0.000  -6.261   0.000  -0.000  -0.000  -0.000  -6.746   0.000
 -0.000   0.000  -6.419   0.000   0.000  -0.000   0.000  -6.899
 -0.000  -0.000   0.000  -6.261   0.000  -0.000  -0.000   0.000
  0.000  -0.000   0.000   0.000  -6.419   0.000  -0.000   0.000
  0.000   0.000   0.000   0.000   0.000   0.000   0.000   0.000
  0.000   0.000   0.000   0.000   0.000   0.000   0.000   0.000
 -0.000   0.000  -0.000  -0.000   0.000  -0.000   0.000  -0.000
 -0.000  -0.000   0.000  -0.000  -0.000  -0.000  -0.000   0.000
 -0.000  -0.000   0.000   0.000  -0.000  -0.000  -0.000   0.000
 -0.000   0.000  -0.000  -0.000   0.000  -0.000   0.000  -0.000
 -0.000  -0.000   0.000  -0.000  -0.000  -0.000  -0.000   0.000
 -0.000  -0.000   0.000   0.000  -0.000  -0.000  -0.000   0.000
 pseudopotential strength for first ion, spin component:           2
 -4.226  -0.000   0.000  -0.000   0.000  -4.800  -0.000   0.000
 -0.000  -4.226  -0.000  -0.000   0.000  -0.000  -4.800  -0.000
  0.000  -0.000  -4.016  -0.000   0.000   0.000  -0.000  -4.595
 -0.000  -0.000  -0.000  -4.226  -0.000  -0.000  -0.000  -0.000
  0.000   0.000   0.000  -0.000  -4.016   0.000   0.000   0.000
 -4.800  -0.000   0.000  -0.000   0.000  -5.331  -0.000   0.000
 -0.000  -4.800  -0.000  -0.000   0.000  -0.000  -5.331  -0.000
  0.000  -0.000  -4.595  -0.000   0.000   0.000  -0.000  -5.130
 -0.000  -0.000  -0.000  -4.800  -0.000  -0.000  -0.000  -0.000
  0.000   0.000   0.000  -0.000  -4.595   0.000   0.000   0.000
  0.000   0.000   0.000   0.000   0.000   0.000   0.000   0.000
  0.000   0.000   0.000   0.000   0.000   0.000   0.000   0.000
 -0.000   0.000   0.000  -0.000   0.000  -0.000   0.000   0.000
 -0.000  -0.000  -0.000  -0.000  -0.000  -0.000  -0.000  -0.000
 -0.000  -0.000   0.000  -0.000  -0.000  -0.000  -0.000   0.000
 -0.000   0.000   0.000  -0.000   0.000  -0.000   0.000   0.000
 -0.000  -0.000  -0.000  -0.000  -0.000  -0.000  -0.000  -0.000
 -0.000  -0.000   0.000  -0.000  -0.000  -0.000  -0.000   0.000
 total augmentation occupancy for first ion, spin component:           1
  2.358   0.000   0.000  -0.000  -0.000  -1.295   0.000  -0.000   0.000  -0.000   0.000   0.000   0.000   0.000   0.000   0.000
  0.000   2.358  -0.000   0.000   0.000  -0.000  -1.295  -0.000  -0.000  -0.000   0.000   0.000   0.000   0.000   0.000   0.000
 -0.000  -0.000   3.519   0.000   0.000   0.000   0.000  -2.235   0.000   0.000  -0.000   0.000   0.000   0.000   0.000   0.000
 -0.000   0.000  -0.000   2.358   0.000  -0.000  -0.000   0.000  -1.295   0.000   0.000  -0.000   0.000   0.000   0.000   0.000
  0.000  -0.000   0.000   0.000   3.519   0.000  -0.000   0.000   0.000  -2.235   0.000   0.000   0.000   0.000   0.000   0.000
 -1.295  -0.000  -0.000  -0.000  -0.000   1.627   0.000  -0.000  -0.000   0.000   0.000   0.000   0.000   0.000   0.000   0.000
  0.000  -1.295   0.000  -0.000   0.000   0.000   1.627  -0.000  -0.000   0.000  -0.000   0.000   0.000   0.000   0.000   0.000
  0.000   0.000  -2.235   0.000   0.000  -0.000   0.000   2.206  -0.000   0.000   0.000   0.000   0.000   0.000   0.000   0.000
  0.000  -0.000   0.000  -1.295   0.000  -0.000  -0.000  -0.000   1.627  -0.000  -0.000   0.000   0.000   0.000   0.000   0.000
  0.000  -0.000   0.000   0.000  -2.235   0.000  -0.000   0.000   0.000   2.206   0.000   0.000   0.000   0.000   0.000   0.000
 -0.000  -0.000  -0.000  -0.000   0.000   0.000   0.000   0.000   0.000  -0.000   2.372  -0.276   0.000   0.000   0.000   0.000
  0.000   0.000   0.000  -0.000   0.000  -0.000  -0.000  -0.000   0.000   0.000  -0.276   0.037   0.000   0.000   0.000   0.000
  0.000   0.000   0.000   0.000   0.000   0.000   0.000   0.000   0.000   0.000   0.000   0.000   0.287   0.000  -0.000  -0.025
  0.000   0.000   0.000   0.000   0.000   0.000   0.000   0.000   0.000   0.000   0.000   0.000   0.000   0.287   0.000   0.000
  0.000   0.000   0.000   0.000   0.000   0.000   0.000   0.000   0.000   0.000   0.000   0.000  -0.000   0.000   0.287   0.000
  0.000   0.000   0.000   0.000   0.000   0.000   0.000   0.000   0.000   0.000   0.000   0.000  -0.025   0.000   0.000   0.002
  0.000   0.000   0.000   0.000   0.000   0.000   0.000   0.000   0.000   0.000   0.000   0.000   0.000  -0.025   0.000  -0.000
  0.000   0.000   0.000   0.000   0.000   0.000   0.000   0.000   0.000   0.000   0.000   0.000   0.000  -0.000  -0.025  -0.000
 total augmentation occupancy for first ion, spin component:           2
  2.003   0.000   0.000   0.000   0.000  -0.846  -0.000   0.000  -0.000  -0.000   0.000   0.000   0.000   0.000   0.000   0.000
  0.000   2.003   0.000  -0.000   0.000   0.000  -0.846   0.000   0.000   0.000   0.000   0.000   0.000   0.000   0.000   0.000
  0.000  -0.000   3.011   0.000   0.000   0.000   0.000  -1.322   0.000   0.000   0.000   0.000   0.000   0.000   0.000   0.000
  0.000  -0.000   0.000   2.003  -0.000   0.000   0.000   0.000  -0.846   0.000  -0.000  -0.000   0.000   0.000   0.000   0.000
  0.000   0.000   0.000   0.000   3.011  -0.000   0.000   0.000  -0.000  -1.322   0.000   0.000   0.000   0.000   0.000   0.000
 -0.846   0.000   0.000   0.000  -0.000   0.108   0.000  -0.000   0.000  -0.000  -0.000   0.000   0.000   0.000   0.000   0.000
 -0.000  -0.846   0.000   0.000   0.000   0.000   0.108   0.000   0.000   0.000   0.000   0.000   0.000   0.000   0.000   0.000
  0.000   0.000  -1.322  -0.000   0.000   0.000   0.000   0.344   0.000   0.000  -0.000   0.000   0.000   0.000   0.000   0.000
 -0.000   0.000   0.000  -0.846  -0.000   0.000   0.000  -0.000   0.108   0.000  -0.000   0.000   0.000   0.000   0.000   0.000
 -0.000  -0.000   0.000  -0.000  -1.322   0.000   0.000   0.000   0.000   0.344   0.000   0.000   0.000   0.000   0.000   0.000
  0.000   0.000   0.000  -0.000   0.000   0.000   0.000  -0.000  -0.000   0.000  -0.347   0.101   0.000   0.000   0.000   0.000
  0.000   0.000   0.000  -0.000   0.000  -0.000  -0.000   0.000  -0.000   0.000   0.101  -0.018   0.000   0.000   0.000   0.000
  0.000   0.000   0.000   0.000   0.000   0.000   0.000   0.000   0.000   0.000   0.000   0.000  -0.046   0.000   0.000   0.006
  0.000   0.000   0.000   0.000   0.000   0.000   0.000   0.000   0.000   0.000   0.000   0.000   0.000  -0.046   0.000   0.000
  0.000   0.000   0.000   0.000   0.000   0.000   0.000   0.000   0.000   0.000   0.000   0.000   0.000   0.000  -0.046   0.000
  0.000   0.000   0.000   0.000   0.000   0.000   0.000   0.000   0.000   0.000   0.000   0.000   0.006   0.000   0.000  -0.001
  0.000   0.000   0.000   0.000   0.000   0.000   0.000   0.000   0.000   0.000   0.000   0.000   0.000   0.006  -0.000   0.000
  0.000   0.000   0.000   0.000   0.000   0.000   0.000   0.000   0.000   0.000   0.000   0.000   0.000   0.000   0.006   0.000


------------------------ aborting loop because EDIFF is reached ----------------------------------------


 


 total charge     
 
# of ion     s       p       d       tot
----------------------------------------
  1        0.477   0.527   6.220   7.225
 


 magnetization (x)
 
# of ion     s       p       d       tot
----------------------------------------
  1       -0.017  -0.074   2.300   2.209
 
    CHARGE:  cpu time    0.0210: real time    0.0104
    FORLOC:  cpu time    0.0010: real time    0.0003
    FORNL :  cpu time    0.0410: real time    0.0205
    STRESS:  cpu time    0.1500: real time    0.0750
    FORCOR:  cpu time    0.0300: real time    0.0150
    FORHAR:  cpu time    0.0040: real time    0.0017
    MIXING:  cpu time    0.0020: real time    0.0009
    OFIELD:  cpu time    0.0000: real time    0.0000

  FORCE on cell =-STRESS in cart. coord.  units (eV):
  Direction    XX          YY          ZZ          XY          YZ          ZX
  --------------------------------------------------------------------------------------
  Alpha Z    59.71178    59.71178    59.71178
  Ewald    -196.13262  -196.13262  -196.13262    -0.00000     0.00000     0.00000
  Hartree    32.15951    32.15951    32.15951    -0.00000    -0.00000    -0.00000
  E(xc)     -39.67437   -39.67437   -39.67437    -0.00000    -0.00000    -0.00000
  Local      58.46001    58.46001    58.46001    -0.00002    -0.00002    -0.00002
  n-local   -27.20936   -25.95376   -25.11308     1.05122    -0.69034    -1.36303
  augment    38.77601    38.77601    38.77601     0.00002     0.00002     0.00002
  Kinetic    73.04690    72.35513    72.09982    -2.26707     1.88935     1.18730
  Fock        0.00000     0.00000     0.00000     0.00000     0.00000     0.00000
  -------------------------------------------------------------------------------------
  Total      -0.29113    -0.29113    -0.29113    -0.00000    -0.00000    -0.00000
  in kB     -40.29919   -40.29919   -40.29919    -0.00000    -0.00000    -0.00000
  external pressure =      -40.30 kB  Pullay stress =        0.00 kB


 VOLUME and BASIS-vectors are now :
 -----------------------------------------------------------------------------
  energy-cutoff  :      350.00
  volume of cell :       11.57
      direct lattice vectors                 reciprocal lattice vectors
    -1.425000000  1.425000000  1.425000000     0.000000000  0.350877193  0.350877193
     1.425000000 -1.425000000  1.425000000     0.350877193  0.000000000  0.350877193
     1.425000000  1.425000000 -1.425000000     0.350877193  0.350877193  0.000000000

  length of vectors
     2.468172401  2.468172401  2.468172401     0.496215285  0.496215285  0.496215285


 FORCES acting on ions
    electron-ion (+dipol)            ewald-force                    non-local-force                 convergence-correction
 -----------------------------------------------------------------------------------------------
   0.231E-15 0.324E-14 -.301E-14   0.131E-16 0.134E-14 -.680E-15   -.239E-23 0.905E-25 -.905E-25   0.575E-14 0.335E-14 -.140E-15
 -----------------------------------------------------------------------------------------------
   0.231E-15 0.324E-14 -.301E-14   0.131E-16 0.134E-14 -.680E-15   -.239E-23 0.905E-25 -.905E-25   0.575E-14 0.335E-14 -.140E-15
 
 
 POSITION                                       TOTAL-FORCE (eV/Angst)
 -----------------------------------------------------------------------------------
      0.00000      0.00000      0.00000        -0.000000     -0.000000      0.000000
 -----------------------------------------------------------------------------------
    total drift:                                0.000000      0.000000     -0.000000


--------------------------------------------------------------------------------------------------------



  FREE ENERGIE OF THE ION-ELECTRON SYSTEM (eV)
  ---------------------------------------------------
  free  energy   TOTEN  =        -8.23949183 eV

  energy  without entropy=       -8.23949183  energy(sigma->0) =       -8.23949183
 


--------------------------------------------------------------------------------------------------------


    POTLOK:  cpu time    0.0520: real time    0.0262


--------------------------------------------------------------------------------------------------------


 writing wavefunctions
     LOOP+:  cpu time   18.2932: real time    9.1646
    4ORBIT:  cpu time    0.0000: real time    0.0000
 


 total charge     
 
# of ion     s       p       d       tot
----------------------------------------
  1        0.477   0.527   6.220   7.225
 


 magnetization (x)
 
# of ion     s       p       d       tot
----------------------------------------
  1       -0.017  -0.074   2.300   2.209
 
 BZINTS: Fermi energy:  5.565347;  8.000000 electrons
         Band energy:  27.378126;  BLOECHL correction: -0.064370

 total amount of memory used by VASP on root node    32462. kBytes
========================================================================

   base      :      30000. kBytes
   nonl-proj :        676. kBytes
   fftplans  :        302. kBytes
   grid      :        954. kBytes
   one-center:         31. kBytes
   wavefun   :        499. kBytes
 
  
  
 General timing and accounting informations for this job:
 ========================================================
  
                  Total CPU time used (sec):       18.981
                            User time (sec):       18.432
                          System time (sec):        0.549
                         Elapsed time (sec):       10.778
  
                   Maximum memory used (kb):       33092.
                   Average memory used (kb):           0.
  
                          Minor page faults:        18731
                          Major page faults:            7
                 Voluntary context switches:          573
