PROCAR lm decomposed
# of k-points:   26         # of bands:  12         # of ions:   1

 k-point    1 :    0.06250000 0.06250000 0.06250000     weight = 0.01562500

band   1 # energy   -1.73347031 # occ.  1.00000000
 
ion      s     py     pz     px    dxy    dyz    dz2    dxz    dx2    tot
  1  0.650  0.021  0.021  0.021  0.002  0.002  0.000  0.002  0.000  0.719
 
band   2 # energy    3.14361883 # occ.  1.00000000
 
ion      s     py     pz     px    dxy    dyz    dz2    dxz    dx2    tot
  1  0.000  0.001  0.000  0.001  0.001  0.478  0.000  0.460  0.024  0.966
 
band   3 # energy    3.14361883 # occ.  1.00000000
 
ion      s     py     pz     px    dxy    dyz    dz2    dxz    dx2    tot
  1  0.000  0.001  0.002  0.000  0.625  0.148  0.024  0.166  0.000  0.966
 
band   4 # energy    3.92731111 # occ.  1.00000000
 
ion      s     py     pz     px    dxy    dyz    dz2    dxz    dx2    tot
  1  0.002  0.003  0.003  0.003  0.320  0.320  0.000  0.320  0.000  0.973
 
band   5 # energy    4.50259699 # occ.  1.00000000
 
ion      s     py     pz     px    dxy    dyz    dz2    dxz    dx2    tot
  1  0.000  0.000  0.000  0.000  0.015  0.002  0.788  0.010  0.153  0.969
 
band   6 # energy    4.50259699 # occ.  1.00338731
 
ion      s     py     pz     px    dxy    dyz    dz2    dxz    dx2    tot
  1  0.000  0.000  0.000  0.000  0.003  0.016  0.153  0.008  0.788  0.969
 
band   7 # energy   26.83991760 # occ.  0.00000000
 
ion      s     py     pz     px    dxy    dyz    dz2    dxz    dx2    tot
  1  0.000  0.063  0.002  0.045  0.005  0.108  0.005  0.153  0.176  0.556
 
band   8 # energy   26.83991760 # occ.  0.00000000
 
ion      s     py     pz     px    dxy    dyz    dz2    dxz    dx2    tot
  1  0.000  0.010  0.071  0.029  0.172  0.069  0.176  0.024  0.005  0.556
 
band   9 # energy   30.62594962 # occ.  0.00000000
 
ion      s     py     pz     px    dxy    dyz    dz2    dxz    dx2    tot
  1  0.078  0.170  0.170  0.170  0.142  0.142  0.000  0.142  0.000  1.014
 
band  10 # energy   31.37561883 # occ.  0.00000000
 
ion      s     py     pz     px    dxy    dyz    dz2    dxz    dx2    tot
  1  0.000  0.000  0.000  0.000  0.000  0.000  0.000  0.000  0.000  0.000
 
band  11 # energy   36.26941435 # occ.  0.00000000
 
ion      s     py     pz     px    dxy    dyz    dz2    dxz    dx2    tot
  1  0.000  0.158  0.120  0.046  0.031  0.012  0.021  0.041  0.016  0.445
 
band  12 # energy   36.26941437 # occ.  0.00000000
 
ion      s     py     pz     px    dxy    dyz    dz2    dxz    dx2    tot
  1  0.000  0.058  0.096  0.170  0.025  0.044  0.016  0.015  0.021  0.445
 

 k-point    2 :    0.18750000 0.06250000 0.06250000     weight = 0.04687500

band   1 # energy   -0.15553024 # occ.  1.00000000
 
ion      s     py     pz     px    dxy    dyz    dz2    dxz    dx2    tot
  1  0.502  0.062  0.062  0.018  0.007  0.066  0.004  0.007  0.011  0.738
 
band   2 # energy    2.74454485 # occ.  1.00000000
 
ion      s     py     pz     px    dxy    dyz    dz2    dxz    dx2    tot
  1  0.000  0.002  0.002  0.000  0.464  0.000  0.019  0.464  0.006  0.957
 
band   3 # energy    2.95194060 # occ.  1.00000000
 
ion      s     py     pz     px    dxy    dyz    dz2    dxz    dx2    tot
  1  0.013  0.018  0.018  0.002  0.092  0.545  0.038  0.092  0.115  0.933
 
band   4 # energy    4.44244970 # occ.  1.00000000
 
ion      s     py     pz     px    dxy    dyz    dz2    dxz    dx2    tot
  1  0.001  0.000  0.000  0.000  0.016  0.152  0.197  0.016  0.590  0.971
 
band   5 # energy    4.62228115 # occ.  1.00091074
 
ion      s     py     pz     px    dxy    dyz    dz2    dxz    dx2    tot
  1  0.000  0.000  0.000  0.000  0.014  0.000  0.710  0.014  0.237  0.975
 
band   6 # energy    4.92706253 # occ.  0.88315336
 
ion      s     py     pz     px    dxy    dyz    dz2    dxz    dx2    tot
  1  0.014  0.011  0.011  0.010  0.369  0.181  0.000  0.369  0.000  0.967
 
band   7 # energy   21.41593362 # occ.  0.00000000
 
ion      s     py     pz     px    dxy    dyz    dz2    dxz    dx2    tot
  1  0.061  0.117  0.117  0.023  0.008  0.298  0.034  0.008  0.102  0.769
 
band   8 # energy   24.50098615 # occ.  0.00000000
 
ion      s     py     pz     px    dxy    dyz    dz2    dxz    dx2    tot
  1  0.000  0.103  0.103  0.000  0.152  0.000  0.076  0.152  0.025  0.612
 
band   9 # energy   26.78562236 # occ.  0.00000000
 
ion      s     py     pz     px    dxy    dyz    dz2    dxz    dx2    tot
  1  0.126  0.056  0.056  0.388  0.104  0.002  0.010  0.104  0.029  0.874
 
band  10 # energy   31.68200923 # occ.  0.00000000
 
ion      s     py     pz     px    dxy    dyz    dz2    dxz    dx2    tot
  1  0.000  0.003  0.003  0.000  0.176  0.000  0.018  0.176  0.006  0.382
 
band  11 # energy   35.69923617 # occ.  0.00000000
 
ion      s     py     pz     px    dxy    dyz    dz2    dxz    dx2    tot
  1  0.036  0.053  0.053  0.154  0.061  0.075  0.106  0.061  0.319  0.919
 
band  12 # energy   36.91583689 # occ.  0.00000000
 
ion      s     py     pz     px    dxy    dyz    dz2    dxz    dx2    tot
  1  0.000  0.105  0.105  0.000  0.140  0.000  0.004  0.140  0.001  0.495
 

 k-point    3 :    0.31250000 0.06250000 0.06250000     weight = 0.04687500

band   1 # energy    0.97488598 # occ.  1.00000000
 
ion      s     py     pz     px    dxy    dyz    dz2    dxz    dx2    tot
  1  0.206  0.024  0.024  0.016  0.001  0.400  0.042  0.001  0.127  0.840
 
band   2 # energy    2.40262514 # occ.  1.00000000
 
ion      s     py     pz     px    dxy    dyz    dz2    dxz    dx2    tot
  1  0.000  0.003  0.003  0.000  0.468  0.000  0.006  0.468  0.002  0.951
 
band   3 # energy    3.72077425 # occ.  1.00000000
 
ion      s     py     pz     px    dxy    dyz    dz2    dxz    dx2    tot
  1  0.080  0.117  0.117  0.000  0.161  0.086  0.031  0.161  0.093  0.846
 
band   4 # energy    4.58110749 # occ.  1.00000000
 
ion      s     py     pz     px    dxy    dyz    dz2    dxz    dx2    tot
  1  0.002  0.002  0.002  0.001  0.017  0.291  0.162  0.017  0.485  0.978
 
band   5 # energy    4.71698590 # occ.  1.03317384
 
ion      s     py     pz     px    dxy    dyz    dz2    dxz    dx2    tot
  1  0.000  0.000  0.000  0.000  0.005  0.000  0.729  0.005  0.243  0.981
 
band   6 # energy    6.33318481 # occ.  0.01104490
 
ion      s     py     pz     px    dxy    dyz    dz2    dxz    dx2    tot
  1  0.050  0.061  0.061  0.009  0.313  0.114  0.001  0.313  0.003  0.925
 
band   7 # energy   15.96748608 # occ.  0.00000000
 
ion      s     py     pz     px    dxy    dyz    dz2    dxz    dx2    tot
  1  0.223  0.106  0.106  0.013  0.004  0.296  0.022  0.004  0.066  0.839
 
band   8 # energy   22.80872273 # occ.  0.00000000
 
ion      s     py     pz     px    dxy    dyz    dz2    dxz    dx2    tot
  1  0.000  0.131  0.131  0.000  0.141  0.000  0.021  0.141  0.007  0.571
 
band   9 # energy   24.46782638 # occ.  0.00000000
 
ion      s     py     pz     px    dxy    dyz    dz2    dxz    dx2    tot
  1  0.125  0.009  0.009  0.529  0.035  0.013  0.012  0.035  0.037  0.804
 
band  10 # energy   31.14139699 # occ.  0.00000000
 
ion      s     py     pz     px    dxy    dyz    dz2    dxz    dx2    tot
  1  0.000  0.006  0.006  0.000  0.365  0.000  0.006  0.365  0.002  0.750
 
band  11 # energy   35.00772489 # occ.  0.00000000
 
ion      s     py     pz     px    dxy    dyz    dz2    dxz    dx2    tot
  1  0.103  0.021  0.021  0.128  0.016  0.000  0.154  0.016  0.462  0.920
 
band  12 # energy   40.22599277 # occ.  0.00000000
 
ion      s     py     pz     px    dxy    dyz    dz2    dxz    dx2    tot
  1  0.005  0.103  0.069  0.001  0.064  0.028  0.129  0.045  0.041  0.486
 

 k-point    4 :    0.43750000 0.06250000 0.06250000     weight = 0.02343750

band   1 # energy    1.03087457 # occ.  1.00000000
 
ion      s     py     pz     px    dxy    dyz    dz2    dxz    dx2    tot
  1  0.116  0.000  0.000  0.015  0.000  0.493  0.063  0.000  0.189  0.876
 
band   2 # energy    2.27118661 # occ.  1.00000000
 
ion      s     py     pz     px    dxy    dyz    dz2    dxz    dx2    tot
  1  0.000  0.004  0.004  0.000  0.471  0.000  0.000  0.471  0.000  0.950
 
band   3 # energy    4.64290991 # occ.  1.00000000
 
ion      s     py     pz     px    dxy    dyz    dz2    dxz    dx2    tot
  1  0.011  0.000  0.000  0.001  0.000  0.292  0.169  0.000  0.508  0.980
 
band   4 # energy    4.70210170 # occ.  1.00000000
 
ion      s     py     pz     px    dxy    dyz    dz2    dxz    dx2    tot
  1  0.000  0.133  0.133  0.000  0.302  0.000  0.000  0.302  0.000  0.869
 
band   5 # energy    4.75565078 # occ.  1.07997328
 
ion      s     py     pz     px    dxy    dyz    dz2    dxz    dx2    tot
  1  0.000  0.000  0.000  0.000  0.000  0.000  0.738  0.000  0.246  0.984
 
band   6 # energy    7.72107739 # occ. -0.00486262
 
ion      s     py     pz     px    dxy    dyz    dz2    dxz    dx2    tot
  1  0.000  0.207  0.207  0.000  0.202  0.000  0.000  0.202  0.000  0.818
 
band   7 # energy   12.87563910 # occ.  0.00000000
 
ion      s     py     pz     px    dxy    dyz    dz2    dxz    dx2    tot
  1  0.422  0.000  0.000  0.017  0.000  0.373  0.021  0.000  0.064  0.898
 
band   8 # energy   22.18914566 # occ.  0.00000000
 
ion      s     py     pz     px    dxy    dyz    dz2    dxz    dx2    tot
  1  0.000  0.139  0.139  0.000  0.135  0.000  0.000  0.135  0.000  0.548
 
band   9 # energy   23.60398717 # occ.  0.00000000
 
ion      s     py     pz     px    dxy    dyz    dz2    dxz    dx2    tot
  1  0.122  0.000  0.000  0.581  0.000  0.022  0.011  0.000  0.034  0.772
 
band  10 # energy   30.90599153 # occ.  0.00000000
 
ion      s     py     pz     px    dxy    dyz    dz2    dxz    dx2    tot
  1  0.000  0.007  0.007  0.000  0.421  0.000  0.000  0.421  0.000  0.856
 
band  11 # energy   34.90236838 # occ.  0.00000000
 
ion      s     py     pz     px    dxy    dyz    dz2    dxz    dx2    tot
  1  0.142  0.000  0.000  0.119  0.000  0.010  0.174  0.000  0.521  0.965
 
band  12 # energy   40.17069417 # occ.  0.00000000
 
ion      s     py     pz     px    dxy    dyz    dz2    dxz    dx2    tot
  1  0.000  0.034  0.034  0.000  0.007  0.000  0.000  0.007  0.000  0.081
 

 k-point    5 :   -0.06250000 0.06250000 0.06250000     weight = 0.01171875

band   1 # energy   -2.34344399 # occ.  1.00000000
 
ion      s     py     pz     px    dxy    dyz    dz2    dxz    dx2    tot
  1  0.694  0.000  0.000  0.022  0.000  0.000  0.000  0.000  0.000  0.717
 
band   2 # energy    3.34173624 # occ.  1.00000000
 
ion      s     py     pz     px    dxy    dyz    dz2    dxz    dx2    tot
  1  0.000  0.001  0.001  0.000  0.486  0.000  0.000  0.486  0.000  0.973
 
band   3 # energy    3.34173744 # occ.  1.00000000
 
ion      s     py     pz     px    dxy    dyz    dz2    dxz    dx2    tot
  1  0.000  0.001  0.001  0.000  0.486  0.000  0.000  0.486  0.000  0.973
 
band   4 # energy    3.42753764 # occ.  1.00000000
 
ion      s     py     pz     px    dxy    dyz    dz2    dxz    dx2    tot
  1  0.000  0.000  0.000  0.000  0.000  0.975  0.000  0.000  0.000  0.975
 
band   5 # energy    4.42912680 # occ.  1.00000000
 
ion      s     py     pz     px    dxy    dyz    dz2    dxz    dx2    tot
  1  0.000  0.000  0.000  0.000  0.000  0.000  0.723  0.000  0.241  0.964
 
band   6 # energy    4.62288014 # occ.  1.00000000
 
ion      s     py     pz     px    dxy    dyz    dz2    dxz    dx2    tot
  1  0.000  0.000  0.000  0.000  0.000  0.000  0.243  0.000  0.729  0.972
 
band   7 # energy   28.78061642 # occ.  0.00000000
 
ion      s     py     pz     px    dxy    dyz    dz2    dxz    dx2    tot
  1  0.000  0.000  0.000  0.000  0.000  0.000  0.193  0.000  0.064  0.257
 
band   8 # energy   30.10646093 # occ.  0.00000000
 
ion      s     py     pz     px    dxy    dyz    dz2    dxz    dx2    tot
  1  0.000  0.014  0.014  0.000  0.128  0.000  0.000  0.128  0.000  0.283
 
band   9 # energy   30.10646353 # occ.  0.00000000
 
ion      s     py     pz     px    dxy    dyz    dz2    dxz    dx2    tot
  1  0.000  0.014  0.014  0.000  0.128  0.000  0.000  0.128  0.000  0.283
 
band  10 # energy   33.15846089 # occ.  0.00000000
 
ion      s     py     pz     px    dxy    dyz    dz2    dxz    dx2    tot
  1  0.019  0.000  0.000  0.305  0.000  0.000  0.072  0.000  0.217  0.613
 
band  11 # energy   35.25932478 # occ.  0.00000000
 
ion      s     py     pz     px    dxy    dyz    dz2    dxz    dx2    tot
  1  0.000  0.227  0.227  0.000  0.242  0.000  0.000  0.241  0.000  0.937
 
band  12 # energy   35.25932531 # occ.  0.00000000
 
ion      s     py     pz     px    dxy    dyz    dz2    dxz    dx2    tot
  1  0.000  0.227  0.227  0.000  0.241  0.000  0.000  0.242  0.000  0.937
 

 k-point    6 :    0.18750000 0.18750000 0.06250000     weight = 0.04687500

band   1 # energy    1.30650892 # occ.  1.00000000
 
ion      s     py     pz     px    dxy    dyz    dz2    dxz    dx2    tot
  1  0.282  0.043  0.069  0.043  0.000  0.158  0.045  0.158  0.000  0.799
 
band   2 # energy    2.47132499 # occ.  1.00000000
 
ion      s     py     pz     px    dxy    dyz    dz2    dxz    dx2    tot
  1  0.000  0.019  0.000  0.019  0.000  0.345  0.000  0.345  0.196  0.926
 
band   3 # energy    2.66846735 # occ.  1.00000000
 
ion      s     py     pz     px    dxy    dyz    dz2    dxz    dx2    tot
  1  0.030  0.004  0.062  0.004  0.663  0.076  0.007  0.076  0.000  0.920
 
band   4 # energy    4.52161492 # occ.  1.00000000
 
ion      s     py     pz     px    dxy    dyz    dz2    dxz    dx2    tot
  1  0.000  0.001  0.000  0.001  0.000  0.110  0.000  0.110  0.754  0.975
 
band   5 # energy    4.74915880 # occ.  1.00075164
 
ion      s     py     pz     px    dxy    dyz    dz2    dxz    dx2    tot
  1  0.005  0.000  0.001  0.000  0.000  0.034  0.908  0.034  0.000  0.981
 
band   6 # energy    6.53506711 # occ. -0.00808204
 
ion      s     py     pz     px    dxy    dyz    dz2    dxz    dx2    tot
  1  0.067  0.029  0.056  0.029  0.299  0.216  0.018  0.216  0.000  0.931
 
band   7 # energy   18.91980617 # occ.  0.00000000
 
ion      s     py     pz     px    dxy    dyz    dz2    dxz    dx2    tot
  1  0.000  0.163  0.000  0.163  0.000  0.168  0.000  0.168  0.125  0.787
 
band   8 # energy   19.71287750 # occ.  0.00000000
 
ion      s     py     pz     px    dxy    dyz    dz2    dxz    dx2    tot
  1  0.212  0.015  0.253  0.015  0.072  0.092  0.016  0.092  0.000  0.768
 
band   9 # energy   23.59239226 # occ.  0.00000000
 
ion      s     py     pz     px    dxy    dyz    dz2    dxz    dx2    tot
  1  0.141  0.200  0.008  0.200  0.168  0.007  0.029  0.007  0.000  0.759
 
band  10 # energy   33.60204983 # occ.  0.00000000
 
ion      s     py     pz     px    dxy    dyz    dz2    dxz    dx2    tot
  1  0.000  0.013  0.000  0.013  0.000  0.089  0.000  0.089  0.141  0.345
 
band  11 # energy   37.20321488 # occ.  0.00000000
 
ion      s     py     pz     px    dxy    dyz    dz2    dxz    dx2    tot
  1  0.021  0.023  0.032  0.023  0.380  0.161  0.015  0.161  0.000  0.816
 
band  12 # energy   39.59730863 # occ.  0.00000000
 
ion      s     py     pz     px    dxy    dyz    dz2    dxz    dx2    tot
  1  0.000  0.088  0.000  0.088  0.000  0.028  0.000  0.028  0.404  0.636
 

 k-point    7 :    0.31250000 0.18750000 0.06250000     weight = 0.09375000

band   1 # energy    1.64549860 # occ.  1.00000000
 
ion      s     py     pz     px    dxy    dyz    dz2    dxz    dx2    tot
  1  0.083  0.002  0.006  0.043  0.030  0.529  0.056  0.040  0.098  0.888
 
band   2 # energy    2.30877069 # occ.  1.00000000
 
ion      s     py     pz     px    dxy    dyz    dz2    dxz    dx2    tot
  1  0.000  0.021  0.009  0.011  0.323  0.023  0.000  0.473  0.070  0.931
 
band   3 # energy    3.29821369 # occ.  1.00000000
 
ion      s     py     pz     px    dxy    dyz    dz2    dxz    dx2    tot
  1  0.019  0.079  0.111  0.001  0.372  0.009  0.080  0.145  0.060  0.877
 
band   4 # energy    4.65871075 # occ.  1.00000000
 
ion      s     py     pz     px    dxy    dyz    dz2    dxz    dx2    tot
  1  0.003  0.001  0.000  0.002  0.000  0.212  0.053  0.047  0.662  0.980
 
band   5 # energy    4.84356439 # occ.  1.00975870
 
ion      s     py     pz     px    dxy    dyz    dz2    dxz    dx2    tot
  1  0.004  0.004  0.005  0.000  0.054  0.013  0.766  0.079  0.055  0.981
 
band   6 # energy    8.98108741 # occ. -0.00357729
 
ion      s     py     pz     px    dxy    dyz    dz2    dxz    dx2    tot
  1  0.073  0.116  0.173  0.019  0.188  0.081  0.031  0.171  0.000  0.852
 
band   7 # energy   14.29553241 # occ.  0.00000000
 
ion      s     py     pz     px    dxy    dyz    dz2    dxz    dx2    tot
  1  0.248  0.115  0.029  0.068  0.014  0.283  0.004  0.018  0.060  0.839
 
band   8 # energy   18.14869460 # occ.  0.00000000
 
ion      s     py     pz     px    dxy    dyz    dz2    dxz    dx2    tot
  1  0.178  0.050  0.102  0.154  0.088  0.003  0.001  0.162  0.028  0.764
 
band   9 # energy   22.32218550 # occ.  0.00000000
 
ion      s     py     pz     px    dxy    dyz    dz2    dxz    dx2    tot
  1  0.130  0.111  0.055  0.238  0.110  0.039  0.008  0.044  0.003  0.738
 
band  10 # energy   33.94746375 # occ.  0.00000000
 
ion      s     py     pz     px    dxy    dyz    dz2    dxz    dx2    tot
  1  0.008  0.001  0.002  0.027  0.136  0.006  0.013  0.211  0.143  0.546
 
band  11 # energy   38.25455114 # occ.  0.00000000
 
ion      s     py     pz     px    dxy    dyz    dz2    dxz    dx2    tot
  1  0.004  0.061  0.001  0.000  0.157  0.061  0.091  0.010  0.113  0.497
 
band  12 # energy   40.19971937 # occ.  0.00000000
 
ion      s     py     pz     px    dxy    dyz    dz2    dxz    dx2    tot
  1  0.047  0.007  0.004  0.119  0.063  0.000  0.240  0.035  0.302  0.818
 

 k-point    8 :   -0.18750000 0.18750000 0.06250000     weight = 0.04687500

band   1 # energy   -1.16403783 # occ.  1.00000000
 
ion      s     py     pz     px    dxy    dyz    dz2    dxz    dx2    tot
  1  0.601  0.018  0.000  0.079  0.013  0.000  0.006  0.000  0.005  0.722
 
band   2 # energy    3.08167498 # occ.  1.00000000
 
ion      s     py     pz     px    dxy    dyz    dz2    dxz    dx2    tot
  1  0.000  0.000  0.002  0.000  0.000  0.375  0.000  0.589  0.000  0.966
 
band   3 # energy    3.27199117 # occ.  1.00000000
 
ion      s     py     pz     px    dxy    dyz    dz2    dxz    dx2    tot
  1  0.005  0.012  0.000  0.007  0.810  0.000  0.108  0.000  0.011  0.952
 
band   4 # energy    4.03063105 # occ.  1.00000000
 
ion      s     py     pz     px    dxy    dyz    dz2    dxz    dx2    tot
  1  0.000  0.000  0.006  0.000  0.000  0.596  0.000  0.371  0.000  0.974
 
band   5 # energy    4.19508292 # occ.  1.00000000
 
ion      s     py     pz     px    dxy    dyz    dz2    dxz    dx2    tot
  1  0.000  0.000  0.000  0.000  0.126  0.000  0.654  0.000  0.179  0.959
 
band   6 # energy    4.71981880 # occ.  1.01081175
 
ion      s     py     pz     px    dxy    dyz    dz2    dxz    dx2    tot
  1  0.005  0.000  0.000  0.001  0.005  0.000  0.188  0.000  0.777  0.975
 
band   7 # energy   24.29082785 # occ.  0.00000000
 
ion      s     py     pz     px    dxy    dyz    dz2    dxz    dx2    tot
  1  0.028  0.126  0.000  0.058  0.277  0.000  0.197  0.000  0.015  0.700
 
band   8 # energy   27.67383849 # occ.  0.00000000
 
ion      s     py     pz     px    dxy    dyz    dz2    dxz    dx2    tot
  1  0.026  0.001  0.000  0.143  0.050  0.000  0.047  0.000  0.143  0.409
 
band   9 # energy   28.51448034 # occ.  0.00000000
 
ion      s     py     pz     px    dxy    dyz    dz2    dxz    dx2    tot
  1  0.000  0.000  0.209  0.000  0.000  0.023  0.000  0.582  0.000  0.814
 
band  10 # energy   32.54173361 # occ.  0.00000000
 
ion      s     py     pz     px    dxy    dyz    dz2    dxz    dx2    tot
  1  0.001  0.255  0.000  0.077  0.224  0.000  0.119  0.000  0.002  0.678
 
band  11 # energy   32.69251761 # occ.  0.00000000
 
ion      s     py     pz     px    dxy    dyz    dz2    dxz    dx2    tot
  1  0.000  0.000  0.349  0.000  0.000  0.470  0.000  0.005  0.000  0.824
 
band  12 # energy   34.25770224 # occ.  0.00000000
 
ion      s     py     pz     px    dxy    dyz    dz2    dxz    dx2    tot
  1  0.095  0.124  0.000  0.123  0.000  0.000  0.097  0.000  0.007  0.446
 

 k-point    9 :    0.31250000 0.31250000 0.06250000     weight = 0.01562500

band   1 # energy    1.95834221 # occ.  1.00000000
 
ion      s     py     pz     px    dxy    dyz    dz2    dxz    dx2    tot
  1  0.038  0.007  0.007  0.007  0.290  0.290  0.000  0.290  0.000  0.926
 
band   2 # energy    2.66408883 # occ.  1.00000000
 
ion      s     py     pz     px    dxy    dyz    dz2    dxz    dx2    tot
  1  0.000  0.022  0.089  0.022  0.362  0.091  0.216  0.091  0.000  0.893
 
band   3 # energy    2.66409041 # occ.  1.00000000
 
ion      s     py     pz     px    dxy    dyz    dz2    dxz    dx2    tot
  1  0.000  0.067  0.000  0.067  0.000  0.272  0.000  0.272  0.216  0.893
 
band   4 # energy    4.79370238 # occ.  1.00000000
 
ion      s     py     pz     px    dxy    dyz    dz2    dxz    dx2    tot
  1  0.000  0.004  0.000  0.004  0.000  0.121  0.000  0.121  0.732  0.982
 
band   5 # energy    4.79370256 # occ.  1.00000000
 
ion      s     py     pz     px    dxy    dyz    dz2    dxz    dx2    tot
  1  0.000  0.001  0.005  0.001  0.162  0.040  0.732  0.040  0.000  0.982
 
band   6 # energy   12.48363690 # occ.  0.00000000
 
ion      s     py     pz     px    dxy    dyz    dz2    dxz    dx2    tot
  1  0.000  0.072  0.287  0.072  0.218  0.055  0.059  0.055  0.000  0.816
 
band   7 # energy   12.48363911 # occ.  0.00000000
 
ion      s     py     pz     px    dxy    dyz    dz2    dxz    dx2    tot
  1  0.000  0.215  0.000  0.215  0.000  0.164  0.000  0.164  0.059  0.816
 
band   8 # energy   14.94536890 # occ.  0.00000000
 
ion      s     py     pz     px    dxy    dyz    dz2    dxz    dx2    tot
  1  0.585  0.002  0.002  0.002  0.077  0.077  0.000  0.077  0.000  0.821
 
band   9 # energy   21.85388118 # occ.  0.00000000
 
ion      s     py     pz     px    dxy    dyz    dz2    dxz    dx2    tot
  1  0.129  0.128  0.128  0.128  0.081  0.081  0.000  0.081  0.000  0.755
 
band  10 # energy   36.38211384 # occ.  0.00000000
 
ion      s     py     pz     px    dxy    dyz    dz2    dxz    dx2    tot
  1  0.000  0.008  0.032  0.008  0.062  0.015  0.282  0.015  0.000  0.423
 
band  11 # energy   36.38211623 # occ.  0.00000000
 
ion      s     py     pz     px    dxy    dyz    dz2    dxz    dx2    tot
  1  0.000  0.024  0.000  0.024  0.000  0.046  0.000  0.046  0.282  0.423
 
band  12 # energy   43.43191821 # occ.  0.00000000
 
ion      s     py     pz     px    dxy    dyz    dz2    dxz    dx2    tot
  1  0.026  0.052  0.052  0.052  0.356  0.356  0.000  0.356  0.000  1.249
 

 k-point   10 :   -0.31250000 0.31250000 0.06250000     weight = 0.04687500

band   1 # energy    0.45832061 # occ.  1.00000000
 
ion      s     py     pz     px    dxy    dyz    dz2    dxz    dx2    tot
  1  0.361  0.028  0.000  0.091  0.197  0.000  0.092  0.000  0.010  0.780
 
band   2 # energy    2.69437728 # occ.  1.00000000
 
ion      s     py     pz     px    dxy    dyz    dz2    dxz    dx2    tot
  1  0.000  0.000  0.002  0.000  0.000  0.433  0.000  0.523  0.000  0.958
 
band   3 # energy    3.33503793 # occ.  1.00000000
 
ion      s     py     pz     px    dxy    dyz    dz2    dxz    dx2    tot
  1  0.058  0.062  0.000  0.069  0.264  0.000  0.275  0.000  0.148  0.877
 
band   4 # energy    4.39590631 # occ.  1.00000000
 
ion      s     py     pz     px    dxy    dyz    dz2    dxz    dx2    tot
  1  0.001  0.010  0.000  0.010  0.450  0.000  0.477  0.000  0.019  0.968
 
band   5 # energy    4.90115968 # occ.  1.01741097
 
ion      s     py     pz     px    dxy    dyz    dz2    dxz    dx2    tot
  1  0.033  0.009  0.000  0.018  0.006  0.000  0.098  0.000  0.801  0.964
 
band   6 # energy    5.02025783 # occ.  0.70948461
 
ion      s     py     pz     px    dxy    dyz    dz2    dxz    dx2    tot
  1  0.000  0.000  0.008  0.000  0.000  0.537  0.000  0.434  0.000  0.979
 
band   7 # energy   18.51885791 # occ.  0.00000000
 
ion      s     py     pz     px    dxy    dyz    dz2    dxz    dx2    tot
  1  0.141  0.171  0.000  0.092  0.295  0.000  0.115  0.000  0.007  0.822
 
band   8 # energy   25.28063502 # occ.  0.00000000
 
ion      s     py     pz     px    dxy    dyz    dz2    dxz    dx2    tot
  1  0.028  0.057  0.000  0.147  0.003  0.000  0.069  0.000  0.067  0.371
 
band   9 # energy   26.36319909 # occ.  0.00000000
 
ion      s     py     pz     px    dxy    dyz    dz2    dxz    dx2    tot
  1  0.000  0.000  0.472  0.000  0.000  0.014  0.000  0.427  0.000  0.913
 
band  10 # energy   30.85188497 # occ.  0.00000000
 
ion      s     py     pz     px    dxy    dyz    dz2    dxz    dx2    tot
  1  0.000  0.000  0.191  0.000  0.000  0.587  0.000  0.165  0.000  0.944
 
band  11 # energy   32.72521003 # occ.  0.00000000
 
ion      s     py     pz     px    dxy    dyz    dz2    dxz    dx2    tot
  1  0.081  0.228  0.000  0.000  0.017  0.000  0.456  0.000  0.004  0.788
 
band  12 # energy   35.63212664 # occ.  0.00000000
 
ion      s     py     pz     px    dxy    dyz    dz2    dxz    dx2    tot
  1  0.111  0.018  0.000  0.068  0.186  0.000  0.031  0.000  0.110  0.524
 

 k-point   11 :   -0.18750000 0.31250000 0.06250000     weight = 0.04687500

band   1 # energy    0.27205040 # occ.  1.00000000
 
ion      s     py     pz     px    dxy    dyz    dz2    dxz    dx2    tot
  1  0.440  0.013  0.013  0.137  0.039  0.000  0.017  0.039  0.050  0.746
 
band   2 # energy    2.87323974 # occ.  1.00000000
 
ion      s     py     pz     px    dxy    dyz    dz2    dxz    dx2    tot
  1  0.000  0.010  0.010  0.000  0.280  0.000  0.262  0.280  0.087  0.931
 
band   3 # energy    3.07242248 # occ.  1.00000000
 
ion      s     py     pz     px    dxy    dyz    dz2    dxz    dx2    tot
  1  0.010  0.004  0.004  0.020  0.220  0.470  0.000  0.220  0.000  0.949
 
band   4 # energy    4.07375561 # occ.  1.00000000
 
ion      s     py     pz     px    dxy    dyz    dz2    dxz    dx2    tot
  1  0.000  0.002  0.002  0.000  0.187  0.000  0.437  0.187  0.146  0.961
 
band   5 # energy    4.74971396 # occ.  1.00179554
 
ion      s     py     pz     px    dxy    dyz    dz2    dxz    dx2    tot
  1  0.001  0.003  0.003  0.001  0.160  0.336  0.079  0.160  0.236  0.978
 
band   6 # energy    5.09797827 # occ.  0.76040073
 
ion      s     py     pz     px    dxy    dyz    dz2    dxz    dx2    tot
  1  0.046  0.006  0.006  0.023  0.055  0.164  0.151  0.055  0.454  0.961
 
band   7 # energy   21.49864865 # occ.  0.00000000
 
ion      s     py     pz     px    dxy    dyz    dz2    dxz    dx2    tot
  1  0.000  0.128  0.128  0.000  0.136  0.000  0.188  0.136  0.063  0.777
 
band   8 # energy   22.45788803 # occ.  0.00000000
 
ion      s     py     pz     px    dxy    dyz    dz2    dxz    dx2    tot
  1  0.146  0.067  0.067  0.177  0.143  0.017  0.001  0.143  0.004  0.765
 
band   9 # energy   28.97697941 # occ.  0.00000000
 
ion      s     py     pz     px    dxy    dyz    dz2    dxz    dx2    tot
  1  0.000  0.057  0.057  0.000  0.133  0.000  0.193  0.133  0.064  0.639
 
band  10 # energy   29.18666532 # occ.  0.00000000
 
ion      s     py     pz     px    dxy    dyz    dz2    dxz    dx2    tot
  1  0.001  0.224  0.224  0.061  0.017  0.088  0.003  0.017  0.010  0.646
 
band  11 # energy   32.93642374 # occ.  0.00000000
 
ion      s     py     pz     px    dxy    dyz    dz2    dxz    dx2    tot
  1  0.101  0.001  0.001  0.062  0.124  0.340  0.013  0.124  0.039  0.808
 
band  12 # energy   37.55323173 # occ.  0.00000000
 
ion      s     py     pz     px    dxy    dyz    dz2    dxz    dx2    tot
  1  0.000  0.145  0.145  0.000  0.004  0.000  0.102  0.004  0.034  0.433
 

 k-point   12 :   -0.43750000 0.43750000 0.06250000     weight = 0.04687500

band   1 # energy    0.91008048 # occ.  1.00000000
 
ion      s     py     pz     px    dxy    dyz    dz2    dxz    dx2    tot
  1  0.142  0.000  0.000  0.016  0.432  0.000  0.274  0.000  0.001  0.865
 
band   2 # energy    2.43130273 # occ.  1.00000000
 
ion      s     py     pz     px    dxy    dyz    dz2    dxz    dx2    tot
  1  0.000  0.000  0.002  0.000  0.000  0.463  0.000  0.489  0.000  0.954
 
band   3 # energy    4.09562187 # occ.  1.00000000
 
ion      s     py     pz     px    dxy    dyz    dz2    dxz    dx2    tot
  1  0.017  0.060  0.000  0.066  0.002  0.000  0.103  0.000  0.656  0.904
 
band   4 # energy    4.55854831 # occ.  1.00000000
 
ion      s     py     pz     px    dxy    dyz    dz2    dxz    dx2    tot
  1  0.008  0.005  0.000  0.004  0.336  0.000  0.540  0.000  0.082  0.975
 
band   5 # energy    5.81560186 # occ.  0.48869658
 
ion      s     py     pz     px    dxy    dyz    dz2    dxz    dx2    tot
  1  0.000  0.000  0.002  0.000  0.000  0.511  0.000  0.478  0.000  0.990
 
band   6 # energy    6.26508658 # occ.  0.00089223
 
ion      s     py     pz     px    dxy    dyz    dz2    dxz    dx2    tot
  1  0.055  0.196  0.000  0.236  0.062  0.000  0.009  0.000  0.246  0.803
 
band   7 # energy   13.77977082 # occ.  0.00000000
 
ion      s     py     pz     px    dxy    dyz    dz2    dxz    dx2    tot
  1  0.346  0.082  0.000  0.023  0.332  0.000  0.094  0.000  0.003  0.881
 
band   8 # energy   23.91667326 # occ.  0.00000000
 
ion      s     py     pz     px    dxy    dyz    dz2    dxz    dx2    tot
  1  0.025  0.106  0.000  0.132  0.001  0.000  0.068  0.000  0.008  0.340
 
band   9 # energy   24.74725696 # occ.  0.00000000
 
ion      s     py     pz     px    dxy    dyz    dz2    dxz    dx2    tot
  1  0.000  0.000  0.616  0.000  0.000  0.045  0.000  0.174  0.000  0.835
 
band  10 # energy   30.14132879 # occ.  0.00000000
 
ion      s     py     pz     px    dxy    dyz    dz2    dxz    dx2    tot
  1  0.000  0.000  0.119  0.000  0.000  0.549  0.000  0.413  0.000  1.082
 
band  11 # energy   32.97590170 # occ.  0.00000000
 
ion      s     py     pz     px    dxy    dyz    dz2    dxz    dx2    tot