<?xml version="1.0" encoding="ISO-8859-1"?>
<modeling>
 <generator>
  <i name="program" type="string">vasp </i>
  <i name="version" type="string">5.4.1  </i>
  <i name="subversion" type="string">24Jun15 (build Jul 19 2016 16:50:41) complex                          parallel </i>
  <i name="platform" type="string">IFC91_ompi </i>
  <i name="date" type="string">2019 10 17 </i>
  <i name="time" type="string">11:15:40 </i>
 </generator>
 <incar>
  <i type="string" name="SYSTEM"> Fe BCC</i>
  <i type="string" name="PREC">accurate</i>
  <i type="int" name="ISPIN">     2</i>
  <i name="EDIFF">      0.00000100</i>
  <i name="ENMAX">    350.00000000</i>
  <v name="MAGMOM">      4.00000000</v>
  <i type="int" name="ISMEAR">    -5</i>
  <i type="logical" name="LORBIT"> F  </i>
  <v type="int" name="KPOINT_BSE">    -1     0     0     0</v>
 </incar>
 <kpoints>
  <generation param="Monkhorst-Pack">
   <v type="int" name="divisions">       8        8        8 </v>
   <v name="usershift">      0.00000000       0.00000000       0.00000000 </v>
   <v name="genvec1">      0.12500000       0.00000000       0.00000000 </v>
   <v name="genvec2">      0.00000000       0.12500000       0.00000000 </v>
   <v name="genvec3">      0.00000000       0.00000000       0.12500000 </v>
   <v name="shift">      0.50000000       0.50000000       0.50000000 </v>
  </generation>
  <varray name="kpointlist" >
   <v>       0.06250000       0.06250000       0.06250000 </v>
   <v>       0.18750000       0.06250000       0.06250000 </v>
   <v>       0.31250000       0.06250000       0.06250000 </v>
   <v>       0.43750000       0.06250000       0.06250000 </v>
   <v>      -0.06250000       0.06250000       0.06250000 </v>
   <v>       0.18750000       0.18750000       0.06250000 </v>
   <v>       0.31250000       0.18750000       0.06250000 </v>
   <v>      -0.18750000       0.18750000       0.06250000 </v>
   <v>       0.31250000       0.31250000       0.06250000 </v>
   <v>      -0.31250000       0.31250000       0.06250000 </v>
   <v>      -0.18750000       0.31250000       0.06250000 </v>
   <v>      -0.43750000       0.43750000       0.06250000 </v>
   <v>      -0.31250000       0.43750000       0.06250000 </v>
   <v>      -0.43750000      -0.43750000       0.06250000 </v>
   <v>      -0.31250000      -0.43750000       0.06250000 </v>
   <v>       0.18750000       0.18750000       0.18750000 </v>
   <v>       0.31250000       0.18750000       0.18750000 </v>
   <v>      -0.18750000       0.18750000       0.18750000 </v>
   <v>      -0.31250000       0.31250000       0.18750000 </v>
   <v>      -0.43750000       0.43750000       0.18750000 </v>
   <v>      -0.31250000       0.43750000       0.18750000 </v>
   <v>      -0.43750000      -0.43750000       0.18750000 </v>
   <v>      -0.31250000       0.31250000       0.31250000 </v>
   <v>      -0.43750000       0.43750000       0.31250000 </v>
   <v>      -0.43750000      -0.43750000       0.31250000 </v>
   <v>      -0.43750000       0.43750000       0.43750000 </v>
  </varray>
  <varray name="weights" >
   <v>       0.01562500 </v>
   <v>       0.04687500 </v>
   <v>       0.04687500 </v>
   <v>       0.02343750 </v>
   <v>       0.01171875 </v>
   <v>       0.04687500 </v>
   <v>       0.09375000 </v>
   <v>       0.04687500 </v>
   <v>       0.01562500 </v>
   <v>       0.04687500 </v>
   <v>       0.04687500 </v>
   <v>       0.04687500 </v>
   <v>       0.09375000 </v>
   <v>       0.04687500 </v>
   <v>       0.04687500 </v>
   <v>       0.01562500 </v>
   <v>       0.02343750 </v>
   <v>       0.01171875 </v>
   <v>       0.04687500 </v>
   <v>       0.04687500 </v>
   <v>       0.04687500 </v>
   <v>       0.04687500 </v>
   <v>       0.01171875 </v>
   <v>       0.04687500 </v>
   <v>       0.01562500 </v>
   <v>       0.01171875 </v>
  </varray>
  <varray name="tetrahedronlist"  type="int" >
   <v type="int" >        4        1        2        2        6 </v>
   <v type="int" >        8        2        2        6        6 </v>
   <v type="int" >        4        2        6        6       16 </v>
   <v type="int" >        4        2        3        6        7 </v>
   <v type="int" >        4        2        6        6        7 </v>
   <v type="int" >       12        6        6        7       16 </v>
   <v type="int" >        8        3        6        7        7 </v>
   <v type="int" >        8        6        7        7       17 </v>
   <v type="int" >        8        6        7       16       17 </v>
   <v type="int" >        4        3        4        7        7 </v>
   <v type="int" >        4        3        7        7        7 </v>
   <v type="int" >       16        7        7        7       17 </v>
   <v type="int" >        8        4        7        7        7 </v>
   <v type="int" >        4        7        7        7       16 </v>
   <v type="int" >       20        7        7       16       17 </v>
   <v type="int" >        4        3        4        6        7 </v>
   <v type="int" >        4        4        6        7        7 </v>
   <v type="int" >       16        6        7        7       16 </v>
   <v type="int" >        8        3        6        6        7 </v>
   <v type="int" >        4        6        6        6        7 </v>
   <v type="int" >        4        2        2        3        6 </v>
   <v type="int" >        8        2        3        6        6 </v>
   <v type="int" >        4        2        6        6        6 </v>
   <v type="int" >        4        2        2        2        6 </v>
   <v type="int" >        8        2        2        6       11 </v>
   <v type="int" >        4        2        6        6       11 </v>
   <v type="int" >       16        1        2        2        8 </v>
   <v type="int" >        4        2        2        2        8 </v>
   <v type="int" >       12        2        2        8       11 </v>
   <v type="int" >       16        1        2        8        8 </v>
   <v type="int" >        4        2        8        8       18 </v>
   <v type="int" >        4        2        8       11       18 </v>
   <v type="int" >       20        1        5        8        8 </v>
   <v type="int" >        4        1        8        8        8 </v>
   <v type="int" >        4        8        8        8       18 </v>
   <v type="int" >        8        5        8        8        8 </v>
   <v type="int" >        4        8        8        8       11 </v>
   <v type="int" >        4        8        8       11       18 </v>
   <v type="int" >        8        1        2        5        8 </v>
   <v type="int" >        8        2        5        8        8 </v>
   <v type="int" >        8        2        8        8       11 </v>
   <v type="int" >        4        2        2        6        8 </v>
   <v type="int" >        4        2        6        8       11 </v>
   <v type="int" >        4        6        7        9       16 </v>
   <v type="int" >       16        7        9       16       17 </v>
   <v type="int" >       12        9       16       17       17 </v>
   <v type="int" >       20        7        7        9       17 </v>
   <v type="int" >       12        7        9       17       17 </v>
   <v type="int" >        8        7        7       17       17 </v>
   <v type="int" >       12        3        6        7       16 </v>
   <v type="int" >        8        3        7        7       16 </v>
   <v type="int" >        8        3        6        6       16 </v>
   <v type="int" >        4        3        6       13       16 </v>
   <v type="int" >        4        3        7       13       16 </v>
   <v type="int" >        4        2        6        6       10 </v>
   <v type="int" >        4        3        6        6       10 </v>
   <v type="int" >        8        3        6       10       13 </v>
   <v type="int" >       12        2        6       10       11 </v>
   <v type="int" >        4        6       10       11       19 </v>
   <v type="int" >        4        6       10       13       19 </v>
   <v type="int" >        4        2        8       11       11 </v>
   <v type="int" >        4        2       10       11       11 </v>
   <v type="int" >        4       10       11       11       19 </v>
   <v type="int" >        8        8       11       11       18 </v>
   <v type="int" >        8       11       11       18       19 </v>
   <v type="int" >        4       11       11       19       19 </v>
   <v type="int" >        4        8        8       10       18 </v>
   <v type="int" >       12        8       10       11       18 </v>
   <v type="int" >       12       10       11       18       19 </v>
   <v type="int" >        4       10       11       13       18 </v>
   <v type="int" >        4       10       13       18       19 </v>
   <v type="int" >        4        2        3        8       11 </v>
   <v type="int" >        4        3        8       10       11 </v>
   <v type="int" >        8        3       10       11       13 </v>
   <v type="int" >       16        2        3        6       11 </v>
   <v type="int" >        4        3        6        7       11 </v>
   <v type="int" >        4        3        7       11       13 </v>
   <v type="int" >        4        4        7        9       17 </v>
   <v type="int" >        8        4        7        7       17 </v>
   <v type="int" >        4        4        7       14       17 </v>
   <v type="int" >        4        3        7        7       12 </v>
   <v type="int" >        8        4        7        7       12 </v>
   <v type="int" >        8        4        7       12       14 </v>
   <v type="int" >        8        3        7       12       13 </v>
   <v type="int" >        4        7       12       13       20 </v>
   <v type="int" >        4        7       12       14       20 </v>
   <v type="int" >        4        3       10       13       13 </v>
   <v type="int" >        4        3       12       13       13 </v>
   <v type="int" >        4       12       13       13       20 </v>
   <v type="int" >        8       10       13       13       19 </v>
   <v type="int" >       12       13       13       19       21 </v>
   <v type="int" >        4       13       13       20       21 </v>
   <v type="int" >        8       10       11       13       19 </v>
   <v type="int" >        8       11       13       19       19 </v>
   <v type="int" >        4       13       19       19       20 </v>
   <v type="int" >        8       13       19       20       21 </v>
   <v type="int" >        4       10       11       12       19 </v>
   <v type="int" >        4       11       12       13       19 </v>
   <v type="int" >        8       12       13       19       20 </v>
   <v type="int" >        8       10       12       13       19 </v>
   <v type="int" >        4       12       13       14       19 </v>
   <v type="int" >        4       12       14       19       20 </v>
   <v type="int" >        4        3        4       10       13 </v>
   <v type="int" >        4        4       10       12       13 </v>
   <v type="int" >       12        4       12       13       14 </v>
   <v type="int" >       12        3        4        7       13 </v>
   <v type="int" >        8        4        7        7       13 </v>
   <v type="int" >       12        4        7       13       14 </v>
   <v type="int" >        4        4       12       14       14 </v>
   <v type="int" >        4       12       14       14       20 </v>
   <v type="int" >        4       14       14       20       22 </v>
   <v type="int" >        4       12       13       15       20 </v>
   <v type="int" >        4       12       14       15       20 </v>
   <v type="int" >        8       14       15       20       22 </v>
   <v type="int" >       12       13       15       20       21 </v>
   <v type="int" >       12       15       20       21       22 </v>
   <v type="int" >        4       15       20       22       22 </v>
   <v type="int" >        4       13       13       14       21 </v>
   <v type="int" >       12       13       14       15       21 </v>
   <v type="int" >       16       14       15       21       22 </v>
   <v type="int" >        8       13       14       20       21 </v>
   <v type="int" >        4       14       20       20       21 </v>
   <v type="int" >       12       14       20       21       22 </v>
   <v type="int" >        4       12       12       13       20 </v>
   <v type="int" >        8       12       13       14       20 </v>
   <v type="int" >        8       12       14       20       20 </v>
   <v type="int" >        8       12       12       14       20 </v>
   <v type="int" >        4       12       13       20       20 </v>
   <v type="int" >       16        3        4       12       14 </v>
   <v type="int" >        8        3       12       12       14 </v>
   <v type="int" >        8        3       12       13       14 </v>
   <v type="int" >       16        3        4        7       14 </v>
   <v type="int" >        4        3        6        7       14 </v>
   <v type="int" >        4        3        6       13       14 </v>
   <v type="int" >        8       14       15       15       22 </v>
   <v type="int" >        8       15       15       22       22 </v>
   <v type="int" >        8       15       21       22       22 </v>
   <v type="int" >       12       13       14       15       22 </v>
   <v type="int" >        4       13       15       15       22 </v>
   <v type="int" >        8       13       15       21       22 </v>
   <v type="int" >       12       13       14       20       22 </v>
   <v type="int" >        4       13       19       20       22 </v>
   <v type="int" >        4       13       19       21       22 </v>
   <v type="int" >        4       10       12       14       20 </v>
   <v type="int" >        4       10       13       14       20 </v>
   <v type="int" >        8       10       13       19       20 </v>
   <v type="int" >        8       10       12       13       20 </v>
   <v type="int" >        4       10       11       13       20 </v>
   <v type="int" >        4       10       11       19       20 </v>
   <v type="int" >        4        2        3       12       13 </v>
   <v type="int" >        4        2       10       12       13 </v>
   <v type="int" >        8        2       10       11       13 </v>
   <v type="int" >       12        2        3        6       13 </v>
   <v type="int" >        4        2        2        6       13 </v>
   <v type="int" >        4        2        2       11       13 </v>
   <v type="int" >        4       11       13       15       21 </v>
   <v type="int" >        8       11       13       19       21 </v>
   <v type="int" >        4       11       18       19       21 </v>
   <v type="int" >        4        8       10       13       19 </v>
   <v type="int" >        4        8       11       13       19 </v>
   <v type="int" >        8        8       11       18       19 </v>
   <v type="int" >        8        8       10       11       19 </v>
   <v type="int" >        4        8        8       11       19 </v>
   <v type="int" >        4        8        8       18       19 </v>
   <v type="int" >        4        1        2       10       11 </v>
   <v type="int" >        4        1        8       10       11 </v>
   <v type="int" >        8        1        8        8       11 </v>
   <v type="int" >        8        1        2        2       11 </v>
   <v type="int" >       12        1        2        8       11 </v>
   <v type="int" >        4        5        8       11       18 </v>
   <v type="int" >        4        5        8        8       18 </v>
   <v type="int" >        4        1        5        8       18 </v>
   <v type="int" >        4        5        5        8        8 </v>
   <v type="int" >       12        1        5        5        8 </v>
   <v type="int" >        6        1        1        5        5 </v>
   <v type="int" >        8        1        1        5        8 </v>
   <v type="int" >        4        1        1        2        8 </v>
   <v type="int" >        4        2        3        6       16 </v>
   <v type="int" >        4        3        7       16       17 </v>
   <v type="int" >       12        7       16       17       17 </v>
   <v type="int" >        8        7       17       17       17 </v>
   <v type="int" >       12        7        7        9       16 </v>
   <v type="int" >        4        6        6        7        7 </v>
   <v type="int" >       16        3        6        7       13 </v>
   <v type="int" >       12        6        7        7       13 </v>
   <v type="int" >        4        3        6        6       11 </v>
   <v type="int" >       12        3        6       11       13 </v>
   <v type="int" >       12        2        3       10       11 </v>
   <v type="int" >        4        3       10       11       19 </v>
   <v type="int" >        4        3       11       13       19 </v>
   <v type="int" >        4        2        8       10       18 </v>
   <v type="int" >        4        2       10       11       18 </v>
   <v type="int" >        4       10       18       19       19 </v>
   <v type="int" >        4        8        8       11       11 </v>
   <v type="int" >        4        8       10       11       11 </v>
   <v type="int" >        4       10       11       11       13 </v>
   <v type="int" >        4       11       11       13       19 </v>
   <v type="int" >        4        2        6        8       10 </v>
   <v type="int" >        4        6        8       10       11 </v>
   <v type="int" >       12        6       10       11       13 </v>
   <v type="int" >        8        2        3        6       10 </v>
   <v type="int" >        4        3        6        7       10 </v>
   <v type="int" >        4        6        7       10       13 </v>
   <v type="int" >        4       16       17       17       17 </v>
   <v type="int" >        4       17       17       17       17 </v>
   <v type="int" >        4        9       17       17       17 </v>
   <v type="int" >        8        7        7       15       17 </v>
   <v type="int" >        8        7        9       15       17 </v>
   <v type="int" >        4        6        7       13       16 </v>
   <v type="int" >        4        7        7       13       16 </v>
   <v type="int" >       12        7        7       13       15 </v>
   <v type="int" >        8        6        7       13       13 </v>
   <v type="int" >        4        7       13       13       21 </v>
   <v type="int" >        4        7       13       15       21 </v>
   <v type="int" >        4        6       11       13       19 </v>
   <v type="int" >        4        6       13       13       19 </v>
   <v type="int" >        4       13       19       19       23 </v>
   <v type="int" >        4       13       19       21       23 </v>
   <v type="int" >        4       11       18       19       19 </v>
   <v type="int" >        4       11       19       19       19 </v>
   <v type="int" >        4       19       19       19       23 </v>
   <v type="int" >        4       18       19       19       19 </v>
   <v type="int" >        4       19       19       19       21 </v>
   <v type="int" >        4       19       19       21       23 </v>
   <v type="int" >        4       11       13       18       19 </v>
   <v type="int" >        4       13       18       19       19 </v>
   <v type="int" >        8       13       19       19       21 </v>
   <v type="int" >       12       11       13       13       19 </v>
   <v type="int" >        4       13       13       15       19 </v>
   <v type="int" >        4       13       15       19       21 </v>
   <v type="int" >        4        6        7       11       13 </v>
   <v type="int" >        4        7       11       13       13 </v>
   <v type="int" >        8        7       13       13       15 </v>
   <v type="int" >        4        7        7        9       13 </v>
   <v type="int" >        4        7        9       13       15 </v>
   <v type="int" >        4        7        9       14       17 </v>
   <v type="int" >       12        7        9       14       15 </v>
   <v type="int" >        4        9       14       15       22 </v>
   <v type="int" >        4        7       13       15       20 </v>
   <v type="int" >        4        7       14       15       20 </v>
   <v type="int" >        4       15       20       21       24 </v>
   <v type="int" >        4       15       20       22       24 </v>
   <v type="int" >        4       13       19       21       21 </v>
   <v type="int" >        4       13       20       21       21 </v>
   <v type="int" >        4       20       21       21       24 </v>
   <v type="int" >        8       19       21       21       23 </v>
   <v type="int" >        8       21       21       23       24 </v>
   <v type="int" >        4       21       21       24       24 </v>
   <v type="int" >        4       19       19       20       23 </v>
   <v type="int" >       12       19       20       21       23 </v>
   <v type="int" >       12       20       21       23       24 </v>
   <v type="int" >        4       20       21       22       23 </v>
   <v type="int" >        4       20       22       23       24 </v>
   <v type="int" >        4       13       14       19       21 </v>
   <v type="int" >        4       14       19       20       21 </v>
   <v type="int" >        4       14       15       15       21 </v>
   <v type="int" >       16        7       13       14       15 </v>
   <v type="int" >        8        7       14       15       15 </v>
   <v type="int" >       16        7        7        9       15 </v>
   <v type="int" >        4        7        7       15       15 </v>
   <v type="int" >        4       14       20       22       22 </v>
   <v type="int" >        8       20       22       22       24 </v>
   <v type="int" >       16       22       22       24       25 </v>
   <v type="int" >       16       20       21       22       24 </v>
   <v type="int" >        8       21       22       24       24 </v>
   <v type="int" >        4       22       24       24       24 </v>
   <v type="int" >       16       22       24       24       25 </v>
   <v type="int" >        4       20       20       21       24 </v>
   <v type="int" >       12       20       22       24       24 </v>
   <v type="int" >        8       20       20       22       24 </v>
   <v type="int" >        4       20       21       24       24 </v>
   <v type="int" >        4       13       20       20       22 </v>
   <v type="int" >        8       13       20       21       22 </v>
   <v type="int" >        4       13       13       15       22 </v>
   <v type="int" >        4       13       13       21       22 </v>
   <v type="int" >        4        6        7       14       15 </v>
   <v type="int" >        4        6       13       14       15 </v>
   <v type="int" >        4        6       13       13       15 </v>
   <v type="int" >        4        6        7        7       15 </v>
   <v type="int" >        4        3        6        7       15 </v>
   <v type="int" >        4        3        6       13       15 </v>
   <v type="int" >        8       21       22       22       25 </v>
   <v type="int" >       12       21       22       24       25 </v>
   <v type="int" >        4       21       23       24       25 </v>
   <v type="int" >        4       19       20       22       24 </v>
   <v type="int" >        4       19       21       22       24 </v>
   <v type="int" >        8       19       21       23       24 </v>
   <v type="int" >        8       19       20       21       24 </v>
   <v type="int" >        4       19       19       21       24 </v>
   <v type="int" >        4       19       19       23       24 </v>
   <v type="int" >        4       11       13       20       21 </v>
   <v type="int" >        4       11       19       20       21 </v>
   <v type="int" >        4       11       19       19       21 </v>
   <v type="int" >        4       11       13       13       21 </v>
   <v type="int" >        4       10       11       13       21 </v>
   <v type="int" >        4       10       11       19       21 </v>
   <v type="int" >        4        2        6       13       13 </v>
   <v type="int" >        4        2       11       13       13 </v>
   <v type="int" >       12        2        3       10       13 </v>
   <v type="int" >        4        2       10       10       13 </v>
   <v type="int" >        4       18       19       21       23 </v>
   <v type="int" >        4       18       19       19       23 </v>
   <v type="int" >        4       11       18       19       23 </v>
   <v type="int" >        4        8       11       19       19 </v>
   <v type="int" >        4        8       18       19       19 </v>
   <v type="int" >        4        2        8       10       19 </v>
   <v type="int" >        4        2        8       11       19 </v>
   <v type="int" >       16        2        8       10       11 </v>
   <v type="int" >        4        8        8       10       11 </v>
   <v type="int" >       12        2        8        8       10 </v>
   <v type="int" >        8        2        8       10       10 </v>
   <v type="int" >        4        8       10       10       11 </v>
   <v type="int" >        4        1        8       11       18 </v>
   <v type="int" >        4        2        8        8        8 </v>
   <v type="int" >        8        2        2        8       10 </v>
   <v type="int" >        4        2        2        3       10 </v>
   <v type="int" >        4        3        4        7       17 </v>
   <v type="int" >        4        4        7       16       17 </v>
   <v type="int" >        4        7        7        7        9 </v>
   <v type="int" >        4        4        7        7       14 </v>
   <v type="int" >        4        7        7        7       14 </v>
   <v type="int" >       12        3        4       12       13 </v>
   <v type="int" >        4        4       12       13       20 </v>
   <v type="int" >        4        4       13       14       20 </v>
   <v type="int" >        4        3       10       12       19 </v>
   <v type="int" >        4        3       12       13       19 </v>
   <v type="int" >        4       12       13       19       21 </v>
   <v type="int" >        4       12       19       20       21 </v>
   <v type="int" >        4       10       13       19       19 </v>
   <v type="int" >        8       13       13       19       20 </v>
   <v type="int" >        4       10       11       13       13 </v>
   <v type="int" >        4       10       12       13       13 </v>
   <v type="int" >        4       12       13       13       14 </v>
   <v type="int" >        4       13       13       14       20 </v>
   <v type="int" >        4        3        7       10       12 </v>
   <v type="int" >        4        7       10       12       13 </v>
   <v type="int" >        8        7       12       13       14 </v>
   <v type="int" >        8        3        4        7       12 </v>
   <v type="int" >        4        7        7       12       14 </v>
   <v type="int" >        4        7        9       15       16 </v>
   <v type="int" >       12        7        9       15       15 </v>
   <v type="int" >        8        7        7       14       15 </v>
   <v type="int" >        4        7       14       15       22 </v>
   <v type="int" >        4        7       15       15       22 </v>
   <v type="int" >        4        7       13       14       21 </v>
   <v type="int" >        4        7       14       15       21 </v>
   <v type="int" >        4       14       20       21       24 </v>
   <v type="int" >        4       14       21       22       24 </v>
   <v type="int" >        4       13       19       20       23 </v>
   <v type="int" >        4       13       20       21       23 </v>
   <v type="int" >        4       20       23       24       24 </v>
   <v type="int" >        4       19       19       21       21 </v>
   <v type="int" >        4       19       20       21       21 </v>
   <v type="int" >        4       20       21       21       22 </v>
   <v type="int" >        4       21       21       22       24 </v>
   <v type="int" >        4       13       15       19       20 </v>
   <v type="int" >        4       15       19       20       21 </v>
   <v type="int" >        8       13       14       15       20 </v>
   <v type="int" >        4       14       15       15       20 </v>
   <v type="int" >        4       15       15       20       22 </v>
   <v type="int" >        4        7        9       13       14 </v>
   <v type="int" >        4        9       13       14       15 </v>
   <v type="int" >        8        9       14       15       15 </v>
   <v type="int" >        8        7        7        9       14 </v>
   <v type="int" >        4        9       15       15       22 </v>
   <v type="int" >        4       15       22       22       25 </v>
   <v type="int" >        4       15       21       22       24 </v>
   <v type="int" >        4       15       22       22       24 </v>
   <v type="int" >        8       22       24       24       26 </v>
   <v type="int" >        8       22       24       25       26 </v>
   <v type="int" >        4       21       23       24       24 </v>
   <v type="int" >        4       21       24       24       24 </v>
   <v type="int" >        8       24       24       24       26 </v>
   <v type="int" >        4       23       24       24       24 </v>
   <v type="int" >        4       24       24       24       25 </v>
   <v type="int" >       20       24       24       25       26 </v>
   <v type="int" >        4       21       22       23       24 </v>
   <v type="int" >        4       22       23       24       24 </v>
   <v type="int" >       12       21       22       22       24 </v>
   <v type="int" >        4       22       22       22       24 </v>
   <v type="int" >        4       15       15       21       22 </v>
   <v type="int" >        4       15       22       22       22 </v>
   <v type="int" >        4       15       15       15       22 </v>
   <v type="int" >        4       14       15       22       22 </v>
   <v type="int" >        4        7       15       15       15 </v>
   <v type="int" >        4        4        7        7       15 </v>
   <v type="int" >        4        4        7       14       15 </v>
   <v type="int" >        4       22       24       25       25 </v>
   <v type="int" >        8       24       25       25       26 </v>
   <v type="int" >        6       25       25       26       26 </v>
   <v type="int" >       12       24       25       26       26 </v>
   <v type="int" >        4       24       24       26       26 </v>
   <v type="int" >        8       21       24       24       25 </v>
   <v type="int" >        4       20       21       22       25 </v>
   <v type="int" >        4       20       21       24       25 </v>
   <v type="int" >        4       13       15       22       22 </v>
   <v type="int" >        4       13       21       22       22 </v>
   <v type="int" >        4       12       13       14       22 </v>
   <v type="int" >        4       12       13       20       22 </v>
   <v type="int" >        4        3        7       14       15 </v>
   <v type="int" >        4        3       13       14       15 </v>
   <v type="int" >        4       23       24       25       26 </v>
   <v type="int" >        4       23       24       24       26 </v>
   <v type="int" >        4       21       23       24       26 </v>
   <v type="int" >        4       19       21       24       24 </v>
   <v type="int" >        4       19       23       24       24 </v>
   <v type="int" >        4       13       19       20       24 </v>
   <v type="int" >        4       13       19       21       24 </v>
   <v type="int" >        4       10       13       20       21 </v>
   <v type="int" >        4       10       19       20       21 </v>
   <v type="int" >        4        3       10       12       20 </v>
   <v type="int" >        4        3       10       13       20 </v>
   <v type="int" >        8        3       10       12       13 </v>
   <v type="int" >        4       10       10       12       13 </v>
   <v type="int" >        8        3       10       10       12 </v>
   <v type="int" >        8        3       10       12       12 </v>
   <v type="int" >        4       10       12       12       13 </v>
   <v type="int" >        4       11       19       21       23 </v>
   <v type="int" >        4        6       11       13       21 </v>
   <v type="int" >        4        2       10       13       19 </v>
   <v type="int" >        4        2       11       13       19 </v>
   <v type="int" >        8        2        6       11       13 </v>
   <v type="int" >        4        2        6        6       13 </v>
   <v type="int" >        4        3       10       10       11 </v>
   <v type="int" >        4        3       11       13       13 </v>
   <v type="int" >        4        2        2        6       10 </v>
   <v type="int" >        4        6       10       12       13 </v>
   <v type="int" >        4        3        6       10       12 </v>
   <v type="int" >        4        2        3        3       10 </v>
   <v type="int" >        4        3        3       10       12 </v>
   <v type="int" >        4        3        3        4       12 </v>
   <v type="int" >        4        3        4        7       16 </v>
   <v type="int" >        4        6        7        7        7 </v>
   <v type="int" >        4        6        6        7       13 </v>
   <v type="int" >        8        3        7        7       14 </v>
   <v type="int" >        8        3        7       13       14 </v>
   <v type="int" >        4        3       12       14       20 </v>
   <v type="int" >        4        3       13       14       20 </v>
   <v type="int" >        4        4       12       12       20 </v>
   <v type="int" >        4        4       12       14       20 </v>
   <v type="int" >        4       12       14       20       22 </v>
   <v type="int" >        4       12       20       20       22 </v>
   <v type="int" >        4       12       13       14       21 </v>
   <v type="int" >        4       12       14       20       21 </v>
   <v type="int" >        4       14       21       22       22 </v>
   <v type="int" >        4       13       13       15       20 </v>
   <v type="int" >        4       14       15       20       20 </v>
   <v type="int" >        4       15       20       20       22 </v>
   <v type="int" >        4       12       13       14       14 </v>
   <v type="int" >        4       13       14       14       20 </v>
   <v type="int" >        2       14       14       20       20 </v>
   <v type="int" >        2       12       12       14       14 </v>
   <v type="int" >        8        4        7       12       12 </v>
   <v type="int" >        4        7       12       12       14 </v>
   <v type="int" >        4        3        6        7       12 </v>
   <v type="int" >        4        6        7       12       13 </v>
   <v type="int" >        4        6        7       15       16 </v>
   <v type="int" >        8        6        7       13       15 </v>
   <v type="int" >        4        6       13       15       21 </v>
   <v type="int" >        4        7       13       14       22 </v>
   <v type="int" >        4        7       13       15       22 </v>
   <v type="int" >        4       13       20       22       24 </v>
   <v type="int" >        4       13       21       22       24 </v>
   <v type="int" >        4       14       20       20       24 </v>
   <v type="int" >        4       14       20       22       24 </v>
   <v type="int" >        4       20       22       24       25 </v>
   <v type="int" >        4       20       24       24       25 </v>
   <v type="int" >        6       22       22       24       24 </v>
   <v type="int" >        4       20       21       22       22 </v>
   <v type="int" >        2       20       20       22       22 </v>
   <v type="int" >        4        7        7       13       14 </v>
   <v type="int" >        4        3        7       13       13 </v>
   <v type="int" >        4       15       21       22       25 </v>
   <v type="int" >        4       21       24       25       26 </v>
   <v type="int" >        4       24       26       26       26 </v>
   <v type="int" >        6       24       24       25       25 </v>
   <v type="int" >        4        4        7       13       15 </v>
   <v type="int" >        4        4       13       14       15 </v>
   <v type="int" >        8        4       12       12       13 </v>
   <v type="int" >        4       25       26       26       26 </v>
   <v type="int" >        2       26       26       26       26 </v>
   <v type="int" >        4        4       12       12       14 </v>
   <v type="int" >        4       12       12       12       14 </v>
   <v type="int" >        8        4       12       12       12 </v>
   <v type="int" >        4        3        4        4       12 </v>
   <v type="int" >        4        4        4       12       12 </v>
   <v type="int" >        4        1        5        8       11 </v>
   <v type="int" >        4        1        2        6       11 </v>
   <v type="int" >        4        2        8       10       13 </v>
   <v type="int" >        4        2        8       11       13 </v>
   <v type="int" >        4        2        3        7       13 </v>
   <v type="int" >        4        2        6        7       13 </v>
   <v type="int" >        4        3       10       12       14 </v>
   <v type="int" >        4        3       10       13       14 </v>
   <v type="int" >        4        3        4        6       13 </v>
   <v type="int" >        4        4        6        7       13 </v>
   <v type="int" >        4        3       10       11       12 </v>
   <v type="int" >        4        3       11       12       13 </v>
   <v type="int" >        4        2        2        3       11 </v>
   <v type="int" >        6        2        2        8        8 </v>
   <v type="int" >        6        1        1        8        8 </v>
   <v type="int" >        4        5        5        5        8 </v>
   <v type="int" >        4        6       11       13       15 </v>
   <v type="int" >        4        6        7        9       15 </v>
   <v type="int" >        4        7       13       15       15 </v>
   <v type="int" >        4        7        7        7       15 </v>
   <v type="int" >        4        7       13       13       14 </v>
   <v type="int" >        4        3        7        7       13 </v>
   <v type="int" >        4        6       10       13       13 </v>
   <v type="int" >        4        2        6       10       10 </v>
   <v type="int" >        4        3        6       10       10 </v>
   <v type="int" >        4        2        2       10       11 </v>
   <v type="int" >        2        2        2       10       10 </v>
   <v type="int" >        4        1        8        8       10 </v>
   <v type="int" >        4        1        2        8       10 </v>
   <v type="int" >        4        2        3        8       10 </v>
   <v type="int" >        4        3        8       10       10 </v>
   <v type="int" >        4        4        7        9       14 </v>
   <v type="int" >        4        7       12       13       15 </v>
   <v type="int" >        4        7       12       14       15 </v>
   <v type="int" >        4        3        7       12       12 </v>
   <v type="int" >        4        3        3       10       13 </v>
   <v type="int" >        4        3        3       12       13 </v>
   <v type="int" >        2        3        3       12       12 </v>
   <v type="int" >        2        3        3       10       10 </v>
   <v type="int" >        4        2       10       10       12 </v>
   <v type="int" >        4        2        3       10       12 </v>
   <v type="int" >        4        3        4       10       12 </v>
   <v type="int" >        4        4       10       12       12 </v>
   <v type="int" >        4        4        4       12       14 </v>
   <v type="int" >        4        3       12       12       12 </v>
   <v type="int" >        4        3        4       12       12 </v>
   <v type="int" >        4        1        5        5        5 </v>
   <v type="int" >        2        5        5        5        5 </v>
  </varray>
  <i name="volumeweight">      0.00032552 </i>
 </kpoints>
 <parameters>
  <separator name="general" >
   <i type="string" name="SYSTEM">Fe BCC</i>
   <i type="logical" name="LCOMPAT"> F  </i>
  </separator>
  <separator name="electronic" >
   <i type="string" name="PREC">accura</i>
   <i name="ENMAX">    350.00000000</i>
   <i name="ENAUG">    511.36800000</i>
   <i name="EDIFF">      0.00000100</i>
   <i type="int" name="IALGO">    38</i>
   <i type="int" name="IWAVPR">    10</i>
   <i type="int" name="NBANDS">    12</i>
   <i name="NELECT">      8.00000000</i>
   <i type="int" name="TURBO">     0</i>
   <i type="int" name="IRESTART">     0</i>
   <i type="int" name="NREBOOT">     0</i>
   <i type="int" name="NMIN">     0</i>
   <i name="EREF">      0.00000000</i>
   <separator name="electronic smearing" >
    <i type="int" name="ISMEAR">    -5</i>
    <i name="SIGMA">      0.20000000</i>
    <i name="KSPACING">      0.50000000</i>
    <i type="logical" name="KGAMMA"> T  </i>
   </separator>
   <separator name="electronic projectors" >
    <i type="logical" name="LREAL"> F  </i>
    <v name="ROPT">      0.00000000</v>
    <i type="int" name="LMAXPAW">  -100</i>
    <i type="int" name="LMAXMIX">     2</i>
    <i type="logical" name="NLSPLINE"> F  </i>
   </separator>
   <separator name="electronic startup" >
    <i type="int" name="ISTART">     0</i>
    <i type="int" name="ICHARG">     2</i>
    <i type="int" name="INIWAV">     1</i>
   </separator>
   <separator name="electronic spin" >
    <i type="int" name="ISPIN">     2</i>
    <i type="logical" name="LNONCOLLINEAR"> F  </i>
    <v name="MAGMOM">      4.00000000</v>
    <i name="NUPDOWN">     -1.00000000</i>
    <i type="logical" name="LSORBIT"> F  </i>
    <v name="SAXIS">      0.00000000      0.00000000      1.00000000</v>
    <i type="logical" name="LSPIRAL"> F  </i>
    <v name="QSPIRAL">      0.00000000      0.00000000      0.00000000</v>
    <i type="logical" name="LZEROZ"> F  </i>
   </separator>
   <separator name="electronic exchange-correlation" >
    <i type="logical" name="LASPH"> F  </i>
    <i type="logical" name="LMETAGGA"> F  </i>
   </separator>
   <separator name="electronic convergence" >
    <i type="int" name="NELM">    60</i>
    <i type="int" name="NELMDL">    -5</i>
    <i type="int" name="NELMIN">     2</i>
    <i name="ENINI">    350.00000000</i>
    <separator name="electronic convergence detail" >
     <i type="logical" name="LDIAG"> T  </i>
     <i type="logical" name="LSUBROT"> F  </i>
     <i name="WEIMIN">      0.00000000</i>
     <i name="EBREAK">      0.00000002</i>
     <i name="DEPER">      0.30000000</i>
     <i type="int" name="NRMM">     4</i>
     <i name="TIME">      0.40000000</i>
    </separator>
   </separator>
   <separator name="electronic mixer" >
    <i name="AMIX">      0.40000000</i>
    <i name="BMIX">      1.00000000</i>
    <i name="AMIN">      0.10000000</i>
    <i name="AMIX_MAG">      1.60000000</i>
    <i name="BMIX_MAG">      1.00000000</i>
    <separator name="electronic mixer details" >
     <i type="int" name="IMIX">     4</i>
     <i type="logical" name="MIXFIRST"> F  </i>
     <i type="int" name="MAXMIX">   -45</i>
     <i name="WC">    100.00000000</i>
     <i type="int" name="INIMIX">     1</i>
     <i type="int" name="MIXPRE">     1</i>
     <i type="int" name="MREMOVE">     5</i>
    </separator>
   </separator>
   <separator name="electronic dipolcorrection" >
    <i type="logical" name="LDIPOL"> F  </i>
    <i type="logical" name="LMONO"> F  </i>
    <i type="int" name="IDIPOL">     0</i>
    <i name="EPSILON">      1.00000000</i>
    <v name="DIPOL">   -100.00000000   -100.00000000   -100.00000000</v>
    <i name="EFIELD">      0.00000000</i>
   </separator>
  </separator>
  <separator name="grids" >
   <i type="int" name="NGX">    16</i>
   <i type="int" name="NGY">    16</i>
   <i type="int" name="NGZ">    16</i>
   <i type="int" name="NGXF">    32</i>
   <i type="int" name="NGYF">    32</i>
   <i type="int" name="NGZF">    32</i>
   <i type="logical" name="ADDGRID"> F  </i>
  </separator>
  <separator name="ionic" >
   <i type="int" name="NSW">     0</i>
   <i type="int" name="IBRION">    -1</i>
   <i type="int" name="ISIF">     2</i>
   <i name="PSTRESS">      0.00000000</i>
   <i name="EDIFFG">      0.00001000</i>
   <i type="int" name="NFREE">     0</i>
   <i name="POTIM">      0.50000000</i>
   <i name="SMASS">     -3.00000000</i>
   <i name="SCALEE">      1.00000000</i>
  </separator>
  <separator name="ionic md" >
   <i name="TEBEG">      0.00010000</i>
   <i name="TEEND">      0.00010000</i>
   <i type="int" name="NBLOCK">     1</i>
   <i type="int" name="KBLOCK">     1</i>
   <i type="int" name="NPACO">   256</i>
   <i name="APACO">     16.00000000</i>
  </separator>
  <separator name="symmetry" >
   <i type="int" name="ISYM">     2</i>
   <i name="SYMPREC">      0.00001000</i>
  </separator>
  <separator name="dos" >
   <i type="logical" name="LORBIT"> F  </i>
   <v name="RWIGS">     -1.00000000</v>
   <i type="int" name="NEDOS">   301</i>
   <i name="EMIN">     10.00000000</i>
   <i name="EMAX">    -10.00000000</i>
   <i name="EFERMI">      0.00000000</i>
  </separator>
  <separator name="writing" >
   <i type="int" name="NWRITE">     2</i>
   <i type="logical" name="LWAVE"> T  </i>
   <i type="logical" name="LCHARG"> T  </i>
   <i type="logical" name="LPARD"> F  </i>
   <i type="logical" name="LVTOT"> F  </i>
   <i type="logical" name="LVHAR"> F  </i>
   <i type="logical" name="LELF"> F  </i>
   <i type="logical" name="LOPTICS"> F  </i>
   <v name="STM">      0.00000000      0.00000000      0.00000000      0.00000000      0.00000000      0.00000000      0.00000000</v>
  </separator>
  <separator name="performance" >
   <i type="int" name="NPAR">     4</i>
   <i type="int" name="NSIM">     4</i>
   <i type="int" name="NBLK">    -1</i>
   <i type="logical" name="LPLANE"> T  </i>
   <i type="logical" name="LSCALAPACK"> F  </i>
   <i type="logical" name="LSCAAWARE"> F  </i>
   <i type="logical" name="LSCALU"> F  </i>
   <i type="logical" name="LASYNC"> F  </i>
   <i type="logical" name="LORBITALREAL"> F  </i>
  </separator>
  <separator name="miscellaneous" >
   <i type="int" name="IDIOT">     3</i>
   <i type="logical" name="LMUSIC"> F  </i>
   <v name="POMASS">     55.84700000</v>
   <v name="DARWINR">      0.00000000</v>
   <v name="DARWINV">      1.00000000</v>
   <i type="logical" name="LCORR"> T  </i>
  </separator>
  <i type="logical" name="GGA_COMPAT"> T  </i>
  <i type="logical" name="LBERRY"> F  </i>
  <i type="int" name="ICORELEVEL">     0</i>
  <i type="logical" name="LDAU"> F  </i>
  <i type="int" name="I_CONSTRAINED_M">     0</i>
  <separator name="electronic exchange-correlation" >
   <i type="string" name="GGA">--</i>
   <i type="int" name="VOSKOWN">     0</i>
   <i type="logical" name="LHFCALC"> F  </i>
   <i type="string" name="PRECFOCK"></i>
   <i type="logical" name="LSYMGRAD"> F  </i>
   <i type="logical" name="LHFONE"> F  </i>
   <i type="logical" name="LRHFCALC"> F  </i>
   <i type="logical" name="LTHOMAS"> F  </i>
   <i type="logical" name="LMODELHF"> F  </i>
   <i name="ENCUT4O">     -1.00000000</i>
   <i type="int" name="EXXOEP">     0</i>
   <i type="int" name="FOURORBIT">     0</i>
   <i name="AEXX">      0.00000000</i>
   <i name="HFALPHA">      0.00000000</i>
   <i name="MCALPHA">      0.00000000</i>
   <i name="ALDAX">      1.00000000</i>
   <i name="AGGAX">      1.00000000</i>
   <i name="ALDAC">      1.00000000</i>
   <i name="AGGAC">      1.00000000</i>
   <i type="int" name="NKREDX">     1</i>
   <i type="int" name="NKREDY">     1</i>
   <i type="int" name="NKREDZ">     1</i>
   <i type="logical" name="SHIFTRED"> F  </i>
   <i type="logical" name="ODDONLY"> F  </i>
   <i type="logical" name="EVENONLY"> F  </i>
   <i type="int" name="LMAXFOCK">     0</i>
   <i type="int" name="NMAXFOCKAE">     0</i>
   <i type="logical" name="LFOCKAEDFT"> F  </i>
   <i name="HFSCREEN">      0.00000000</i>
   <i name="HFSCREENC">      0.00000000</i>
   <i type="int" name="NBANDSGWLOW">     0</i>
  </separator>
  <separator name="vdW DFT" >
   <i type="logical" name="LUSE_VDW"> F  </i>
   <i name="Zab_VDW">     -0.84910000</i>
   <i name="PARAM1">      0.12340000</i>
   <i name="PARAM2">      1.00000000</i>
   <i name="PARAM3">      0.00000000</i>
  </separator>
  <separator name="model GW" >
   <i type="int" name="MODEL_GW">     0</i>
   <i name="MODEL_EPS0">      6.94473750</i>
   <i name="MODEL_ALPHA">      1.00000000</i>
  </separator>
  <separator name="linear response parameters" >
   <i type="logical" name="LEPSILON"> F  </i>
   <i type="logical" name="LRPA"> F  </i>
   <i type="logical" name="LNABLA"> F  </i>
   <i type="logical" name="LVEL"> F  </i>
   <i type="int" name="KINTER">     0</i>
   <i name="CSHIFT">      0.10000000</i>
   <i name="OMEGAMAX">     -1.00000000</i>
   <i name="DEG_THRESHOLD">      0.00200000</i>
  </separator>
  <separator name="orbital magnetization" >
   <i type="logical" name="NUCIND"> F  </i>
   <v name="MAGPOS">      0.00000000      0.00000000      0.00000000</v>
   <i type="logical" name="LNICSALL"> T  </i>
   <i type="logical" name="ORBITALMAG"> F  </i>
   <i type="logical" name="LMAGBLOCH"> F  </i>
   <i type="logical" name="LCHIMAG"> F  </i>
   <i type="logical" name="LGAUGE"> T  </i>
   <i type="int" name="MAGATOM">     0</i>
   <v name="MAGDIPOL">      0.00000000      0.00000000      0.00000000</v>
   <v name="AVECCONST">      0.00000000      0.00000000      0.00000000</v>
  </separator>
  <separator name="response functions" >
   <i type="logical" name="LADDER"> F  </i>
   <i type="logical" name="LFXC"> F  </i>
   <i type="logical" name="LHARTREE"> T  </i>
   <i type="int" name="IBSE">     0</i>
   <v type="int" name="KPOINT">    -1     0     0     0</v>
   <i type="logical" name="LTCTE"> F  </i>
   <i type="logical" name="LTETE"> F  </i>
   <i type="logical" name="LTRIPLET"> F  </i>
   <i type="logical" name="LFXCEPS"> F  </i>
   <i type="logical" name="LFXHEG"> F  </i>
   <i type="int" name="NATURALO">     0</i>
   <i type="logical" name="L2ORDER"> F  </i>
   <i type="logical" name="LUSEW"> F  </i>
   <i name="ENCUTGW">     -2.00000000</i>
   <i name="ENCUTGWSOFT">     -2.00000000</i>
   <i name="ENCUTLF">     -1.00000000</i>
   <i type="int" name="LMAXMP2">    -1</i>
   <i name="SCISSOR">      0.00000000</i>
   <i type="int" name="NOMEGA">     0</i>
   <i type="int" name="NOMEGAR">     0</i>
   <i type="int" name="NBANDSGW">    -1</i>
   <i type="int" name="NBANDSO">    -1</i>
   <i type="int" name="NBANDSV">    -1</i>
   <i type="int" name="NELM">     1</i>
   <i type="int" name="NELMHF">     1</i>
   <i type="int" name="DIM">     3</i>
   <i type="int" name="ANTIRES">     0</i>
   <i name="OMEGAMAX">    -30.00000000</i>
   <i name="OMEGAMIN">    -30.00000000</i>
   <i name="OMEGATL">   -200.00000000</i>
   <i type="int" name="OMEGAGRID">     0</i>
   <i name="CSHIFT">     -0.10000000</i>
   <i type="logical" name="SELFENERGY"> F  </i>
   <i type="logical" name="LSPECTRAL"> F  </i>
   <i type="logical" name="LSPECTRALGW"> F  </i>
   <i type="logical" name="LSINGLES"> F  </i>
   <i type="logical" name="LFERMIGW"> F  </i>
   <i type="logical" name="ODDONLYGW"> F  </i>
   <i type="logical" name="EVENONLYGW"> F  </i>
   <i type="int" name="NKREDLFX">     1</i>
   <i type="int" name="NKREDLFY">     1</i>
   <i type="int" name="NKREDLFZ">     1</i>
   <i type="int" name="MAXMEM">  1800</i>
   <i type="int" name="TELESCOPE">     0</i>
   <i type="int" name="TAUPAR">     1</i>
   <i type="int" name="OMEGAPAR">    -1</i>
   <i name="LAMBDA">      1.00000000</i>
  </separator>
  <separator name="External order field" >
   <i name="OFIELD_KAPPA">      0.00000000</i>
   <v name="OFIELD_K">      0.00000000      0.00000000      0.00000000</v>
   <i name="OFIELD_Q6_NEAR">      0.00000000</i>
   <i name="OFIELD_Q6_FAR">      0.00000000</i>
   <i name="OFIELD_A">      0.00000000</i>
  </separator>
 </parameters>
 <atominfo>
  <atoms>       1 </atoms>
  <types>       1 </types>
  <array name="atoms" >
   <dimension dim="1">ion</dimension>
   <field type="string">element</field>
   <field type="int">atomtype</field>
   <set>
    <rc><c>Fe</c><c>   1</c></rc>
   </set>
  </array>
  <array name="atomtypes" >
   <dimension dim="1">type</dimension>
   <field type="int">atomspertype</field>
   <field type="string">element</field>
   <field>mass</field>
   <field>valence</field>
   <field type="string">pseudopotential</field>
   <set>
    <rc><c>   1</c><c>Fe</c><c>     55.84700000</c><c>      8.00000000</c><c>  PAW_PBE Fe 06Sep2000                  </c></rc>
   </set>
  </array>
 </atominfo>
 <structure name="initialpos" >
  <crystal>
   <varray name="basis" >
    <v>      -1.42500000       1.42500000       1.42500000 </v>
    <v>       1.42500000      -1.42500000       1.42500000 </v>
    <v>       1.42500000       1.42500000      -1.42500000 </v>
   </varray>
   <i name="volume">     11.57456250 </i>
   <varray name="rec_basis" >
    <v>       0.00000000       0.35087719       0.35087719 </v>
    <v>       0.35087719       0.00000000       0.35087719 </v>
    <v>       0.35087719       0.35087719       0.00000000 </v>
   </varray>
  </crystal>
  <varray name="positions" >
   <v>       0.00000000       0.00000000       0.00000000 </v>
  </varray>
 </structure>
 <calculation>
  <scstep>
   <time name="dav">    1.06    0.53</time>
   <time name="total">    1.16    0.58</time>
   <energy>
    <i name="alphaZ">     59.71178263 </i>
    <i name="ewald">   -588.39789044 </i>
    <i name="hartreedc">   -112.96750494 </i>
    <i name="XCdc">      5.94992066 </i>
    <i name="pawpsdc">    552.89180568 </i>
    <i name="pawaedc">   -560.64780826 </i>
    <i name="eentropy">      0.00000000 </i>
    <i name="bandstr">     63.60216754 </i>
    <i name="atom">    594.29482811 </i>
    <i name="e_fr_energy">     14.43730098 </i>
    <i name="e_wo_entrp">     14.43730098 </i>
    <i name="e_0_energy">     14.43730098 </i>
   </energy>
  </scstep>
  <scstep>
   <time name="dav">    1.03    0.52</time>
   <time name="total">    1.08    0.54</time>
   <energy>
    <i name="e_fr_energy">     -8.25702069 </i>
    <i name="e_wo_entrp">     -8.25702069 </i>
    <i name="e_0_energy">     -8.25702069 </i>
   </energy>
  </scstep>
  <scstep>
   <time name="dav">    1.14    0.57</time>
   <time name="total">    1.21    0.61</time>
   <energy>
    <i name="e_fr_energy">     -8.69480052 </i>
    <i name="e_wo_entrp">     -8.69480052 </i>
    <i name="e_0_energy">     -8.69480052 </i>
   </energy>
  </scstep>
  <scstep>
   <time name="dav">    1.48    0.74</time>
   <time name="total">    1.55    0.78</time>
   <energy>
    <i name="e_fr_energy">     -8.69640498 </i>
    <i name="e_wo_entrp">     -8.69640498 </i>
    <i name="e_0_energy">     -8.69640498 </i>
   </energy>
  </scstep>
  <scstep>
   <time name="dav">    1.11    0.56</time>
   <time name="total">    1.20    0.60</time>
   <energy>
    <i name="e_fr_energy">     -8.69641625 </i>
    <i name="e_wo_entrp">     -8.69641625 </i>
    <i name="e_0_energy">     -8.69641625 </i>
   </energy>
  </scstep>
  <scstep>
   <time name="dav">    1.08    0.54</time>
   <time name="total">    1.22    0.61</time>
   <energy>
    <i name="e_fr_energy">     -8.29879526 </i>
    <i name="e_wo_entrp">     -8.29879526 </i>
    <i name="e_0_energy">     -8.29879526 </i>
   </energy>
  </scstep>
  <scstep>
   <time name="dav">    1.51    0.76</time>
   <time name="total">    1.65    0.83</time>
   <energy>
    <i name="e_fr_energy">     -8.25373271 </i>
    <i name="e_wo_entrp">     -8.25373271 </i>
    <i name="e_0_energy">     -8.25373271 </i>
   </energy>
  </scstep>
  <scstep>
   <time name="dav">    1.13    0.57</time>
   <time name="total">    1.27    0.63</time>
   <energy>
    <i name="e_fr_energy">     -8.24546997 </i>
    <i name="e_wo_entrp">     -8.24546997 </i>
    <i name="e_0_energy">     -8.24546997 </i>
   </energy>
  </scstep>
  <scstep>
   <time name="dav">    1.25    0.62</time>
   <time name="total">    1.38    0.69</time>
   <energy>
    <i name="e_fr_energy">     -8.23949261 </i>
    <i name="e_wo_entrp">     -8.23949261 </i>
    <i name="e_0_energy">     -8.23949261 </i>
   </energy>
  </scstep>
  <scstep>
   <time name="dav">    1.48    0.74</time>
   <time name="total">    1.62    0.81</time>
   <energy>
    <i name="e_fr_energy">     -8.23946096 </i>
    <i name="e_wo_entrp">     -8.23946096 </i>
    <i name="e_0_energy">     -8.23946096 </i>
   </energy>
  </scstep>
  <scstep>
   <time name="dav">    1.08    0.54</time>
   <time name="total">    1.21    0.61</time>
   <energy>
    <i name="e_fr_energy">     -8.23948724 </i>
    <i name="e_wo_entrp">     -8.23948724 </i>
    <i name="e_0_energy">     -8.23948724 </i>
   </energy>
  </scstep>
  <scstep>
   <time name="dav">    1.10    0.55</time>
   <time name="total">    1.24    0.62</time>
   <energy>
    <i name="e_fr_energy">     -8.23949376 </i>
    <i name="e_wo_entrp">     -8.23949376 </i>
    <i name="e_0_energy">     -8.23949376 </i>
   </energy>
  </scstep>
  <scstep>
   <time name="dav">    0.63    0.32</time>
   <time name="total">    0.76    0.38</time>
   <energy>
    <i name="e_fr_energy">     -8.23949183 </i>
    <i name="e_wo_entrp">     -8.23949183 </i>
    <i name="e_0_energy">     -8.23949183 </i>
   </energy>
  </scstep>
  <scstep>
   <time name="dav">    1.05    0.53</time>
   <time name="total">    1.16    0.58</time>
   <energy>
    <i name="alphaZ">     59.71178263 </i>
    <i name="ewald">   -588.39789044 </i>
    <i name="hartreedc">    -96.47798887 </i>
    <i name="XCdc">      4.29784488 </i>
    <i name="pawpsdc">    712.16765760 </i>
    <i name="pawaedc">   -721.21385143 </i>
    <i name="eentropy">      0.00000000 </i>
    <i name="bandstr">     27.37812568 </i>
    <i name="atom">    594.29482811 </i>
    <i name="e_fr_energy">     -8.23949183 </i>
    <i name="e_wo_entrp">     -8.23949183 </i>
    <i name="e_0_energy">     -8.23949183 </i>
   </energy>
  </scstep>
  <structure>
   <crystal>
    <varray name="basis" >
     <v>      -1.42500000       1.42500000       1.42500000 </v>
     <v>       1.42500000      -1.42500000       1.42500000 </v>
     <v>       1.42500000       1.42500000      -1.42500000 </v>
    </varray>
    <i name="volume">     11.57456250 </i>
    <varray name="rec_basis" >
     <v>       0.00000000       0.35087719       0.35087719 </v>
     <v>       0.35087719       0.00000000       0.35087719 </v>
     <v>       0.35087719       0.35087719       0.00000000 </v>
    </varray>
   </crystal>
   <varray name="positions" >
    <v>       0.00000000       0.00000000       0.00000000 </v>
   </varray>
  </structure>
  <varray name="forces" >
   <v>      -0.00000000      -0.00000000       0.00000000 </v>
  </varray>
  <varray name="stress" >
   <v>     -40.29919303       0.00000000      -0.00000000 </v>
   <v>      -0.00000000     -40.29919303       0.00000000 </v>
   <v>       0.00000000      -0.00000000     -40.29919303 </v>
  </varray>
  <energy>
   <i name="e_fr_energy">     -8.23949183 </i>
   <i name="e_wo_entrp">     -8.23949183 </i>
   <i name="e_0_energy">      0.00000000 </i>
  </energy>
  <time name="totalsc">   18.29    9.16</time>
  <eigenvalues>
   <array>
    <dimension dim="1">band</dimension>
    <dimension dim="2">kpoint</dimension>
    <dimension dim="3">spin</dimension>
    <field>eigene</field>
    <field>occ</field>
    <set>
     <set comment="spin 1">
      <set comment="kpoint 1">
       <r>   -1.7335    1.0000 </r>
       <r>    3.1436    1.0000 </r>
       <r>    3.1436    1.0000 </r>
       <r>    3.9273    1.0000 </r>
       <r>    4.5026    1.0000 </r>
       <r>    4.5026    1.0034 </r>
       <r>   26.8399    0.0000 </r>
       <r>   26.8399    0.0000 </r>
       <r>   30.6259    0.0000 </r>
       <r>   31.3756    0.0000 </r>
       <r>   36.2694    0.0000 </r>
       <r>   36.2694    0.0000 </r>
      </set>
      <set comment="kpoint 2">
       <r>   -0.1555    1.0000 </r>
       <r>    2.7445    1.0000 </r>
       <r>    2.9519    1.0000 </r>
       <r>    4.4424    1.0000 </r>
       <r>    4.6223    1.0009 </r>
       <r>    4.9271    0.8832 </r>
       <r>   21.4159    0.0000 </r>
       <r>   24.5010    0.0000 </r>
       <r>   26.7856    0.0000 </r>
       <r>   31.6820    0.0000 </r>
       <r>   35.6992    0.0000 </r>
       <r>   36.9158    0.0000 </r>
      </set>
      <set comment="kpoint 3">
       <r>    0.9749    1.0000 </r>
       <r>    2.4026    1.0000 </r>
       <r>    3.7208    1.0000 </r>
       <r>    4.5811    1.0000 </r>
       <r>    4.7170    1.0332 </r>
       <r>    6.3332    0.0110 </r>
       <r>   15.9675    0.0000 </r>
       <r>   22.8087    0.0000 </r>
       <r>   24.4678    0.0000 </r>
       <r>   31.1414    0.0000 </r>
       <r>   35.0077    0.0000 </r>
       <r>   40.2260    0.0000 </r>
      </set>
      <set comment="kpoint 4">
       <r>    1.0309    1.0000 </r>
       <r>    2.2712    1.0000 </r>
       <r>    4.6429    1.0000 </r>
       <r>    4.7021    1.0000 </r>
       <r>    4.7557    1.0800 </r>
       <r>    7.7211   -0.0049 </r>
       <r>   12.8756    0.0000 </r>
       <r>   22.1891    0.0000 </r>
       <r>   23.6040    0.0000 </r>
       <r>   30.9060    0.0000 </r>
       <r>   34.9024    0.0000 </r>
       <r>   40.1707    0.0000 </r>
      </set>
      <set comment="kpoint 5">
       <r>   -2.3434    1.0000 </r>
       <r>    3.3417    1.0000 </r>
       <r>    3.3417    1.0000 </r>
       <r>    3.4275    1.0000 </r>
       <r>    4.4291    1.0000 </r>
       <r>    4.6229    1.0000 </r>
       <r>   28.7806    0.0000 </r>
       <r>   30.1065    0.0000 </r>
       <r>   30.1065    0.0000 </r>
       <r>   33.1585    0.0000 </r>
       <r>   35.2593    0.0000 </r>
       <r>   35.2593    0.0000 </r>
      </set>
      <set comment="kpoint 6">
       <r>    1.3065    1.0000 </r>
       <r>    2.4713    1.0000 </r>
       <r>    2.6685    1.0000 </r>
       <r>    4.5216    1.0000 </r>
       <r>    4.7492    1.0008 </r>
       <r>    6.5351   -0.0081 </r>
       <r>   18.9198    0.0000 </r>
       <r>   19.7129    0.0000 </r>
       <r>   23.5924    0.0000 </r>
       <r>   33.6020    0.0000 </r>
       <r>   37.2032    0.0000 </r>
       <r>   39.5973    0.0000 </r>
      </set>
      <set comment="kpoint 7">
       <r>    1.6455    1.0000 </r>
       <r>    2.3088    1.0000 </r>
       <r>    3.2982    1.0000 </r>
       <r>    4.6587    1.0000 </r>
       <r>    4.8436    1.0098 </r>
       <r>    8.9811   -0.0036 </r>
       <r>   14.2955    0.0000 </r>
       <r>   18.1487    0.0000 </r>
       <r>   22.3222    0.0000 </r>
       <r>   33.9475    0.0000 </r>
       <r>   38.2546    0.0000 </r>
       <r>   40.1997    0.0000 </r>
      </set>
      <set comment="kpoint 8">
       <r>   -1.1640    1.0000 </r>
       <r>    3.0817    1.0000 </r>
       <r>    3.2720    1.0000 </r>
       <r>    4.0306    1.0000 </r>
       <r>    4.1951    1.0000 </r>
       <r>    4.7198    1.0108 </r>
       <r>   24.2908    0.0000 </r>
       <r>   27.6738    0.0000 </r>
       <r>   28.5145    0.0000 </r>
       <r>   32.5417    0.0000 </r>
       <r>   32.6925    0.0000 </r>
       <r>   34.2577    0.0000 </r>
      </set>
      <set comment="kpoint 9">
       <r>    1.9583    1.0000 </r>
       <r>    2.6641    1.0000 </r>
       <r>    2.6641    1.0000 </r>
       <r>    4.7937    1.0000 </r>
       <r>    4.7937    1.0000 </r>
       <r>   12.4836    0.0000 </r>
       <r>   12.4836    0.0000 </r>
       <r>   14.9454    0.0000 </r>
       <r>   21.8539    0.0000 </r>
       <r>   36.3821    0.0000 </r>
       <r>   36.3821    0.0000 </r>
       <r>   43.4319    0.0000 </r>
      </set>
      <set comment="kpoint 10">
       <r>    0.4583    1.0000 </r>
       <r>    2.6944    1.0000 </r>
       <r>    3.3350    1.0000 </r>
       <r>    4.3959    1.0000 </r>
       <r>    4.9012    1.0174 </r>
       <r>    5.0203    0.7095 </r>
       <r>   18.5189    0.0000 </r>
       <r>   25.2806    0.0000 </r>
       <r>   26.3632    0.0000 </r>
       <r>   30.8519    0.0000 </r>
       <r>   32.7252    0.0000 </r>
       <r>   35.6321    0.0000 </r>
      </set>
      <set comment="kpoint 11">
       <r>    0.2721    1.0000 </r>
       <r>    2.8732    1.0000 </r>
       <r>    3.0724    1.0000 </r>
       <r>    4.0738    1.0000 </r>
       <r>    4.7497    1.0018 </r>
       <r>    5.0980    0.7604 </r>
       <r>   21.4986    0.0000 </r>
       <r>   22.4579    0.0000 </r>
       <r>   28.9770    0.0000 </r>
       <r>   29.1867    0.0000 </r>
       <r>   32.9364    0.0000 </r>
       <r>   37.5532    0.0000 </r>
      </set>
      <set comment="kpoint 12">
       <r>    0.9101    1.0000 </r>
       <r>    2.4313    1.0000 </r>
       <r>    4.0956    1.0000 </r>
       <r>    4.5585    1.0000 </r>
       <r>    5.8156    0.4887 </r>
       <r>    6.2651    0.0009 </r>
       <r>   13.7798    0.0000 </r>
       <r>   23.9167    0.0000 </r>
       <r>   24.7473    0.0000 </r>
       <r>   30.1413    0.0000 </r>
       <r>   32.9759    0.0000 </r>
       <r>   37.3339    0.0000 </r>
      </set>
      <set comment="kpoint 13">
       <r>    1.3136    1.0000 </r>
       <r>    2.5746    1.0000 </r>
       <r>    3.1404    1.0000 </r>
       <r>    4.3680    1.0000 </r>
       <r>    5.1328    1.0246 </r>
       <r>    6.8187   -0.0359 </r>
       <r>   16.3447    0.0000 </r>
       <r>   20.2425    0.0000 </r>
       <r>   26.7889    0.0000 </r>
       <r>   29.9596    0.0000 </r>
       <r>   33.5723    0.0000 </r>
       <r>   38.0747    0.0000 </r>
      </set>
      <set comment="kpoint 14">
       <r>    1.3488    1.0000 </r>
       <r>    2.5650    1.0000 </r>
       <r>    3.3114    1.0000 </r>
       <r>    4.4700    1.0000 </r>
       <r>    5.4779    0.8867 </r>
       <r>    8.8232   -0.0018 </r>
       <r>   12.9798    0.0000 </r>
       <r>   19.5511    0.0000 </r>
       <r>   25.9551    0.0000 </r>
       <r>   30.2924    0.0000 </r>
       <r>   34.5611    0.0000 </r>
       <r>   37.3802    0.0000 </r>
      </set>
      <set comment="kpoint 15">
       <r>    2.0267    1.0000 </r>
       <r>    2.2795    1.0000 </r>
       <r>    2.8093    1.0000 </r>
       <r>    4.6615    1.0000 </r>
       <r>    5.1073    1.0378 </r>
       <r>   10.0426   -0.0006 </r>
       <r>   14.4258    0.0000 </r>
       <r>   15.7534    0.0000 </r>
       <r>   27.1744    0.0000 </r>
       <r>   30.3785    0.0000 </r>
       <r>   32.5567    0.0000 </r>
       <r>   39.5867    0.0000 </r>
      </set>
      <set comment="kpoint 16">
       <r>    2.2937    1.0000 </r>
       <r>    2.2937    1.0000 </r>
       <r>    2.4624    1.0000 </r>
       <r>    4.7327    1.0000 </r>
       <r>    4.7327    1.0000 </r>
       <r>    8.9598   -0.0045 </r>
       <r>   17.2797    0.0000 </r>
       <r>   17.2797    0.0000 </r>
       <r>   18.5727    0.0000 </r>
       <r>   38.2842    0.0000 </r>
       <r>   40.9223    0.0000 </r>
       <r>   40.9223    0.0000 </r>
      </set>
      <set comment="kpoint 17">
       <r>    2.1807    1.0000 </r>
       <r>    2.2564    1.0000 </r>
       <r>    2.9043    1.0000 </r>
       <r>    4.7657    1.0000 </r>
       <r>    4.7799    1.0000 </r>
       <r>   11.7787    0.0000 </r>
       <r>   13.5945    0.0000 </r>
       <r>   16.7164    0.0000 </r>
       <r>   17.6580    0.0000 </r>
       <r>   39.3097    0.0000 </r>
       <r>   42.6796    0.0000 </r>
       <r>   43.0707    0.0000 </r>
      </set>
      <set comment="kpoint 18">
       <r>   -0.1308    1.0000 </r>
       <r>    3.4313    1.0000 </r>
       <r>    3.4929    1.0000 </r>
       <r>    3.4929    1.0000 </r>
       <r>    4.0445    1.0000 </r>
       <r>    5.0762    0.9059 </r>
       <r>   24.4393    0.0000 </r>
       <r>   25.3752    0.0000 </r>
       <r>   25.3752    0.0000 </r>
       <r>   27.3082    0.0000 </r>
       <r>   36.7182    0.0000 </r>
       <r>   36.7182    0.0000 </r>
      </set>
      <set comment="kpoint 19">
       <r>    1.1619    1.0000 </r>
       <r>    2.6836    1.0000 </r>
       <r>    3.3576    1.0000 </r>
       <r>    4.0054    1.0000 </r>
       <r>    4.9066    1.0329 </r>
       <r>    5.9296    0.1112 </r>
       <r>   19.3704    0.0000 </r>
       <r>   22.7746    0.0000 </r>
       <r>   23.9770    0.0000 </r>
       <r>   27.9052    0.0000 </r>
       <r>   35.7823    0.0000 </r>
       <r>   37.5047    0.0000 </r>
      </set>
      <set comment="kpoint 20">
       <r>    1.4454    1.0000 </r>
       <r>    2.6183    1.0000 </r>
       <r>    3.1640    1.0000 </r>
       <r>    4.2166    1.0000 </r>
       <r>    5.7362    0.3553 </r>
       <r>    8.4044   -0.0113 </r>
       <r>   14.2994    0.0000 </r>
       <r>   21.1669    0.0000 </r>
       <r>   23.1376    0.0000 </r>
       <r>   30.4280    0.0000 </r>
       <r>   34.8536    0.0000 </r>
       <r>   35.5044    0.0000 </r>
      </set>
      <set comment="kpoint 21">
       <r>    1.7587    1.0000 </r>
       <r>    2.0699    1.0000 </r>
       <r>    3.4368    1.0000 </r>
       <r>    4.3937    1.0000 </r>
       <r>    5.3216    1.0649 </r>
       <r>    8.2806   -0.0151 </r>
       <r>   17.2369    0.0000 </r>
       <r>   17.8440    0.0000 </r>
       <r>   25.4024    0.0000 </r>
       <r>   26.8989    0.0000 </r>
       <r>   34.4991    0.0000 </r>
       <r>   37.3935    0.0000 </r>
      </set>
      <set comment="kpoint 22">
       <r>    1.7121    1.0000 </r>
       <r>    2.0803    1.0000 </r>
       <r>    3.2467    1.0000 </r>
       <r>    4.6976    1.0000 </r>
       <r>    5.5479    0.7601 </r>
       <r>   11.2716    0.0000 </r>
       <r>   13.4540    0.0000 </r>
       <r>   16.8631    0.0000 </r>
       <r>   25.4078    0.0000 </r>
       <r>   28.5659    0.0000 </r>
       <r>   31.9763    0.0000 </r>
       <r>   36.4004    0.0000 </r>
      </set>
      <set comment="kpoint 23">
       <r>    1.5475    1.0000 </r>
       <r>    2.0251    1.0000 </r>
       <r>    4.2506    1.0000 </r>
       <r>    4.2506    1.0000 </r>
       <r>    4.9414    1.1681 </r>
       <r>    7.6529   -0.0220 </r>
       <r>   19.8515    0.0000 </r>
       <r>   19.8515    0.0000 </r>
       <r>   22.1188    0.0000 </r>
       <r>   24.1525    0.0000 </r>
       <r>   35.8370    0.0000 </r>
       <r>   40.6620    0.0000 </r>
      </set>
      <set comment="kpoint 24">
       <r>    1.4497    1.0000 </r>
       <r>    1.5793    1.0000 </r>
       <r>    4.3860    1.0000 </r>
       <r>    4.6627    1.0000 </r>
       <r>    5.6264    0.2921 </r>
       <r>   10.7572    0.0000 </r>
       <r>   15.4870    0.0000 </r>
       <r>   18.0477    0.0000 </r>
       <r>   22.2862    0.0000 </r>
       <r>   25.1621    0.0000 </r>
       <r>   31.1834    0.0000 </r>
       <r>   40.1467    0.0000 </r>
      </set>
      <set comment="kpoint 25">
       <r>    1.3127    1.0000 </r>
       <r>    1.3127    1.0000 </r>
       <r>    4.4908    1.0000 </r>
       <r>    5.4745    1.0000 </r>
       <r>    5.4745    1.0673 </r>
       <r>   14.1398    0.0000 </r>
       <r>   14.1398    0.0000 </r>
       <r>   15.2574    0.0000 </r>
       <r>   23.7589    0.0000 </r>
       <r>   23.7589    0.0000 </r>
       <r>   28.6470    0.0000 </r>
       <r>   40.6886    0.0000 </r>
      </set>
      <set comment="kpoint 26">
       <r>    1.0556    1.0000 </r>
       <r>    1.0561    1.0000 </r>
       <r>    5.4347    1.0000 </r>
       <r>    5.4347    1.0000 </r>
       <r>    5.5921    0.2325 </r>
       <r>   13.5379    0.0000 </r>
       <r>   16.0481    0.0000 </r>
       <r>   16.0481    0.0000 </r>
       <r>   21.2365    0.0000 </r>
       <r>   22.4023    0.0000 </r>
       <r>   27.1361    0.0000 </r>
       <r>   43.8904    0.0000 </r>
      </set>
     </set>
     <set comment="spin 2">
      <set comment="kpoint 1">
       <r>   -1.6188    1.0000 </r>
       <r>    5.0772    1.0000 </r>
       <r>    5.0772    1.0000 </r>
       <r>    5.9602   -0.0238 </r>
       <r>    7.1964    0.0000 </r>
       <r>    7.1964    0.0000 </r>
       <r>   26.9878    0.0000 </r>
       <r>   26.9878    0.0000 </r>
       <r>   31.0415    0.0000 </r>
       <r>   31.4574    0.0000 </r>
       <r>   36.5522    0.0000 </r>
       <r>   36.5522    0.0000 </r>
      </set>
      <set comment="kpoint 2">
       <r>    0.0512    1.0000 </r>
       <r>    4.5895    1.0000 </r>
       <r>    4.7545    1.0000 </r>
       <r>    7.0022   -0.0009 </r>
       <r>    7.0521    0.0000 </r>
       <r>    7.3517    0.0000 </r>
       <r>   21.9804    0.0000 </r>
       <r>   24.7736    0.0000 </r>
       <r>   27.4974    0.0000 </r>
       <r>   31.5802    0.0000 </r>
       <r>   36.2446    0.0000 </r>
       <r>   37.1295    0.0000 </r>
      </set>
      <set comment="kpoint 3">
       <r>    1.8480    1.0000 </r>
       <r>    4.1700    1.0000 </r>
       <r>    4.8712    1.0074 </r>
       <r>    7.1453    0.0000 </r>
       <r>    7.4901    0.0000 </r>
       <r>    8.2830    0.0000 </r>
       <r>   16.9015    0.0000 </r>
       <r>   23.0694    0.0000 </r>
       <r>   25.0869    0.0000 </r>
       <r>   31.2937    0.0000 </r>
       <r>   35.5377    0.0000 </r>
       <r>   40.3742    0.0000 </r>
      </set>
      <set comment="kpoint 4">
       <r>    2.3263    1.0000 </r>
       <r>    4.0093    1.0000 </r>
       <r>    5.6352    0.8974 </r>
       <r>    7.2169    0.0000 </r>
       <r>    7.5499    0.0000 </r>
       <r>    9.1391    0.0000 </r>
       <r>   14.2130    0.0000 </r>
       <r>   22.4280    0.0000 </r>
       <r>   24.1740    0.0000 </r>
       <r>   31.1350    0.0000 </r>
       <r>   35.4566    0.0000 </r>
       <r>   40.1412    0.0000 </r>
      </set>
      <set comment="kpoint 5">
       <r>   -2.2365    1.0000 </r>
       <r>    5.3136    1.0000 </r>
       <r>    5.3136    1.0000 </r>
       <r>    5.4215    0.3783 </r>
       <r>    7.1119    0.0000 </r>
       <r>    7.3623    0.0000 </r>
       <r>   28.6310    0.0000 </r>
       <r>   29.9522    0.0000 </r>
       <r>   29.9522    0.0000 </r>
       <r>   33.5041    0.0000 </r>
       <r>   36.0047    0.0000 </r>
       <r>   36.0047    0.0000 </r>
      </set>
      <set comment="kpoint 6">
       <r>    1.8312    1.0000 </r>
       <r>    4.1959    1.0000 </r>
       <r>    4.3030    1.0001 </r>
       <r>    7.1289    0.0000 </r>
       <r>    7.4839    0.0000 </r>
       <r>    8.4744    0.0000 </r>
       <r>   19.5891    0.0000 </r>
       <r>   20.3288    0.0000 </r>
       <r>   24.1501    0.0000 </r>
       <r>   33.4937    0.0000 </r>
       <r>   37.4767    0.0000 </r>
       <r>   39.8607    0.0000 </r>
      </set>
      <set comment="kpoint 7">
       <r>    2.9378    1.0000 </r>
       <r>    3.9622    1.0000 </r>
       <r>    4.5448    1.0025 </r>
       <r>    7.2686    0.0000 </r>
       <r>    7.5549    0.0000 </r>
       <r>   10.3968    0.0000 </r>
       <r>   15.3098    0.0000 </r>
       <r>   18.7813    0.0000 </r>
       <r>   22.8380    0.0000 </r>
       <r>   33.9800    0.0000 </r>
       <r>   38.3261    0.0000 </r>
       <r>   40.5790    0.0000 </r>
      </set>
      <set comment="kpoint 8">
       <r>   -1.0301    1.0000 </r>
       <r>    4.9952    1.0000 </r>
       <r>    5.1899    1.0000 </r>
       <r>    6.0857   -0.0122 </r>
       <r>    6.7605    0.0000 </r>
       <r>    7.4685    0.0000 </r>
       <r>   24.6707    0.0000 </r>
       <r>   27.7515    0.0000 </r>
       <r>   28.8435    0.0000 </r>
       <r>   32.9168    0.0000 </r>
       <r>   33.2176    0.0000 </r>
       <r>   34.6222    0.0000 </r>
      </set>
      <set comment="kpoint 9">
       <r>    3.4962    1.0000 </r>
       <r>    4.0918    1.0000 </r>
       <r>    4.0918    1.0001 </r>
       <r>    7.4434    0.0000 </r>
       <r>    7.4434    0.0000 </r>
       <r>   13.5055    0.0000 </r>
       <r>   13.5055    0.0000 </r>
       <r>   15.8346    0.0000 </r>
       <r>   22.3900    0.0000 </r>
       <r>   36.3699    0.0000 </r>
       <r>   36.3699    0.0000 </r>
       <r>   44.1136    0.0000 </r>
      </set>
      <set comment="kpoint 10">
       <r>    0.9078    1.0000 </r>
       <r>    4.5286    1.0000 </r>
       <r>    4.9216    1.0018 </r>
       <r>    6.8257    0.0000 </r>
       <r>    7.1964    0.0000 </r>
       <r>    7.5871    0.0000 </r>
       <r>   19.2894    0.0000 </r>
       <r>   25.3647    0.0000 </r>
       <r>   26.9419    0.0000 </r>
       <r>   31.2808    0.0000 </r>
       <r>   33.2039    0.0000 </r>
       <r>   35.8696    0.0000 </r>
      </set>
      <set comment="kpoint 11">
       <r>    0.5461    1.0000 </r>
       <r>    4.7767    1.0000 </r>
       <r>    4.8865    1.0018 </r>
       <r>    6.4862   -0.0005 </r>
       <r>    6.9347    0.0000 </r>
       <r>    7.6979    0.0000 </r>
       <r>   22.0669    0.0000 </r>
       <r>   23.0014    0.0000 </r>
       <r>   29.1606    0.0000 </r>
       <r>   29.6505    0.0000 </r>
       <r>   33.2968    0.0000 </r>
       <r>   37.8441    0.0000 </r>
      </set>
      <set comment="kpoint 12">
       <r>    2.1112    1.0000 </r>
       <r>    4.2152    1.0000 </r>
       <r>    5.5005    0.9867 </r>
       <r>    7.0369    0.0000 </r>
       <r>    7.9592    0.0000 </r>
       <r>    8.1110    0.0000 </r>
       <r>   14.9834    0.0000 </r>
       <r>   23.9702    0.0000 </r>
       <r>   25.2994    0.0000 </r>
       <r>   30.6085    0.0000 </r>
       <r>   33.5308    0.0000 </r>
       <r>   37.4063    0.0000 </r>
      </set>
      <set comment="kpoint 13">
       <r>    2.2556    1.0000 </r>
       <r>    4.3365    1.0000 </r>
       <r>    4.7324    1.0055 </r>
       <r>    6.7388    0.0000 </r>
       <r>    7.5920    0.0000 </r>
       <r>    8.6903    0.0000 </r>
       <r>   17.2343    0.0000 </r>
       <r>   20.8194    0.0000 </r>
       <r>   27.1005    0.0000 </r>
       <r>   30.3009    0.0000 </r>
       <r>   33.8544    0.0000 </r>
       <r>   38.4657    0.0000 </r>
      </set>
      <set comment="kpoint 14">
       <r>    2.7406    1.0000 </r>
       <r>    4.3299    1.0000 </r>
       <r>    4.8209    1.0093 </r>
       <r>    6.8942    0.0000 </r>
       <r>    7.8206    0.0000 </r>
       <r>   10.0714    0.0000 </r>
       <r>   14.2483    0.0000 </r>
       <r>   20.1157    0.0000 </r>
       <r>   26.2331    0.0000 </r>
       <r>   30.7212    0.0000 </r>
       <r>   34.6187    0.0000 </r>
       <r>   37.8693    0.0000 </r>
      </set>
      <set comment="kpoint 15">
       <r>    3.4419    1.0000 </r>
       <r>    3.9458    1.0000 </r>
       <r>    4.4418    1.0058 </r>
       <r>    7.0292    0.0000 </r>
       <r>    7.5094    0.0000 </r>
       <r>   11.3389    0.0000 </r>
       <r>   15.3880    0.0000 </r>
       <r>   16.5575    0.0000 </r>
       <r>   27.6186    0.0000 </r>
       <r>   30.5327    0.0000 </r>
       <r>   32.7264    0.0000 </r>
       <r>   40.4130    0.0000 </r>
      </set>
      <set comment="kpoint 16">
       <r>    3.3390    1.0000 </r>
       <r>    3.8883    1.0000 </r>
[...]
       </set>
       <set comment="band 5">
        <r>  0.0063  0.0012  0.0012  0.0096  0.0922  0.3237  0.1130  0.0922  0.3391 </r>
       </set>
       <set comment="band 6">
        <r>  0.0581  0.0420  0.0420  0.2063  0.0920  0.1429  0.0518  0.0920  0.1554 </r>
       </set>
       <set comment="band 7">
        <r>  0.0000  0.1949  0.1949  0.0000  0.1337  0.0000  0.1420  0.1337  0.0473 </r>
       </set>
       <set comment="band 8">
        <r>  0.4531  0.0414  0.0414  0.0268  0.0774  0.0876  0.0015  0.0774  0.0044 </r>
       </set>
       <set comment="band 9">
        <r>  0.0259  0.1827  0.1827  0.0886  0.0507  0.0829  0.0004  0.0507  0.0013 </r>
       </set>
       <set comment="band 10">
        <r>  0.0000  0.0441  0.0441  0.0000  0.0497  0.0000  0.2927  0.0497  0.0976 </r>
       </set>
       <set comment="band 11">
        <r>  0.0268  0.0099  0.0099  0.0282  0.0213  0.1374  0.0899  0.0213  0.2696 </r>
       </set>
       <set comment="band 12">
        <r>  0.1142  0.0364  0.0364  0.1742  0.2157  0.2290  0.0185  0.2157  0.0555 </r>
       </set>
      </set>
      <set comment="kpoint 16">
       <set comment="band 1">
        <r>  0.1504  0.0856  0.0856  0.0856  0.1308  0.1308  0.0000  0.1308  0.0000 </r>
       </set>
       <set comment="band 2">
        <r>  0.0000  0.0315  0.0412  0.0026  0.4335  0.0273  0.0357  0.3314  0.0078 </r>
       </set>
       <set comment="band 3">
        <r>  0.0000  0.0187  0.0090  0.0476  0.0946  0.5008  0.0078  0.1967  0.0357 </r>
       </set>
       <set comment="band 4">
        <r>  0.0000  0.0000  0.0000  0.0000  0.0059  0.0168  0.1448  0.0342  0.7808 </r>
       </set>
       <set comment="band 5">
        <r>  0.0000  0.0000  0.0000  0.0000  0.0321  0.0212  0.7808  0.0037  0.1448 </r>
       </set>
       <set comment="band 6">
        <r>  0.0695  0.0568  0.0568  0.0568  0.2224  0.2224  0.0000  0.2224  0.0000 </r>
       </set>
       <set comment="band 7">
        <r>  0.0000  0.0160  0.2049  0.1091  0.2504  0.1334  0.0367  0.0195  0.0027 </r>
       </set>
       <set comment="band 8">
        <r>  0.0000  0.2040  0.0151  0.1109  0.0185  0.1355  0.0027  0.2493  0.0367 </r>
       </set>
       <set comment="band 9">
        <r>  0.5620  0.0771  0.0771  0.0771  0.0012  0.0012  0.0000  0.0012  0.0000 </r>
       </set>
       <set comment="band 10">
        <r>  0.0000  0.0000  0.0000  0.0000  0.0000  0.0000  0.0000  0.0000  0.0000 </r>
       </set>
       <set comment="band 11">
        <r>  0.0000  0.0019  0.0051  0.0008  0.3442  0.0547  0.0685  0.1298  0.0016 </r>
       </set>
       <set comment="band 12">
        <r>  0.0000  0.0033  0.0001  0.0044  0.0082  0.2977  0.0016  0.2226  0.0686 </r>
       </set>
      </set>
      <set comment="kpoint 17">
       <set comment="band 1">
        <r>  0.0331  0.0000  0.0000  0.1246  0.0000  0.6733  0.0119  0.0000  0.0358 </r>
       </set>
       <set comment="band 2">
        <r>  0.0000  0.0425  0.0425  0.0000  0.4126  0.0000  0.0000  0.4126  0.0000 </r>
       </set>
       <set comment="band 3">
        <r>  0.0000  0.1157  0.1157  0.0000  0.3132  0.0000  0.0000  0.3132  0.0000 </r>
       </set>
       <set comment="band 4">
        <r>  0.0003  0.0000  0.0000  0.0002  0.0000  0.0664  0.2294  0.0000  0.6881 </r>
       </set>
       <set comment="band 5">
        <r>  0.0000  0.0000  0.0000  0.0000  0.0000  0.0000  0.7396  0.0000  0.2465 </r>
       </set>
       <set comment="band 6">
        <r>  0.0000  0.1729  0.1729  0.0000  0.2434  0.0000  0.0000  0.2434  0.0000 </r>
       </set>
       <set comment="band 7">
        <r>  0.2365  0.0000  0.0000  0.1771  0.0000  0.4011  0.0070  0.0000  0.0209 </r>
       </set>
       <set comment="band 8">
        <r>  0.0000  0.1683  0.1683  0.0000  0.2167  0.0000  0.0000  0.2167  0.0000 </r>
       </set>
       <set comment="band 9">
        <r>  0.5245  0.0000  0.0000  0.2076  0.0000  0.0492  0.0019  0.0000  0.0058 </r>
       </set>
       <set comment="band 10">
        <r>  0.0000  0.0002  0.0002  0.0000  0.1186  0.0000  0.0000  0.1186  0.0000 </r>
       </set>
       <set comment="band 11">
        <r>  0.0000  0.0254  0.0254  0.0000  0.0591  0.0000  0.0000  0.0591  0.0000 </r>
       </set>
       <set comment="band 12">
        <r>  0.0123  0.0000  0.0000  0.0950  0.0000  0.1180  0.1055  0.0000  0.3167 </r>
       </set>
      </set>
      <set comment="kpoint 18">
       <set comment="band 1">
        <r>  0.5077  0.0000  0.0000  0.1697  0.0000  0.0000  0.0106  0.0000  0.0318 </r>
       </set>
       <set comment="band 2">
        <r>  0.0000  0.0116  0.0116  0.0000  0.4679  0.0000  0.0000  0.4679  0.0000 </r>
       </set>
       <set comment="band 3">
        <r>  0.0000  0.0116  0.0116  0.0000  0.4679  0.0000  0.0000  0.4679  0.0000 </r>
       </set>
       <set comment="band 4">
        <r>  0.0000  0.0000  0.0000  0.0000  0.0000  0.0000  0.6802  0.0000  0.2267 </r>
       </set>
       <set comment="band 5">
        <r>  0.0000  0.0000  0.0000  0.0000  0.0000  0.9740  0.0000  0.0000  0.0000 </r>
       </set>
       <set comment="band 6">
        <r>  0.0262  0.0000  0.0000  0.0068  0.0000  0.0000  0.2368  0.0000  0.7104 </r>
       </set>
       <set comment="band 7">
        <r>  0.0000  0.0000  0.0000  0.0000  0.0000  0.0000  0.4322  0.0000  0.1441 </r>
       </set>
       <set comment="band 8">
        <r>  0.0000  0.1764  0.1764  0.0000  0.2681  0.0000  0.0000  0.2681  0.0000 </r>
       </set>
       <set comment="band 9">
        <r>  0.0000  0.1764  0.1764  0.0000  0.2681  0.0000  0.0000  0.2681  0.0000 </r>
       </set>
       <set comment="band 10">
        <r>  0.1639  0.0000  0.0000  0.2827  0.0000  0.0000  0.0000  0.0000  0.0000 </r>
       </set>
       <set comment="band 11">
        <r>  0.0000  0.1612  0.1610  0.0000  0.0049  0.0000  0.0000  0.0049  0.0000 </r>
       </set>
       <set comment="band 12">
        <r>  0.0000  0.1610  0.1612  0.0000  0.0049  0.0000  0.0000  0.0049  0.0000 </r>
       </set>
      </set>
      <set comment="kpoint 19">
       <set comment="band 1">
        <r>  0.3160  0.0077  0.0000  0.2157  0.0474  0.0000  0.0624  0.0000  0.0960 </r>
       </set>
       <set comment="band 2">
        <r>  0.0016  0.0296  0.0000  0.0113  0.2155  0.0000  0.4048  0.0000  0.2183 </r>
       </set>
       <set comment="band 3">
        <r>  0.0000  0.0000  0.0235  0.0000  0.0000  0.2737  0.0000  0.6560  0.0000 </r>
       </set>
       <set comment="band 4">
        <r>  0.0000  0.0218  0.0000  0.0074  0.6318  0.0000  0.2691  0.0000  0.0153 </r>
       </set>
       <set comment="band 5">
        <r>  0.0000  0.0000  0.0087  0.0000  0.0000  0.7000  0.0000  0.2672  0.0000 </r>
       </set>
       <set comment="band 6">
        <r>  0.0835  0.0071  0.0000  0.0476  0.0086  0.0000  0.1724  0.0000  0.6401 </r>
       </set>
       <set comment="band 7">
        <r>  0.0913  0.2653  0.0000  0.0340  0.2686  0.0000  0.1158  0.0000  0.0502 </r>
       </set>
       <set comment="band 8">
        <r>  0.0000  0.0000  0.4848  0.0000  0.0000  0.0100  0.0000  0.3926  0.0000 </r>
       </set>
       <set comment="band 9">
        <r>  0.0934  0.0012  0.0000  0.0747  0.0255  0.0000  0.3447  0.0000  0.0461 </r>
       </set>
       <set comment="band 10">
        <r>  0.0643  0.2002  0.0000  0.0689  0.1132  0.0000  0.0372  0.0000  0.1211 </r>
       </set>
       <set comment="band 11">
        <r>  0.0000  0.0000  0.1721  0.0000  0.0000  0.5569  0.0000  0.1350  0.0000 </r>
       </set>
       <set comment="band 12">
        <r>  0.0673  0.1730  0.0000  0.0111  0.0936  0.0000  0.1685  0.0000  0.0847 </r>
       </set>
      </set>
      <set comment="kpoint 20">
       <set comment="band 1">
        <r>  0.1178  0.0003  0.0000  0.0872  0.2577  0.0000  0.3308  0.0000  0.0354 </r>
       </set>
       <set comment="band 2">
        <r>  0.0039  0.0941  0.0000  0.0906  0.0323  0.0000  0.0968  0.0000  0.5060 </r>
       </set>
       <set comment="band 3">
        <r>  0.0000  0.0000  0.0231  0.0000  0.0000  0.4127  0.0000  0.5137  0.0000 </r>
       </set>
       <set comment="band 4">
        <r>  0.0191  0.0106  0.0000  0.0006  0.4977  0.0000  0.4156  0.0000  0.0035 </r>
       </set>
       <set comment="band 5">
        <r>  0.0000  0.0000  0.0025  0.0000  0.0000  0.5574  0.0000  0.4289  0.0000 </r>
       </set>
       <set comment="band 6">
        <r>  0.0672  0.0991  0.0000  0.2040  0.0389  0.0000  0.0343  0.0000  0.4417 </r>
       </set>
       <set comment="band 7">
        <r>  0.2643  0.1846  0.0000  0.0022  0.2945  0.0000  0.1001  0.0000  0.0278 </r>
       </set>
       <set comment="band 8">
        <r>  0.0000  0.0000  0.5744  0.0000  0.0000  0.0630  0.0000  0.2040  0.0000 </r>
       </set>
       <set comment="band 9">
        <r>  0.1073  0.0224  0.0000  0.0530  0.0070  0.0000  0.3762  0.0000  0.0051 </r>
       </set>
       <set comment="band 10">
        <r>  0.0115  0.1544  0.0000  0.0007  0.0255  0.0000  0.0324  0.0000  0.3623 </r>
       </set>
       <set comment="band 11">
        <r>  0.0000  0.0000  0.1457  0.0000  0.0000  0.4856  0.0000  0.3182  0.0000 </r>
       </set>
       <set comment="band 12">
        <r>  0.0025  0.1439  0.0000  0.2165  0.0040  0.0000  0.3424  0.0000  0.0976 </r>
       </set>
      </set>
      <set comment="kpoint 21">
       <set comment="band 1">
        <r>  0.1233  0.0051  0.0051  0.1819  0.0457  0.0001  0.0965  0.0457  0.2895 </r>
       </set>
       <set comment="band 2">
        <r>  0.0000  0.0203  0.0203  0.0000  0.0652  0.0000  0.5188  0.0652  0.1729 </r>
       </set>
       <set comment="band 3">
        <r>  0.0063  0.0157  0.0157  0.0091  0.2497  0.3226  0.0171  0.2497  0.0513 </r>
       </set>
       <set comment="band 4">
        <r>  0.0000  0.0153  0.0153  0.0000  0.3796  0.0000  0.1245  0.3796  0.0415 </r>
       </set>
       <set comment="band 5">
        <r>  0.0117  0.0004  0.0004  0.0052  0.1165  0.6076  0.0300  0.1165  0.0899 </r>
       </set>
       <set comment="band 6">
        <r>  0.1266  0.0176  0.0176  0.1815  0.0459  0.0414  0.1064  0.0459  0.3192 </r>
       </set>
       <set comment="band 7">
        <r>  0.0000  0.2073  0.2073  0.0000  0.1084  0.0000  0.1662  0.1084  0.0554 </r>
       </set>
       <set comment="band 8">
        <r>  0.2357  0.1435  0.1435  0.0306  0.1041  0.0271  0.0037  0.1041  0.0112 </r>
       </set>
       <set comment="band 9">
        <r>  0.0000  0.0612  0.0612  0.0000  0.0441  0.0000  0.3838  0.0441  0.1279 </r>
       </set>
       <set comment="band 10">
        <r>  0.0893  0.1176  0.1176  0.0343  0.0107  0.0019  0.0490  0.0107  0.1469 </r>
       </set>
       <set comment="band 11">
        <r>  0.0011  0.0681  0.0681  0.1301  0.0491  0.2176  0.0560  0.0491  0.1681 </r>
       </set>
       <set comment="band 12">
        <r>  0.1642  0.0000  0.0000  0.1734  0.1125  0.2132  0.0358  0.1125  0.1075 </r>
       </set>
      </set>
      <set comment="kpoint 22">
       <set comment="band 1">
        <r>  0.0280  0.0237  0.0210  0.0237  0.1594  0.0000  0.5908  0.0000  0.0000 </r>
       </set>
       <set comment="band 2">
        <r>  0.0000  0.0728  0.0000  0.0728  0.0000  0.0179  0.0000  0.0179  0.6472 </r>
       </set>
       <set comment="band 3">
        <r>  0.0316  0.0009  0.0216  0.0009  0.1528  0.3404  0.0440  0.3404  0.0000 </r>
       </set>
       <set comment="band 4">
        <r>  0.0098  0.0064  0.0117  0.0064  0.5092  0.1092  0.1975  0.1092  0.0000 </r>
       </set>
       <set comment="band 5">
        <r>  0.0000  0.0093  0.0000  0.0093  0.0000  0.4372  0.0000  0.4372  0.0882 </r>
       </set>
       <set comment="band 6">
        <r>  0.0000  0.2318  0.0000  0.2318  0.0000  0.0473  0.0000  0.0473  0.2923 </r>
       </set>
       <set comment="band 7">
        <r>  0.2577  0.0888  0.0400  0.0888  0.2548  0.0003  0.1355  0.0003  0.0000 </r>
       </set>
       <set comment="band 8">
        <r>  0.1669  0.0026  0.3694  0.0026  0.0024  0.0928  0.0802  0.0928  0.0000 </r>
       </set>
       <set comment="band 9">
        <r>  0.0303  0.0023  0.1474  0.0023  0.0144  0.0132  0.4524  0.0132  0.0000 </r>
       </set>
       <set comment="band 10">
        <r>  0.0000  0.0477  0.0000  0.0477  0.0000  0.0053  0.0000  0.0053  0.5307 </r>
       </set>
       <set comment="band 11">
        <r>  0.0415  0.2161  0.0863  0.2161  0.0000  0.0368  0.1006  0.0368  0.0000 </r>
       </set>
       <set comment="band 12">
        <r>  0.2112  0.0203  0.0081  0.0203  0.1859  0.2693  0.0073  0.2693  0.0000 </r>
       </set>
      </set>
      <set comment="kpoint 23">
       <set comment="band 1">
        <r>  0.1325  0.0000  0.0000  0.2078  0.0000  0.0000  0.1095  0.0000  0.3286 </r>
       </set>
       <set comment="band 2">
        <r>  0.0000  0.0000  0.0000  0.0000  0.0000  0.0000  0.6465  0.0000  0.2155 </r>
       </set>
       <set comment="band 3">
        <r>  0.0000  0.0241  0.0241  0.0000  0.4515  0.0000  0.0000  0.4515  0.0000 </r>
       </set>
       <set comment="band 4">
        <r>  0.0000  0.0241  0.0241  0.0000  0.4515  0.0000  0.0000  0.4515  0.0000 </r>
       </set>
       <set comment="band 5">
        <r>  0.0000  0.0000  0.0000  0.0000  0.0000  0.9767  0.0000  0.0000  0.0000 </r>
       </set>
       <set comment="band 6">
        <r>  0.1792  0.0000  0.0000  0.1674  0.0000  0.0000  0.1392  0.0000  0.4176 </r>
       </set>
       <set comment="band 7">
        <r>  0.0000  0.2800  0.2800  0.0000  0.1441  0.0000  0.0000  0.1441  0.0000 </r>
       </set>
       <set comment="band 8">
        <r>  0.0000  0.2800  0.2800  0.0000  0.1441  0.0000  0.0000  0.1441  0.0000 </r>
       </set>
       <set comment="band 9">
        <r>  0.0000  0.0000  0.0000  0.0000  0.0000  0.0000  0.5893  0.0000  0.1964 </r>
       </set>
       <set comment="band 10">
        <r>  0.2894  0.0000  0.0000  0.0748  0.0000  0.0000  0.0527  0.0000  0.1580 </r>
       </set>
       <set comment="band 11">
        <r>  0.1265  0.0000  0.0000  0.3097  0.0000  0.0000  0.1018  0.0000  0.3055 </r>
       </set>
       <set comment="band 12">
        <r>  0.0000  0.0000  0.0000  0.0000  0.0000  0.9724  0.0000  0.0000  0.0000 </r>
       </set>
      </set>
      <set comment="kpoint 24">
       <set comment="band 1">
        <r>  0.0231  0.0013  0.0000  0.0956  0.0202  0.0000  0.3498  0.0000  0.3365 </r>
       </set>
       <set comment="band 2">
        <r>  0.0000  0.0245  0.0000  0.0065  0.0146  0.0000  0.4149  0.0000  0.3867 </r>
       </set>
       <set comment="band 3">
        <r>  0.0000  0.0000  0.0389  0.0000  0.0000  0.3295  0.0000  0.5860  0.0000 </r>
       </set>
       <set comment="band 4">
        <r>  0.0189  0.0329  0.0000  0.0059  0.8303  0.0000  0.0602  0.0000  0.0017 </r>
       </set>
       <set comment="band 5">
        <r>  0.0000  0.0000  0.0024  0.0000  0.0000  0.6424  0.0000  0.3415  0.0000 </r>
       </set>
       <set comment="band 6">
        <r>  0.1275  0.0392  0.0000  0.3568  0.0301  0.0000  0.0490  0.0000  0.2375 </r>
       </set>
       <set comment="band 7">
        <r>  0.1233  0.4265  0.0000  0.0000  0.1700  0.0000  0.0558  0.0000  0.0501 </r>
       </set>
       <set comment="band 8">
        <r>  0.0000  0.0000  0.6260  0.0000  0.0000  0.0289  0.0000  0.1470  0.0000 </r>
       </set>
       <set comment="band 9">
        <r>  0.0808  0.0028  0.0000  0.0044  0.0075  0.0000  0.6666  0.0000  0.0180 </r>
       </set>
       <set comment="band 10">
        <r>  0.0832  0.1043  0.0000  0.0001  0.0084  0.0000  0.0000  0.0000  0.5087 </r>
       </set>
       <set comment="band 11">
        <r>  0.2792  0.0616  0.0000  0.2775  0.0126  0.0000  0.0811  0.0000  0.1010 </r>
       </set>
       <set comment="band 12">
        <r>  0.0000  0.0000  0.0712  0.0000  0.0000  0.4764  0.0000  0.2349  0.0000 </r>
       </set>
      </set>
      <set comment="kpoint 25">
       <set comment="band 1">
        <r>  0.0000  0.0194  0.0000  0.0194  0.0000  0.0040  0.0000  0.0040  0.7951 </r>
       </set>
       <set comment="band 2">
        <r>  0.0000  0.0065  0.0258  0.0065  0.0054  0.0013  0.7951  0.0013  0.0000 </r>
       </set>
       <set comment="band 3">
        <r>  0.0173  0.0129  0.0129  0.0129  0.2974  0.2974  0.0000  0.2974  0.0000 </r>
       </set>
       <set comment="band 4">
        <r>  0.0000  0.0033  0.0130  0.0033  0.6268  0.1567  0.0178  0.1567  0.0000 </r>
       </set>
       <set comment="band 5">
        <r>  0.0000  0.0098  0.0000  0.0098  0.0000  0.4701  0.0000  0.4701  0.0178 </r>
       </set>
       <set comment="band 6">
        <r>  0.0000  0.2882  0.0000  0.2882  0.0000  0.0287  0.0000  0.0287  0.1770 </r>
       </set>
       <set comment="band 7">
        <r>  0.0000  0.0961  0.3843  0.0961  0.0382  0.0096  0.1770  0.0096  0.0000 </r>
       </set>
       <set comment="band 8">
        <r>  0.2555  0.1255  0.1255  0.1255  0.0519  0.0519  0.0000  0.0519  0.0000 </r>
       </set>
       <set comment="band 9">
        <r>  0.0000  0.0418  0.0000  0.0418  0.0000  0.0036  0.0000  0.0036  0.6975 </r>
       </set>
       <set comment="band 10">
        <r>  0.0000  0.0139  0.0558  0.0139  0.0048  0.0012  0.6975  0.0012  0.0000 </r>
       </set>
       <set comment="band 11">
        <r>  0.4782  0.0992  0.0992  0.0992  0.0034  0.0034  0.0000  0.0034  0.0000 </r>
       </set>
       <set comment="band 12">
        <r>  0.0353  0.0185  0.0185  0.0185  0.2032  0.2031  0.0000  0.2031  0.0000 </r>
       </set>
      </set>
      <set comment="kpoint 26">
       <set comment="band 1">
        <r>  0.0014  0.0000  0.0000  0.0263  0.0000  0.0000  0.2033  0.0000  0.6098 </r>
       </set>
       <set comment="band 2">
        <r>  0.0000  0.0000  0.0000  0.0000  0.0000  0.0000  0.6347  0.0000  0.2116 </r>
       </set>
       <set comment="band 3">
        <r>  0.0000  0.0104  0.0104  0.0000  0.4776  0.0000  0.0000  0.4776  0.0000 </r>
       </set>
       <set comment="band 4">
        <r>  0.0000  0.0104  0.0104  0.0000  0.4776  0.0000  0.0000  0.4776  0.0000 </r>
       </set>
       <set comment="band 5">
        <r>  0.0000  0.0000  0.0000  0.0000  0.0000  0.9864  0.0000  0.0000  0.0000 </r>
       </set>
       <set comment="band 6">
        <r>  0.0828  0.0000  0.0000  0.5689  0.0000  0.0000  0.0308  0.0000  0.0923 </r>
       </set>
       <set comment="band 7">
        <r>  0.0000  0.3476  0.3476  0.0000  0.0283  0.0000  0.0000  0.0283  0.0000 </r>
       </set>
       <set comment="band 8">
        <r>  0.0000  0.3476  0.3476  0.0000  0.0283  0.0000  0.0000  0.0283  0.0000 </r>
       </set>
       <set comment="band 9">
        <r>  0.0000  0.0000  0.0000  0.0000  0.0000  0.0000  0.6680  0.0000  0.2227 </r>
       </set>
       <set comment="band 10">
        <r>  0.0657  0.0000  0.0000  0.0196  0.0000  0.0000  0.1858  0.0000  0.5574 </r>
       </set>
       <set comment="band 11">
        <r>  0.6290  0.0000  0.0000  0.1222  0.0000  0.0000  0.0103  0.0000  0.0308 </r>
       </set>
       <set comment="band 12">
        <r>  0.0000  0.0000  0.0000  0.0000  0.0000  0.2625  0.0000  0.0000  0.0000 </r>
       </set>
      </set>
     </set>
    </set>
   </array>
  </projected>
 </calculation>
 <structure name="finalpos" >
  <crystal>
   <varray name="basis" >
    <v>      -1.42500000       1.42500000       1.42500000 </v>
    <v>       1.42500000      -1.42500000       1.42500000 </v>
    <v>       1.42500000       1.42500000      -1.42500000 </v>
   </varray>
   <i name="volume">     11.57456250 </i>
   <varray name="rec_basis" >
    <v>       0.00000000       0.35087719       0.35087719 </v>
    <v>       0.35087719       0.00000000       0.35087719 </v>
    <v>       0.35087719       0.35087719       0.00000000 </v>
   </varray>
  </crystal>
  <varray name="positions" >
   <v>       0.00000000       0.00000000       0.00000000 </v>
  </varray>
 </structure>
</modeling>
