Fe BCC                                  
   2.85000000000000     
    -0.500000    0.500000    0.500000
     0.500000   -0.500000    0.500000
     0.500000    0.500000   -0.500000
   Fe
     1
Direct
  0.000000  0.000000  0.000000
 
   28   28   28
  98.370      95.367      86.958      74.704      60.557      46.311      33.318      22.478      14.306      8.9298    
  6.0213      4.7989      4.2542      3.9200      3.8072      3.9200      4.2542      4.7989      6.0213      8.9298    
  14.306      22.478      33.318      46.311      60.557      74.704      86.958      95.367      95.367      94.370    
  87.781      76.865      63.471      49.453      36.288      24.995      16.192      10.125      6.6161      5.0222    
  4.3755      3.9794      3.7956      3.8326      4.0893      4.5500      5.3982      7.5359      11.853      18.842    
  28.533      40.550      54.145      68.146      80.924      90.570      86.958      87.781      83.229      74.203    
  62.319      49.362      36.849      25.863      17.082      10.824      7.0223      5.1787      4.4365      4.0012    
  3.7606      3.7269      3.9007      4.2767      4.8662      6.2451      9.3414      14.799      22.830      33.229    
  45.416      58.421      70.838      80.924      74.704      76.865      74.203      67.265      57.358      46.088    
  34.912      24.913      16.775      10.841      7.1129      5.2150      4.4274      3.9786      3.7017      3.6109    
  3.7071      3.9908      4.4493      5.2548      7.1990      11.029      17.140      25.517      35.767      47.124    
  58.421      68.146      60.557      63.471      62.319      57.358      49.575      40.327      30.930      22.396    
  15.371      10.180      6.8522      5.1036      4.3482      3.9099      3.6194      3.4904      3.5229      3.7187    
  4.0788      4.5987      5.6606      8.0170      12.208      18.418      26.458      35.767      45.416      54.145    
  46.311      49.453      49.362      46.088      40.327      33.163      25.715      18.876      13.218      9.0211    
  6.3104      4.8622      4.2074      3.7996      3.5165      3.3697      3.3570      3.4789      3.7422      4.1469    
  4.7269      5.9688      8.4840      12.628      18.418      25.517      33.229      40.550      33.318      36.288    
  36.849      34.912      30.930      25.715      20.167      15.029      10.781      7.6439      5.6278      4.5457    
  4.0224      3.6580      3.3987      3.2521      3.2133      3.2805      3.4604      3.7632      4.1877      4.8040    
  6.0835      8.4840      12.208      17.140      22.830      28.533      22.478      24.995      25.863      24.913    
  22.396      18.876      15.029      11.437      8.4782      6.3204      4.9542      4.2184      3.8130      3.4988    
  3.2738      3.1407      3.0925      3.1246      3.2411      3.4540      3.7748      4.2010      4.8040      5.9688    
  8.0170      11.029      14.799      18.842      14.306      16.192      17.082      16.775      15.371      13.218    
  10.781      8.4782      6.5912      5.2375      4.3947      3.9230      3.5982      3.3366      3.1507      3.0390    
  2.9932      3.0068      3.0808      3.2247      3.4525      3.7748      4.1877      4.7269      5.6606      7.1990    
  9.3414      11.853      8.9298      10.125      10.824      10.841      10.180      9.0211      7.6439      6.3204    
  5.2375      4.4691      3.9839      3.6620      3.3941      3.1840      3.0374      2.9501      2.9136      2.9208    
  2.9704      3.0678      3.2247      3.4540      3.7632      4.1469      4.5987      5.2548      6.2451      7.5359    
  6.0213      6.6161      7.0223      7.1129      6.8522      6.3104      5.6278      4.9542      4.3947      3.9839    
  3.6828      3.4258      3.2124      3.0503      2.9400      2.8765      2.8524      2.8610      2.8995      2.9704    
  3.0808      3.2411      3.4604      3.7422      4.0788      4.4493      4.8662      5.3982      4.7989      5.0222    
  5.1787      5.2150      5.1036      4.8622      4.5457      4.2184      3.9230      3.6620      3.4258      3.2232    
  3.0607      2.9410      2.8625      2.8205      2.8094      2.8239      2.8610      2.9208      3.0068      3.1246    
  3.2805      3.4789      3.7187      3.9908      4.2767      4.5500      4.2542      4.3755      4.4365      4.4274    
  4.3482      4.2074      4.0224      3.8130      3.5982      3.3941      3.2124      3.0607      2.9426      2.8586    
  2.8067      2.7837      2.7857      2.8094      2.8524      2.9136      2.9932      3.0925      3.2133      3.3570    
  3.5229      3.7071      3.9007      4.0893      3.9200      3.9794      4.0012      3.9786      3.9099      3.7996    
  3.6580      3.4988      3.3366      3.1840      3.0503      2.9410      2.8586      2.8031      2.7733      2.7674    
  2.7837      2.8205      2.8765      2.9501      3.0390      3.1407      3.2521      3.3697      3.4904      3.6109    
  3.7269      3.8326      3.8072      3.7956      3.7606      3.7017      3.6194      3.5165      3.3987      3.2738    
  3.1507      3.0374      2.9400      2.8625      2.8067      2.7733      2.7621      2.7733      2.8067      2.8625    
  2.9400      3.0374      3.1507      3.2738      3.3987      3.5165      3.6194      3.7017      3.7606      3.7956    
  3.9200      3.8326      3.7269      3.6109      3.4904      3.3697      3.2521      3.1407      3.0390      2.9501    
  2.8765      2.8205      2.7837      2.7674      2.7733      2.8031      2.8586      2.9410      3.0503      3.1840    
  3.3366      3.4988      3.6580      3.7996      3.9099      3.9786      4.0012      3.9794      4.2542      4.0893    
  3.9007      3.7071      3.5229      3.3570      3.2133      3.0925      2.9932      2.9136      2.8524      2.8094    
  2.7857      2.7837      2.8067      2.8586      2.9426      3.0607      3.2124      3.3941      3.5982      3.8130    
  4.0224      4.2074      4.3482      4.4274      4.4365      4.3755      4.7989      4.5500      4.2767      3.9908    
  3.7187      3.4789      3.2805      3.1246      3.0068      2.9208      2.8610      2.8239      2.8094      2.8205    
  2.8625      2.9410      3.0607      3.2232      3.4258      3.6620      3.9230      4.2184      4.5457      4.8622    
  5.1036      5.2150      5.1787      5.0222      6.0213      5.3982      4.8662      4.4493      4.0788      3.7422    
  3.4604      3.2411      3.0808      2.9704      2.8995      2.8610      2.8524      2.8765      2.9400      3.0503    
  3.2124      3.4258      3.6828      3.9839      4.3947      4.9542      5.6278      6.3104      6.8522      7.1129    
  7.0223      6.6161      8.9298      7.5359      6.2451      5.2548      4.5987      4.1469      3.7632      3.4540    
  3.2247      3.0678      2.9704      2.9208      2.9136      2.9501      3.0374      3.1840      3.3941      3.6620    
  3.9839      4.4691      5.2375      6.3204      7.6439      9.0211      10.180      10.841      10.824      10.125    
  14.306      11.853      9.3414      7.1990      5.6606      4.7269      4.1877      3.7748      3.4525      3.2247    
  3.0808      3.0068      2.9932      3.0390      3.1507      3.3366      3.5982      3.9230      4.3947      5.2375    
  6.5912      8.4782      10.781      13.218      15.371      16.775      17.082      16.192      22.478      18.842    
  14.799      11.029      8.0170      5.9688      4.8040      4.2010      3.7748      3.4540      3.2411      3.1246    
  3.0925      3.1407      3.2738      3.4988      3.8130      4.2184      4.9542      6.3204      8.4782      11.437    
  15.029      18.876      22.396      24.913      25.863      24.995      33.318      28.533      22.830      17.140    
  12.208      8.4840      6.0835      4.8040      4.1877      3.7632      3.4604      3.2805      3.2133      3.2521    
  3.3987      3.6580      4.0224      4.5457      5.6278      7.6439      10.781      15.029      20.167      25.715    
  30.930      34.912      36.849      36.288      46.311      40.550      33.229      25.517      18.418      12.628    
  8.4840      5.9688      4.7269      4.1469      3.7422      3.4789      3.3570      3.3697      3.5165      3.7996    
  4.2074      4.8622      6.3104      9.0211      13.218      18.876      25.715      33.163      40.327      46.088    
  49.362      49.453      60.557      54.145      45.416      35.767      26.458      18.418      12.208      8.0170    
  5.6606      4.5987      4.0788      3.7187      3.5229      3.4904      3.6194      3.9099      4.3482      5.1036    
  6.8522      10.180      15.371      22.396      30.930      40.327      49.575      57.358      62.319      63.471    
  74.704      68.146      58.421      47.124      35.767      25.517      17.140      11.029      7.1990      5.2548    
  4.4493      3.9908      3.7071      3.6109      3.7017      3.9786      4.4274      5.2150      7.1129      10.841    
  16.775      24.913      34.912      46.088      57.358      67.265      74.203      76.865      86.958      80.924    
  70.838      58.421      45.416      33.229      22.830      14.799      9.3414      6.2451      4.8662      4.2767    
  3.9007      3.7269      3.7606      4.0012      4.4365      5.1787      7.0223      10.824      17.082      25.863    
  36.849      49.362      62.319      74.203      83.229      87.781      95.367      90.570      80.924      68.146    
  54.145      40.550      28.533      18.842      11.853      7.5359      5.3982      4.5500      4.0893      3.8326    
  3.7956      3.9794      4.3755      5.0222      6.6161      10.125      16.192      24.995      36.288      49.453    
  63.471      76.865      87.781      94.370      95.367      94.370      87.781      76.865      63.471      49.453    
  36.288      24.995      16.192      10.125      6.6161      5.0222      4.3755      3.9794      3.7956      3.8326    
  4.0893      4.5500      5.3982      7.5359      11.853      18.842      28.533      40.550      54.145      68.146    
  80.924      90.570      94.370      95.367      90.570      80.924      68.146      54.145      40.550      28.533    
  18.842      11.853      7.5359      5.3982      4.5500      4.0893      3.8326      3.7956      3.9794      4.3755    
  5.0222      6.6161      10.125      16.192      24.995      36.288      49.453      63.471      76.865      87.781    
  87.781      90.570      87.781      79.971      68.595      55.478      42.304      30.344      20.438      13.048    
  8.2591      5.7212      4.6670      4.1586      3.8434      3.7373      3.8434      4.1586      4.6670      5.7212    
  8.2591      13.048      20.438      30.344      42.304      55.478      68.595      79.971      76.865      80.924    
  79.971      74.203      64.738      53.199      41.207      30.057      20.626      13.418      8.5855      5.8945    
  4.7145      4.1758      3.8231      3.6616      3.6951      3.9237      4.3392      5.0046      6.6116      9.9978    
  15.677      23.751      33.930      45.563      57.602      68.595      63.471      68.146      68.595      64.738    
  57.358      47.798      37.525      27.770      19.389      12.880      8.4193      5.8518      4.6745      4.1353    
  3.7691      3.5715      3.5460      3.6931      4.0136      4.4944      5.3958      7.4931      11.423      17.471    
  25.544      35.185      45.563      55.478      49.453      54.145      55.478      53.199      47.798      40.327    
  32.029      24.005      17.040      11.586      7.8075      5.5928      4.5440      4.0397      3.6824      3.4697    
  3.4036      3.4830      3.7119      4.0914      4.6292      5.7507      8.1318      12.214      18.103      25.544    
  33.930      42.304      36.288      40.550      42.304      41.207      37.525      32.029      25.715      19.513    
  14.097      9.8538      6.9141      5.1833      4.3434      3.8986      3.5683      3.3596      3.2723      3.3025    
  3.4537      3.7346      4.1450      4.7306      5.9611      8.3635      12.214      17.471      23.751      30.344    
  24.995      28.533      30.344      30.057      27.770      24.005      19.513      15.029      11.104      8.0460    
  5.9484      4.7219      4.1075      3.7274      3.4361      3.2460      3.1542      3.1543      3.2471      3.4422    
  3.7507      4.1711      4.7688      5.9611      8.1318      11.423      15.677      20.438      16.192      18.842    
  20.438      20.626      19.389      17.040      14.097      11.104      8.4782      6.4531      5.0878      4.2968    
  3.8654      3.5433      3.2970      3.1345      3.0504      3.0366      3.0910      3.2205      3.4385      3.7564    
  4.1711      4.7306      5.7507      7.4931      9.9978      13.048      10.125      11.853      13.048      13.418    
  12.880      11.586      9.8538      8.0460      6.4531      5.2375      4.4306      3.9515      3.6287      3.3620    
  3.1621      3.0310      2.9617      2.9456      2.9785      3.0640      3.2127      3.4385      3.7507      4.1450    
  4.6292      5.3958      6.6116      8.2591      6.6161      7.5359      8.2591      8.5855      8.4193      7.8075    
  6.9141      5.9484      5.0878      4.4306      3.9839      3.6723      3.4092      3.1963      3.0407      2.9405    
  2.8888      2.8774      2.9013      2.9613      3.0640      3.2205      3.4422      3.7346      4.0914      4.4944    
  5.0046      5.7212      5.0222      5.3982      5.7212      5.8945      5.8518      5.5928      5.1833      4.7219    
  4.2968      3.9515      3.6723      3.4258      3.2176      3.0547      2.9388      2.8668      2.8326      2.8294    
  2.8527      2.9013      2.9785      3.0910      3.2471      3.4537      3.7119      4.0136      4.3392      4.6670    
  4.3755      4.5500      4.6670      4.7145      4.6745      4.5440      4.3434      4.1075      3.8654      3.6287    
  3.4092      3.2176      3.0607      2.9416      2.8598      2.8121      2.7941      2.8011      2.8294      2.8774    
  2.9456      3.0366      3.1543      3.3025      3.4830      3.6931      3.9237      4.1586      3.9794      4.0893    
  4.1586      4.1758      4.1353      4.0397      3.8986      3.7274      3.5433      3.3620      3.1963      3.0547    
  2.9416      2.8586      2.8047      2.7778      2.7751      2.7941      2.8326      2.8888      2.9617      3.0504    
  3.1542      3.2723      3.4036      3.5460      3.6951      3.8434      3.7956      3.8326      3.8434      3.8231    
  3.7691      3.6824      3.5683      3.4361      3.2970      3.1621      3.0407      2.9388      2.8598      2.8047    
  2.7733      2.7646      2.7778      2.8121      2.8668      2.9405      3.0310      3.1345      3.2460      3.3596    
  3.4697      3.5715      3.6616      3.7373      3.8326      3.7956      3.7373      3.6616      3.5715      3.4697    
  3.3596      3.2460      3.1345      3.0310      2.9405      2.8668      2.8121      2.7778      2.7646      2.7733    
  2.8047      2.8598      2.9388      3.0407      3.1621      3.2970      3.4361      3.5683      3.6824      3.7691    
  3.8231      3.8434      4.0893      3.9794      3.8434      3.6951      3.5460      3.4036      3.2723      3.1542    
  3.0504      2.9617      2.8888      2.8326      2.7941      2.7751      2.7778      2.8047      2.8586      2.9416    
  3.0547      3.1963      3.3620      3.5433      3.7274      3.8986      4.0397      4.1353      4.1758      4.1586    
  4.5500      4.3755      4.1586      3.9237      3.6931      3.4830      3.3025      3.1543      3.0366      2.9456    
  2.8774      2.8294      2.8011      2.7941      2.8121      2.8598      2.9416      3.0607      3.2176      3.4092    
  3.6287      3.8654      4.1075      4.3434      4.5440      4.6745      4.7145      4.6670      5.3982      5.0222    
  4.6670      4.3392      4.0136      3.7119      3.4537      3.2471      3.0910      2.9785      2.9013      2.8527    
  2.8294      2.8326      2.8668      2.9388      3.0547      3.2176      3.4258      3.6723      3.9515      4.2968    
  4.7219      5.1833      5.5928      5.8518      5.8945      5.7212      7.5359      6.6161      5.7212      5.0046    
  4.4944      4.0914      3.7346      3.4422      3.2205      3.0640      2.9613      2.9013      2.8774      2.8888    
  2.9405      3.0407      3.1963      3.4092      3.6723      3.9839      4.4306      5.0878      5.9484      6.9141    
  7.8075      8.4193      8.5855      8.2591      11.853      10.125      8.2591      6.6116      5.3958      4.6292    
  4.1450      3.7507      3.4385      3.2127      3.0640      2.9785      2.9456      2.9617      3.0310      3.1621    
  3.3620      3.6287      3.9515      4.4306      5.2375      6.4531      8.0460      9.8538      11.586      12.880    
  13.418      13.048      18.842      16.192      13.048      9.9978      7.4931      5.7507      4.7306      4.1711    
  3.7564      3.4385      3.2205      3.0910      3.0366      3.0504      3.1345      3.2970      3.5433      3.8654    
  4.2968      5.0878      6.4531      8.4782      11.104      14.097      17.040      19.389      20.626      20.438    
  28.533      24.995      20.438      15.677      11.423      8.1318      5.9611      4.7688      4.1711      3.7507    
  3.4422      3.2471      3.1543      3.1542      3.2460      3.4361      3.7274      4.1075      4.7219      5.9484    
  8.0460      11.104      15.029      19.513      24.005      27.770      30.057      30.344      40.550      36.288    
  30.344      23.751      17.471      12.214      8.3635      5.9611      4.7306      4.1450      3.7346      3.4537    
  3.3025      3.2723      3.3596      3.5683      3.8986      4.3434      5.1833      6.9141      9.8538      14.097    
  19.513      25.715      32.029      37.525      41.207      42.304      54.145      49.453      42.304      33.930    
  25.544      18.103      12.214      8.1318      5.7507      4.6292      4.0914      3.7119      3.4830      3.4036    
  3.4697      3.6824      4.0397      4.5440      5.5928      7.8075      11.586      17.040      24.005      32.029    
  40.327      47.798      53.199      55.478      68.146      63.471      55.478      45.563      35.185      25.544    
  17.471      11.423      7.4931      5.3958      4.4944      4.0136      3.6931      3.5460      3.5715      3.7691    
  4.1353      4.6745      5.8518      8.4193      12.880      19.389      27.770      37.525      47.798      57.358    
  64.738      68.595      80.924      76.865      68.595      57.602      45.563      33.930      23.751      15.677    
  9.9978      6.6116      5.0046      4.3392      3.9237      3.6951      3.6616      3.8231      4.1758      4.7145    
  5.8945      8.5855      13.418      20.626      30.057      41.207      53.199      64.738      74.203      79.971    
  90.570      87.781      79.971      68.595      55.478      42.304      30.344      20.438      13.048      8.2591    
  5.7212      4.6670      4.1586      3.8434      3.7373      3.8434      4.1586      4.6670      5.7212      8.2591    
  13.048      20.438      30.344      42.304      55.478      68.595      79.971      87.781      86.958      87.781    
  83.229      74.203      62.319      49.362      36.849      25.863      17.082      10.824      7.0223      5.1787    
  4.4365      4.0012      3.7606      3.7269      3.9007      4.2767      4.8662      6.2451      9.3414      14.799    
  22.830      33.229      45.416      58.421      70.838      80.924      87.781      90.570      87.781      79.971    
  68.595      55.478      42.304      30.344      20.438      13.048      8.2591      5.7212      4.6670      4.1586    
  3.8434      3.7373      3.8434      4.1586      4.6670      5.7212      8.2591      13.048      20.438      30.344    
  42.304      55.478      68.595      79.971      83.229      87.781      86.958      80.924      70.838      58.421    
  45.416      33.229      22.830      14.799      9.3414      6.2451      4.8662      4.2767      3.9007      3.7269    
  3.7606      4.0012      4.4365      5.1787      7.0223      10.824      17.082      25.863      36.849      49.362    
  62.319      74.203      74.203      79.971      80.924      76.865      68.595      57.602      45.563      33.930    
  23.751      15.677      9.9978      6.6116      5.0046      4.3392      3.9237      3.6951      3.6616      3.8231    
  4.1758      4.7145      5.8945      8.5855      13.418      20.626      30.057      41.207      53.199      64.738    
  62.319      68.595      70.838      68.595      62.319      53.199      42.733      32.318      23.008      15.479    
  10.053      6.7055      5.0384      4.3365      3.9056      3.6414      3.5536      3.6414      3.9056      4.3365    
  5.0384      6.7055      10.053      15.479      23.008      32.318      42.733      53.199      49.362      55.478    
  58.421      57.602      53.199      46.088      37.525      28.765      20.799      14.270      9.4966      6.4897    
  4.9433      4.2673      3.8443      3.5660      3.4417      3.4693      3.6501      3.9861      4.4666      5.3747    
  7.4043      11.079      16.604      23.842      32.318      41.207      36.849      42.304      45.416      45.563    
  42.733      37.525      30.930      24.005      17.621      12.353      8.4805      6.0211      4.7331      4.1395    
  3.7435      3.4712      3.3297      3.3146      3.4258      3.6698      4.0482      4.5714      5.6310      7.8042    
  11.445      16.604      23.008      30.057      25.863      30.344      33.229      33.930      32.318      28.765    
  24.005      18.876      14.097      10.147      7.2533      5.4218      4.4543      3.9681      3.6126      3.3621    
  3.2204      3.1810      3.2409      3.4063      3.6876      4.0853      4.6333      5.7264      7.8042      11.079    
  15.479      20.626      17.082      20.438      22.830      23.751      23.008      20.799      17.621      14.097    
  10.781      8.0460      6.0640      4.8251      4.1613      3.7716      3.4642      3.2460      3.1169      3.0686    
  3.0958      3.2021      3.3987      3.6974      4.0973      4.6333      5.6310      7.4043      10.053      13.418    
  10.824      13.048      14.799      15.677      15.479      14.270      12.353      10.147      8.0460      6.3204    
  5.0878      4.3254      3.8893      3.5683      3.3120      3.1311      3.0222      2.9763      2.9866      3.0535    
  3.1857      3.3968      3.6974      4.0853      4.5714      5.3747      6.7055      8.5855      7.0223      8.2591    
  9.3414      9.9978      10.053      9.4966      8.4805      7.2533      6.0640      5.0878      4.3947      3.9515    
  3.6382      3.3739      3.1682      3.0251      2.9395      2.9026      2.9072      2.9515      3.0408      3.1857    
  3.3987      3.6876      4.0482      4.4666      5.0384      5.8945      5.1787      5.7212      6.2451      6.6116    
  6.7055      6.4897      6.0211      5.4218      4.8251      4.3254      3.9515      3.6620      3.4092      3.2002    
  3.0418      2.9339      2.8712      2.8462      2.8523      2.8867      2.9515      3.0535      3.2021      3.4063    
  3.6698      3.9861      4.3365      4.7145      4.4365      4.6670      4.8662      5.0046      5.0384      4.9433    
  4.7331      4.4543      4.1613      3.8893      3.6382      3.4092      3.2124      3.0547      2.9382      2.8613    
  2.8195      2.8070      2.8189      2.8523      2.9072      2.9866      3.0958      3.2409      3.4258      3.6501    
  3.9056      4.1758      4.0012      4.1586      4.2767      4.3392      4.3365      4.2673      4.1395      3.9681    
  3.7716      3.5683      3.3739      3.2002      3.0547      2.9410      2.8598      2.8091      2.7857      2.7861    
  2.8070      2.8462      2.9026      2.9763      3.0686      3.1810      3.3146      3.4693      3.6414      3.8231    
  3.7606      3.8434      3.9007      3.9237      3.9056      3.8443      3.7435      3.6126      3.4642      3.3120    
  3.1682      3.0418      2.9382      2.8598      2.8067      2.7778      2.7714      2.7857      2.8195      2.8712    
  2.9395      3.0222      3.1169      3.2204      3.3297      3.4417      3.5536      3.6616      3.7269      3.7373    
  3.7269      3.6951      3.6414      3.5660      3.4712      3.3621      3.2460      3.1311      3.0251      2.9339    
  2.8613      2.8091      2.7778      2.7674      2.7778      2.8091      2.8613      2.9339      3.0251      3.1311    
  3.2460      3.3621      3.4712      3.5660      3.6414      3.6951      3.9007      3.8434      3.7606      3.6616    
  3.5536      3.4417      3.3297      3.2204      3.1169      3.0222      2.9395      2.8712      2.8195      2.7857    
  2.7714      2.7778      2.8067      2.8598      2.9382      3.0418      3.1682      3.3120      3.4642      3.6126    
  3.7435      3.8443      3.9056      3.9237      4.2767      4.1586      4.0012      3.8231      3.6414      3.4693    
  3.3146      3.1810      3.0686      2.9763      2.9026      2.8462      2.8070      2.7861      2.7857      2.8091    
  2.8598      2.9410      3.0547      3.2002      3.3739      3.5683      3.7716      3.9681      4.1395      4.2673    
  4.3365      4.3392      4.8662      4.6670      4.4365      4.1758      3.9056      3.6501      3.4258      3.2409    
  3.0958      2.9866      2.9072      2.8523      2.8189      2.8070      2.8195      2.8613      2.9382      3.0547    
  3.2124      3.4092      3.6382      3.8893      4.1613      4.4543      4.7331      4.9433      5.0384      5.0046    
  6.2451      5.7212      5.1787      4.7145      4.3365      3.9861      3.6698      3.4063      3.2021      3.0535    
  2.9515      2.8867      2.8523      2.8462      2.8712      2.9339      3.0418      3.2002      3.4092      3.6620    
  3.9515      4.3254      4.8251      5.4218      6.0211      6.4897      6.7055      6.6116      9.3414      8.2591    
  7.0223      5.8945      5.0384      4.4666      4.0482      3.6876      3.3987      3.1857      3.0408      2.9515    
  2.9072      2.9026      2.9395      3.0251      3.1682      3.3739      3.6382      3.9515      4.3947      5.0878    
  6.0640      7.2533      8.4805      9.4966      10.053      9.9978      14.799      13.048      10.824      8.5855    
  6.7055      5.3747      4.5714      4.0853      3.6974      3.3968      3.1857      3.0535      2.9866      2.9763    
  3.0222      3.1311      3.3120      3.5683      3.8893      4.3254      5.0878      6.3204      8.0460      10.147    
  12.353      14.270      15.479      15.677      22.830      20.438      17.082      13.418      10.053      7.4043    
  5.6310      4.6333      4.0973      3.6974      3.3987      3.2021      3.0958      3.0686      3.1169      3.2460    
  3.4642      3.7716      4.1613      4.8251      6.0640      8.0460      10.781      14.097      17.621      20.799    
  23.008      23.751      33.229      30.344      25.863      20.626      15.479      11.079      7.8042      5.7264    
  4.6333      4.0853      3.6876      3.4063      3.2409      3.1810      3.2204      3.3621      3.6126      3.9681    
  4.4543      5.4218      7.2533      10.147      14.097      18.876      24.005      28.765      32.318      33.930    
  45.416      42.304      36.849      30.057      23.008      16.604      11.445      7.8042      5.6310      4.5714    
  4.0482      3.6698      3.4258      3.3146      3.3297      3.4712      3.7435      4.1395      4.7331      6.0211    
  8.4805      12.353      17.621      24.005      30.930      37.525      42.733      45.563      58.421      55.478    
  49.362      41.207      32.318      23.842      16.604      11.079      7.4043      5.3747      4.4666      3.9861    
  3.6501      3.4693      3.4417      3.5660      3.8443      4.2673      4.9433      6.4897      9.4966      14.270    
  20.799      28.765      37.525      46.088      53.199      57.602      70.838      68.595      62.319      53.199    
  42.733      32.318      23.008      15.479      10.053      6.7055      5.0384      4.3365      3.9056      3.6414    
  3.5536      3.6414      3.9056      4.3365      5.0384      6.7055      10.053      15.479      23.008      32.318    
  42.733      53.199      62.319      68.595      80.924      79.971      74.203      64.738      53.199      41.207    
  30.057      20.626      13.418      8.5855      5.8945      4.7145      4.1758      3.8231      3.6616      3.6951    
  3.9237      4.3392      5.0046      6.6116      9.9978      15.677      23.751      33.930      45.563      57.602    
  68.595      76.865      74.704      76.865      74.203      67.265      57.358      46.088      34.912      24.913    
  16.775      10.841      7.1129      5.2150      4.4274      3.9786      3.7017      3.6109      3.7071      3.9908    
  4.4493      5.2548      7.1990      11.029      17.140      25.517      35.767      47.124      58.421      68.146    
  76.865      80.924      79.971      74.203      64.738      53.199      41.207      30.057      20.626      13.418    
  8.5855      5.8945      4.7145      4.1758      3.8231      3.6616      3.6951      3.9237      4.3392      5.0046    
  6.6116      9.9978      15.677      23.751      33.930      45.563      57.602      68.595      74.203      79.971    
  80.924      76.865      68.595      57.602      45.563      33.930      23.751      15.677      9.9978      6.6116    
  5.0046      4.3392      3.9237      3.6951      3.6616      3.8231      4.1758      4.7145      5.8945      8.5855    
  13.418      20.626      30.057      41.207      53.199      64.738      67.265      74.203      76.865      74.704    
  68.146      58.421      47.124      35.767      25.517      17.140      11.029      7.1990      5.2548      4.4493    