Fe BCC                                  
   2.85000000000000     
    -0.500000    0.500000    0.500000
     0.500000   -0.500000    0.500000
     0.500000    0.500000   -0.500000
   Fe
     1
Direct
  0.000000  0.000000  0.000000
 
   28   28   28
 0.98369545541E+02 0.95366659850E+02 0.86958215539E+02 0.74703908909E+02 0.60556602063E+02
 0.46310536564E+02 0.33318338637E+02 0.22478136735E+02 0.14305646238E+02 0.89297613163E+01
 0.60213291801E+01 0.47989133938E+01 0.42542185133E+01 0.39200374014E+01 0.38071908860E+01
 0.39200374014E+01 0.42542185133E+01 0.47989133938E+01 0.60213291801E+01 0.89297613163E+01
 0.14305646238E+02 0.22478136735E+02 0.33318338637E+02 0.46310536564E+02 0.60556602063E+02
 0.74703908909E+02 0.86958215539E+02 0.95366659850E+02 0.95366659850E+02 0.94369624485E+02
 0.87780714681E+02 0.76864980661E+02 0.63471366695E+02 0.49452813774E+02 0.36288395329E+02
 0.24995223696E+02 0.16191673917E+02 0.10125475367E+02 0.66161148401E+01 0.50222142399E+01
 0.43755395149E+01 0.39794266429E+01 0.37956395645E+01 0.38326178891E+01 0.40893267068E+01
 0.45500265646E+01 0.53981876954E+01 0.75358992038E+01 0.11852786273E+02 0.18842144734E+02
 0.28533349555E+02 0.40549892201E+02 0.54144526885E+02 0.68145784101E+02 0.80923874957E+02
 0.90570296786E+02 0.86958215539E+02 0.87780714681E+02 0.83228695279E+02 0.74203090007E+02
 0.62319200697E+02 0.49361680873E+02 0.36848615958E+02 0.25862972935E+02 0.17081547917E+02
 0.10823694459E+02 0.70223225251E+01 0.51786872472E+01 0.44364542334E+01 0.40012376725E+01
 0.37606477440E+01 0.37268694012E+01 0.39007292528E+01 0.42766738620E+01 0.48662360351E+01
 0.62451494878E+01 0.93414178819E+01 0.14799187967E+02 0.22830421585E+02 0.33228655783E+02
 0.45415537130E+02 0.58420600537E+02 0.70837834164E+02 0.80923874957E+02 0.74703908909E+02
 0.76864980661E+02 0.74203090007E+02 0.67265011120E+02 0.57358041146E+02 0.46087617238E+02
 0.34912354191E+02 0.24913046417E+02 0.16774996062E+02 0.10840898379E+02 0.71128755721E+01
 0.52150077699E+01 0.44274119631E+01 0.39786413356E+01 0.37017089782E+01 0.36108527401E+01
 0.37071033683E+01 0.39907974473E+01 0.44492845853E+01 0.52548399696E+01 0.71990272722E+01
 0.11029340479E+02 0.17139569960E+02 0.25516545709E+02 0.35767099385E+02 0.47123985200E+02
 0.58420600537E+02 0.68145784101E+02 0.60556602063E+02 0.63471366695E+02 0.62319200697E+02
 0.57358041146E+02 0.49574925371E+02 0.40326882847E+02 0.30929750741E+02 0.22395507778E+02
 0.15370651305E+02 0.10179773043E+02 0.68522319003E+01 0.51036059009E+01 0.43482083844E+01
 0.39099099052E+01 0.36193747291E+01 0.34904238308E+01 0.35228679389E+01 0.37186941435E+01
 0.40788089342E+01 0.45987452624E+01 0.56605592337E+01 0.80170067504E+01 0.12207893980E+02
 0.18418339629E+02 0.26457812761E+02 0.35767099385E+02 0.45415537130E+02 0.54144526885E+02
 0.46310536564E+02 0.49452813774E+02 0.49361680873E+02 0.46087617238E+02 0.40326882847E+02
 0.33162814070E+02 0.25715027436E+02 0.18876078655E+02 0.13218401919E+02 0.90210708053E+01
 0.63103817995E+01 0.48621819808E+01 0.42073760841E+01 0.37995987694E+01 0.35164847789E+01
 0.33697195494E+01 0.33569605028E+01 0.34788915471E+01 0.37421694581E+01 0.41469402643E+01
 0.47268738805E+01 0.59688195541E+01 0.84839826019E+01 0.12627754380E+02 0.18418339629E+02
 0.25516545709E+02 0.33228655783E+02 0.40549892201E+02 0.33318338637E+02 0.36288395329E+02
 0.36848615958E+02 0.34912354191E+02 0.30929750741E+02 0.25715027436E+02 0.20167070645E+02
 0.15029274042E+02 0.10780709549E+02 0.76439029489E+01 0.56277770282E+01 0.45457028603E+01
 0.40223667424E+01 0.36579622883E+01 0.33986747102E+01 0.32520762965E+01 0.32133440381E+01
 0.32805221659E+01 0.34603909943E+01 0.37632484667E+01 0.41876972997E+01 0.48039948854E+01
 0.60834531533E+01 0.84839826019E+01 0.12207893980E+02 0.17139569960E+02 0.22830421585E+02
 0.28533349555E+02 0.22478136735E+02 0.24995223696E+02 0.25862972935E+02 0.24913046417E+02
 0.22395507778E+02 0.18876078655E+02 0.15029274042E+02 0.11436904069E+02 0.84782215810E+01
 0.63204203474E+01 0.49541531373E+01 0.42183803666E+01 0.38129599069E+01 0.34988023692E+01
 0.32738297151E+01 0.31407339398E+01 0.30925137489E+01 0.31245752375E+01 0.32410599362E+01
 0.34539567284E+01 0.37748497113E+01 0.42009552002E+01 0.48039948854E+01 0.59688195541E+01
 0.80170067504E+01 0.11029340479E+02 0.14799187967E+02 0.18842144734E+02 0.14305646238E+02
 0.16191673917E+02 0.17081547917E+02 0.16774996062E+02 0.15370651305E+02 0.13218401919E+02
 0.10780709549E+02 0.84782215810E+01 0.65912119416E+01 0.52375192242E+01 0.43947393791E+01
 0.39229627265E+01 0.35981842989E+01 0.33366052138E+01 0.31507118690E+01 0.30390105825E+01
 0.29931696824E+01 0.30067823262E+01 0.30808202981E+01 0.32246802949E+01 0.34525012355E+01
 0.37748497113E+01 0.41876972997E+01 0.47268738805E+01 0.56605592337E+01 0.71990272722E+01
 0.93414178819E+01 0.11852786273E+02 0.89297613163E+01 0.10125475367E+02 0.10823694459E+02
 0.10840898379E+02 0.10179773043E+02 0.90210708053E+01 0.76439029489E+01 0.63204203474E+01
 0.52375192242E+01 0.44690598618E+01 0.39839054933E+01 0.36619613159E+01 0.33940821447E+01
 0.31840062601E+01 0.30373751963E+01 0.29500596196E+01 0.29135572680E+01 0.29208197433E+01
 0.29703625967E+01 0.30678227997E+01 0.32246802949E+01 0.34539567284E+01 0.37632484667E+01
 0.41469402643E+01 0.45987452624E+01 0.52548399696E+01 0.62451494878E+01 0.75358992038E+01
 0.60213291801E+01 0.66161148401E+01 0.70223225251E+01 0.71128755721E+01 0.68522319003E+01
 0.63103817995E+01 0.56277770282E+01 0.49541531373E+01 0.43947393791E+01 0.39839054933E+01
 0.36828091805E+01 0.34258030847E+01 0.32124343011E+01 0.30502851282E+01 0.29400003395E+01
 0.28765498825E+01 0.28523850613E+01 0.28609643452E+01 0.28995027875E+01 0.29703625967E+01
 0.30808202981E+01 0.32410599362E+01 0.34603909943E+01 0.37421694581E+01 0.40788089342E+01
 0.44492845853E+01 0.48662360351E+01 0.53981876954E+01 0.47989133938E+01 0.50222142399E+01
 0.51786872472E+01 0.52150077699E+01 0.51036059009E+01 0.48621819808E+01 0.45457028603E+01
 0.42183803666E+01 0.39229627265E+01 0.36619613159E+01 0.34258030847E+01 0.32231686354E+01
 0.30607305826E+01 0.29410192371E+01 0.28624812849E+01 0.28205491928E+01 0.28094050890E+01
 0.28238709720E+01 0.28609643452E+01 0.29208197433E+01 0.30067823262E+01 0.31245752375E+01
 0.32805221659E+01 0.34788915471E+01 0.37186941435E+01 0.39907974473E+01 0.42766738620E+01
 0.45500265646E+01 0.42542185133E+01 0.43755395149E+01 0.44364542334E+01 0.44274119631E+01
 0.43482083844E+01 0.42073760841E+01 0.40223667424E+01 0.38129599069E+01 0.35981842989E+01
 0.33940821447E+01 0.32124343011E+01 0.30607305826E+01 0.29426253984E+01 0.28585873505E+01
 0.28067116751E+01 0.27836742993E+01 0.27857016890E+01 0.28094050890E+01 0.28523850613E+01
 0.29135572680E+01 0.29931696824E+01 0.30925137489E+01 0.32133440381E+01 0.33569605028E+01
 0.35228679389E+01 0.37071033683E+01 0.39007292528E+01 0.40893267068E+01 0.39200374014E+01
 0.39794266429E+01 0.40012376725E+01 0.39786413356E+01 0.39099099052E+01 0.37995987694E+01
 0.36579622883E+01 0.34988023692E+01 0.33366052138E+01 0.31840062601E+01 0.30502851282E+01
 0.29410192371E+01 0.28585873505E+01 0.28030810385E+01 0.27732679144E+01 0.27673885836E+01
 0.27836742993E+01 0.28205491928E+01 0.28765498825E+01 0.29500596196E+01 0.30390105825E+01
 0.31407339398E+01 0.32520762965E+01 0.33697195494E+01 0.34904238308E+01 0.36108527401E+01
 0.37268694012E+01 0.38326178891E+01 0.38071908860E+01 0.37956395645E+01 0.37606477440E+01
 0.37017089782E+01 0.36193747291E+01 0.35164847789E+01 0.33986747102E+01 0.32738297151E+01
 0.31507118690E+01 0.30373751963E+01 0.29400003395E+01 0.28624812849E+01 0.28067116751E+01
 0.27732679144E+01 0.27621418448E+01 0.27732679144E+01 0.28067116751E+01 0.28624812849E+01
 0.29400003395E+01 0.30373751963E+01 0.31507118690E+01 0.32738297151E+01 0.33986747102E+01
 0.35164847789E+01 0.36193747291E+01 0.37017089782E+01 0.37606477440E+01 0.37956395645E+01
 0.39200374014E+01 0.38326178891E+01 0.37268694012E+01 0.36108527401E+01 0.34904238308E+01
 0.33697195494E+01 0.32520762965E+01 0.31407339398E+01 0.30390105825E+01 0.29500596196E+01
 0.28765498825E+01 0.28205491928E+01 0.27836742993E+01 0.27673885836E+01 0.27732679144E+01
 0.28030810385E+01 0.28585873505E+01 0.29410192371E+01 0.30502851282E+01 0.31840062601E+01
 0.33366052138E+01 0.34988023692E+01 0.36579622883E+01 0.37995987694E+01 0.39099099052E+01
 0.39786413356E+01 0.40012376725E+01 0.39794266429E+01 0.42542185133E+01 0.40893267068E+01
 0.39007292528E+01 0.37071033683E+01 0.35228679389E+01 0.33569605028E+01 0.32133440381E+01
 0.30925137489E+01 0.29931696824E+01 0.29135572680E+01 0.28523850613E+01 0.28094050890E+01
 0.27857016890E+01 0.27836742993E+01 0.28067116751E+01 0.28585873505E+01 0.29426253984E+01
 0.30607305826E+01 0.32124343011E+01 0.33940821447E+01 0.35981842989E+01 0.38129599069E+01
 0.40223667424E+01 0.42073760841E+01 0.43482083844E+01 0.44274119631E+01 0.44364542334E+01
 0.43755395149E+01 0.47989133938E+01 0.45500265646E+01 0.42766738620E+01 0.39907974473E+01
 0.37186941435E+01 0.34788915471E+01 0.32805221659E+01 0.31245752375E+01 0.30067823262E+01
 0.29208197433E+01 0.28609643452E+01 0.28238709720E+01 0.28094050890E+01 0.28205491928E+01
 0.28624812849E+01 0.29410192371E+01 0.30607305826E+01 0.32231686354E+01 0.34258030847E+01
 0.36619613159E+01 0.39229627265E+01 0.42183803666E+01 0.45457028603E+01 0.48621819808E+01
 0.51036059009E+01 0.52150077699E+01 0.51786872472E+01 0.50222142399E+01 0.60213291801E+01
 0.53981876954E+01 0.48662360351E+01 0.44492845853E+01 0.40788089342E+01 0.37421694581E+01
 0.34603909943E+01 0.32410599362E+01 0.30808202981E+01 0.29703625967E+01 0.28995027875E+01
 0.28609643452E+01 0.28523850613E+01 0.28765498825E+01 0.29400003395E+01 0.30502851282E+01
 0.32124343011E+01 0.34258030847E+01 0.36828091805E+01 0.39839054933E+01 0.43947393791E+01
 0.49541531373E+01 0.56277770282E+01 0.63103817995E+01 0.68522319003E+01 0.71128755721E+01
 0.70223225251E+01 0.66161148401E+01 0.89297613163E+01 0.75358992038E+01 0.62451494878E+01
 0.52548399696E+01 0.45987452624E+01 0.41469402643E+01 0.37632484667E+01 0.34539567284E+01
 0.32246802949E+01 0.30678227997E+01 0.29703625967E+01 0.29208197433E+01 0.29135572680E+01
 0.29500596196E+01 0.30373751963E+01 0.31840062601E+01 0.33940821447E+01 0.36619613159E+01
 0.39839054933E+01 0.44690598618E+01 0.52375192242E+01 0.63204203474E+01 0.76439029489E+01
 0.90210708053E+01 0.10179773043E+02 0.10840898379E+02 0.10823694459E+02 0.10125475367E+02
 0.14305646238E+02 0.11852786273E+02 0.93414178819E+01 0.71990272722E+01 0.56605592337E+01
 0.47268738805E+01 0.41876972997E+01 0.37748497113E+01 0.34525012355E+01 0.32246802949E+01
 0.30808202981E+01 0.30067823262E+01 0.29931696824E+01 0.30390105825E+01 0.31507118690E+01
 0.33366052138E+01 0.35981842989E+01 0.39229627265E+01 0.43947393791E+01 0.52375192242E+01
 0.65912119416E+01 0.84782215810E+01 0.10780709549E+02 0.13218401919E+02 0.15370651305E+02
 0.16774996062E+02 0.17081547917E+02 0.16191673917E+02 0.22478136735E+02 0.18842144734E+02
 0.14799187967E+02 0.11029340479E+02 0.80170067504E+01 0.59688195541E+01 0.48039948854E+01
 0.42009552002E+01 0.37748497113E+01 0.34539567284E+01 0.32410599362E+01 0.31245752375E+01
 0.30925137489E+01 0.31407339398E+01 0.32738297151E+01 0.34988023692E+01 0.38129599069E+01
 0.42183803666E+01 0.49541531373E+01 0.63204203474E+01 0.84782215810E+01 0.11436904069E+02
 0.15029274042E+02 0.18876078655E+02 0.22395507778E+02 0.24913046417E+02 0.25862972935E+02
 0.24995223696E+02 0.33318338637E+02 0.28533349555E+02 0.22830421585E+02 0.17139569960E+02
 0.12207893980E+02 0.84839826019E+01 0.60834531533E+01 0.48039948854E+01 0.41876972997E+01
 0.37632484667E+01 0.34603909943E+01 0.32805221659E+01 0.32133440381E+01 0.32520762965E+01
 0.33986747102E+01 0.36579622883E+01 0.40223667424E+01 0.45457028603E+01 0.56277770282E+01
 0.76439029489E+01 0.10780709549E+02 0.15029274042E+02 0.20167070645E+02 0.25715027436E+02
 0.30929750741E+02 0.34912354191E+02 0.36848615958E+02 0.36288395329E+02 0.46310536564E+02
 0.40549892201E+02 0.33228655783E+02 0.25516545709E+02 0.18418339629E+02 0.12627754380E+02
 0.84839826019E+01 0.59688195541E+01 0.47268738805E+01 0.41469402643E+01 0.37421694581E+01
 0.34788915471E+01 0.33569605028E+01 0.33697195494E+01 0.35164847789E+01 0.37995987694E+01
 0.42073760841E+01 0.48621819808E+01 0.63103817995E+01 0.90210708053E+01 0.13218401919E+02
 0.18876078655E+02 0.25715027436E+02 0.33162814070E+02 0.40326882847E+02 0.46087617238E+02
 0.49361680873E+02 0.49452813774E+02 0.60556602063E+02 0.54144526885E+02 0.45415537130E+02
 0.35767099385E+02 0.26457812761E+02 0.18418339629E+02 0.12207893980E+02 0.80170067504E+01
 0.56605592337E+01 0.45987452624E+01 0.40788089342E+01 0.37186941435E+01 0.35228679389E+01
 0.34904238308E+01 0.36193747291E+01 0.39099099052E+01 0.43482083844E+01 0.51036059009E+01
 0.68522319003E+01 0.10179773043E+02 0.15370651305E+02 0.22395507778E+02 0.30929750741E+02
 0.40326882847E+02 0.49574925371E+02 0.57358041146E+02 0.62319200697E+02 0.63471366695E+02
 0.74703908909E+02 0.68145784101E+02 0.58420600537E+02 0.47123985200E+02 0.35767099385E+02
 0.25516545709E+02 0.17139569960E+02 0.11029340479E+02 0.71990272722E+01 0.52548399696E+01
 0.44492845853E+01 0.39907974473E+01 0.37071033683E+01 0.36108527401E+01 0.37017089782E+01
 0.39786413356E+01 0.44274119631E+01 0.52150077699E+01 0.71128755721E+01 0.10840898379E+02
 0.16774996062E+02 0.24913046417E+02 0.34912354191E+02 0.46087617238E+02 0.57358041146E+02
 0.67265011120E+02 0.74203090007E+02 0.76864980661E+02 0.86958215539E+02 0.80923874957E+02
 0.70837834164E+02 0.58420600537E+02 0.45415537130E+02 0.33228655783E+02 0.22830421585E+02
 0.14799187967E+02 0.93414178819E+01 0.62451494878E+01 0.48662360351E+01 0.42766738620E+01
 0.39007292528E+01 0.37268694012E+01 0.37606477440E+01 0.40012376725E+01 0.44364542334E+01
 0.51786872472E+01 0.70223225251E+01 0.10823694459E+02 0.17081547917E+02 0.25862972935E+02
 0.36848615958E+02 0.49361680873E+02 0.62319200697E+02 0.74203090007E+02 0.83228695279E+02
 0.87780714681E+02 0.95366659850E+02 0.90570296786E+02 0.80923874957E+02 0.68145784101E+02
 0.54144526885E+02 0.40549892201E+02 0.28533349555E+02 0.18842144734E+02 0.11852786273E+02
 0.75358992038E+01 0.53981876954E+01 0.45500265646E+01 0.40893267068E+01 0.38326178891E+01
 0.37956395645E+01 0.39794266429E+01 0.43755395149E+01 0.50222142399E+01 0.66161148401E+01
 0.10125475367E+02 0.16191673917E+02 0.24995223696E+02 0.36288395329E+02 0.49452813774E+02
 0.63471366695E+02 0.76864980661E+02 0.87780714681E+02 0.94369624485E+02 0.95366659850E+02
 0.94369624485E+02 0.87780714681E+02 0.76864980661E+02 0.63471366695E+02 0.49452813774E+02
 0.36288395329E+02 0.24995223696E+02 0.16191673917E+02 0.10125475367E+02 0.66161148401E+01
 0.50222142399E+01 0.43755395149E+01 0.39794266429E+01 0.37956395645E+01 0.38326178891E+01
 0.40893267068E+01 0.45500265646E+01 0.53981876954E+01 0.75358992038E+01 0.11852786273E+02
 0.18842144734E+02 0.28533349555E+02 0.40549892201E+02 0.54144526885E+02 0.68145784101E+02
 0.80923874957E+02 0.90570296786E+02 0.94369624485E+02 0.95366659991E+02 0.90570297042E+02
 0.80923875276E+02 0.68145784419E+02 0.54144527149E+02 0.40549892382E+02 0.28533349654E+02
 0.18842144772E+02 0.11852786283E+02 0.75358992140E+01 0.53981877190E+01 0.45500265980E+01
 0.40893267362E+01 0.38326179000E+01 0.37956395513E+01 0.39794266114E+01 0.43755394786E+01
 0.50222142110E+01 0.66161148197E+01 0.10125475342E+02 0.16191673861E+02 0.24995223583E+02
 0.36288395148E+02 0.49452813535E+02 0.63471366436E+02 0.76864980437E+02 0.87780714549E+02
 0.87780714681E+02 0.90570297042E+02 0.87780714890E+02 0.79970779305E+02 0.68594561380E+02
 0.55477645073E+02 0.42303539638E+02 0.30344127234E+02 0.20437600279E+02 0.13047627123E+02
 0.82591433837E+01 0.57212042588E+01 0.46670445806E+01 0.41586234697E+01 0.38433508726E+01
 0.37373191360E+01 0.38433508356E+01 0.41586234132E+01 0.46670445290E+01 0.57212042270E+01
 0.82591433647E+01 0.13047627084E+02 0.20437600175E+02 0.30344127024E+02 0.42303539310E+02
 0.55477644656E+02 0.68594560943E+02 0.79970778939E+02 0.76864980661E+02 0.80923875276E+02
 0.79970779305E+02 0.74203090176E+02 0.64738480995E+02 0.53198550557E+02 0.41206903158E+02
 0.30057188130E+02 0.20626129999E+02 0.13417693999E+02 0.85855200836E+01 0.58944889963E+01
 0.47145163621E+01 0.41757914339E+01 0.38231071730E+01 0.36616158195E+01 0.36951302662E+01
 0.39237246880E+01 0.43392480377E+01 0.50046420414E+01 0.66116149630E+01 0.99978293129E+01
 0.15677435277E+02 0.23750680592E+02 0.33929799000E+02 0.45563029013E+02 0.57601631140E+02
 0.68594561051E+02 0.63471366695E+02 0.68145784419E+02 0.68594561380E+02 0.64738480995E+02
 0.57358041207E+02 0.47798474755E+02 0.37525273521E+02 0.27770004584E+02 0.19388950837E+02
 0.12879706706E+02 0.84193329481E+01 0.58517816281E+01 0.46745282645E+01 0.41353492394E+01
 0.37691430171E+01 0.35714882439E+01 0.35460276770E+01 0.36930759222E+01 0.40135574712E+01
 0.44944005596E+01 0.53958245584E+01 0.74930818833E+01 0.11422509446E+02 0.17470832360E+02
 0.25544190843E+02 0.35184605462E+02 0.45563029089E+02 0.55477644826E+02 0.49452813774E+02
 0.54144527149E+02 0.55477645073E+02 0.53198550557E+02 0.47798474755E+02 0.40326882803E+02
 0.32028624814E+02 0.24004932428E+02 0.17039548911E+02 0.11585557235E+02 0.78075191130E+01
 0.55928411357E+01 0.45439929035E+01 0.40396557876E+01 0.36824094296E+01 0.34696655592E+01
 0.34036353298E+01 0.34829885129E+01 0.37119021703E+01 0.40914375762E+01 0.46292307873E+01
 0.57506655495E+01 0.81318430403E+01 0.12214365863E+02 0.18102536548E+02 0.25544190887E+02
 0.33929799109E+02 0.42303539491E+02 0.36288395329E+02 0.40549892382E+02 0.42303539638E+02
 0.41206903158E+02 0.37525273521E+02 0.32028624814E+02 0.25715027340E+02 0.19512680966E+02
 0.14097190180E+02 0.98538144660E+01 0.69140833207E+01 0.51832803902E+01 0.43433887321E+01
 0.38986224680E+01 0.35683077510E+01 0.33596077219E+01 0.32722915054E+01 0.33025261065E+01
 0.34537008163E+01 0.37345527094E+01 0.41449544031E+01 0.47305674294E+01 0.59610918454E+01
 0.83635443662E+01 0.12214365881E+02 0.17470832415E+02 0.23750680696E+02 0.30344127175E+02
 0.24995223696E+02 0.28533349654E+02 0.30344127234E+02 0.30057188130E+02 0.27770004584E+02
 0.24004932428E+02 0.19512680966E+02 0.15029273952E+02 0.11104076467E+02 0.80460101917E+01
 0.59483522117E+01 0.47219421075E+01 0.41074765890E+01 0.37274449264E+01 0.34360678283E+01
 0.32460068423E+01 0.31541782897E+01 0.31543109160E+01 0.32471301466E+01 0.34421765464E+01
 0.37507170574E+01 0.41711284265E+01 0.47688376106E+01 0.59610918476E+01 0.81318430567E+01
 0.11422509489E+02 0.15677435352E+02 0.20437600277E+02 0.16191673917E+02 0.18842144772E+02
 0.20437600279E+02 0.20626129999E+02 0.19388950837E+02 0.17039548911E+02 0.14097190180E+02
 0.11104076467E+02 0.84782215266E+01 0.64530735423E+01 0.50878448728E+01 0.42967538555E+01
 0.38654494666E+01 0.35432689405E+01 0.32969684467E+01 0.31345365120E+01 0.30504070228E+01
 0.30365940926E+01 0.30909975067E+01 0.32205350967E+01 0.34385321370E+01 0.37563680403E+01
 0.41711284214E+01 0.47305674248E+01 0.57506655542E+01 0.74930819051E+01 0.99978293545E+01
 0.13047627140E+02 0.10125475367E+02 0.11852786283E+02 0.13047627123E+02 0.13417693999E+02
 0.12879706706E+02 0.11585557235E+02 0.98538144660E+01 0.80460101917E+01 0.64530735423E+01
 0.52375192045E+01 0.44306147240E+01 0.39514764726E+01 0.36287075454E+01 0.33620223322E+01
 0.31621243309E+01 0.30310281411E+01 0.29617181508E+01 0.29455828370E+01 0.29785147228E+01
 0.30640012657E+01 0.32127378285E+01 0.34385321312E+01 0.37507170465E+01 0.41449543916E+01
 0.46292307819E+01 0.53958245646E+01 0.66116149823E+01 0.82591433924E+01 0.66161148401E+01
 0.75358992140E+01 0.82591433837E+01 0.85855200836E+01 0.84193329481E+01 0.78075191130E+01
 0.69140833207E+01 0.59483522117E+01 0.50878448728E+01 0.44306147240E+01 0.39839054936E+01
 0.36722766395E+01 0.34091759777E+01 0.31963173562E+01 0.30406594757E+01 0.29405464117E+01
 0.28888179724E+01 0.28773897232E+01 0.29013200731E+01 0.29612784143E+01 0.30640012625E+01
 0.32205350886E+01 0.34421765341E+01 0.37345526969E+01 0.40914375688E+01 0.44944005619E+01
 0.50046420547E+01 0.57212042477E+01 0.50222142399E+01 0.53981877190E+01 0.57212042588E+01
 0.58944889963E+01 0.58517816281E+01 0.55928411357E+01 0.51832803902E+01 0.47219421075E+01
 0.42967538555E+01 0.39514764726E+01 0.36722766395E+01 0.34258030918E+01 0.32175850004E+01
 0.30546534942E+01 0.29387782042E+01 0.28668083628E+01 0.28325602547E+01 0.28294041971E+01
 0.28526728347E+01 0.29013200731E+01 0.29785147207E+01 0.30909975012E+01 0.32471301390E+01
 0.34537008097E+01 0.37119021692E+01 0.40135574793E+01 0.43392480564E+01 0.46670445557E+01
 0.43755395149E+01 0.45500265980E+01 0.46670445806E+01 0.47145163621E+01 0.46745282645E+01
 0.45439929035E+01 0.43433887321E+01 0.41074765890E+01 0.38654494666E+01 0.36287075454E+01
 0.34091759777E+01 0.32175850004E+01 0.30607305899E+01 0.29416124246E+01 0.28597791097E+01
 0.28121293461E+01 0.27941164857E+01 0.28010765756E+01 0.28294041989E+01 0.28773897257E+01
 0.29455828389E+01 0.30365940934E+01 0.31543109165E+01 0.33025261092E+01 0.34829885211E+01
 0.36930759386E+01 0.39237247137E+01 0.41586234464E+01 0.39794266429E+01 0.40893267362E+01
 0.41586234697E+01 0.41757914339E+01 0.41353492394E+01 0.40396557876E+01 0.38986224680E+01
 0.37274449264E+01 0.35432689405E+01 0.33620223322E+01 0.31963173562E+01 0.30546534942E+01
 0.29416124246E+01 0.28585873562E+01 0.28047112844E+01 0.27777932124E+01 0.27751326773E+01
 0.27941164874E+01 0.28325602585E+01 0.28888179779E+01 0.29617181573E+01 0.30504070300E+01
 0.31541782978E+01 0.32722915156E+01 0.34036353438E+01 0.35460276963E+01 0.36951302913E+01
 0.38433508653E+01 0.37956395645E+01 0.38326179000E+01 0.38433508726E+01 0.38231071730E+01
 0.37691430171E+01 0.36824094296E+01 0.35683077510E+01 0.34360678283E+01 0.32969684467E+01
 0.31621243309E+01 0.30406594757E+01 0.29387782042E+01 0.28597791097E+01 0.28047112844E+01
 0.27732679193E+01 0.27645905651E+01 0.27777932133E+01 0.28121293485E+01 0.28668083673E+01
 0.29405464186E+01 0.30310281502E+01 0.31345365227E+01 0.32460068541E+01 0.33596077344E+01
 0.34696655722E+01 0.35714882575E+01 0.36616158336E+01 0.37373191501E+01 0.38326178891E+01
 0.37956395513E+01 0.37373191360E+01 0.36616158195E+01 0.35714882439E+01 0.34696655592E+01
 0.33596077219E+01 0.32460068423E+01 0.31345365120E+01 0.30310281411E+01 0.29405464117E+01
 0.28668083628E+01 0.28121293461E+01 0.27777932124E+01 0.27645905651E+01 0.27732679197E+01
 0.28047112852E+01 0.28597791114E+01 0.29387782076E+01 0.30406594816E+01 0.31621243394E+01
 0.32969684574E+01 0.34360678398E+01 0.35683077614E+01 0.36824094369E+01 0.37691430199E+01
 0.38231071705E+01 0.38433508653E+01 0.40893267068E+01 0.39794266114E+01 0.38433508356E+01
 0.36951302662E+01 0.35460276770E+01 0.34036353298E+01 0.32722915054E+01 0.31541782897E+01
 0.30504070228E+01 0.29617181508E+01 0.28888179724E+01 0.28325602547E+01 0.27941164857E+01
 0.27751326773E+01 0.27777932133E+01 0.28047112852E+01 0.28585873564E+01 0.29416124245E+01
 0.30546534951E+01 0.31963173594E+01 0.33620223388E+01 0.35432689502E+01 0.37274449375E+01
 0.38986224773E+01 0.40396557913E+01 0.41353492348E+01 0.41757914195E+01 0.41586234464E+01
 0.45500265646E+01 0.43755394786E+01 0.41586234132E+01 0.39237246880E+01 0.36930759222E+01
 0.34829885129E+01 0.33025261065E+01 0.31543109160E+01 0.30365940926E+01 0.29455828370E+01
 0.28773897232E+01 0.28294041971E+01 0.28010765756E+01 0.27941164874E+01 0.28121293485E+01
 0.28597791114E+01 0.29416124245E+01 0.30607305883E+01 0.32175849992E+01 0.34091759795E+01
 0.36287075522E+01 0.38654494791E+01 0.41074766054E+01 0.43433887483E+01 0.45439929142E+01
 0.46745282648E+01 0.47145163496E+01 0.46670445557E+01 0.53981876954E+01 0.50222142110E+01
 0.46670445290E+01 0.43392480377E+01 0.40135574712E+01 0.37119021703E+01 0.34537008163E+01
 0.32471301466E+01 0.30909975067E+01 0.29785147228E+01 0.29013200731E+01 0.28526728347E+01
 0.28294041989E+01 0.28325602585E+01 0.28668083673E+01 0.29387782076E+01 0.30546534951E+01
 0.32175849992E+01 0.34258030913E+01 0.36722766440E+01 0.39514764859E+01 0.42967538794E+01
 0.47219421403E+01 0.51832804266E+01 0.55928411681E+01 0.58517816494E+01 0.58944890017E+01
 0.57212042477E+01 0.75358992038E+01 0.66161148197E+01 0.57212042270E+01 0.50046420414E+01
 0.44944005596E+01 0.40914375762E+01 0.37345527094E+01 0.34421765464E+01 0.32205350967E+01
 0.30640012657E+01 0.29612784143E+01 0.29013200731E+01 0.28773897257E+01 0.28888179779E+01
 0.29405464186E+01 0.30406594816E+01 0.31963173594E+01 0.34091759795E+01 0.36722766440E+01
 0.39839055070E+01 0.44306147523E+01 0.50878449187E+01 0.59483522730E+01 0.69140833899E+01
 0.78075191795E+01 0.84193330009E+01 0.85855201153E+01 0.82591433924E+01 0.11852786273E+02
 0.10125475342E+02 0.82591433647E+01 0.66116149630E+01 0.53958245584E+01 0.46292307873E+01
 0.41449544031E+01 0.37507170574E+01 0.34385321370E+01 0.32127378285E+01 0.30640012625E+01
 0.29785147207E+01 0.29455828389E+01 0.29617181573E+01 0.30310281502E+01 0.31621243394E+01
 0.33620223388E+01 0.36287075522E+01 0.39514764859E+01 0.44306147523E+01 0.52375192552E+01
 0.64530736183E+01 0.80460102888E+01 0.98538145732E+01 0.11585557336E+02 0.12879706787E+02
 0.13417694050E+02 0.13047627140E+02 0.18842144734E+02 0.16191673861E+02 0.13047627084E+02
 0.99978293129E+01 0.74930818833E+01 0.57506655495E+01 0.47305674294E+01 0.41711284265E+01
 0.37563680403E+01 0.34385321312E+01 0.32205350886E+01 0.30909975012E+01 0.30365940934E+01
 0.30504070300E+01 0.31345365227E+01 0.32969684574E+01 0.35432689502E+01 0.38654494791E+01
 0.42967538794E+01 0.50878449187E+01 0.64530736183E+01 0.84782216340E+01 0.11104076597E+02
 0.14097190318E+02 0.17039549034E+02 0.19388950926E+02 0.20626130042E+02 0.20437600277E+02
 0.28533349555E+02 0.24995223583E+02 0.20437600175E+02 0.15677435277E+02 0.11422509446E+02
 0.81318430403E+01 0.59610918454E+01 0.47688376106E+01 0.41711284214E+01 0.37507170465E+01
 0.34421765341E+01 0.32471301390E+01 0.31543109165E+01 0.31541782978E+01 0.32460068541E+01
 0.34360678398E+01 0.37274449375E+01 0.41074766054E+01 0.47219421403E+01 0.59483522730E+01
 0.80460102888E+01 0.11104076597E+02 0.15029274102E+02 0.19512681111E+02 0.24004932543E+02
 0.27770004645E+02 0.30057188129E+02 0.30344127175E+02 0.40549892201E+02 0.36288395148E+02
 0.30344127024E+02 0.23750680592E+02 0.17470832360E+02 0.12214365863E+02 0.83635443662E+01
 0.59610918476E+01 0.47305674248E+01 0.41449543916E+01 0.37345526969E+01 0.34537008097E+01
 0.33025261092E+01 0.32722915156E+01 0.33596077344E+01 0.35683077614E+01 0.38986224773E+01
 0.43433887483E+01 0.51832804266E+01 0.69140833899E+01 0.98538145732E+01 0.14097190318E+02
 0.19512681111E+02 0.25715027463E+02 0.32028624884E+02 0.37525273517E+02 0.41206903075E+02
 0.42303539491E+02 0.54144526885E+02 0.49452813535E+02 0.42303539310E+02 0.33929799000E+02
 0.25544190843E+02 0.18102536548E+02 0.12214365881E+02 0.81318430567E+01 0.57506655542E+01
 0.46292307819E+01 0.40914375688E+01 0.37119021692E+01 0.34829885211E+01 0.34036353438E+01
 0.34696655722E+01 0.36824094369E+01 0.40396557913E+01 0.45439929142E+01 0.55928411681E+01
 0.78075191795E+01 0.11585557336E+02 0.17039549034E+02 0.24004932543E+02 0.32028624884E+02
 0.40326882796E+02 0.47798474656E+02 0.53198550370E+02 0.55477644826E+02 0.68145784101E+02
 0.63471366436E+02 0.55477644656E+02 0.45563029013E+02 0.35184605462E+02 0.25544190887E+02
 0.17470832415E+02 0.11422509489E+02 0.74930819051E+01 0.53958245646E+01 0.44944005619E+01
 0.40135574793E+01 0.36930759386E+01 0.35460276963E+01 0.35714882575E+01 0.37691430199E+01
 0.41353492348E+01 0.46745282648E+01 0.58517816494E+01 0.84193330009E+01 0.12879706787E+02
 0.19388950926E+02 0.27770004645E+02 0.37525273517E+02 0.47798474656E+02 0.57358041005E+02
 0.64738480708E+02 0.68594561051E+02 0.80923874957E+02 0.76864980437E+02 0.68594560943E+02
 0.57601631140E+02 0.45563029089E+02 0.33929799109E+02 0.23750680696E+02 0.15677435352E+02
 0.99978293545E+01 0.66116149823E+01 0.50046420547E+01 0.43392480564E+01 0.39237247137E+01
 0.36951302913E+01 0.36616158336E+01 0.38231071705E+01 0.41757914195E+01 0.47145163496E+01
 0.58944890017E+01 0.85855201153E+01 0.13417694050E+02 0.20626130042E+02 0.30057188129E+02
 0.41206903075E+02 0.53198550370E+02 0.64738480708E+02 0.74203089823E+02 0.79970778939E+02
 0.90570296786E+02 0.87780714549E+02 0.79970778939E+02 0.68594561051E+02 0.55477644826E+02
 0.42303539491E+02 0.30344127175E+02 0.20437600277E+02 0.13047627140E+02 0.82591433924E+01
 0.57212042477E+01 0.46670445557E+01 0.41586234464E+01 0.38433508653E+01 0.37373191501E+01
 0.38433508653E+01 0.41586234464E+01 0.46670445557E+01 0.57212042477E+01 0.82591433924E+01
 0.13047627140E+02 0.20437600277E+02 0.30344127175E+02 0.42303539491E+02 0.55477644826E+02
 0.68594561051E+02 0.79970778939E+02 0.87780714549E+02 0.86958215539E+02 0.87780714681E+02
 0.83228695279E+02 0.74203090007E+02 0.62319200697E+02 0.49361680873E+02 0.36848615958E+02
 0.25862972935E+02 0.17081547917E+02 0.10823694459E+02 0.70223225251E+01 0.51786872472E+01
 0.44364542334E+01 0.40012376725E+01 0.37606477440E+01 0.37268694012E+01 0.39007292528E+01
 0.42766738620E+01 0.48662360351E+01 0.62451494878E+01 0.93414178819E+01 0.14799187967E+02
 0.22830421585E+02 0.33228655783E+02 0.45415537130E+02 0.58420600537E+02 0.70837834164E+02
 0.80923874957E+02 0.87780714681E+02 0.90570297042E+02 0.87780714890E+02 0.79970779305E+02
 0.68594561380E+02 0.55477645073E+02 0.42303539638E+02 0.30344127234E+02 0.20437600279E+02
 0.13047627123E+02 0.82591433837E+01 0.57212042588E+01 0.46670445806E+01 0.41586234697E+01
 0.38433508726E+01 0.37373191360E+01 0.38433508356E+01 0.41586234132E+01 0.46670445290E+01
 0.57212042270E+01 0.82591433647E+01 0.13047627084E+02 0.20437600175E+02 0.30344127024E+02
 0.42303539310E+02 0.55477644656E+02 0.68594560943E+02 0.79970778939E+02 0.83228695279E+02
 0.87780714890E+02 0.86958215929E+02 0.80923875456E+02 0.70837834677E+02 0.58420600975E+02