   1   1   1   0
  0.1157456E+02  0.2468172E-09  0.2468172E-09  0.2468172E-09  0.5000000E-15
  1.000000000000000E-004
  CAR 
 Fe BCC                                  
     44.75707263     -3.61637646  301      5.61660075      1.00000000
     -3.616  0.0000E+00  0.0000E+00  0.0000E+00  0.0000E+00
     -3.455  0.0000E+00  0.0000E+00  0.0000E+00  0.0000E+00
     -3.294  0.0000E+00  0.0000E+00  0.0000E+00  0.0000E+00
     -3.133  0.0000E+00  0.0000E+00  0.0000E+00  0.0000E+00
     -2.971  0.0000E+00  0.0000E+00  0.0000E+00  0.0000E+00
     -2.810  0.0000E+00  0.0000E+00  0.0000E+00  0.0000E+00
     -2.649  0.0000E+00  0.0000E+00  0.0000E+00  0.0000E+00
     -2.488  0.0000E+00  0.0000E+00  0.0000E+00  0.0000E+00
     -2.326  0.0000E+00  0.0000E+00  0.0000E+00  0.0000E+00
     -2.165  0.0000E+00  0.0000E+00  0.0000E+00  0.0000E+00
     -2.004  0.0000E+00  0.0000E+00  0.0000E+00  0.0000E+00
     -1.843  0.0000E+00  0.0000E+00  0.0000E+00  0.0000E+00
     -1.681  0.0000E+00  0.0000E+00  0.0000E+00  0.0000E+00
     -1.520  0.0000E+00  0.0000E+00  0.0000E+00  0.0000E+00
     -1.359  0.3038E-01  0.0000E+00  0.6912E-02  0.0000E+00
     -1.198  0.3792E-01  0.2830E-01  0.1241E-01  0.8730E-02
     -1.036  0.4597E-01  0.3366E-01  0.1917E-01  0.1372E-01
     -0.875  0.5450E-01  0.3908E-01  0.2726E-01  0.1959E-01
     -0.714  0.6353E-01  0.4456E-01  0.3677E-01  0.2633E-01
     -0.553  0.7305E-01  0.5009E-01  0.4778E-01  0.3396E-01
     -0.391  0.8306E-01  0.5569E-01  0.6035E-01  0.4249E-01
     -0.230  0.9356E-01  0.6135E-01  0.7459E-01  0.5192E-01
     -0.069  0.1046E+00  0.6706E-01  0.9055E-01  0.6227E-01
      0.092  0.1160E+00  0.7284E-01  0.1083E+00  0.7355E-01
      0.253  0.1280E+00  0.7867E-01  0.1280E+00  0.8577E-01
      0.415  0.1405E+00  0.8457E-01  0.1496E+00  0.9893E-01
      0.576  0.1535E+00  0.9052E-01  0.1733E+00  0.1130E+00
      0.737  0.2268E+00  0.9653E-01  0.2034E+00  0.1281E+00
      0.898  0.3328E+00  0.1083E+00  0.2481E+00  0.1444E+00
      1.060  0.4684E+00  0.1264E+00  0.3123E+00  0.1633E+00
      1.221  0.1021E+01  0.1472E+00  0.4279E+00  0.1853E+00
      1.382  0.1061E+01  0.1706E+00  0.5974E+00  0.2109E+00
      1.543  0.9326E+00  0.1966E+00  0.7654E+00  0.2405E+00
      1.705  0.6418E+00  0.2252E+00  0.9034E+00  0.2745E+00
      1.866  0.4731E+00  0.2564E+00  0.9926E+00  0.3133E+00
      2.027  0.3564E+00  0.2903E+00  0.1059E+01  0.3573E+00
      2.188  0.2917E+00  0.4887E+00  0.1110E+01  0.4307E+00
      2.350  0.1047E+01  0.5073E+00  0.1242E+01  0.5111E+00
      2.511  0.1127E+01  0.5142E+00  0.1418E+01  0.5936E+00
      2.672  0.1221E+01  0.5095E+00  0.1603E+01  0.6763E+00
      2.833  0.1691E+01  0.4930E+00  0.1847E+01  0.7573E+00
      2.995  0.1338E+01  0.4072E+00  0.2053E+01  0.8491E+00
      3.156  0.1571E+01  0.3043E+00  0.2287E+01  0.9063E+00
      3.317  0.1525E+01  0.2140E+00  0.2564E+01  0.9480E+00
      3.478  0.7404E+00  0.2649E+00  0.2755E+01  0.9960E+00
      3.640  0.4465E+00  0.2450E+00  0.2850E+01  0.1037E+01
      3.801  0.2722E+00  0.2279E+00  0.2912E+01  0.1075E+01
      3.962  0.3180E+00  0.6755E+00  0.2959E+01  0.1127E+01
      4.123  0.3905E+00  0.8163E+00  0.3016E+01  0.1265E+01
      4.285  0.6208E+00  0.8543E+00  0.3108E+01  0.1400E+01
      4.446  0.1570E+01  0.9830E+00  0.3242E+01  0.1541E+01
      4.607  0.1932E+01  0.2221E+01  0.3531E+01  0.1788E+01
      4.768  0.2079E+01  0.3749E+01  0.3846E+01  0.2240E+01
      4.930  0.1920E+01  0.9194E+00  0.4207E+01  0.2572E+01
      5.091  0.1247E+01  0.6755E+00  0.4457E+01  0.2700E+01
      5.252  0.1595E+01  0.4766E+00  0.4685E+01  0.2792E+01
      5.413  0.1683E+01  0.3228E+00  0.4965E+01  0.2856E+01
      5.575  0.1851E+00  0.1303E+00  0.5094E+01  0.2893E+01
      5.736  0.2136E+00  0.1136E+00  0.5125E+01  0.2913E+01
      5.897  0.2541E+00  0.1666E+00  0.5163E+01  0.2939E+01
      6.058  0.2744E+00  0.1887E+00  0.5206E+01  0.2968E+01
      6.220  0.1673E+00  0.2237E+00  0.5250E+01  0.3001E+01
      6.381  0.1677E+00  0.2715E+00  0.5277E+01  0.3041E+01
      6.542  0.1679E+00  0.3322E+00  0.5304E+01  0.3089E+01
      6.703  0.1680E+00  0.5065E+00  0.5331E+01  0.3162E+01
      6.865  0.1679E+00  0.1365E+01  0.5358E+01  0.3342E+01
      7.026  0.1676E+00  0.1606E+01  0.5385E+01  0.3583E+01
      7.187  0.1671E+00  0.1468E+01  0.5412E+01  0.3844E+01
      7.348  0.1665E+00  0.1484E+01  0.5439E+01  0.4065E+01
      7.510  0.1658E+00  0.1673E+01  0.5466E+01  0.4304E+01
      7.671  0.1649E+00  0.2631E+01  0.5492E+01  0.4700E+01
      7.832  0.1638E+00  0.3517E+00  0.5519E+01  0.5086E+01
      7.993  0.1625E+00  0.4213E+00  0.5545E+01  0.5150E+01
      8.154  0.1611E+00  0.4174E+00  0.5571E+01  0.5218E+01
      8.316  0.1596E+00  0.2185E+00  0.5597E+01  0.5265E+01
      8.477  0.1579E+00  0.2179E+00  0.5623E+01  0.5300E+01
      8.638  0.1560E+00  0.2171E+00  0.5648E+01  0.5335E+01
      8.799  0.1539E+00  0.2159E+00  0.5673E+01  0.5370E+01
      8.961  0.1517E+00  0.2145E+00  0.5698E+01  0.5405E+01
      9.122  0.1493E+00  0.2128E+00  0.5722E+01  0.5439E+01
      9.283  0.1468E+00  0.2109E+00  0.5746E+01  0.5473E+01
      9.444  0.1441E+00  0.2086E+00  0.5769E+01  0.5507E+01
      9.606  0.1413E+00  0.2061E+00  0.5792E+01  0.5541E+01
      9.767  0.1199E+00  0.2032E+00  0.5824E+01  0.5574E+01
      9.928  0.1127E+00  0.2001E+00  0.5842E+01  0.5606E+01
     10.089  0.1057E+00  0.1968E+00  0.5860E+01  0.5638E+01
     10.251  0.9882E-01  0.1931E+00  0.5876E+01  0.5669E+01
     10.412  0.9212E-01  0.1892E+00  0.5892E+01  0.5700E+01
     10.573  0.9087E-01  0.1849E+00  0.5912E+01  0.5730E+01
     10.734  0.8240E-01  0.1804E+00  0.5926E+01  0.5760E+01
     10.896  0.7418E-01  0.1756E+00  0.5939E+01  0.5789E+01
     11.057  0.6621E-01  0.1437E+00  0.5950E+01  0.5823E+01
     11.218  0.5848E-01  0.1342E+00  0.5960E+01  0.5846E+01
     11.379  0.5099E-01  0.1277E+00  0.5969E+01  0.5872E+01
     11.541  0.4375E-01  0.1155E+00  0.5976E+01  0.5891E+01
     11.702  0.3676E-01  0.1039E+00  0.5983E+01  0.5909E+01
     11.863  0.3001E-01  0.9276E-01  0.5988E+01  0.5925E+01
     12.024  0.2351E-01  0.8208E-01  0.5993E+01  0.5939E+01
     12.186  0.1725E-01  0.7188E-01  0.5996E+01  0.5951E+01
     12.347  0.1124E-01  0.6216E-01  0.5998E+01  0.5962E+01
     12.508  0.5479E-02  0.5292E-01  0.6000E+01  0.5971E+01
     12.669  0.6864E-04  0.4416E-01  0.6000E+01  0.5979E+01
     12.831  0.2345E-01  0.3587E-01  0.6002E+01  0.5986E+01
     12.992  0.7491E-01  0.2806E-01  0.6009E+01  0.5991E+01
     13.153  0.9620E-01  0.2073E-01  0.6036E+01  0.5995E+01
     13.314  0.1033E+00  0.1388E-01  0.6052E+01  0.5998E+01
     13.476  0.1101E+00  0.7508E-02  0.6070E+01  0.5999E+01
     13.637  0.1168E+00  0.1612E-02  0.6088E+01  0.6000E+01
     13.798  0.1233E+00  0.8354E-02  0.6107E+01  0.6000E+01
     13.959  0.1296E+00  0.2982E-01  0.6128E+01  0.6003E+01
     14.121  0.1356E+00  0.6266E-01  0.6149E+01  0.6011E+01
     14.282  0.1415E+00  0.1069E+00  0.6171E+01  0.6024E+01
     14.443  0.1472E+00  0.1148E+00  0.6195E+01  0.6053E+01
     14.604  0.1527E+00  0.1228E+00  0.6219E+01  0.6072E+01
     14.766  0.1580E+00  0.1306E+00  0.6244E+01  0.6093E+01
     14.927  0.1630E+00  0.1381E+00  0.6270E+01  0.6114E+01
     15.088  0.1698E+00  0.1454E+00  0.6296E+01  0.6137E+01
     15.249  0.1780E+00  0.1525E+00  0.6324E+01  0.6161E+01
     15.411  0.1862E+00  0.1593E+00  0.6354E+01  0.6186E+01
     15.572  0.1942E+00  0.1659E+00  0.6385E+01  0.6213E+01
     15.733  0.2020E+00  0.1723E+00  0.6416E+01  0.6240E+01
     15.894  0.2097E+00  0.1794E+00  0.6450E+01  0.6268E+01
     16.055  0.2173E+00  0.1899E+00  0.6484E+01  0.6298E+01
     16.217  0.2248E+00  0.2002E+00  0.6520E+01  0.6329E+01
     16.378  0.2167E+00  0.2103E+00  0.6556E+01  0.6363E+01
     16.539  0.2057E+00  0.2201E+00  0.6590E+01  0.6397E+01
     16.700  0.1959E+00  0.2297E+00  0.6622E+01  0.6433E+01
     16.862  0.1873E+00  0.2391E+00  0.6653E+01  0.6471E+01
     17.023  0.1800E+00  0.2483E+00  0.6682E+01  0.6511E+01
     17.184  0.1738E+00  0.2711E+00  0.6711E+01  0.6552E+01
     17.345  0.1689E+00  0.2478E+00  0.6739E+01  0.6594E+01
     17.507  0.1652E+00  0.2281E+00  0.6766E+01  0.6632E+01
     17.668  0.1283E+00  0.2118E+00  0.6802E+01  0.6668E+01
     17.829  0.1297E+00  0.1990E+00  0.6823E+01  0.6701E+01
     17.990  0.1311E+00  0.1897E+00  0.6844E+01  0.6732E+01
     18.152  0.1327E+00  0.1370E+00  0.6865E+01  0.6770E+01
     18.313  0.1344E+00  0.1381E+00  0.6886E+01  0.6792E+01
     18.474  0.1362E+00  0.1394E+00  0.6908E+01  0.6814E+01
     18.635  0.1381E+00  0.1408E+00  0.6930E+01  0.6837E+01
     18.797  0.1402E+00  0.1424E+00  0.6953E+01  0.6860E+01
     18.958  0.1424E+00  0.1441E+00  0.6976E+01  0.6883E+01
     19.119  0.1447E+00  0.1460E+00  0.6999E+01  0.6906E+01
     19.280  0.1471E+00  0.1481E+00  0.7022E+01  0.6930E+01
     19.442  0.1497E+00  0.1503E+00  0.7046E+01  0.6954E+01
     19.603  0.1728E+00  0.1527E+00  0.7084E+01  0.6979E+01
     19.764  0.1726E+00  0.1552E+00  0.7111E+01  0.7003E+01
     19.925  0.1723E+00  0.1579E+00  0.7139E+01  0.7029E+01
     20.087  0.1721E+00  0.1803E+00  0.7167E+01  0.7067E+01
     20.248  0.1718E+00  0.1796E+00  0.7195E+01  0.7096E+01
     20.409  0.1715E+00  0.1789E+00  0.7222E+01  0.7125E+01
     20.570  0.2061E+00  0.1782E+00  0.7265E+01  0.7154E+01
     20.732  0.2117E+00  0.1775E+00  0.7298E+01  0.7182E+01
     20.893  0.2177E+00  0.1769E+00  0.7333E+01  0.7211E+01
     21.054  0.2239E+00  0.2099E+00  0.7369E+01  0.7251E+01
     21.215  0.2304E+00  0.2158E+00  0.7405E+01  0.7285E+01
     21.377  0.2373E+00  0.2221E+00  0.7443E+01  0.7320E+01
     21.538  0.2445E+00  0.2287E+00  0.7482E+01  0.7357E+01
     21.699  0.2717E+00  0.2358E+00  0.7528E+01  0.7394E+01
     21.860  0.2842E+00  0.2432E+00  0.7573E+01  0.7433E+01
     22.022  0.2960E+00  0.2510E+00  0.7620E+01  0.7473E+01
     22.183  0.3070E+00  0.2613E+00  0.7669E+01  0.7514E+01
     22.344  0.3174E+00  0.2729E+00  0.7719E+01  0.7557E+01
     22.505  0.3271E+00  0.3076E+00  0.7771E+01  0.7610E+01
     22.667  0.3360E+00  0.3208E+00  0.7824E+01  0.7660E+01
     22.828  0.3443E+00  0.3333E+00  0.7879E+01  0.7713E+01
     22.989  0.3518E+00  0.3453E+00  0.7935E+01  0.7768E+01
     23.150  0.3586E+00  0.3567E+00  0.7993E+01  0.7825E+01
     23.312  0.3647E+00  0.3675E+00  0.8051E+01  0.7883E+01
     23.473  0.3792E+00  0.3778E+00  0.8116E+01  0.7943E+01
     23.634  0.3190E+00  0.3874E+00  0.8176E+01  0.8005E+01
     23.795  0.3915E+00  0.3965E+00  0.8230E+01  0.8068E+01
     23.956  0.5265E+00  0.4050E+00  0.8305E+01  0.8133E+01
     24.118  0.3025E+00  0.4228E+00  0.8370E+01  0.8205E+01
     24.279  0.2907E+00  0.5140E+00  0.8418E+01  0.8281E+01
     24.440  0.2792E+00  0.3332E+00  0.8463E+01  0.8351E+01
     24.601  0.2679E+00  0.3032E+00  0.8508E+01  0.8401E+01
     24.763  0.2568E+00  0.2909E+00  0.8550E+01  0.8448E+01
     24.924  0.2460E+00  0.2789E+00  0.8590E+01  0.8494E+01
     25.085  0.2354E+00  0.2672E+00  0.8629E+01  0.8538E+01
     25.246  0.2250E+00  0.2556E+00  0.8666E+01  0.8581E+01
     25.408  0.2149E+00  0.2444E+00  0.8702E+01  0.8621E+01
     25.569  0.2051E+00  0.2334E+00  0.8736E+01  0.8659E+01
     25.730  0.1954E+00  0.2226E+00  0.8768E+01  0.8696E+01
     25.891  0.1860E+00  0.2120E+00  0.8799E+01  0.8731E+01
     26.053  0.1769E+00  0.2018E+00  0.8828E+01  0.8764E+01
     26.214  0.1680E+00  0.1917E+00  0.8856E+01  0.8796E+01
     26.375  0.1593E+00  0.1819E+00  0.8882E+01  0.8826E+01
     26.536  0.1419E+00  0.1625E+00  0.8911E+01  0.8859E+01
     26.698  0.1346E+00  0.1542E+00  0.8933E+01  0.8884E+01
     26.859  0.1275E+00  0.1462E+00  0.8955E+01  0.8909E+01
     27.020  0.1207E+00  0.1385E+00  0.8975E+01  0.8932E+01
     27.181  0.1141E+00  0.1310E+00  0.8993E+01  0.8953E+01
     27.343  0.1077E+00  0.1238E+00  0.9011E+01  0.8974E+01
     27.504  0.1017E+00  0.1168E+00  0.9028E+01  0.8993E+01
     27.665  0.9581E-01  0.1101E+00  0.9044E+01  0.9012E+01
     27.826  0.9023E-01  0.1037E+00  0.9059E+01  0.9029E+01
     27.988  0.8489E-01  0.9752E-01  0.9073E+01  0.9045E+01
     28.149  0.7980E-01  0.9161E-01  0.9087E+01  0.9060E+01
     28.310  0.5054E-01  0.8596E-01  0.9107E+01  0.9075E+01
     28.471  0.4890E-01  0.8057E-01  0.9115E+01  0.9088E+01
     28.633  0.4749E-01  0.5054E-01  0.9123E+01  0.9108E+01
     28.794  0.4632E-01  0.4891E-01  0.9131E+01  0.9116E+01
     28.955  0.4540E-01  0.4756E-01  0.9138E+01  0.9124E+01
     29.116  0.4471E-01  0.4649E-01  0.9145E+01  0.9132E+01
     29.278  0.4426E-01  0.4570E-01  0.9153E+01  0.9139E+01
     29.439  0.4751E-01  0.4519E-01  0.9160E+01  0.9147E+01
     29.600  0.5108E-01  0.4821E-01  0.9168E+01  0.9154E+01
     29.761  0.5758E-01  0.5177E-01  0.9176E+01  0.9162E+01
     29.923  0.8167E-01  0.5569E-01  0.9188E+01  0.9171E+01
     30.084  0.1301E+00  0.5996E-01  0.9209E+01  0.9180E+01
     30.245  0.1573E+00  0.6714E-01  0.9232E+01  0.9190E+01
     30.406  0.1840E+00  0.1141E+00  0.9260E+01  0.9209E+01
     30.568  0.2104E+00  0.1394E+00  0.9292E+01  0.9229E+01
     30.729  0.2364E+00  0.1654E+00  0.9328E+01  0.9254E+01
     30.890  0.2475E+00  0.1921E+00  0.9372E+01  0.9283E+01
     31.051  0.2631E+00  0.2194E+00  0.9414E+01  0.9316E+01
     31.213  0.2792E+00  0.2473E+00  0.9457E+01  0.9354E+01
     31.374  0.2958E+00  0.2759E+00  0.9504E+01  0.9396E+01
     31.535  0.3130E+00  0.3052E+00  0.9553E+01  0.9443E+01
     31.696  0.3307E+00  0.3293E+00  0.9605E+01  0.9499E+01
     31.857  0.3489E+00  0.3483E+00  0.9659E+01  0.9554E+01
     32.019  0.3780E+00  0.3679E+00  0.9718E+01  0.9612E+01
     32.180  0.3725E+00  0.3882E+00  0.9778E+01  0.9672E+01
     32.341  0.3661E+00  0.4291E+00  0.9838E+01  0.9739E+01
     32.502  0.3589E+00  0.4184E+00  0.9896E+01  0.9807E+01
     32.664  0.3509E+00  0.4061E+00  0.9953E+01  0.9874E+01
     32.825  0.3455E+00  0.3923E+00  0.1001E+02  0.9938E+01
     32.986  0.3374E+00  0.3769E+00  0.1006E+02  0.1000E+02
     33.147  0.3284E+00  0.3600E+00  0.1012E+02  0.1006E+02
     33.309  0.3187E+00  0.3382E+00  0.1017E+02  0.1012E+02
     33.470  0.3083E+00  0.3194E+00  0.1022E+02  0.1017E+02
     33.631  0.2970E+00  0.3001E+00  0.1027E+02  0.1022E+02
     33.792  0.2850E+00  0.2868E+00  0.1032E+02  0.1027E+02
     33.954  0.2723E+00  0.2731E+00  0.1036E+02  0.1031E+02
     34.115  0.2598E+00  0.2592E+00  0.1040E+02  0.1035E+02
     34.276  0.2475E+00  0.2449E+00  0.1045E+02  0.1039E+02
     34.437  0.2351E+00  0.2303E+00  0.1048E+02  0.1043E+02
     34.599  0.2227E+00  0.2155E+00  0.1052E+02  0.1047E+02
     34.760  0.2103E+00  0.1437E+00  0.1056E+02  0.1051E+02
     34.921  0.1420E+00  0.1443E+00  0.1059E+02  0.1053E+02
     35.082  0.1422E+00  0.1448E+00  0.1061E+02  0.1056E+02
     35.244  0.2494E+00  0.1452E+00  0.1066E+02  0.1058E+02
     35.405  0.3126E+00  0.1454E+00  0.1070E+02  0.1060E+02
     35.566  0.3289E+00  0.2506E+00  0.1076E+02  0.1065E+02
     35.727  0.3383E+00  0.3140E+00  0.1081E+02  0.1069E+02
     35.889  0.3450E+00  0.3262E+00  0.1087E+02  0.1075E+02
     36.050  0.3490E+00  0.3329E+00  0.1092E+02  0.1080E+02
     36.211  0.3504E+00  0.3380E+00  0.1098E+02  0.1086E+02
     36.372  0.3490E+00  0.3413E+00  0.1104E+02  0.1091E+02
     36.534  0.3450E+00  0.3428E+00  0.1109E+02  0.1097E+02
     36.695  0.3384E+00  0.3427E+00  0.1115E+02  0.1102E+02
     36.856  0.3290E+00  0.3408E+00  0.1120E+02  0.1108E+02
     37.017  0.3170E+00  0.3372E+00  0.1125E+02  0.1113E+02
     37.179  0.3048E+00  0.3319E+00  0.1130E+02  0.1119E+02
     37.340  0.2932E+00  0.3249E+00  0.1135E+02  0.1124E+02
     37.501  0.2815E+00  0.3162E+00  0.1140E+02  0.1129E+02
     37.662  0.2695E+00  0.3057E+00  0.1144E+02  0.1134E+02
     37.824  0.2573E+00  0.2935E+00  0.1149E+02  0.1139E+02
     37.985  0.2449E+00  0.2803E+00  0.1153E+02  0.1144E+02
     38.146  0.2323E+00  0.2671E+00  0.1156E+02  0.1148E+02
     38.307  0.2195E+00  0.2539E+00  0.1160E+02  0.1152E+02
     38.469  0.2065E+00  0.2407E+00  0.1163E+02  0.1156E+02
     38.630  0.1989E+00  0.2273E+00  0.1167E+02  0.1160E+02
     38.791  0.1943E+00  0.2168E+00  0.1170E+02  0.1163E+02
     38.952  0.1925E+00  0.2091E+00  0.1173E+02  0.1167E+02
     39.114  0.1937E+00  0.2023E+00  0.1176E+02  0.1170E+02
     39.275  0.1284E+00  0.1962E+00  0.1179E+02  0.1173E+02
     39.436  0.1229E+00  0.1909E+00  0.1181E+02  0.1177E+02
     39.597  0.1172E+00  0.1362E+00  0.1183E+02  0.1180E+02
     39.758  0.1113E+00  0.1297E+00  0.1185E+02  0.1183E+02
     39.920  0.1052E+00  0.1229E+00  0.1187E+02  0.1185E+02
     40.081  0.9894E-01  0.1158E+00  0.1189E+02  0.1187E+02
     40.242  0.9245E-01  0.1083E+00  0.1190E+02  0.1188E+02
     40.403  0.8575E-01  0.1004E+00  0.1192E+02  0.1190E+02
     40.565  0.7886E-01  0.9218E-01  0.1193E+02  0.1192E+02
     40.726  0.7176E-01  0.8360E-01  0.1194E+02  0.1193E+02
     40.887  0.6446E-01  0.7466E-01  0.1195E+02  0.1194E+02
     41.048  0.5695E-01  0.6537E-01  0.1196E+02  0.1195E+02
     41.210  0.2113E-01  0.2605E-01  0.1198E+02  0.1197E+02
     41.371  0.1908E-01  0.2380E-01  0.1198E+02  0.1197E+02
     41.532  0.1720E-01  0.2169E-01  0.1198E+02  0.1198E+02
     41.693  0.1548E-01  0.1971E-01  0.1199E+02  0.1198E+02
     41.855  0.1392E-01  0.1786E-01  0.1199E+02  0.1198E+02
     42.016  0.1253E-01  0.1615E-01  0.1199E+02  0.1199E+02
     42.177  0.1130E-01  0.1457E-01  0.1199E+02  0.1199E+02
     42.338  0.0000E+00  0.1312E-01  0.1200E+02  0.1199E+02
     42.500  0.0000E+00  0.1181E-01  0.1200E+02  0.1199E+02
     42.661  0.0000E+00  0.0000E+00  0.1200E+02  0.1200E+02
     42.822  0.0000E+00  0.0000E+00  0.1200E+02  0.1200E+02
     42.983  0.0000E+00  0.0000E+00  0.1200E+02  0.1200E+02
     43.145  0.0000E+00  0.0000E+00  0.1200E+02  0.1200E+02
     43.306  0.0000E+00  0.0000E+00  0.1200E+02  0.1200E+02
     43.467  0.0000E+00  0.0000E+00  0.1200E+02  0.1200E+02
     43.628  0.0000E+00  0.0000E+00  0.1200E+02  0.1200E+02
     43.790  0.0000E+00  0.0000E+00  0.1200E+02  0.1200E+02
     43.951  0.0000E+00  0.0000E+00  0.1200E+02  0.1200E+02
     44.112  0.0000E+00  0.0000E+00  0.1200E+02  0.1200E+02
     44.273  0.0000E+00  0.0000E+00  0.1200E+02  0.1200E+02
     44.435  0.0000E+00  0.0000E+00  0.1200E+02  0.1200E+02
     44.596  0.0000E+00  0.0000E+00  0.1200E+02  0.1200E+02
     44.757  0.0000E+00  0.0000E+00  0.1200E+02  0.1200E+02
     44.75707263     -3.61637646  301      5.61660075      1.00000000
     -3.616  0.0000E+00  0.0000E+00  0.0000E+00  0.0000E+00  0.0000E+00  0.0000E+00  0.0000E+00  0.0000E+00  0.0000E+00  0.0000E+00  0.0000E+00  0.0000E+00  0.0000E+00  0.0000E+00  0.0000E+00  0.0000E+00  0.0000E+00  0.0000E+00
     -3.455  0.0000E+00  0.0000E+00  0.0000E+00  0.0000E+00  0.0000E+00  0.0000E+00  0.0000E+00  0.0000E+00  0.0000E+00  0.0000E+00  0.0000E+00  0.0000E+00  0.0000E+00  0.0000E+00  0.0000E+00  0.0000E+00  0.0000E+00  0.0000E+00
     -3.294  0.0000E+00  0.0000E+00  0.0000E+00  0.0000E+00  0.0000E+00  0.0000E+00  0.0000E+00  0.0000E+00  0.0000E+00  0.0000E+00  0.0000E+00  0.0000E+00  0.0000E+00  0.0000E+00  0.0000E+00  0.0000E+00  0.0000E+00  0.0000E+00
     -3.133  0.0000E+00  0.0000E+00  0.0000E+00  0.0000E+00  0.0000E+00  0.0000E+00  0.0000E+00  0.0000E+00  0.0000E+00  0.0000E+00  0.0000E+00  0.0000E+00  0.0000E+00  0.0000E+00  0.0000E+00  0.0000E+00  0.0000E+00  0.0000E+00
     -2.971  0.0000E+00  0.0000E+00  0.0000E+00  0.0000E+00  0.0000E+00  0.0000E+00  0.0000E+00  0.0000E+00  0.0000E+00  0.0000E+00  0.0000E+00  0.0000E+00  0.0000E+00  0.0000E+00  0.0000E+00  0.0000E+00  0.0000E+00  0.0000E+00
     -2.810  0.0000E+00  0.0000E+00  0.0000E+00  0.0000E+00  0.0000E+00  0.0000E+00  0.0000E+00  0.0000E+00  0.0000E+00  0.0000E+00  0.0000E+00  0.0000E+00  0.0000E+00  0.0000E+00  0.0000E+00  0.0000E+00  0.0000E+00  0.0000E+00
     -2.649  0.0000E+00  0.0000E+00  0.0000E+00  0.0000E+00  0.0000E+00  0.0000E+00  0.0000E+00  0.0000E+00  0.0000E+00  0.0000E+00  0.0000E+00  0.0000E+00  0.0000E+00  0.0000E+00  0.0000E+00  0.0000E+00  0.0000E+00  0.0000E+00
     -2.488  0.0000E+00  0.0000E+00  0.0000E+00  0.0000E+00  0.0000E+00  0.0000E+00  0.0000E+00  0.0000E+00  0.0000E+00  0.0000E+00  0.0000E+00  0.0000E+00  0.0000E+00  0.0000E+00  0.0000E+00  0.0000E+00  0.0000E+00  0.0000E+00
     -2.326  0.0000E+00  0.0000E+00  0.0000E+00  0.0000E+00  0.0000E+00  0.0000E+00  0.0000E+00  0.0000E+00  0.0000E+00  0.0000E+00  0.0000E+00  0.0000E+00  0.0000E+00  0.0000E+00  0.0000E+00  0.0000E+00  0.0000E+00  0.0000E+00
     -2.165  0.0000E+00  0.0000E+00  0.0000E+00  0.0000E+00  0.0000E+00  0.0000E+00  0.0000E+00  0.0000E+00  0.0000E+00  0.0000E+00  0.0000E+00  0.0000E+00  0.0000E+00  0.0000E+00  0.0000E+00  0.0000E+00  0.0000E+00  0.0000E+00
     -2.004  0.0000E+00  0.0000E+00  0.0000E+00  0.0000E+00  0.0000E+00  0.0000E+00  0.0000E+00  0.0000E+00  0.0000E+00  0.0000E+00  0.0000E+00  0.0000E+00  0.0000E+00  0.0000E+00  0.0000E+00  0.0000E+00  0.0000E+00  0.0000E+00
     -1.843  0.0000E+00  0.0000E+00  0.0000E+00  0.0000E+00  0.0000E+00  0.0000E+00  0.0000E+00  0.0000E+00  0.0000E+00  0.0000E+00  0.0000E+00  0.0000E+00  0.0000E+00  0.0000E+00  0.0000E+00  0.0000E+00  0.0000E+00  0.0000E+00
     -1.681  0.0000E+00  0.0000E+00  0.0000E+00  0.0000E+00  0.0000E+00  0.0000E+00  0.0000E+00  0.0000E+00  0.0000E+00  0.0000E+00  0.0000E+00  0.0000E+00  0.0000E+00  0.0000E+00  0.0000E+00  0.0000E+00  0.0000E+00  0.0000E+00
     -1.520  0.0000E+00  0.0000E+00  0.0000E+00  0.0000E+00  0.0000E+00  0.0000E+00  0.0000E+00  0.0000E+00  0.0000E+00  0.0000E+00  0.0000E+00  0.0000E+00  0.0000E+00  0.0000E+00  0.0000E+00  0.0000E+00  0.0000E+00  0.0000E+00
     -1.359  0.1641E-01  0.0000E+00  0.3036E-03  0.0000E+00  0.2952E-03  0.0000E+00  0.2389E-02  0.0000E+00  0.1356E-02  0.0000E+00  0.2100E-03  0.0000E+00  0.9700E-03  0.0000E+00  0.2064E-03  0.0000E+00  0.2740E-03  0.0000E+00
     -1.198  0.1954E-01  0.1549E-01  0.4710E-03  0.4034E-03  0.4588E-03  0.3579E-03  0.2931E-02  0.2456E-02  0.2168E-02  0.8589E-03  0.3702E-03  0.1481E-03  0.1562E-02  0.4981E-03  0.3202E-03  0.1398E-03  0.3925E-03  0.2260E-03
     -1.036  0.2265E-01  0.1787E-01  0.6370E-03  0.5586E-03  0.6214E-03  0.4910E-03  0.3504E-02  0.2949E-02  0.3131E-02  0.1238E-02  0.5829E-03  0.2330E-03  0.2314E-02  0.7188E-03  0.4326E-03  0.1932E-03  0.5716E-03  0.3224E-03
     -0.875  0.2575E-01  0.2016E-01  0.8015E-03  0.7115E-03  0.7830E-03  0.6178E-03  0.4108E-02  0.3460E-02  0.4244E-02  0.1662E-02  0.8479E-03  0.3402E-03  0.3224E-02  0.9757E-03  0.5436E-03  0.2453E-03  0.8113E-03  0.4526E-03
     -0.714  0.2884E-01  0.2238E-01  0.9646E-03  0.8619E-03  0.9436E-03  0.7380E-03  0.4744E-02  0.3988E-02  0.5508E-02  0.2130E-02  0.1165E-02  0.4695E-03  0.4294E-02  0.1269E-02  0.6531E-03  0.2960E-03  0.1112E-02  0.6166E-03
     -0.553  0.3192E-01  0.2452E-01  0.1126E-02  0.1010E-02  0.1103E-02  0.8518E-03  0.5410E-02  0.4534E-02  0.6922E-02  0.2643E-02  0.1535E-02  0.6210E-03  0.5523E-02  0.1598E-02  0.7613E-03  0.3454E-03  0.1473E-02  0.8144E-03
     -0.391  0.3500E-01  0.2659E-01  0.1286E-02  0.1156E-02  0.1262E-02  0.9591E-03  0.6108E-02  0.5098E-02  0.8486E-02  0.3201E-02  0.1957E-02  0.7948E-03  0.6910E-02  0.1963E-02  0.8680E-03  0.3934E-03  0.1894E-02  0.1046E-02
     -0.230  0.3806E-01  0.2857E-01  0.1445E-02  0.1299E-02  0.1419E-02  0.1060E-02  0.6837E-02  0.5680E-02  0.1020E-01  0.3803E-02  0.2432E-02  0.9907E-03  0.8457E-02  0.2364E-02  0.9733E-03  0.4400E-03  0.2377E-02  0.1312E-02
     -0.069  0.4111E-01  0.3048E-01  0.1603E-02  0.1440E-02  0.1576E-02  0.1154E-02  0.7598E-02  0.6280E-02  0.1207E-01  0.4451E-02  0.2959E-02  0.1209E-02  0.1016E-01  0.2801E-02  0.1077E-02  0.4853E-03  0.2919E-02  0.1611E-02
      0.092  0.4415E-01  0.3232E-01  0.1759E-02  0.1579E-02  0.1732E-02  0.1242E-02  0.8389E-02  0.6897E-02  0.1408E-01  0.5143E-02  0.3538E-02  0.1449E-02  0.1203E-01  0.3275E-02  0.1180E-02  0.5292E-03  0.3523E-02  0.1944E-02
      0.253  0.4718E-01  0.3407E-01  0.1913E-02  0.1715E-02  0.1886E-02  0.1324E-02  0.9212E-02  0.7532E-02  0.1625E-01  0.5880E-02  0.4170E-02  0.1712E-02  0.1405E-01  0.3784E-02  0.1281E-02  0.5717E-03  0.4187E-02  0.2311E-02
      0.415  0.5020E-01  0.3575E-01  0.2066E-02  0.1849E-02  0.2040E-02  0.1399E-02  0.1007E-01  0.8185E-02  0.1856E-01  0.6661E-02  0.4854E-02  0.1996E-02  0.1623E-01  0.4330E-02  0.1380E-02  0.6129E-03  0.4912E-02  0.2712E-02
      0.576  0.5322E-01  0.3735E-01  0.2218E-02  0.1980E-02  0.2193E-02  0.1467E-02  0.1095E-01  0.8856E-02  0.2103E-01  0.7487E-02  0.5591E-02  0.2303E-02  0.1858E-01  0.4912E-02  0.1479E-02  0.6527E-03  0.5698E-02  0.3146E-02
      0.737  0.7024E-01  0.3888E-01  0.3878E-02  0.2109E-02  0.3882E-02  0.1530E-02  0.1562E-01  0.9545E-02  0.3336E-01  0.8358E-02  0.1309E-01  0.2632E-02  0.2972E-01  0.5530E-02  0.2609E-02  0.6912E-03  0.8514E-02  0.3614E-02
      0.898  0.9006E-01  0.4211E-01  0.5721E-02  0.2448E-02  0.5930E-02  0.1759E-02  0.2208E-01  0.1079E-01  0.5093E-01  0.9839E-02  0.2856E-01  0.3468E-02  0.4860E-01  0.6527E-02  0.3892E-02  0.8024E-03  0.1356E-01  0.4316E-02
      1.060  0.1118E+00  0.4684E-01  0.7647E-02  0.2987E-02  0.8240E-02  0.2119E-02  0.3014E-01  0.1264E-01  0.7320E-01  0.1195E-01  0.5179E-01  0.5303E-02  0.7485E-01  0.7950E-02  0.5259E-02  0.1000E-02  0.2077E-01  0.5563E-02
      1.221  0.1637E+00  0.5173E-01  0.7921E-02  0.3575E-02  0.1003E-01  0.2473E-02  0.6454E-01  0.1475E-01  0.1754E+00  0.1428E-01  0.1258E+00  0.7933E-02  0.2110E+00  0.9571E-02  0.5467E-02  0.1236E-02  0.9558E-01  0.7299E-02
      1.382  0.1366E+00  0.5679E-01  0.7327E-02  0.4212E-02  0.1217E-01  0.2824E-02  0.6265E-01  0.1711E-01  0.1481E+00  0.1686E-01  0.1515E+00  0.1136E-01  0.2408E+00  0.1139E-01  0.5800E-02  0.1511E-02  0.1372E+00  0.9525E-02
      1.543  0.9450E-01  0.6202E-01  0.6677E-02  0.4899E-02  0.1295E-01  0.3171E-02  0.4682E-01  0.1971E-01  0.9977E-01  0.1966E-01  0.1582E+00  0.1557E-01  0.2495E+00  0.1341E-01  0.1015E-01  0.1823E-02  0.1227E+00  0.1224E-01
      1.705  0.4842E-01  0.6741E-01  0.5218E-02  0.5635E-02  0.1043E-01  0.3513E-02  0.2726E-01  0.2257E-01  0.5844E-01  0.2270E-01  0.8772E-01  0.2059E-01  0.2025E+00  0.1562E-01  0.1716E-01  0.2174E-02  0.9838E-01  0.1545E-01
      1.866  0.2641E-01  0.7298E-01  0.4231E-02  0.6421E-02  0.6931E-02  0.3851E-02  0.1681E-01  0.2567E-01  0.3670E-01  0.2597E-01  0.5905E-01  0.2639E-01  0.1504E+00  0.1803E-01  0.2816E-01  0.2563E-02  0.8467E-01  0.1914E-01
      2.027  0.1086E-01  0.7871E-01  0.3547E-02  0.7256E-02  0.4080E-02  0.4184E-02  0.9062E-02  0.2903E-01  0.2168E-01  0.2947E-01  0.4453E-01  0.3299E-01  0.1054E+00  0.2064E-01  0.4348E-01  0.2991E-02  0.7359E-01  0.2333E-01
      2.188  0.1765E-02  0.1041E+00  0.3163E-02  0.9383E-02  0.1877E-02  0.3109E-02  0.4006E-02  0.5156E-01  0.1339E-01  0.5413E-01  0.4418E-01  0.6200E-01  0.6769E-01  0.4329E-01  0.6313E-01  0.4245E-02  0.6513E-01  0.5998E-01
      2.350  0.2062E-13  0.9848E-01  0.1469E-01  0.9886E-02  0.8525E-02  0.2774E-02  0.8828E-02  0.5235E-01  0.1989E+00  0.5112E-01  0.1502E+00  0.7048E-01  0.5581E-01  0.4387E-01  0.3784E+00  0.5161E-02  0.1561E+00  0.7498E-01
      2.511  0.3132E-13  0.9119E-01  0.1304E-01  0.1018E-01  0.9084E-02  0.2419E-02  0.7889E-02  0.5194E-01  0.1832E+00  0.4697E-01  0.2123E+00  0.7686E-01  0.4803E-01  0.4340E-01  0.4402E+00  0.5952E-02  0.1378E+00  0.8789E-01
      2.672  0.5182E-03  0.8221E-01  0.1161E-01  0.1028E-01  0.9864E-02  0.2044E-02  0.7139E-02  0.5033E-01  0.1808E+00  0.4170E-01  0.2762E+00  0.8113E-01  0.4043E-01  0.4188E-01  0.5061E+00  0.6619E-02  0.1133E+00  0.9873E-01
      2.833  0.9937E-02  0.7156E-01  0.2186E-01  0.1017E-01  0.1623E-01  0.1651E-02  0.1637E-01  0.4752E-01  0.2716E+00  0.3529E-01  0.4023E+00  0.8328E-01  0.6263E-01  0.3931E-01  0.6483E+00  0.7161E-02  0.1369E+00  0.1075E+00
      2.995  0.1805E-01  0.4704E-01  0.3512E-01  0.1023E-01  0.1769E-01  0.1005E-02  0.2733E-01  0.3779E-01  0.2976E+00  0.2250E-01  0.2067E+00  0.6231E-01  0.8060E-01  0.3047E-01  0.3636E+00  0.8444E-02  0.1893E+00  0.1151E+00
      3.156  0.2486E-01  0.3308E-01  0.5359E-01  0.8051E-02  0.2572E-01  0.6671E-03  0.4061E-01  0.2817E-01  0.3525E+00  0.1611E-01  0.1883E+00  0.4327E-01  0.1129E+00  0.2278E-01  0.3608E+00  0.6823E-02  0.2785E+00  0.9147E-01
      3.317  0.2319E-01  0.2150E-01  0.6667E-01  0.5999E-02  0.3667E-01  0.3981E-03  0.4148E-01  0.1974E-01  0.3667E+00  0.1073E-01  0.1032E+00  0.2764E-01  0.1113E+00  0.1601E-01  0.3529E+00  0.5227E-02  0.2854E+00  0.6888E-01
      3.478  0.1244E-01  0.1231E-01  0.4383E-01  0.4927E-02  0.2923E-01  0.3742E-02  0.1987E-01  0.1333E-01  0.1709E+00  0.1031E-01  0.4343E-01  0.2349E-01  0.5242E-01  0.7734E-01  0.1559E+00  0.1452E-01  0.1364E+00  0.6310E-01
      3.640  0.6614E-02  0.5508E-02  0.2783E-01  0.3558E-02  0.2062E-01  0.5318E-02  0.9742E-02  0.7640E-02  0.1146E+00  0.1039E-01  0.2195E-01  0.2320E-01  0.2553E-01  0.8479E-01  0.1078E+00  0.2588E-01  0.6684E-01  0.4392E-01
      3.801  0.3475E-02  0.1090E-02  0.5598E-02  0.2145E-02  0.1953E-02  0.6184E-02  0.4688E-02  0.2915E-02  0.5424E-01  0.1202E-01  0.7633E-01  0.2869E-01  0.2419E-01  0.8171E-01  0.4136E-01  0.4175E-01  0.4410E-01  0.2379E-01
      3.962  0.2907E-02  0.7173E-10  0.4913E-02  0.9345E-02  0.1605E-02  0.2313E-01  0.3990E-02  0.4251E-02  0.6472E-01  0.1438E+00  0.9425E-01  0.6537E-01  0.3960E-01  0.1455E+00  0.3688E-01  0.2021E+00  0.5325E-01  0.1645E-01
      4.123  0.2450E-02  0.1348E-09  0.4584E-02  0.9311E-02  0.1344E-02  0.2282E-01  0.3539E-02  0.3929E-02  0.8437E-01  0.1607E+00  0.1141E+00  0.1214E+00  0.6321E-01  0.1295E+00  0.3380E-01  0.2827E+00  0.6658E-01  0.1627E-01
      4.285  0.2102E-02  0.1747E-09  0.4616E-02  0.8457E-02  0.1281E-02  0.2162E-01  0.3337E-02  0.3606E-02  0.1152E+00  0.1530E+00  0.1473E+00  0.1544E+00  0.1743E+00  0.1146E+00  0.4193E-01  0.3158E+00  0.1075E+00  0.1479E-01
      4.446  0.3502E-02  0.3462E-02  0.1221E-01  0.1465E-01  0.2658E-02  0.2290E-01  0.7849E-02  0.6988E-02  0.4498E+00  0.1714E+00  0.1828E+00  0.1975E+00  0.5110E+00  0.1036E+00  0.7853E-01  0.3604E+00  0.2707E+00  0.2385E-01