    1    1    1    2
  0.1157456E+02  0.2468172E-09  0.2468172E-09  0.2468172E-09  0.5000000E-15
  1.000000000000000E-004
  CAR 
 Fe BCC                                  
      8      6     12
 
  0.1250000E+00  0.1250000E+00  0.1250000E+00  0.1250000E+00
    1        0.586342      0.807304   1.000000   1.000000
    2        2.653530      4.499808   1.000000   1.000000
    3        2.653530      4.499808   1.000000   1.001482
    4        4.682307      7.290041   1.000000   0.000000
    5        4.682307      7.290041   1.000000   0.000000
    6        5.695418      7.828342   0.184197   0.000000
    7       21.624159     22.089895   0.000000   0.000000
    8       21.624159     22.089895   0.000000   0.000000
    9       23.734968     24.452729   0.000000   0.000000
   10       33.980137     33.611584   0.000000   0.000000
   11       38.466612     38.702889   0.000000   0.000000
   12       38.466612     38.702889   0.000000   0.000000
 
  0.3750000E+00  0.1250000E+00  0.1250000E+00  0.1875000E+00
    1        1.618031      2.972710   1.000000   1.000000
    2        2.264767      3.984466   1.000000   1.000000
    3        3.683036      4.857582   1.000000   0.996428
    4        4.803654      7.394920   1.000000   0.000000
    5        4.878177      7.581803   1.000000   0.000000
    6        9.663242     10.899879  -0.016225   0.000000
    7       13.126375     14.354267   0.000000   0.000000
    8       19.477043     19.976195   0.000000   0.000000
    9       20.443792     21.022754   0.000000   0.000000
   10       34.773809     34.735247   0.000000   0.000000
   11       39.124871     39.557056   0.000000   0.000000
   12       41.141674     41.098906   0.000000   0.000000
 
 -0.1250000E+00  0.1250000E+00  0.1250000E+00  0.9375000E-01
    1       -1.417583     -1.332786   1.000000   1.000000
    2        3.410407      5.437085   1.000000   1.000000
    3        3.410410      5.437089   1.000000   0.976631
    4        3.714789      5.826508   1.000000   0.000000
    5        4.134374      6.602067   1.000000   0.000000
    6        4.887861      7.553164   0.865402   0.000000
    7       26.402608     26.422378   0.000000   0.000000
    8       28.230819     28.532898   0.000000   0.000000
    9       28.230830     28.532898   0.000000   0.000000
   10       30.037346     30.360987   0.000000   0.000000
   11       35.113656     35.459484   0.000000   0.000000
   12       35.113657     35.459492   0.000000   0.000000
 
 -0.3750000E+00  0.3750000E+00  0.1250000E+00  0.3750000E+00
    1        1.152862      2.046004   1.000000   1.000000
    2        2.849232      4.751838   1.000000   1.000000
    3        3.196065      4.761836   1.000000   0.979351
    4        4.418660      6.725873   1.000000   0.000000
    5        5.492360      7.829898   1.000000   0.000000
    6        6.211901      8.214268   0.008574   0.000000
    7       16.222165     17.145136   0.000000   0.000000
    8       23.611191     24.177036   0.000000   0.000000
    9       24.022110     24.199929   0.000000   0.000000
   10       31.993831     32.265081   0.000000   0.000000
   11       32.731125     33.150866   0.000000   0.000000
   12       35.528009     35.860912   0.000000   0.000000
 
 -0.3750000E+00 -0.3750000E+00  0.1250000E+00  0.1250000E+00
    1        2.249804      3.864768   1.000000   1.000000
    2        2.249805      3.864768   1.000000   1.000000
    3        2.670785      4.395954   1.000000   0.987838
    4        5.100331      7.418923   1.000000   0.000000
    5        5.100332      7.418929   1.000000   0.000000
    6       12.668145     13.683323  -0.009309   0.000000
    7       12.668153     13.683324   0.000000   0.000000
    8       15.003550     15.859109   0.000000   0.000000
    9       29.277947     29.447693   0.000000   0.000000
   10       29.277956     29.447696   0.000000   0.000000
   11       29.740792     30.216670   0.000000   0.000000
   12       37.065321     37.890380   0.000000   0.000000
 
 -0.3750000E+00  0.3750000E+00  0.3750000E+00  0.9375000E-01
    1        1.441767      2.966611   1.000000   1.000000
    2        1.523118      3.339103   1.000000   1.000000
    3        4.903983      7.046865   1.000000   0.044309
    4        4.903984      7.046870   1.000000   0.000000
    5        5.375926      7.710730   1.000000   0.000000
    6       10.460530     11.348721  -0.017390   0.000000
    7       17.651037     18.097573   0.000000   0.000000
    8       17.651049     18.097576   0.000000   0.000000
    9       21.616036     22.384298   0.000000   0.000000
   10       23.459521     24.038705   0.000000   0.000000
   11       30.844881     31.634735   0.000000   0.000000
   12       42.276146     42.558279   0.000000   0.000000
