Automatically generated mesh
       6
Reciprocal lattice
    0.12500000000000    0.12500000000000    0.12500000000000             8
    0.37500000000000    0.12500000000000    0.12500000000000            12
   -0.12500000000000    0.12500000000000    0.12500000000000             6
   -0.37500000000000    0.37500000000000    0.12500000000000            24
   -0.37500000000000   -0.37500000000000    0.12500000000000             8
   -0.37500000000000    0.37500000000000    0.37500000000000             6
Tetrahedra
        46    0.00260416666667
         4         1         2         2         2
         4         2         2         2         2
         4         2         2         2         5
        16         1         2         2         4
         8         2         2         2         4
        16         2         2         4         5
        20         1         2         4         4
         8         2         4         4         6
         8         2         4         5         6
        20         1         3         4         4
         8         1         4         4         4
         8         4         4         4         6
         8         3         4         4         4
         8         4         4         4         5
        20         4         4         5         6
         8         1         2         3         4
         8         2         3         4         4
        20         2         4         4         5
         4         2         4         5         5
         8         4         5         5         6
         6         5         5         6         6
        12         4         5         6         6
         4         4         4         6         6
        16         1         2         4         5
        12         1         4         4         5
        12         1         2         2         5
         4         3         4         5         6
         4         3         4         4         6
         4         1         3         4         6
         4         3         3         4         4
        12         1         3         3         4
         6         1         1         3         3
         8         1         1         3         4
         4         1         1         2         4
         4         1         4         5         6
         4         4         6         6         6
         6         4         4         5         5
        12         2         2         4         4
        16         2         4         4         4
         4         5         6         6         6
         2         6         6         6         6
         4         1         3         4         5
         6         1         1         4         4
         4         3         3         3         4
         4         1         3         3         3
         2         3         3         3         3
