 running on    4 total cores
 distrk:  each k-point on    4 cores,    1 groups
 distr:  one band on    1 cores,    4 groups
 using from now: INCAR     
 vasp.5.4.1 24Jun15 (build Jul 19 2016 16:50:41) complex                        
  
 POSCAR found type information on POSCAR  Fe
 POSCAR found :  1 types and       1 ions
 LDA part: xc-table for Pade appr. of Perdew
 POSCAR, INCAR and KPOINTS ok, starting setup
 FFT: planning ...
 WAVECAR not read
 entering main loop
       N       E                     dE             d eps       ncg     rms          rms(c)
DAV:   1     0.172843399640E+02    0.17284E+02   -0.29888E+03   304   0.587E+02
DAV:   2    -0.820559715764E+01   -0.25490E+02   -0.23291E+02   300   0.110E+02
DAV:   3    -0.877954923918E+01   -0.57395E+00   -0.58359E+00   344   0.189E+01
DAV:   4    -0.878123036800E+01   -0.16811E-02   -0.17098E-02   312   0.953E-01
DAV:   5    -0.878123926264E+01   -0.88946E-05   -0.90495E-05   328   0.716E-02    0.119E+01
DAV:   6    -0.821046213153E+01    0.57078E+00   -0.91125E+00   328   0.362E+01    0.548E+00
DAV:   7    -0.818550956781E+01    0.24953E-01   -0.45855E-01   340   0.776E+00    0.336E+00
DAV:   8    -0.817732234627E+01    0.81872E-02   -0.51567E-03   344   0.519E-01    0.141E+00
DAV:   9    -0.816990941356E+01    0.74129E-02   -0.87895E-03   420   0.585E-01    0.146E-01
DAV:  10    -0.816995340256E+01   -0.43989E-04   -0.97502E-04   320   0.347E-01    0.587E-02
DAV:  11    -0.816997754238E+01   -0.24140E-04   -0.51220E-05   324   0.655E-02    0.360E-02
DAV:  12    -0.817005046883E+01   -0.72926E-04   -0.86859E-06   316   0.172E-02    0.162E-02
DAV:  13    -0.816999795907E+01    0.52510E-04   -0.87580E-07   164   0.997E-03    0.522E-03
DAV:  14    -0.817000021016E+01   -0.22511E-05   -0.20088E-07   144   0.516E-03    0.104E-03
DAV:  15    -0.817000315407E+01   -0.29439E-05   -0.13964E-08   144   0.819E-04    0.631E-04
DAV:  16    -0.817000243158E+01    0.72250E-06   -0.63898E-09   144   0.517E-04
   1 F= -.81700024E+01 E0= -.81700024E+01  d E =0.000000E+00  mag=     2.2031
 writing wavefunctions
