<?xml version="1.0" encoding="ISO-8859-1"?>
<modeling>
 <generator>
  <i name="program" type="string">vasp </i>
  <i name="version" type="string">5.4.1  </i>
  <i name="subversion" type="string">24Jun15 (build Jul 19 2016 16:50:41) complex                          parallel </i>
  <i name="platform" type="string">IFC91_ompi </i>
  <i name="date" type="string">2019 10 17 </i>
  <i name="time" type="string">11:04:01 </i>
 </generator>
 <incar>
  <i type="string" name="SYSTEM"> Fe BCC</i>
  <i type="string" name="PREC">accurate</i>
  <i type="int" name="ISPIN">     2</i>
  <i name="EDIFF">      0.00000100</i>
  <i name="ENCUT">    300.00000000</i>
  <v name="MAGMOM">      4.00000000</v>
  <i type="int" name="ISMEAR">    -5</i>
  <i type="logical" name="LORBIT"> F  </i>
  <v type="int" name="KPOINT_BSE">    -1     0     0     0</v>
 </incar>
 <kpoints>
  <generation param="Monkhorst-Pack">
   <v type="int" name="divisions">       4        4        4 </v>
   <v name="usershift">      0.00000000       0.00000000       0.00000000 </v>
   <v name="genvec1">      0.25000000       0.00000000       0.00000000 </v>
   <v name="genvec2">      0.00000000       0.25000000       0.00000000 </v>
   <v name="genvec3">      0.00000000       0.00000000       0.25000000 </v>
   <v name="shift">      0.50000000       0.50000000       0.50000000 </v>
  </generation>
  <varray name="kpointlist" >
   <v>       0.12500000       0.12500000       0.12500000 </v>
   <v>       0.37500000       0.12500000       0.12500000 </v>
   <v>      -0.12500000       0.12500000       0.12500000 </v>
   <v>      -0.37500000       0.37500000       0.12500000 </v>
   <v>      -0.37500000      -0.37500000       0.12500000 </v>
   <v>      -0.37500000       0.37500000       0.37500000 </v>
  </varray>
  <varray name="weights" >
   <v>       0.12500000 </v>
   <v>       0.18750000 </v>
   <v>       0.09375000 </v>
   <v>       0.37500000 </v>
   <v>       0.12500000 </v>
   <v>       0.09375000 </v>
  </varray>
  <varray name="tetrahedronlist"  type="int" >
   <v type="int" >        4        1        2        2        2 </v>
   <v type="int" >        4        2        2        2        2 </v>
   <v type="int" >        4        2        2        2        5 </v>
   <v type="int" >       16        1        2        2        4 </v>
   <v type="int" >        8        2        2        2        4 </v>
   <v type="int" >       16        2        2        4        5 </v>
   <v type="int" >       20        1        2        4        4 </v>
   <v type="int" >        8        2        4        4        6 </v>
   <v type="int" >        8        2        4        5        6 </v>
   <v type="int" >       20        1        3        4        4 </v>
   <v type="int" >        8        1        4        4        4 </v>
   <v type="int" >        8        4        4        4        6 </v>
   <v type="int" >        8        3        4        4        4 </v>
   <v type="int" >        8        4        4        4        5 </v>
   <v type="int" >       20        4        4        5        6 </v>
   <v type="int" >        8        1        2        3        4 </v>
   <v type="int" >        8        2        3        4        4 </v>
   <v type="int" >       20        2        4        4        5 </v>
   <v type="int" >        4        2        4        5        5 </v>
   <v type="int" >        8        4        5        5        6 </v>
   <v type="int" >        6        5        5        6        6 </v>
   <v type="int" >       12        4        5        6        6 </v>
   <v type="int" >        4        4        4        6        6 </v>
   <v type="int" >       16        1        2        4        5 </v>
   <v type="int" >       12        1        4        4        5 </v>
   <v type="int" >       12        1        2        2        5 </v>
   <v type="int" >        4        3        4        5        6 </v>
   <v type="int" >        4        3        4        4        6 </v>
   <v type="int" >        4        1        3        4        6 </v>
   <v type="int" >        4        3        3        4        4 </v>
   <v type="int" >       12        1        3        3        4 </v>
   <v type="int" >        6        1        1        3        3 </v>
   <v type="int" >        8        1        1        3        4 </v>
   <v type="int" >        4        1        1        2        4 </v>
   <v type="int" >        4        1        4        5        6 </v>
   <v type="int" >        4        4        6        6        6 </v>
   <v type="int" >        6        4        4        5        5 </v>
   <v type="int" >       12        2        2        4        4 </v>
   <v type="int" >       16        2        4        4        4 </v>
   <v type="int" >        4        5        6        6        6 </v>
   <v type="int" >        2        6        6        6        6 </v>
   <v type="int" >        4        1        3        4        5 </v>
   <v type="int" >        6        1        1        4        4 </v>
   <v type="int" >        4        3        3        3        4 </v>
   <v type="int" >        4        1        3        3        3 </v>
   <v type="int" >        2        3        3        3        3 </v>
  </varray>
  <i name="volumeweight">      0.00260417 </i>
 </kpoints>
 <parameters>
  <separator name="general" >
   <i type="string" name="SYSTEM">Fe BCC</i>
   <i type="logical" name="LCOMPAT"> F  </i>
  </separator>
  <separator name="electronic" >
   <i type="string" name="PREC">accura</i>
   <i name="ENMAX">    300.00000000</i>
   <i name="ENAUG">    511.36800000</i>
   <i name="EDIFF">      0.00000100</i>
   <i type="int" name="IALGO">    38</i>
   <i type="int" name="IWAVPR">    10</i>
   <i type="int" name="NBANDS">    12</i>
   <i name="NELECT">      8.00000000</i>
   <i type="int" name="TURBO">     0</i>
   <i type="int" name="IRESTART">     0</i>
   <i type="int" name="NREBOOT">     0</i>
   <i type="int" name="NMIN">     0</i>
   <i name="EREF">      0.00000000</i>
   <separator name="electronic smearing" >
    <i type="int" name="ISMEAR">    -5</i>
    <i name="SIGMA">      0.20000000</i>
    <i name="KSPACING">      0.50000000</i>
    <i type="logical" name="KGAMMA"> T  </i>
   </separator>
   <separator name="electronic projectors" >
    <i type="logical" name="LREAL"> F  </i>
    <v name="ROPT">      0.00000000</v>
    <i type="int" name="LMAXPAW">  -100</i>
    <i type="int" name="LMAXMIX">     2</i>
    <i type="logical" name="NLSPLINE"> F  </i>
   </separator>
   <separator name="electronic startup" >
    <i type="int" name="ISTART">     0</i>
    <i type="int" name="ICHARG">     2</i>
    <i type="int" name="INIWAV">     1</i>
   </separator>
   <separator name="electronic spin" >
    <i type="int" name="ISPIN">     2</i>
    <i type="logical" name="LNONCOLLINEAR"> F  </i>
    <v name="MAGMOM">      4.00000000</v>
    <i name="NUPDOWN">     -1.00000000</i>
    <i type="logical" name="LSORBIT"> F  </i>
    <v name="SAXIS">      0.00000000      0.00000000      1.00000000</v>
    <i type="logical" name="LSPIRAL"> F  </i>
    <v name="QSPIRAL">      0.00000000      0.00000000      0.00000000</v>
    <i type="logical" name="LZEROZ"> F  </i>
   </separator>
   <separator name="electronic exchange-correlation" >
    <i type="logical" name="LASPH"> F  </i>
    <i type="logical" name="LMETAGGA"> F  </i>
   </separator>
   <separator name="electronic convergence" >
    <i type="int" name="NELM">    60</i>
    <i type="int" name="NELMDL">    -5</i>
    <i type="int" name="NELMIN">     2</i>
    <i name="ENINI">    300.00000000</i>
    <separator name="electronic convergence detail" >
     <i type="logical" name="LDIAG"> T  </i>
     <i type="logical" name="LSUBROT"> F  </i>
     <i name="WEIMIN">      0.00000000</i>
     <i name="EBREAK">      0.00000002</i>
     <i name="DEPER">      0.30000000</i>
     <i type="int" name="NRMM">     4</i>
     <i name="TIME">      0.40000000</i>
    </separator>
   </separator>
   <separator name="electronic mixer" >
    <i name="AMIX">      0.40000000</i>
    <i name="BMIX">      1.00000000</i>
    <i name="AMIN">      0.10000000</i>
    <i name="AMIX_MAG">      1.60000000</i>
    <i name="BMIX_MAG">      1.00000000</i>
    <separator name="electronic mixer details" >
     <i type="int" name="IMIX">     4</i>
     <i type="logical" name="MIXFIRST"> F  </i>
     <i type="int" name="MAXMIX">   -45</i>
     <i name="WC">    100.00000000</i>
     <i type="int" name="INIMIX">     1</i>
     <i type="int" name="MIXPRE">     1</i>
     <i type="int" name="MREMOVE">     5</i>
    </separator>
   </separator>
   <separator name="electronic dipolcorrection" >
    <i type="logical" name="LDIPOL"> F  </i>
    <i type="logical" name="LMONO"> F  </i>
    <i type="int" name="IDIPOL">     0</i>
    <i name="EPSILON">      1.00000000</i>
    <v name="DIPOL">   -100.00000000   -100.00000000   -100.00000000</v>
    <i name="EFIELD">      0.00000000</i>
   </separator>
  </separator>
  <separator name="grids" >
   <i type="int" name="NGX">    14</i>
   <i type="int" name="NGY">    14</i>
   <i type="int" name="NGZ">    14</i>
   <i type="int" name="NGXF">    28</i>
   <i type="int" name="NGYF">    28</i>
   <i type="int" name="NGZF">    28</i>
   <i type="logical" name="ADDGRID"> F  </i>
  </separator>
  <separator name="ionic" >
   <i type="int" name="NSW">     0</i>
   <i type="int" name="IBRION">    -1</i>
   <i type="int" name="ISIF">     2</i>
   <i name="PSTRESS">      0.00000000</i>
   <i name="EDIFFG">      0.00001000</i>
   <i type="int" name="NFREE">     0</i>
   <i name="POTIM">      0.50000000</i>
   <i name="SMASS">     -3.00000000</i>
   <i name="SCALEE">      1.00000000</i>
  </separator>
  <separator name="ionic md" >
   <i name="TEBEG">      0.00010000</i>
   <i name="TEEND">      0.00010000</i>
   <i type="int" name="NBLOCK">     1</i>
   <i type="int" name="KBLOCK">     1</i>
   <i type="int" name="NPACO">   256</i>
   <i name="APACO">     16.00000000</i>
  </separator>
  <separator name="symmetry" >
   <i type="int" name="ISYM">     2</i>
   <i name="SYMPREC">      0.00001000</i>
  </separator>
  <separator name="dos" >
   <i type="logical" name="LORBIT"> F  </i>
   <v name="RWIGS">     -1.00000000</v>
   <i type="int" name="NEDOS">   301</i>
   <i name="EMIN">     10.00000000</i>
   <i name="EMAX">    -10.00000000</i>
   <i name="EFERMI">      0.00000000</i>
  </separator>
  <separator name="writing" >
   <i type="int" name="NWRITE">     2</i>
   <i type="logical" name="LWAVE"> T  </i>
   <i type="logical" name="LCHARG"> T  </i>
   <i type="logical" name="LPARD"> F  </i>
   <i type="logical" name="LVTOT"> F  </i>
   <i type="logical" name="LVHAR"> F  </i>
   <i type="logical" name="LELF"> F  </i>
   <i type="logical" name="LOPTICS"> F  </i>
   <v name="STM">      0.00000000      0.00000000      0.00000000      0.00000000      0.00000000      0.00000000      0.00000000</v>
  </separator>
  <separator name="performance" >
   <i type="int" name="NPAR">     4</i>
   <i type="int" name="NSIM">     4</i>
   <i type="int" name="NBLK">    -1</i>
   <i type="logical" name="LPLANE"> T  </i>
   <i type="logical" name="LSCALAPACK"> F  </i>
   <i type="logical" name="LSCAAWARE"> F  </i>
   <i type="logical" name="LSCALU"> F  </i>
   <i type="logical" name="LASYNC"> F  </i>
   <i type="logical" name="LORBITALREAL"> F  </i>
  </separator>
  <separator name="miscellaneous" >
   <i type="int" name="IDIOT">     3</i>
   <i type="logical" name="LMUSIC"> F  </i>
   <v name="POMASS">     55.84700000</v>
   <v name="DARWINR">      0.00000000</v>
   <v name="DARWINV">      1.00000000</v>
   <i type="logical" name="LCORR"> T  </i>
  </separator>
  <i type="logical" name="GGA_COMPAT"> T  </i>
  <i type="logical" name="LBERRY"> F  </i>
  <i type="int" name="ICORELEVEL">     0</i>
  <i type="logical" name="LDAU"> F  </i>
  <i type="int" name="I_CONSTRAINED_M">     0</i>
  <separator name="electronic exchange-correlation" >
   <i type="string" name="GGA">--</i>
   <i type="int" name="VOSKOWN">     0</i>
   <i type="logical" name="LHFCALC"> F  </i>
   <i type="string" name="PRECFOCK"></i>
   <i type="logical" name="LSYMGRAD"> F  </i>
   <i type="logical" name="LHFONE"> F  </i>
   <i type="logical" name="LRHFCALC"> F  </i>
   <i type="logical" name="LTHOMAS"> F  </i>
   <i type="logical" name="LMODELHF"> F  </i>
   <i name="ENCUT4O">     -1.00000000</i>
   <i type="int" name="EXXOEP">     0</i>
   <i type="int" name="FOURORBIT">     0</i>
   <i name="AEXX">      0.00000000</i>
   <i name="HFALPHA">      0.00000000</i>
   <i name="MCALPHA">      0.00000000</i>
   <i name="ALDAX">      1.00000000</i>
   <i name="AGGAX">      1.00000000</i>
   <i name="ALDAC">      1.00000000</i>
   <i name="AGGAC">      1.00000000</i>
   <i type="int" name="NKREDX">     1</i>
   <i type="int" name="NKREDY">     1</i>
   <i type="int" name="NKREDZ">     1</i>
   <i type="logical" name="SHIFTRED"> F  </i>
   <i type="logical" name="ODDONLY"> F  </i>
   <i type="logical" name="EVENONLY"> F  </i>
   <i type="int" name="LMAXFOCK">     0</i>
   <i type="int" name="NMAXFOCKAE">     0</i>
   <i type="logical" name="LFOCKAEDFT"> F  </i>
   <i name="HFSCREEN">      0.00000000</i>
   <i name="HFSCREENC">      0.00000000</i>
   <i type="int" name="NBANDSGWLOW">     0</i>
  </separator>
  <separator name="vdW DFT" >
   <i type="logical" name="LUSE_VDW"> F  </i>
   <i name="Zab_VDW">     -0.84910000</i>
   <i name="PARAM1">      0.12340000</i>
   <i name="PARAM2">      1.00000000</i>
   <i name="PARAM3">      0.00000000</i>
  </separator>
  <separator name="model GW" >
   <i type="int" name="MODEL_GW">     0</i>
   <i name="MODEL_EPS0">      6.94473750</i>
   <i name="MODEL_ALPHA">      1.00000000</i>
  </separator>
  <separator name="linear response parameters" >
   <i type="logical" name="LEPSILON"> F  </i>
   <i type="logical" name="LRPA"> F  </i>
   <i type="logical" name="LNABLA"> F  </i>
   <i type="logical" name="LVEL"> F  </i>
   <i type="int" name="KINTER">     0</i>
   <i name="CSHIFT">      0.10000000</i>
   <i name="OMEGAMAX">     -1.00000000</i>
   <i name="DEG_THRESHOLD">      0.00200000</i>
  </separator>
  <separator name="orbital magnetization" >
   <i type="logical" name="NUCIND"> F  </i>
   <v name="MAGPOS">      0.00000000      0.00000000      0.00000000</v>
   <i type="logical" name="LNICSALL"> T  </i>
   <i type="logical" name="ORBITALMAG"> F  </i>
   <i type="logical" name="LMAGBLOCH"> F  </i>
   <i type="logical" name="LCHIMAG"> F  </i>
   <i type="logical" name="LGAUGE"> T  </i>
   <i type="int" name="MAGATOM">     0</i>
   <v name="MAGDIPOL">      0.00000000      0.00000000      0.00000000</v>
   <v name="AVECCONST">      0.00000000      0.00000000      0.00000000</v>
  </separator>
  <separator name="response functions" >
   <i type="logical" name="LADDER"> F  </i>
   <i type="logical" name="LFXC"> F  </i>
   <i type="logical" name="LHARTREE"> T  </i>
   <i type="int" name="IBSE">     0</i>
   <v type="int" name="KPOINT">    -1     0     0     0</v>
   <i type="logical" name="LTCTE"> F  </i>
   <i type="logical" name="LTETE"> F  </i>
   <i type="logical" name="LTRIPLET"> F  </i>
   <i type="logical" name="LFXCEPS"> F  </i>
   <i type="logical" name="LFXHEG"> F  </i>
   <i type="int" name="NATURALO">     0</i>
   <i type="logical" name="L2ORDER"> F  </i>
   <i type="logical" name="LUSEW"> F  </i>
   <i name="ENCUTGW">     -2.00000000</i>
   <i name="ENCUTGWSOFT">     -2.00000000</i>
   <i name="ENCUTLF">     -1.00000000</i>
   <i type="int" name="LMAXMP2">    -1</i>
   <i name="SCISSOR">      0.00000000</i>
   <i type="int" name="NOMEGA">     0</i>
   <i type="int" name="NOMEGAR">     0</i>
   <i type="int" name="NBANDSGW">    -1</i>
   <i type="int" name="NBANDSO">    -1</i>
   <i type="int" name="NBANDSV">    -1</i>
   <i type="int" name="NELM">     1</i>
   <i type="int" name="NELMHF">     1</i>
   <i type="int" name="DIM">     3</i>
   <i type="int" name="ANTIRES">     0</i>
   <i name="OMEGAMAX">    -30.00000000</i>
   <i name="OMEGAMIN">    -30.00000000</i>
   <i name="OMEGATL">   -200.00000000</i>
   <i type="int" name="OMEGAGRID">     0</i>
   <i name="CSHIFT">     -0.10000000</i>
   <i type="logical" name="SELFENERGY"> F  </i>
   <i type="logical" name="LSPECTRAL"> F  </i>
   <i type="logical" name="LSPECTRALGW"> F  </i>
   <i type="logical" name="LSINGLES"> F  </i>
   <i type="logical" name="LFERMIGW"> F  </i>
   <i type="logical" name="ODDONLYGW"> F  </i>
   <i type="logical" name="EVENONLYGW"> F  </i>
   <i type="int" name="NKREDLFX">     1</i>
   <i type="int" name="NKREDLFY">     1</i>
   <i type="int" name="NKREDLFZ">     1</i>
   <i type="int" name="MAXMEM">  1800</i>
   <i type="int" name="TELESCOPE">     0</i>
   <i type="int" name="TAUPAR">     1</i>
   <i type="int" name="OMEGAPAR">    -1</i>
   <i name="LAMBDA">      1.00000000</i>
  </separator>
  <separator name="External order field" >
   <i name="OFIELD_KAPPA">      0.00000000</i>
   <v name="OFIELD_K">      0.00000000      0.00000000      0.00000000</v>
   <i name="OFIELD_Q6_NEAR">      0.00000000</i>
   <i name="OFIELD_Q6_FAR">      0.00000000</i>
   <i name="OFIELD_A">      0.00000000</i>
  </separator>
 </parameters>
 <atominfo>
  <atoms>       1 </atoms>
  <types>       1 </types>
  <array name="atoms" >
   <dimension dim="1">ion</dimension>
   <field type="string">element</field>
   <field type="int">atomtype</field>
   <set>
    <rc><c>Fe</c><c>   1</c></rc>
   </set>
  </array>
  <array name="atomtypes" >
   <dimension dim="1">type</dimension>
   <field type="int">atomspertype</field>
   <field type="string">element</field>
   <field>mass</field>
   <field>valence</field>
   <field type="string">pseudopotential</field>
   <set>
    <rc><c>   1</c><c>Fe</c><c>     55.84700000</c><c>      8.00000000</c><c>  PAW_PBE Fe 06Sep2000                  </c></rc>
   </set>
  </array>
 </atominfo>
 <structure name="initialpos" >
  <crystal>
   <varray name="basis" >
    <v>      -1.42500000       1.42500000       1.42500000 </v>
    <v>       1.42500000      -1.42500000       1.42500000 </v>
    <v>       1.42500000       1.42500000      -1.42500000 </v>
   </varray>
   <i name="volume">     11.57456250 </i>
   <varray name="rec_basis" >
    <v>       0.00000000       0.35087719       0.35087719 </v>
    <v>       0.35087719       0.00000000       0.35087719 </v>
    <v>       0.35087719       0.35087719       0.00000000 </v>
   </varray>
  </crystal>
  <varray name="positions" >
   <v>       0.00000000       0.00000000       0.00000000 </v>
  </varray>
 </structure>
 <calculation>
  <scstep>
   <time name="dav">    0.72    0.45</time>
   <time name="total">    0.78    0.49</time>
   <energy>
    <i name="alphaZ">     59.71178263 </i>
    <i name="ewald">   -588.39789044 </i>
    <i name="hartreedc">   -112.96750494 </i>
    <i name="XCdc">      5.94991612 </i>
    <i name="pawpsdc">    552.89180568 </i>
    <i name="pawaedc">   -560.64780826 </i>
    <i name="eentropy">      0.00000000 </i>
    <i name="bandstr">     66.45566267 </i>
    <i name="atom">    594.28837649 </i>
    <i name="e_fr_energy">     17.28433996 </i>
    <i name="e_wo_entrp">     17.28433996 </i>
    <i name="e_0_energy">     17.28433996 </i>
   </energy>
  </scstep>
  <scstep>
   <time name="dav">    0.56    0.40</time>
   <time name="total">    0.57    0.41</time>
   <energy>
    <i name="e_fr_energy">     -8.20559716 </i>
    <i name="e_wo_entrp">     -8.20559716 </i>
    <i name="e_0_energy">     -8.20559716 </i>
   </energy>
  </scstep>
  <scstep>
   <time name="dav">    0.64    0.40</time>
   <time name="total">    0.65    0.40</time>
   <energy>
    <i name="e_fr_energy">     -8.77954924 </i>
    <i name="e_wo_entrp">     -8.77954924 </i>
    <i name="e_0_energy">     -8.77954924 </i>
   </energy>
  </scstep>
  <scstep>
   <time name="dav">    0.67    0.43</time>
   <time name="total">    0.67    0.43</time>
   <energy>
    <i name="e_fr_energy">     -8.78123037 </i>
    <i name="e_wo_entrp">     -8.78123037 </i>
    <i name="e_0_energy">     -8.78123037 </i>
   </energy>
  </scstep>
  <scstep>
   <time name="dav">    1.14    0.72</time>
   <time name="total">    1.16    0.73</time>
   <energy>
    <i name="e_fr_energy">     -8.78123926 </i>
    <i name="e_wo_entrp">     -8.78123926 </i>
    <i name="e_0_energy">     -8.78123926 </i>
   </energy>
  </scstep>
  <scstep>
   <time name="dav">    0.80    0.51</time>
   <time name="total">    0.88    0.56</time>
   <energy>
    <i name="e_fr_energy">     -8.21046213 </i>
    <i name="e_wo_entrp">     -8.21046213 </i>
    <i name="e_0_energy">     -8.21046213 </i>
   </energy>
  </scstep>
  <scstep>
   <time name="dav">    0.74    0.49</time>
   <time name="total">    0.80    0.53</time>
   <energy>
    <i name="e_fr_energy">     -8.18550957 </i>
    <i name="e_wo_entrp">     -8.18550957 </i>
    <i name="e_0_energy">     -8.18550957 </i>
   </energy>
  </scstep>
  <scstep>
   <time name="dav">    0.77    0.54</time>
   <time name="total">    0.84    0.59</time>
   <energy>
    <i name="e_fr_energy">     -8.17732235 </i>
    <i name="e_wo_entrp">     -8.17732235 </i>
    <i name="e_0_energy">     -8.17732235 </i>
   </energy>
  </scstep>
  <scstep>
   <time name="dav">    1.22    0.76</time>
   <time name="total">    1.28    0.80</time>
   <energy>
    <i name="e_fr_energy">     -8.16990941 </i>
    <i name="e_wo_entrp">     -8.16990941 </i>
    <i name="e_0_energy">     -8.16990941 </i>
   </energy>
  </scstep>
  <scstep>
   <time name="dav">    0.71    0.43</time>
   <time name="total">    0.79    0.48</time>
   <energy>
    <i name="e_fr_energy">     -8.16995340 </i>
    <i name="e_wo_entrp">     -8.16995340 </i>
    <i name="e_0_energy">     -8.16995340 </i>
   </energy>
  </scstep>
  <scstep>
   <time name="dav">    0.91    0.49</time>
   <time name="total">    0.98    0.54</time>
   <energy>
    <i name="e_fr_energy">     -8.16997754 </i>
    <i name="e_wo_entrp">     -8.16997754 </i>
    <i name="e_0_energy">     -8.16997754 </i>
   </energy>
  </scstep>
  <scstep>
   <time name="dav">    1.01    0.58</time>
   <time name="total">    1.13    0.65</time>
   <energy>
    <i name="e_fr_energy">     -8.17005047 </i>
    <i name="e_wo_entrp">     -8.17005047 </i>
    <i name="e_0_energy">     -8.17005047 </i>
   </energy>
  </scstep>
  <scstep>
   <time name="dav">    0.39    0.23</time>
   <time name="total">    0.48    0.29</time>
   <energy>
    <i name="e_fr_energy">     -8.16999796 </i>
    <i name="e_wo_entrp">     -8.16999796 </i>
    <i name="e_0_energy">     -8.16999796 </i>
   </energy>
  </scstep>
  <scstep>
   <time name="dav">    0.43    0.26</time>
   <time name="total">    0.50    0.31</time>
   <energy>
    <i name="e_fr_energy">     -8.17000021 </i>
    <i name="e_wo_entrp">     -8.17000021 </i>
    <i name="e_0_energy">     -8.17000021 </i>
   </energy>
  </scstep>
  <scstep>
   <time name="dav">    0.40    0.25</time>
   <time name="total">    0.46    0.29</time>
   <energy>
    <i name="e_fr_energy">     -8.17000315 </i>
    <i name="e_wo_entrp">     -8.17000315 </i>
    <i name="e_0_energy">     -8.17000315 </i>
   </energy>
  </scstep>
  <scstep>
   <time name="dav">    0.44    0.26</time>
   <time name="total">    0.48    0.29</time>
   <energy>
    <i name="alphaZ">     59.71178263 </i>
    <i name="ewald">   -588.39789044 </i>
    <i name="hartreedc">    -96.97789749 </i>
    <i name="XCdc">      4.34860501 </i>
    <i name="pawpsdc">    715.01757811 </i>
    <i name="pawaedc">   -724.06815248 </i>
    <i name="eentropy">      0.00000000 </i>
    <i name="bandstr">     27.90759575 </i>
    <i name="atom">    594.28837649 </i>
    <i name="e_fr_energy">     -8.17000243 </i>
    <i name="e_wo_entrp">     -8.17000243 </i>
    <i name="e_0_energy">     -8.17000243 </i>
   </energy>
  </scstep>
  <structure>
   <crystal>
    <varray name="basis" >
     <v>      -1.42500000       1.42500000       1.42500000 </v>
     <v>       1.42500000      -1.42500000       1.42500000 </v>
     <v>       1.42500000       1.42500000      -1.42500000 </v>
    </varray>
    <i name="volume">     11.57456250 </i>
    <varray name="rec_basis" >
     <v>       0.00000000       0.35087719       0.35087719 </v>
     <v>       0.35087719       0.00000000       0.35087719 </v>
     <v>       0.35087719       0.35087719       0.00000000 </v>
    </varray>
   </crystal>
   <varray name="positions" >
    <v>       0.00000000       0.00000000       0.00000000 </v>
   </varray>
  </structure>
  <varray name="forces" >
   <v>      -0.00000000       0.00000000      -0.00000000 </v>
  </varray>
  <varray name="stress" >
   <v>     -28.55940217       0.00000000      -0.00000000 </v>
   <v>       0.00000000     -28.55940217       0.00000000 </v>
   <v>      -0.00000000       0.00000000     -28.55940217 </v>
  </varray>
  <energy>
   <i name="e_fr_energy">     -8.17000243 </i>
   <i name="e_wo_entrp">     -8.17000243 </i>
   <i name="e_0_energy">      0.00000000 </i>
  </energy>
  <time name="totalsc">   12.89    8.04</time>
  <eigenvalues>
   <array>
    <dimension dim="1">band</dimension>
    <dimension dim="2">kpoint</dimension>
    <dimension dim="3">spin</dimension>
    <field>eigene</field>
    <field>occ</field>
    <set>
     <set comment="spin 1">
      <set comment="kpoint 1">
       <r>    0.5863    1.0000 </r>
       <r>    2.6535    1.0000 </r>
       <r>    2.6535    1.0000 </r>
       <r>    4.6823    1.0000 </r>
       <r>    4.6823    1.0000 </r>
       <r>    5.6954    0.1842 </r>
       <r>   21.6242    0.0000 </r>
       <r>   21.6242    0.0000 </r>
       <r>   23.7350    0.0000 </r>
       <r>   33.9801    0.0000 </r>
       <r>   38.4666    0.0000 </r>
       <r>   38.4666    0.0000 </r>
      </set>
      <set comment="kpoint 2">
       <r>    1.6180    1.0000 </r>
       <r>    2.2648    1.0000 </r>
       <r>    3.6830    1.0000 </r>
       <r>    4.8037    1.0000 </r>
       <r>    4.8782    1.0000 </r>
       <r>    9.6632   -0.0162 </r>
       <r>   13.1264    0.0000 </r>
       <r>   19.4770    0.0000 </r>
       <r>   20.4438    0.0000 </r>
       <r>   34.7738    0.0000 </r>
       <r>   39.1249    0.0000 </r>
       <r>   41.1417    0.0000 </r>
      </set>
      <set comment="kpoint 3">
       <r>   -1.4176    1.0000 </r>
       <r>    3.4104    1.0000 </r>
       <r>    3.4104    1.0000 </r>
       <r>    3.7148    1.0000 </r>
       <r>    4.1344    1.0000 </r>
       <r>    4.8879    0.8654 </r>
       <r>   26.4026    0.0000 </r>
       <r>   28.2308    0.0000 </r>
       <r>   28.2308    0.0000 </r>
       <r>   30.0373    0.0000 </r>
       <r>   35.1137    0.0000 </r>
       <r>   35.1137    0.0000 </r>
      </set>
      <set comment="kpoint 4">
       <r>    1.1529    1.0000 </r>
       <r>    2.8492    1.0000 </r>
       <r>    3.1961    1.0000 </r>
       <r>    4.4187    1.0000 </r>
       <r>    5.4924    1.0000 </r>
       <r>    6.2119    0.0086 </r>
       <r>   16.2222    0.0000 </r>
       <r>   23.6112    0.0000 </r>
       <r>   24.0221    0.0000 </r>
       <r>   31.9938    0.0000 </r>
       <r>   32.7311    0.0000 </r>
       <r>   35.5280    0.0000 </r>
      </set>
      <set comment="kpoint 5">
       <r>    2.2498    1.0000 </r>
       <r>    2.2498    1.0000 </r>
       <r>    2.6708    1.0000 </r>
       <r>    5.1003    1.0000 </r>
       <r>    5.1003    1.0000 </r>
       <r>   12.6681   -0.0093 </r>
       <r>   12.6682    0.0000 </r>
       <r>   15.0036    0.0000 </r>
       <r>   29.2779    0.0000 </r>
       <r>   29.2780    0.0000 </r>
       <r>   29.7408    0.0000 </r>
       <r>   37.0653    0.0000 </r>
      </set>
      <set comment="kpoint 6">
       <r>    1.4418    1.0000 </r>
       <r>    1.5231    1.0000 </r>
       <r>    4.9040    1.0000 </r>
       <r>    4.9040    1.0000 </r>
       <r>    5.3759    1.0000 </r>
       <r>   10.4605   -0.0174 </r>
       <r>   17.6510    0.0000 </r>
       <r>   17.6510    0.0000 </r>
       <r>   21.6160    0.0000 </r>
       <r>   23.4595    0.0000 </r>
       <r>   30.8449    0.0000 </r>
       <r>   42.2761    0.0000 </r>
      </set>
     </set>
     <set comment="spin 2">
      <set comment="kpoint 1">
       <r>    0.8073    1.0000 </r>
       <r>    4.4998    1.0000 </r>
       <r>    4.4998    1.0015 </r>
       <r>    7.2900    0.0000 </r>
       <r>    7.2900    0.0000 </r>
       <r>    7.8283    0.0000 </r>
       <r>   22.0899    0.0000 </r>
       <r>   22.0899    0.0000 </r>
       <r>   24.4527    0.0000 </r>
       <r>   33.6116    0.0000 </r>
       <r>   38.7029    0.0000 </r>
       <r>   38.7029    0.0000 </r>
      </set>
      <set comment="kpoint 2">
       <r>    2.9727    1.0000 </r>
       <r>    3.9845    1.0000 </r>
       <r>    4.8576    0.9964 </r>
       <r>    7.3949    0.0000 </r>
       <r>    7.5818    0.0000 </r>
       <r>   10.8999    0.0000 </r>
       <r>   14.3543    0.0000 </r>
       <r>   19.9762    0.0000 </r>
       <r>   21.0228    0.0000 </r>
       <r>   34.7352    0.0000 </r>
       <r>   39.5571    0.0000 </r>
       <r>   41.0989    0.0000 </r>
      </set>
      <set comment="kpoint 3">
       <r>   -1.3328    1.0000 </r>
       <r>    5.4371    1.0000 </r>
       <r>    5.4371    0.9766 </r>
       <r>    5.8265    0.0000 </r>
       <r>    6.6021    0.0000 </r>
       <r>    7.5532    0.0000 </r>
       <r>   26.4224    0.0000 </r>
       <r>   28.5329    0.0000 </r>
       <r>   28.5329    0.0000 </r>
       <r>   30.3610    0.0000 </r>
       <r>   35.4595    0.0000 </r>
       <r>   35.4595    0.0000 </r>
      </set>
      <set comment="kpoint 4">
       <r>    2.0460    1.0000 </r>
       <r>    4.7518    1.0000 </r>
       <r>    4.7618    0.9794 </r>
       <r>    6.7259    0.0000 </r>
       <r>    7.8299    0.0000 </r>
       <r>    8.2143    0.0000 </r>
       <r>   17.1451    0.0000 </r>
       <r>   24.1770    0.0000 </r>
       <r>   24.1999    0.0000 </r>
       <r>   32.2651    0.0000 </r>
       <r>   33.1509    0.0000 </r>
       <r>   35.8609    0.0000 </r>
      </set>
      <set comment="kpoint 5">
       <r>    3.8648    1.0000 </r>
       <r>    3.8648    1.0000 </r>
       <r>    4.3960    0.9878 </r>
       <r>    7.4189    0.0000 </r>
       <r>    7.4189    0.0000 </r>
       <r>   13.6833    0.0000 </r>
       <r>   13.6833    0.0000 </r>
       <r>   15.8591    0.0000 </r>
       <r>   29.4477    0.0000 </r>
       <r>   29.4477    0.0000 </r>
       <r>   30.2167    0.0000 </r>
       <r>   37.8904    0.0000 </r>
      </set>
      <set comment="kpoint 6">
       <r>    2.9666    1.0000 </r>
       <r>    3.3391    1.0000 </r>
       <r>    7.0469    0.0443 </r>
       <r>    7.0469    0.0000 </r>
       <r>    7.7107    0.0000 </r>
       <r>   11.3487    0.0000 </r>
       <r>   18.0976    0.0000 </r>
       <r>   18.0976    0.0000 </r>
       <r>   22.3843    0.0000 </r>
       <r>   24.0387    0.0000 </r>
       <r>   31.6347    0.0000 </r>
       <r>   42.5583    0.0000 </r>
      </set>
     </set>
    </set>
   </array>
  </eigenvalues>
  <separator name="orbital magnetization" >
   <v name="MAGDIPOLOUT">      0.00000000      0.00000000      0.00000000</v>
  </separator>
  <dos>
   <i name="efermi">      5.61660075 </i>
   <total>
    <array>
     <dimension dim="1">gridpoints</dimension>
     <dimension dim="2">spin</dimension>
     <field>energy</field>
     <field>total</field>
     <field>integrated</field>
     <set>
      <set comment="spin 1">
       <r>    -3.6164     0.0000     0.0000 </r>
       <r>    -3.4551     0.0000     0.0000 </r>
       <r>    -3.2939     0.0000     0.0000 </r>
       <r>    -3.1326     0.0000     0.0000 </r>
       <r>    -2.9714     0.0000     0.0000 </r>
       <r>    -2.8102     0.0000     0.0000 </r>
       <r>    -2.6489     0.0000     0.0000 </r>
       <r>    -2.4877     0.0000     0.0000 </r>
       <r>    -2.3264     0.0000     0.0000 </r>
       <r>    -2.1652     0.0000     0.0000 </r>
       <r>    -2.0039     0.0000     0.0000 </r>
       <r>    -1.8427     0.0000     0.0000 </r>
       <r>    -1.6814     0.0000     0.0000 </r>
       <r>    -1.5202     0.0000     0.0000 </r>
       <r>    -1.3589     0.0304     0.0069 </r>
       <r>    -1.1977     0.0379     0.0124 </r>
       <r>    -1.0365     0.0460     0.0192 </r>
       <r>    -0.8752     0.0545     0.0273 </r>
       <r>    -0.7140     0.0635     0.0368 </r>
       <r>    -0.5527     0.0730     0.0478 </r>
       <r>    -0.3915     0.0831     0.0604 </r>
       <r>    -0.2302     0.0936     0.0746 </r>
       <r>    -0.0690     0.1046     0.0906 </r>
       <r>     0.0923     0.1160     0.1083 </r>
       <r>     0.2535     0.1280     0.1280 </r>
       <r>     0.4147     0.1405     0.1496 </r>
       <r>     0.5760     0.1535     0.1733 </r>
       <r>     0.7372     0.2268     0.2034 </r>
       <r>     0.8985     0.3328     0.2481 </r>
       <r>     1.0597     0.4684     0.3123 </r>
       <r>     1.2210     1.0207     0.4279 </r>
       <r>     1.3822     1.0611     0.5974 </r>
       <r>     1.5435     0.9326     0.7654 </r>
       <r>     1.7047     0.6418     0.9034 </r>
       <r>     1.8659     0.4731     0.9926 </r>
       <r>     2.0272     0.3564     1.0587 </r>
       <r>     2.1884     0.2917     1.1103 </r>
       <r>     2.3497     1.0468     1.2418 </r>
       <r>     2.5109     1.1269     1.4179 </r>
       <r>     2.6722     1.2213     1.6025 </r>
       <r>     2.8334     1.6913     1.8468 </r>
       <r>     2.9947     1.3381     2.0528 </r>
       <r>     3.1559     1.5706     2.2873 </r>
       <r>     3.3172     1.5249     2.5638 </r>
       <r>     3.4784     0.7404     2.7549 </r>
       <r>     3.6396     0.4465     2.8498 </r>
       <r>     3.8009     0.2722     2.9120 </r>
       <r>     3.9621     0.3180     2.9592 </r>
       <r>     4.1234     0.3905     3.0160 </r>
       <r>     4.2846     0.6208     3.1077 </r>
       <r>     4.4459     1.5705     3.2416 </r>
       <r>     4.6071     1.9322     3.5310 </r>
       <r>     4.7684     2.0789     3.8463 </r>
       <r>     4.9296     1.9196     4.2068 </r>
       <r>     5.0908     1.2467     4.4571 </r>
       <r>     5.2521     1.5952     4.6853 </r>
       <r>     5.4133     1.6827     4.9645 </r>
       <r>     5.5746     0.1851     5.0936 </r>
       <r>     5.7358     0.2136     5.1253 </r>
       <r>     5.8971     0.2541     5.1633 </r>
       <r>     6.0583     0.2744     5.2062 </r>
       <r>     6.2196     0.1673     5.2499 </r>
       <r>     6.3808     0.1677     5.2769 </r>
       <r>     6.5420     0.1679     5.3039 </r>
       <r>     6.7033     0.1680     5.3310 </r>
       <r>     6.8645     0.1679     5.3581 </r>
       <r>     7.0258     0.1676     5.3851 </r>
       <r>     7.1870     0.1671     5.4121 </r>
       <r>     7.3483     0.1665     5.4390 </r>
       <r>     7.5095     0.1658     5.4658 </r>
       <r>     7.6708     0.1649     5.4925 </r>
       <r>     7.8320     0.1638     5.5190 </r>
       <r>     7.9933     0.1625     5.5453 </r>
       <r>     8.1545     0.1611     5.5714 </r>
       <r>     8.3157     0.1596     5.5973 </r>
       <r>     8.4770     0.1579     5.6229 </r>
       <r>     8.6382     0.1560     5.6482 </r>
       <r>     8.7995     0.1539     5.6731 </r>
       <r>     8.9607     0.1517     5.6978 </r>
       <r>     9.1220     0.1493     5.7221 </r>
       <r>     9.2832     0.1468     5.7459 </r>
       <r>     9.4445     0.1441     5.7694 </r>
       <r>     9.6057     0.1413     5.7924 </r>
       <r>     9.7669     0.1199     5.8236 </r>
       <r>     9.9282     0.1127     5.8424 </r>
       <r>    10.0894     0.1057     5.8600 </r>
       <r>    10.2507     0.0988     5.8764 </r>
       <r>    10.4119     0.0921     5.8918 </r>
       <r>    10.5732     0.0909     5.9121 </r>
       <r>    10.7344     0.0824     5.9260 </r>
       <r>    10.8957     0.0742     5.9386 </r>
       <r>    11.0569     0.0662     5.9500 </r>
       <r>    11.2181     0.0585     5.9600 </r>
       <r>    11.3794     0.0510     5.9688 </r>
       <r>    11.5406     0.0438     5.9765 </r>
       <r>    11.7019     0.0368     5.9830 </r>
       <r>    11.8631     0.0300     5.9883 </r>
       <r>    12.0244     0.0235     5.9926 </r>
       <r>    12.1856     0.0173     5.9959 </r>
       <r>    12.3469     0.0112     5.9982 </r>
       <r>    12.5081     0.0055     5.9996 </r>
       <r>    12.6694     0.0001     6.0000 </r>
       <r>    12.8306     0.0235     6.0015 </r>
       <r>    12.9918     0.0749     6.0091 </r>
       <r>    13.1531     0.0962     6.0362 </r>
       <r>    13.3143     0.1033     6.0523 </r>
       <r>    13.4756     0.1101     6.0695 </r>
       <r>    13.6368     0.1168     6.0878 </r>
       <r>    13.7981     0.1233     6.1072 </r>
       <r>    13.9593     0.1296     6.1276 </r>
       <r>    14.1206     0.1356     6.1490 </r>
       <r>    14.2818     0.1415     6.1713 </r>
       <r>    14.4430     0.1472     6.1946 </r>
       <r>    14.6043     0.1527     6.2188 </r>
       <r>    14.7655     0.1580     6.2438 </r>
       <r>    14.9268     0.1630     6.2697 </r>
       <r>    15.0880     0.1698     6.2964 </r>
       <r>    15.2493     0.1780     6.3245 </r>
       <r>    15.4105     0.1862     6.3539 </r>
       <r>    15.5718     0.1942     6.3845 </r>
       <r>    15.7330     0.2020     6.4165 </r>
       <r>    15.8942     0.2097     6.4497 </r>
       <r>    16.0555     0.2173     6.4841 </r>
       <r>    16.2167     0.2248     6.5197 </r>
       <r>    16.3780     0.2167     6.5556 </r>
       <r>    16.5392     0.2057     6.5897 </r>
       <r>    16.7005     0.1959     6.6220 </r>
       <r>    16.8617     0.1873     6.6529 </r>
       <r>    17.0230     0.1800     6.6825 </r>
       <r>    17.1842     0.1738     6.7110 </r>
       <r>    17.3455     0.1689     6.7386 </r>
       <r>    17.5067     0.1652     6.7655 </r>
       <r>    17.6679     0.1283     6.8018 </r>
       <r>    17.8292     0.1297     6.8226 </r>
       <r>    17.9904     0.1311     6.8436 </r>
       <r>    18.1517     0.1327     6.8649 </r>
       <r>    18.3129     0.1344     6.8864 </r>
       <r>    18.4742     0.1362     6.9082 </r>
       <r>    18.6354     0.1381     6.9303 </r>
       <r>    18.7967     0.1402     6.9528 </r>
       <r>    18.9579     0.1424     6.9755 </r>
       <r>    19.1191     0.1447     6.9987 </r>
       <r>    19.2804     0.1471     7.0222 </r>
       <r>    19.4416     0.1497     7.0461 </r>
       <r>    19.6029     0.1728     7.0836 </r>
       <r>    19.7641     0.1726     7.1115 </r>
       <r>    19.9254     0.1723     7.1393 </r>
       <r>    20.0866     0.1721     7.1670 </r>
       <r>    20.2479     0.1718     7.1948 </r>
       <r>    20.4091     0.1715     7.2224 </r>
       <r>    20.5703     0.2061     7.2646 </r>
       <r>    20.7316     0.2117     7.2983 </r>
       <r>    20.8928     0.2177     7.3329 </r>
       <r>    21.0541     0.2239     7.3685 </r>
       <r>    21.2153     0.2304     7.4052 </r>
       <r>    21.3766     0.2373     7.4429 </r>
       <r>    21.5378     0.2445     7.4817 </r>
       <r>    21.6991     0.2717     7.5285 </r>
       <r>    21.8603     0.2842     7.5733 </r>
       <r>    22.0216     0.2960     7.6201 </r>
       <r>    22.1828     0.3070     7.6687 </r>
       <r>    22.3440     0.3174     7.7190 </r>
       <r>    22.5053     0.3271     7.7710 </r>
       <r>    22.6665     0.3360     7.8245 </r>
       <r>    22.8278     0.3443     7.8793 </r>
       <r>    22.9890     0.3518     7.9355 </r>
       <r>    23.1503     0.3586     7.9927 </r>
       <r>    23.3115     0.3647     8.0511 </r>
       <r>    23.4728     0.3792     8.1156 </r>
       <r>    23.6340     0.3190     8.1757 </r>
       <r>    23.7952     0.3915     8.2298 </r>
       <r>    23.9565     0.5265     8.3047 </r>
       <r>    24.1177     0.3025     8.3697 </r>
       <r>    24.2790     0.2907     8.4175 </r>
       <r>    24.4402     0.2792     8.4635 </r>
       <r>    24.6015     0.2679     8.5076 </r>
       <r>    24.7627     0.2568     8.5499 </r>
       <r>    24.9240     0.2460     8.5904 </r>
       <r>    25.0852     0.2354     8.6292 </r>
       <r>    25.2464     0.2250     8.6663 </r>
       <r>    25.4077     0.2149     8.7018 </r>
       <r>    25.5689     0.2051     8.7357 </r>
       <r>    25.7302     0.1954     8.7679 </r>
       <r>    25.8914     0.1860     8.7987 </r>
       <r>    26.0527     0.1769     8.8280 </r>
       <r>    26.2139     0.1680     8.8558 </r>
       <r>    26.3752     0.1593     8.8821 </r>
       <r>    26.5364     0.1419     8.9111 </r>
       <r>    26.6977     0.1346     8.9334 </r>
       <r>    26.8589     0.1275     8.9545 </r>
       <r>    27.0201     0.1207     8.9745 </r>
       <r>    27.1814     0.1141     8.9935 </r>
       <r>    27.3426     0.1077     9.0113 </r>
       <r>    27.5039     0.1017     9.0282 </r>
       <r>    27.6651     0.0958     9.0441 </r>
       <r>    27.8264     0.0902     9.0591 </r>
       <r>    27.9876     0.0849     9.0733 </r>
       <r>    28.1489     0.0798     9.0865 </r>
       <r>    28.3101     0.0505     9.1074 </r>
       <r>    28.4713     0.0489     9.1154 </r>
       <r>    28.6326     0.0475     9.1232 </r>
       <r>    28.7938     0.0463     9.1308 </r>
       <r>    28.9551     0.0454     9.1382 </r>
       <r>    29.1163     0.0447     9.1454 </r>
       <r>    29.2776     0.0443     9.1526 </r>
       <r>    29.4388     0.0475     9.1600 </r>
       <r>    29.6001     0.0511     9.1679 </r>
       <r>    29.7613     0.0576     9.1765 </r>
       <r>    29.9225     0.0817     9.1877 </r>
       <r>    30.0838     0.1301     9.2091 </r>
       <r>    30.2450     0.1573     9.2323 </r>
       <r>    30.4063     0.1840     9.2598 </r>
       <r>    30.5675     0.2104     9.2916 </r>
       <r>    30.7288     0.2364     9.3277 </r>
       <r>    30.8900     0.2475     9.3725 </r>
       <r>    31.0513     0.2631     9.4136 </r>
       <r>    31.2125     0.2792     9.4574 </r>
       <r>    31.3738     0.2958     9.5037 </r>
       <r>    31.5350     0.3130     9.5528 </r>
       <r>    31.6962     0.3307     9.6047 </r>
       <r>    31.8575     0.3489     9.6594 </r>
       <r>    32.0187     0.3780     9.7175 </r>
       <r>    32.1800     0.3725     9.7780 </r>
       <r>    32.3412     0.3661     9.8376 </r>
       <r>    32.5025     0.3589     9.8960 </r>
       <r>    32.6637     0.3509     9.9533 </r>
       <r>    32.8250     0.3455    10.0094 </r>
       <r>    32.9862     0.3374    10.0645 </r>
       <r>    33.1474     0.3284    10.1182 </r>
       <r>    33.3087     0.3187    10.1704 </r>
       <r>    33.4699     0.3083    10.2209 </r>
       <r>    33.6312     0.2970    10.2697 </r>
       <r>    33.7924     0.2850    10.3167 </r>
       <r>    33.9537     0.2723    10.3616 </r>
       <r>    34.1149     0.2598    10.4045 </r>
       <r>    34.2762     0.2475    10.4454 </r>
       <r>    34.4374     0.2351    10.4843 </r>
       <r>    34.5986     0.2227    10.5212 </r>
       <r>    34.7599     0.2103    10.5562 </r>
       <r>    34.9211     0.1420    10.5904 </r>
       <r>    35.0824     0.1422    10.6133 </r>
       <r>    35.2436     0.2494    10.6586 </r>
       <r>    35.4049     0.3126    10.7035 </r>
       <r>    35.5661     0.3289    10.7586 </r>
       <r>    35.7274     0.3383    10.8125 </r>
       <r>    35.8886     0.3450    10.8676 </r>
       <r>    36.0499     0.3490    10.9236 </r>
       <r>    36.2111     0.3504    10.9800 </r>
       <r>    36.3723     0.3490    11.0364 </r>
       <r>    36.5336     0.3450    11.0924 </r>
       <r>    36.6948     0.3384    11.1476 </r>
       <r>    36.8561     0.3290    11.2014 </r>
       <r>    37.0173     0.3170    11.2535 </r>
       <r>    37.1786     0.3048    11.3036 </r>
       <r>    37.3398     0.2932    11.3518 </r>
       <r>    37.5011     0.2815    11.3982 </r>
       <r>    37.6623     0.2695    11.4426 </r>
       <r>    37.8235     0.2573    11.4850 </r>
       <r>    37.9848     0.2449    11.5255 </r>
       <r>    38.1460     0.2323    11.5640 </r>
       <r>    38.3073     0.2195    11.6004 </r>
       <r>    38.4685     0.2065    11.6348 </r>
       <r>    38.6298     0.1989    11.6674 </r>
       <r>    38.7910     0.1943    11.6991 </r>
       <r>    38.9523     0.1925    11.7302 </r>
       <r>    39.1135     0.1937    11.7613 </r>
       <r>    39.2747     0.1284    11.7935 </r>
       <r>    39.4360     0.1229    11.8138 </r>
       <r>    39.5972     0.1172    11.8332 </r>
       <r>    39.7585     0.1113    11.8516 </r>
       <r>    39.9197     0.1052    11.8690 </r>
       <r>    40.0810     0.0989    11.8855 </r>
       <r>    40.2422     0.0924    11.9009 </r>
       <r>    40.4035     0.0858    11.9153 </r>
       <r>    40.5647     0.0789    11.9286 </r>
       <r>    40.7260     0.0718    11.9407 </r>
       <r>    40.8872     0.0645    11.9517 </r>
       <r>    41.0484     0.0570    11.9615 </r>
       <r>    41.2097     0.0211    11.9785 </r>
       <r>    41.3709     0.0191    11.9817 </r>
       <r>    41.5322     0.0172    11.9847 </r>
       <r>    41.6934     0.0155    11.9873 </r>
       <r>    41.8547     0.0139    11.9897 </r>
       <r>    42.0159     0.0125    11.9918 </r>
       <r>    42.1772     0.0113    11.9937 </r>
       <r>    42.3384     0.0000    12.0000 </r>
       <r>    42.4996     0.0000    12.0000 </r>
       <r>    42.6609     0.0000    12.0000 </r>
       <r>    42.8221     0.0000    12.0000 </r>
       <r>    42.9834     0.0000    12.0000 </r>
       <r>    43.1446     0.0000    12.0000 </r>
       <r>    43.3059     0.0000    12.0000 </r>
       <r>    43.4671     0.0000    12.0000 </r>
       <r>    43.6284     0.0000    12.0000 </r>
       <r>    43.7896     0.0000    12.0000 </r>
       <r>    43.9508     0.0000    12.0000 </r>
       <r>    44.1121     0.0000    12.0000 </r>
       <r>    44.2733     0.0000    12.0000 </r>
       <r>    44.4346     0.0000    12.0000 </r>
       <r>    44.5958     0.0000    12.0000 </r>
       <r>    44.7571     0.0000    12.0000 </r>
      </set>
      <set comment="spin 2">
       <r>    -3.6164     0.0000     0.0000 </r>
       <r>    -3.4551     0.0000     0.0000 </r>
       <r>    -3.2939     0.0000     0.0000 </r>
       <r>    -3.1326     0.0000     0.0000 </r>
       <r>    -2.9714     0.0000     0.0000 </r>
       <r>    -2.8102     0.0000     0.0000 </r>
       <r>    -2.6489     0.0000     0.0000 </r>
       <r>    -2.4877     0.0000     0.0000 </r>
       <r>    -2.3264     0.0000     0.0000 </r>
       <r>    -2.1652     0.0000     0.0000 </r>
       <r>    -2.0039     0.0000     0.0000 </r>
       <r>    -1.8427     0.0000     0.0000 </r>
       <r>    -1.6814     0.0000     0.0000 </r>
       <r>    -1.5202     0.0000     0.0000 </r>
       <r>    -1.3589     0.0000     0.0000 </r>
       <r>    -1.1977     0.0283     0.0087 </r>
       <r>    -1.0365     0.0337     0.0137 </r>
       <r>    -0.8752     0.0391     0.0196 </r>
       <r>    -0.7140     0.0446     0.0263 </r>
       <r>    -0.5527     0.0501     0.0340 </r>
       <r>    -0.3915     0.0557     0.0425 </r>
       <r>    -0.2302     0.0613     0.0519 </r>
       <r>    -0.0690     0.0671     0.0623 </r>
       <r>     0.0923     0.0728     0.0736 </r>
       <r>     0.2535     0.0787     0.0858 </r>
       <r>     0.4147     0.0846     0.0989 </r>
       <r>     0.5760     0.0905     0.1130 </r>
       <r>     0.7372     0.0965     0.1281 </r>
       <r>     0.8985     0.1083     0.1444 </r>
       <r>     1.0597     0.1264     0.1633 </r>
       <r>     1.2210     0.1472     0.1853 </r>
       <r>     1.3822     0.1706     0.2109 </r>
       <r>     1.5435     0.1966     0.2405 </r>
       <r>     1.7047     0.2252     0.2745 </r>
       <r>     1.8659     0.2564     0.3133 </r>
       <r>     2.0272     0.2903     0.3573 </r>
       <r>     2.1884     0.4887     0.4307 </r>
       <r>     2.3497     0.5073     0.5111 </r>
       <r>     2.5109     0.5142     0.5936 </r>
       <r>     2.6722     0.5095     0.6763 </r>
       <r>     2.8334     0.4930     0.7573 </r>
       <r>     2.9947     0.4072     0.8491 </r>
       <r>     3.1559     0.3043     0.9063 </r>
       <r>     3.3172     0.2140     0.9480 </r>
       <r>     3.4784     0.2649     0.9960 </r>
       <r>     3.6396     0.2450     1.0370 </r>
       <r>     3.8009     0.2279     1.0751 </r>
       <r>     3.9621     0.6755     1.1273 </r>
       <r>     4.1234     0.8163     1.2649 </r>
       <r>     4.2846     0.8543     1.4000 </r>
       <r>     4.4459     0.9830     1.5415 </r>
       <r>     4.6071     2.2206     1.7878 </r>
       <r>     4.7684     3.7490     2.2405 </r>
       <r>     4.9296     0.9194     2.5722 </r>
       <r>     5.0908     0.6755     2.7002 </r>
       <r>     5.2521     0.4766     2.7924 </r>
       <r>     5.4133     0.3228     2.8563 </r>
       <r>     5.5746     0.1303     2.8931 </r>
       <r>     5.7358     0.1136     2.9127 </r>
       <r>     5.8971     0.1666     2.9394 </r>
       <r>     6.0583     0.1887     2.9679 </r>
       <r>     6.2196     0.2237     3.0009 </r>
       <r>     6.3808     0.2715     3.0407 </r>
       <r>     6.5420     0.3322     3.0892 </r>
       <r>     6.7033     0.5065     3.1624 </r>
       <r>     6.8645     1.3646     3.3419 </r>
       <r>     7.0258     1.6061     3.5834 </r>
       <r>     7.1870     1.4685     3.8436 </r>
       <r>     7.3483     1.4842     4.0648 </r>
       <r>     7.5095     1.6733     4.3044 </r>
       <r>     7.6708     2.6309     4.7004 </r>
       <r>     7.8320     0.3517     5.0863 </r>
       <r>     7.9933     0.4213     5.1496 </r>
       <r>     8.1545     0.4174     5.2182 </r>
       <r>     8.3157     0.2185     5.2647 </r>
       <r>     8.4770     0.2179     5.2999 </r>
       <r>     8.6382     0.2171     5.3350 </r>
       <r>     8.7995     0.2159     5.3699 </r>
       <r>     8.9607     0.2145     5.4046 </r>
       <r>     9.1220     0.2128     5.4391 </r>
       <r>     9.2832     0.2109     5.4733 </r>
       <r>     9.4445     0.2086     5.5071 </r>
       <r>     9.6057     0.2061     5.5405 </r>
       <r>     9.7669     0.2032     5.5735 </r>
       <r>     9.9282     0.2001     5.6060 </r>
       <r>    10.0894     0.1968     5.6380 </r>
       <r>    10.2507     0.1931     5.6695 </r>
       <r>    10.4119     0.1892     5.7003 </r>
       <r>    10.5732     0.1849     5.7305 </r>
       <r>    10.7344     0.1804     5.7599 </r>
       <r>    10.8957     0.1756     5.7886 </r>
       <r>    11.0569     0.1437     5.8231 </r>
       <r>    11.2181     0.1342     5.8455 </r>
       <r>    11.3794     0.1277     5.8717 </r>
       <r>    11.5406     0.1155     5.8913 </r>
       <r>    11.7019     0.1039     5.9090 </r>
       <r>    11.8631     0.0928     5.9248 </r>
       <r>    12.0244     0.0821     5.9389 </r>
       <r>    12.1856     0.0719     5.9513 </r>
       <r>    12.3469     0.0622     5.9621 </r>
       <r>    12.5081     0.0529     5.9714 </r>
       <r>    12.6694     0.0442     5.9792 </r>
       <r>    12.8306     0.0359     5.9857 </r>
       <r>    12.9918     0.0281     5.9908 </r>
       <r>    13.1531     0.0207     5.9947 </r>
       <r>    13.3143     0.0139     5.9975 </r>
       <r>    13.4756     0.0075     5.9992 </r>
       <r>    13.6368     0.0016     6.0000 </r>
       <r>    13.7981     0.0084     6.0004 </r>
       <r>    13.9593     0.0298     6.0033 </r>
       <r>    14.1206     0.0627     6.0107 </r>
       <r>    14.2818     0.1069     6.0242 </r>
       <r>    14.4430     0.1148     6.0532 </r>
       <r>    14.6043     0.1228     6.0723 </r>
       <r>    14.7655     0.1306     6.0927 </r>
       <r>    14.9268     0.1381     6.1144 </r>
       <r>    15.0880     0.1454     6.1373 </r>
       <r>    15.2493     0.1525     6.1613 </r>
       <r>    15.4105     0.1593     6.1864 </r>
       <r>    15.5718     0.1659     6.2127 </r>
       <r>    15.7330     0.1723     6.2399 </r>
       <r>    15.8942     0.1794     6.2682 </r>
       <r>    16.0555     0.1899     6.2980 </r>
       <r>    16.2167     0.2002     6.3294 </r>
       <r>    16.3780     0.2103     6.3625 </r>
       <r>    16.5392     0.2201     6.3972 </r>
       <r>    16.7005     0.2297     6.4335 </r>
       <r>    16.8617     0.2391     6.4713 </r>
       <r>    17.0230     0.2483     6.5106 </r>
       <r>    17.1842     0.2711     6.5521 </r>
       <r>    17.3455     0.2478     6.5939 </r>
       <r>    17.5067     0.2281     6.6322 </r>
       <r>    17.6679     0.2118     6.6676 </r>
       <r>    17.8292     0.1990     6.7007 </r>
       <r>    17.9904     0.1897     6.7320 </r>
       <r>    18.1517     0.1370     6.7699 </r>
       <r>    18.3129     0.1381     6.7920 </r>
       <r>    18.4742     0.1394     6.8144 </r>
       <r>    18.6354     0.1408     6.8370 </r>
       <r>    18.7967     0.1424     6.8598 </r>
       <r>    18.9579     0.1441     6.8829 </r>
       <r>    19.1191     0.1460     6.9063 </r>
       <r>    19.2804     0.1481     6.9300 </r>
       <r>    19.4416     0.1503     6.9541 </r>
       <r>    19.6029     0.1527     6.9785 </r>
       <r>    19.7641     0.1552     7.0033 </r>
       <r>    19.9254     0.1579     7.0286 </r>
       <r>    20.0866     0.1803     7.0669 </r>
       <r>    20.2479     0.1796     7.0960 </r>
       <r>    20.4091     0.1789     7.1249 </r>
       <r>    20.5703     0.1782     7.1536 </r>
       <r>    20.7316     0.1775     7.1823 </r>
       <r>    20.8928     0.1769     7.2109 </r>
       <r>    21.0541     0.2099     7.2508 </r>
       <r>    21.2153     0.2158     7.2851 </r>
       <r>    21.3766     0.2221     7.3204 </r>
       <r>    21.5378     0.2287     7.3568 </r>
       <r>    21.6991     0.2358     7.3942 </r>
       <r>    21.8603     0.2432     7.4328 </r>
       <r>    22.0216     0.2510     7.4727 </r>
       <r>    22.1828     0.2613     7.5139 </r>
       <r>    22.3440     0.2729     7.5570 </r>
       <r>    22.5053     0.3076     7.6098 </r>
       <r>    22.6665     0.3208     7.6605 </r>
       <r>    22.8278     0.3333     7.7132 </r>
       <r>    22.9890     0.3453     7.7680 </r>
       <r>    23.1503     0.3567     7.8246 </r>
       <r>    23.3115     0.3675     7.8830 </r>
       <r>    23.4728     0.3778     7.9431 </r>
       <r>    23.6340     0.3874     8.0048 </r>
       <r>    23.7952     0.3965     8.0680 </r>
       <r>    23.9565     0.4050     8.1326 </r>
       <r>    24.1177     0.4228     8.2045 </r>
       <r>    24.2790     0.5140     8.2808 </r>
       <r>    24.4402     0.3332     8.3505 </r>
       <r>    24.6015     0.3032     8.4005 </r>
       <r>    24.7627     0.2909     8.4484 </r>
       <r>    24.9240     0.2789     8.4943 </r>
       <r>    25.0852     0.2672     8.5384 </r>
       <r>    25.2464     0.2556     8.5805 </r>
       <r>    25.4077     0.2444     8.6208 </r>
       <r>    25.5689     0.2334     8.6593 </r>
       <r>    25.7302     0.2226     8.6961 </r>
       <r>    25.8914     0.2120     8.7311 </r>
       <r>    26.0527     0.2018     8.7645 </r>
       <r>    26.2139     0.1917     8.7962 </r>
       <r>    26.3752     0.1819     8.8263 </r>
       <r>    26.5364     0.1625     8.8589 </r>
       <r>    26.6977     0.1542     8.8845 </r>
       <r>    26.8589     0.1462     8.9087 </r>
       <r>    27.0201     0.1385     8.9316 </r>
       <r>    27.1814     0.1310     8.9533 </r>
       <r>    27.3426     0.1238     8.9739 </r>
       <r>    27.5039     0.1168     8.9933 </r>
       <r>    27.6651     0.1101     9.0116 </r>
       <r>    27.8264     0.1037     9.0288 </r>
       <r>    27.9876     0.0975     9.0450 </r>
       <r>    28.1489     0.0916     9.0603 </r>
       <r>    28.3101     0.0860     9.0746 </r>
       <r>    28.4713     0.0806     9.0880 </r>
       <r>    28.6326     0.0505     9.1084 </r>
       <r>    28.7938     0.0489     9.1164 </r>
       <r>    28.9551     0.0476     9.1242 </r>
       <r>    29.1163     0.0465     9.1318 </r>
       <r>    29.2776     0.0457     9.1392 </r>
       <r>    29.4388     0.0452     9.1465 </r>
       <r>    29.6001     0.0482     9.1540 </r>
       <r>    29.7613     0.0518     9.1621 </r>
       <r>    29.9225     0.0557     9.1708 </r>
       <r>    30.0838     0.0600     9.1801 </r>
       <r>    30.2450     0.0671     9.1901 </r>
       <r>    30.4063     0.1141     9.2090 </r>
       <r>    30.5675     0.1394     9.2294 </r>
       <r>    30.7288     0.1654     9.2540 </r>
       <r>    30.8900     0.1921     9.2828 </r>
       <r>    31.0513     0.2194     9.3159 </r>
       <r>    31.2125     0.2473     9.3535 </r>
       <r>    31.3738     0.2759     9.3957 </r>
       <r>    31.5350     0.3052     9.4426 </r>
       <r>    31.6962     0.3293     9.4992 </r>
       <r>    31.8575     0.3483     9.5538 </r>
       <r>    32.0187     0.3679     9.6115 </r>
       <r>    32.1800     0.3882     9.6725 </r>
       <r>    32.3412     0.4291     9.7388 </r>
       <r>    32.5025     0.4184     9.8072 </r>
       <r>    32.6637     0.4061     9.8737 </r>
       <r>    32.8250     0.3923     9.9381 </r>
       <r>    32.9862     0.3769    10.0001 </r>
       <r>    33.1474     0.3600    10.0595 </r>
       <r>    33.3087     0.3382    10.1155 </r>
       <r>    33.4699     0.3194    10.1685 </r>
       <r>    33.6312     0.3001    10.2184 </r>
       <r>    33.7924     0.2868    10.2657 </r>
       <r>    33.9537     0.2731    10.3109 </r>
       <r>    34.1149     0.2592    10.3538 </r>
       <r>    34.2762     0.2449    10.3944 </r>
       <r>    34.4374     0.2303    10.4328 </r>
       <r>    34.5986     0.2155    10.4687 </r>
       <r>    34.7599     0.1437    10.5112 </r>
       <r>    34.9211     0.1443    10.5344 </r>
       <r>    35.0824     0.1448    10.5578 </r>
       <r>    35.2436     0.1452    10.5812 </r>
       <r>    35.4049     0.1454    10.6046 </r>
       <r>    35.5661     0.2506    10.6484 </r>
       <r>    35.7274     0.3140    10.6934 </r>
       <r>    35.8886     0.3262    10.7494 </r>
       <r>    36.0499     0.3329    10.8026 </r>
       <r>    36.2111     0.3380    10.8567 </r>
       <r>    36.3723     0.3413    10.9115 </r>
       <r>    36.5336     0.3428    10.9667 </r>
       <r>    36.6948     0.3427    11.0220 </r>
       <r>    36.8561     0.3408    11.0771 </r>
       <r>    37.0173     0.3372    11.1318 </r>
       <r>    37.1786     0.3319    11.1858 </r>
       <r>    37.3398     0.3249    11.2387 </r>
       <r>    37.5011     0.3162    11.2904 </r>
       <r>    37.6623     0.3057    11.3406 </r>
       <r>    37.8235     0.2935    11.3889 </r>
       <r>    37.9848     0.2803    11.4352 </r>
       <r>    38.1460     0.2671    11.4793 </r>
       <r>    38.3073     0.2539    11.5213 </r>
       <r>    38.4685     0.2407    11.5612 </r>
       <r>    38.6298     0.2273    11.5989 </r>
       <r>    38.7910     0.2168    11.6346 </r>
       <r>    38.9523     0.2091    11.6690 </r>
       <r>    39.1135     0.2023    11.7021 </r>
       <r>    39.2747     0.1962    11.7342 </r>
       <r>    39.4360     0.1909    11.7654 </r>
       <r>    39.5972     0.1362    11.8043 </r>
       <r>    39.7585     0.1297    11.8257 </r>
       <r>    39.9197     0.1229    11.8461 </r>
       <r>    40.0810     0.1158    11.8653 </r>
       <r>    40.2422     0.1083    11.8834 </r>
       <r>    40.4035     0.1004    11.9002 </r>
       <r>    40.5647     0.0922    11.9158 </r>
       <r>    40.7260     0.0836    11.9299 </r>
       <r>    40.8872     0.0747    11.9427 </r>
       <r>    41.0484     0.0654    11.9540 </r>
       <r>    41.2097     0.0261    11.9706 </r>
       <r>    41.3709     0.0238    11.9746 </r>
       <r>    41.5322     0.0217    11.9783 </r>
       <r>    41.6934     0.0197    11.9816 </r>
       <r>    41.8547     0.0179    11.9847 </r>
       <r>    42.0159     0.0161    11.9874 </r>
       <r>    42.1772     0.0146    11.9899 </r>
       <r>    42.3384     0.0131    11.9921 </r>
       <r>    42.4996     0.0118    11.9941 </r>
       <r>    42.6609     0.0000    12.0000 </r>
       <r>    42.8221     0.0000    12.0000 </r>
       <r>    42.9834     0.0000    12.0000 </r>
       <r>    43.1446     0.0000    12.0000 </r>
       <r>    43.3059     0.0000    12.0000 </r>
       <r>    43.4671     0.0000    12.0000 </r>
       <r>    43.6284     0.0000    12.0000 </r>
       <r>    43.7896     0.0000    12.0000 </r>
       <r>    43.9508     0.0000    12.0000 </r>
       <r>    44.1121     0.0000    12.0000 </r>
       <r>    44.2733     0.0000    12.0000 </r>
       <r>    44.4346     0.0000    12.0000 </r>
       <r>    44.5958     0.0000    12.0000 </r>
       <r>    44.7571     0.0000    12.0000 </r>
      </set>
     </set>
    </array>
   </total>
   <partial>
    <array>
     <dimension dim="1">gridpoints</dimension>
     <dimension dim="2">spin</dimension>
     <dimension dim="3">ion</dimension>
     <field>energy</field>
     <field>  s</field>
     <field> py</field>
     <field> pz</field>
     <field> px</field>
     <field>dxy</field>
     <field>dyz</field>
     <field>dz2</field>
     <field>dxz</field>
     <field>dx2</field>
     <set>
      <set comment="ion 1">
       <set comment="spin 1">
        <r>    -3.6164     0.0000     0.0000     0.0000     0.0000     0.0000     0.0000     0.0000     0.0000     0.0000 </r>
        <r>    -3.4551     0.0000     0.0000     0.0000     0.0000     0.0000     0.0000     0.0000     0.0000     0.0000 </r>
        <r>    -3.2939     0.0000     0.0000     0.0000     0.0000     0.0000     0.0000     0.0000     0.0000     0.0000 </r>
        <r>    -3.1326     0.0000     0.0000     0.0000     0.0000     0.0000     0.0000     0.0000     0.0000     0.0000 </r>
        <r>    -2.9714     0.0000     0.0000     0.0000     0.0000     0.0000     0.0000     0.0000     0.0000     0.0000 </r>
        <r>    -2.8102     0.0000     0.0000     0.0000     0.0000     0.0000     0.0000     0.0000     0.0000     0.0000 </r>
        <r>    -2.6489     0.0000     0.0000     0.0000     0.0000     0.0000     0.0000     0.0000     0.0000     0.0000 </r>
        <r>    -2.4877     0.0000     0.0000     0.0000     0.0000     0.0000     0.0000     0.0000     0.0000     0.0000 </r>
        <r>    -2.3264     0.0000     0.0000     0.0000     0.0000     0.0000     0.0000     0.0000     0.0000     0.0000 </r>
        <r>    -2.1652     0.0000     0.0000     0.0000     0.0000     0.0000     0.0000     0.0000     0.0000     0.0000 </r>
        <r>    -2.0039     0.0000     0.0000     0.0000     0.0000     0.0000     0.0000     0.0000     0.0000     0.0000 </r>
        <r>    -1.8427     0.0000     0.0000     0.0000     0.0000     0.0000     0.0000     0.0000     0.0000     0.0000 </r>
        <r>    -1.6814     0.0000     0.0000     0.0000     0.0000     0.0000     0.0000     0.0000     0.0000     0.0000 </r>
        <r>    -1.5202     0.0000     0.0000     0.0000     0.0000     0.0000     0.0000     0.0000     0.0000     0.0000 </r>
        <r>    -1.3589     0.0164     0.0003     0.0003     0.0024     0.0014     0.0002     0.0010     0.0002     0.0003 </r>
        <r>    -1.1977     0.0195     0.0005     0.0005     0.0029     0.0022     0.0004     0.0016     0.0003     0.0004 </r>
        <r>    -1.0365     0.0226     0.0006     0.0006     0.0035     0.0031     0.0006     0.0023     0.0004     0.0006 </r>
        <r>    -0.8752     0.0258     0.0008     0.0008     0.0041     0.0042     0.0008     0.0032     0.0005     0.0008 </r>
        <r>    -0.7140     0.0288     0.0010     0.0009     0.0047     0.0055     0.0012     0.0043     0.0007     0.0011 </r>
        <r>    -0.5527     0.0319     0.0011     0.0011     0.0054     0.0069     0.0015     0.0055     0.0008     0.0015 </r>
        <r>    -0.3915     0.0350     0.0013     0.0013     0.0061     0.0085     0.0020     0.0069     0.0009     0.0019 </r>
        <r>    -0.2302     0.0381     0.0014     0.0014     0.0068     0.0102     0.0024     0.0085     0.0010     0.0024 </r>
        <r>    -0.0690     0.0411     0.0016     0.0016     0.0076     0.0121     0.0030     0.0102     0.0011     0.0029 </r>
        <r>     0.0923     0.0442     0.0018     0.0017     0.0084     0.0141     0.0035     0.0120     0.0012     0.0035 </r>
        <r>     0.2535     0.0472     0.0019     0.0019     0.0092     0.0162     0.0042     0.0141     0.0013     0.0042 </r>
        <r>     0.4147     0.0502     0.0021     0.0020     0.0101     0.0186     0.0049     0.0162     0.0014     0.0049 </r>
        <r>     0.5760     0.0532     0.0022     0.0022     0.0110     0.0210     0.0056     0.0186     0.0015     0.0057 </r>
        <r>     0.7372     0.0702     0.0039     0.0039     0.0156     0.0334     0.0131     0.0297     0.0026     0.0085 </r>
        <r>     0.8985     0.0901     0.0057     0.0059     0.0221     0.0509     0.0286     0.0486     0.0039     0.0136 </r>
        <r>     1.0597     0.1118     0.0076     0.0082     0.0301     0.0732     0.0518     0.0748     0.0053     0.0208 </r>
        <r>     1.2210     0.1637     0.0079     0.0100     0.0645     0.1754     0.1258     0.2110     0.0055     0.0956 </r>
        <r>     1.3822     0.1366     0.0073     0.0122     0.0626     0.1481     0.1515     0.2408     0.0058     0.1372 </r>
        <r>     1.5435     0.0945     0.0067     0.0129     0.0468     0.0998     0.1582     0.2495     0.0101     0.1227 </r>
        <r>     1.7047     0.0484     0.0052     0.0104     0.0273     0.0584     0.0877     0.2025     0.0172     0.0984 </r>
        <r>     1.8659     0.0264     0.0042     0.0069     0.0168     0.0367     0.0590     0.1504     0.0282     0.0847 </r>
        <r>     2.0272     0.0109     0.0035     0.0041     0.0091     0.0217     0.0445     0.1054     0.0435     0.0736 </r>
        <r>     2.1884     0.0018     0.0032     0.0019     0.0040     0.0134     0.0442     0.0677     0.0631     0.0651 </r>
        <r>     2.3497     0.0000     0.0147     0.0085     0.0088     0.1989     0.1502     0.0558     0.3784     0.1561 </r>
        <r>     2.5109     0.0000     0.0130     0.0091     0.0079     0.1832     0.2123     0.0480     0.4402     0.1378 </r>
        <r>     2.6722     0.0005     0.0116     0.0099     0.0071     0.1808     0.2762     0.0404     0.5061     0.1133 </r>
        <r>     2.8334     0.0099     0.0219     0.0162     0.0164     0.2716     0.4023     0.0626     0.6483     0.1369 </r>
        <r>     2.9947     0.0181     0.0351     0.0177     0.0273     0.2976     0.2067     0.0806     0.3636     0.1893 </r>
        <r>     3.1559     0.0249     0.0536     0.0257     0.0406     0.3525     0.1883     0.1129     0.3608     0.2785 </r>
        <r>     3.3172     0.0232     0.0667     0.0367     0.0415     0.3667     0.1032     0.1113     0.3529     0.2854 </r>
        <r>     3.4784     0.0124     0.0438     0.0292     0.0199     0.1709     0.0434     0.0524     0.1559     0.1364 </r>
        <r>     3.6396     0.0066     0.0278     0.0206     0.0097     0.1146     0.0219     0.0255     0.1078     0.0668 </r>
        <r>     3.8009     0.0035     0.0056     0.0020     0.0047     0.0542     0.0763     0.0242     0.0414     0.0441 </r>
        <r>     3.9621     0.0029     0.0049     0.0016     0.0040     0.0647     0.0942     0.0396     0.0369     0.0533 </r>
        <r>     4.1234     0.0024     0.0046     0.0013     0.0035     0.0844     0.1141     0.0632     0.0338     0.0666 </r>
        <r>     4.2846     0.0021     0.0046     0.0013     0.0033     0.1152     0.1473     0.1743     0.0419     0.1075 </r>
        <r>     4.4459     0.0035     0.0122     0.0027     0.0078     0.4498     0.1828     0.5110     0.0785     0.2707 </r>
        <r>     4.6071     0.0040     0.0127     0.0054     0.0079     0.5214     0.1973     0.5754     0.1298     0.4204 </r>
        <r>     4.7684     0.0039     0.0103     0.0079     0.0063     0.4625     0.2491     0.5903     0.1903     0.5025 </r>
        <r>     4.9296     0.0027     0.0084     0.0090     0.0053     0.3164     0.2842     0.6278     0.3106     0.3078 </r>
        <r>     5.0908     0.0036     0.0039     0.0035     0.0051     0.0346     0.3353     0.3871     0.2573     0.1880 </r>
        <r>     5.2521     0.0055     0.0065     0.0043     0.0089     0.0189     0.6479     0.2923     0.3770     0.1978 </r>
        <r>     5.4133     0.0077     0.0068     0.0057     0.0103     0.0192     0.8574     0.1645     0.4222     0.1514 </r>
        <r>     5.5746     0.0101     0.0059     0.0017     0.0108     0.0195     0.0142     0.0197     0.0147     0.0768 </r>
        <r>     5.7358     0.0133     0.0081     0.0023     0.0147     0.0237     0.0162     0.0198     0.0170     0.0836 </r>
        <r>     5.8971     0.0177     0.0114     0.0036     0.0199     0.0302     0.0194     0.0195     0.0209     0.0916 </r>
        <r>     6.0583     0.0208     0.0145     0.0052     0.0239     0.0330     0.0191     0.0182     0.0217     0.0941 </r>
        <r>     6.2196     0.0126     0.0133     0.0093     0.0164     0.0199     0.0069     0.0093     0.0127     0.0479 </r>
        <r>     6.3808     0.0125     0.0136     0.0100     0.0165     0.0200     0.0068     0.0093     0.0129     0.0467 </r>
        <r>     6.5420     0.0124     0.0138     0.0107     0.0167     0.0201     0.0066     0.0093     0.0130     0.0455 </r>
        <r>     6.7033     0.0123     0.0141     0.0114     0.0168     0.0202     0.0064     0.0093     0.0131     0.0443 </r>
        <r>     6.8645     0.0122     0.0143     0.0120     0.0169     0.0202     0.0063     0.0094     0.0131     0.0431 </r>
        <r>     7.0258     0.0120     0.0145     0.0126     0.0169     0.0202     0.0061     0.0094     0.0132     0.0419 </r>
        <r>     7.1870     0.0119     0.0147     0.0132     0.0170     0.0202     0.0060     0.0094     0.0132     0.0407 </r>
        <r>     7.3483     0.0117     0.0148     0.0138     0.0170     0.0202     0.0058     0.0094     0.0133     0.0395 </r>
        <r>     7.5095     0.0116     0.0149     0.0143     0.0170     0.0201     0.0056     0.0094     0.0133     0.0382 </r>
        <r>     7.6708     0.0114     0.0150     0.0148     0.0170     0.0201     0.0055     0.0093     0.0133     0.0370 </r>
        <r>     7.8320     0.0112     0.0151     0.0153     0.0170     0.0200     0.0053     0.0093     0.0133     0.0358 </r>
        <r>     7.9933     0.0110     0.0152     0.0157     0.0169     0.0199     0.0051     0.0093     0.0132     0.0345 </r>
        <r>     8.1545     0.0108     0.0152     0.0161     0.0169     0.0197     0.0050     0.0093     0.0132     0.0333 </r>
        <r>     8.3157     0.0106     0.0152     0.0165     0.0168     0.0195     0.0048     0.0092     0.0131     0.0320 </r>
        <r>     8.4770     0.0103     0.0152     0.0169     0.0167     0.0193     0.0046     0.0092     0.0130     0.0307 </r>
        <r>     8.6382     0.0101     0.0152     0.0172     0.0165     0.0191     0.0044     0.0092     0.0130     0.0295 </r>
        <r>     8.7995     0.0098     0.0151     0.0175     0.0164     0.0189     0.0043     0.0091     0.0128     0.0282 </r>
        <r>     8.9607     0.0096     0.0150     0.0178     0.0162     0.0186     0.0041     0.0091     0.0127     0.0269 </r>
        <r>     9.1220     0.0093     0.0149     0.0180     0.0161     0.0184     0.0039     0.0090     0.0126     0.0256 </r>
        <r>     9.2832     0.0090     0.0148     0.0183     0.0158     0.0180     0.0038     0.0090     0.0124     0.0243 </r>
        <r>     9.4445     0.0087     0.0147     0.0185     0.0156     0.0177     0.0036     0.0089     0.0123     0.0230 </r>
        <r>     9.6057     0.0084     0.0145     0.0186     0.0154     0.0174     0.0034     0.0088     0.0121     0.0217 </r>
        <r>     9.7669     0.0075     0.0112     0.0163     0.0146     0.0136     0.0027     0.0088     0.0087     0.0185 </r>
        <r>     9.9282     0.0073     0.0103     0.0152     0.0143     0.0125     0.0025     0.0084     0.0078     0.0175 </r>
        <r>    10.0894     0.0071     0.0094     0.0141     0.0139     0.0114     0.0022     0.0080     0.0070     0.0165 </r>
        <r>    10.2507     0.0068     0.0086     0.0130     0.0136     0.0104     0.0020     0.0076     0.0063     0.0156 </r>
        <r>    10.4119     0.0066     0.0077     0.0120     0.0132     0.0094     0.0018     0.0072     0.0055     0.0147 </r>
        <r>    10.5732     0.0068     0.0071     0.0121     0.0144     0.0086     0.0017     0.0076     0.0050     0.0134 </r>
        <r>    10.7344     0.0062     0.0063     0.0111     0.0133     0.0077     0.0015     0.0070     0.0043     0.0120 </r>
        <r>    10.8957     0.0056     0.0056     0.0102     0.0122     0.0068     0.0013     0.0065     0.0037     0.0106 </r>
        <r>    11.0569     0.0050     0.0049     0.0092     0.0110     0.0060     0.0012     0.0060     0.0032     0.0093 </r>
        <r>    11.2181     0.0045     0.0042     0.0083     0.0099     0.0052     0.0010     0.0054     0.0026     0.0081 </r>
        <r>    11.3794     0.0039     0.0036     0.0073     0.0088     0.0044     0.0009     0.0049     0.0022     0.0070 </r>
        <r>    11.5406     0.0034     0.0030     0.0064     0.0077     0.0037     0.0007     0.0043     0.0018     0.0059 </r>
        <r>    11.7019     0.0028     0.0024     0.0055     0.0066     0.0030     0.0006     0.0037     0.0014     0.0048 </r>
        <r>    11.8631     0.0023     0.0019     0.0045     0.0055     0.0024     0.0005     0.0031     0.0010     0.0039 </r>
        <r>    12.0244     0.0018     0.0015     0.0036     0.0044     0.0018     0.0004     0.0025     0.0007     0.0030 </r>
        <r>    12.1856     0.0014     0.0010     0.0027     0.0033     0.0013     0.0003     0.0019     0.0005     0.0021 </r>
        <r>    12.3469     0.0009     0.0007     0.0018     0.0022     0.0008     0.0002     0.0013     0.0003     0.0014 </r>
        <r>    12.5081     0.0004     0.0003     0.0009     0.0011     0.0004     0.0001     0.0006     0.0001     0.0006 </r>
        <r>    12.6694     0.0000     0.0000     0.0000     0.0000     0.0000     0.0000     0.0000     0.0000     0.0000 </r>
        <r>    12.8306     0.0049     0.0029     0.0002     0.0029     0.0011     0.0045     0.0005     0.0007     0.0021 </r>
        <r>    12.9918     0.0172     0.0080     0.0006     0.0089     0.0030     0.0162     0.0016     0.0021     0.0062 </r>
        <r>    13.1531     0.0218     0.0111     0.0011     0.0101     0.0068     0.0183     0.0030     0.0025     0.0068 </r>
        <r>    13.3143     0.0226     0.0127     0.0015     0.0107     0.0081     0.0185     0.0035     0.0027     0.0072 </r>
        <r>    13.4756     0.0234     0.0142     0.0018     0.0112     0.0093     0.0186     0.0039     0.0030     0.0076 </r>
        <r>    13.6368     0.0241     0.0157     0.0022     0.0117     0.0105     0.0188     0.0043     0.0032     0.0079 </r>
        <r>    13.7981     0.0249     0.0171     0.0026     0.0122     0.0117     0.0188     0.0047     0.0035     0.0082 </r>
        <r>    13.9593     0.0255     0.0186     0.0030     0.0126     0.0129     0.0189     0.0051     0.0037     0.0085 </r>
        <r>    14.1206     0.0262     0.0200     0.0034     0.0130     0.0141     0.0189     0.0055     0.0039     0.0088 </r>
        <r>    14.2818     0.0268     0.0214     0.0038     0.0134     0.0153     0.0188     0.0059     0.0041     0.0090 </r>
        <r>    14.4430     0.0274     0.0227     0.0042     0.0137     0.0165     0.0187     0.0064     0.0043     0.0092 </r>
        <r>    14.6043     0.0279     0.0240     0.0047     0.0140     0.0176     0.0186     0.0068     0.0045     0.0094 </r>
        <r>    14.7655     0.0284     0.0253     0.0051     0.0143     0.0188     0.0185     0.0072     0.0047     0.0096 </r>
        <r>    14.9268     0.0289     0.0266     0.0056     0.0145     0.0200     0.0183     0.0076     0.0049     0.0097 </r>
        <r>    15.0880     0.0298     0.0281     0.0064     0.0147     0.0213     0.0181     0.0080     0.0053     0.0098 </r>
        <r>    15.2493     0.0311     0.0298     0.0076     0.0149     0.0227     0.0180     0.0084     0.0058     0.0099 </r>
        <r>    15.4105     0.0323     0.0315     0.0088     0.0150     0.0241     0.0178     0.0088     0.0064     0.0099 </r>
        <r>    15.5718     0.0334     0.0331     0.0101     0.0151     0.0255     0.0176     0.0093     0.0070     0.0100 </r>
        <r>    15.7330     0.0345     0.0347     0.0114     0.0152     0.0269     0.0174     0.0097     0.0076     0.0100 </r>
        <r>    15.8942     0.0355     0.0363     0.0128     0.0152     0.0283     0.0171     0.0101     0.0082     0.0100 </r>
        <r>    16.0555     0.0364     0.0379     0.0142     0.0152     0.0297     0.0168     0.0105     0.0088     0.0099 </r>
        <r>    16.2167     0.0372     0.0395     0.0157     0.0152     0.0311     0.0164     0.0109     0.0095     0.0098 </r>
        <r>    16.3780     0.0319     0.0401     0.0199     0.0126     0.0304     0.0121     0.0109     0.0105     0.0083 </r>
        <r>    16.5392     0.0299     0.0375     0.0203     0.0115     0.0280     0.0114     0.0101     0.0108     0.0076 </r>
        <r>    16.7005     0.0280     0.0352     0.0208     0.0105     0.0258     0.0108     0.0094     0.0111     0.0070 </r>
        <r>    16.8617     0.0264     0.0331     0.0214     0.0096     0.0239     0.0103     0.0087     0.0115     0.0065 </r>
        <r>    17.0230     0.0250     0.0312     0.0220     0.0087     0.0222     0.0098     0.0082     0.0119     0.0059 </r>
        <r>    17.1842     0.0237     0.0295     0.0228     0.0079     0.0208     0.0093     0.0077     0.0123     0.0054 </r>
        <r>    17.3455     0.0226     0.0281     0.0236     0.0072     0.0196     0.0089     0.0073     0.0128     0.0049 </r>
        <r>    17.5067     0.0217     0.0270     0.0245     0.0065     0.0187     0.0086     0.0069     0.0134     0.0045 </r>
        <r>    17.6679     0.0184     0.0160     0.0175     0.0053     0.0145     0.0080     0.0061     0.0121     0.0038 </r>
        <r>    17.8292     0.0184     0.0159     0.0183     0.0051     0.0145     0.0078     0.0061     0.0127     0.0037 </r>
        <r>    17.9904     0.0184     0.0159     0.0191     0.0050     0.0146     0.0077     0.0061     0.0133     0.0036 </r>
        <r>    18.1517     0.0184     0.0158     0.0199     0.0048     0.0147     0.0076     0.0061     0.0140     0.0035 </r>
        <r>    18.3129     0.0184     0.0157     0.0207     0.0047     0.0148     0.0074     0.0060     0.0146     0.0034 </r>
        <r>    18.4742     0.0185     0.0157     0.0215     0.0046     0.0149     0.0073     0.0060     0.0153     0.0034 </r>
        <r>    18.6354     0.0185     0.0156     0.0224     0.0045     0.0150     0.0072     0.0060     0.0160     0.0033 </r>
        <r>    18.7967     0.0185     0.0156     0.0233     0.0044     0.0152     0.0071     0.0060     0.0167     0.0032 </r>
        <r>    18.9579     0.0186     0.0156     0.0242     0.0042     0.0153     0.0071     0.0059     0.0174     0.0032 </r>
        <r>    19.1191     0.0187     0.0156     0.0251     0.0042     0.0155     0.0070     0.0059     0.0182     0.0031 </r>
        <r>    19.2804     0.0188     0.0156     0.0260     0.0041     0.0157     0.0069     0.0059     0.0190     0.0030 </r>
        <r>    19.4416     0.0189     0.0157     0.0270     0.0040     0.0159     0.0069     0.0059     0.0198     0.0030 </r>
[...]
       </set>
       <set comment="band 5">
        <r>  0.0000  0.0000  0.0000  0.0000  0.0540  0.0005  0.7222  0.0438  0.1549 </r>
       </set>
       <set comment="band 6">
        <r>  0.0352  0.0210  0.0210  0.0210  0.2856  0.2856  0.0000  0.2856  0.0000 </r>
       </set>
       <set comment="band 7">
        <r>  0.0000  0.0939  0.0760  0.0947  0.1015  0.1264  0.0469  0.1253  0.0619 </r>
       </set>
       <set comment="band 8">
        <r>  0.0000  0.0825  0.1004  0.0817  0.1340  0.1091  0.0619  0.1101  0.0469 </r>
       </set>
       <set comment="band 9">
        <r>  0.2735  0.1540  0.1540  0.1540  0.0368  0.0368  0.0000  0.0368  0.0000 </r>
       </set>
       <set comment="band 10">
        <r>  0.0000  0.0000  0.0000  0.0000  0.0000  0.0000  0.0000  0.0000  0.0000 </r>
       </set>
       <set comment="band 11">
        <r>  0.0000  0.0000  0.0002  0.0001  0.5452  0.1930  0.1687  0.0960  0.0034 </r>
       </set>
       <set comment="band 12">
        <r>  0.0000  0.0002  0.0000  0.0001  0.0109  0.3631  0.0034  0.4602  0.1687 </r>
       </set>
      </set>
      <set comment="kpoint 2">
       <set comment="band 1">
        <r>  0.0745  0.0000  0.0000  0.0527  0.0000  0.5818  0.0443  0.0000  0.1330 </r>
       </set>
       <set comment="band 2">
        <r>  0.0000  0.0145  0.0145  0.0000  0.4550  0.0000  0.0000  0.4550  0.0000 </r>
       </set>
       <set comment="band 3">
        <r>  0.0000  0.1109  0.1109  0.0000  0.3284  0.0000  0.0000  0.3284  0.0000 </r>
       </set>
       <set comment="band 4">
        <r>  0.0045  0.0000  0.0000  0.0012  0.0000  0.2082  0.1920  0.0000  0.5759 </r>
       </set>
       <set comment="band 5">
        <r>  0.0000  0.0000  0.0000  0.0000  0.0000  0.0000  0.7382  0.0000  0.2461 </r>
       </set>
       <set comment="band 6">
        <r>  0.0000  0.2112  0.2112  0.0000  0.1965  0.0000  0.0000  0.1965  0.0000 </r>
       </set>
       <set comment="band 7">
        <r>  0.3793  0.0000  0.0000  0.0752  0.0000  0.3566  0.0147  0.0000  0.0440 </r>
       </set>
       <set comment="band 8">
        <r>  0.0000  0.1598  0.1598  0.0000  0.1949  0.0000  0.0000  0.1949  0.0000 </r>
       </set>
       <set comment="band 9">
        <r>  0.2908  0.0000  0.0000  0.4104  0.0000  0.0445  0.0082  0.0000  0.0246 </r>
       </set>
       <set comment="band 10">
        <r>  0.0000  0.0023  0.0023  0.0000  0.2615  0.0000  0.0000  0.2615  0.0000 </r>
       </set>
       <set comment="band 11">
        <r>  0.0606  0.0000  0.0000  0.1518  0.0000  0.0027  0.1712  0.0000  0.5137 </r>
       </set>
       <set comment="band 12">
        <r>  0.0000  0.0315  0.0315  0.0000  0.0258  0.0000  0.0000  0.0258  0.0000 </r>
       </set>
      </set>
      <set comment="kpoint 3">
       <set comment="band 1">
        <r>  0.6248  0.0000  0.0000  0.0835  0.0000  0.0000  0.0028  0.0000  0.0083 </r>
       </set>
       <set comment="band 2">
        <r>  0.0000  0.0043  0.0043  0.0000  0.4795  0.0000  0.0000  0.4795  0.0000 </r>
       </set>
       <set comment="band 3">
        <r>  0.0000  0.0043  0.0043  0.0000  0.4795  0.0000  0.0000  0.4795  0.0000 </r>
       </set>
       <set comment="band 4">
        <r>  0.0000  0.0000  0.0000  0.0000  0.0000  0.9734  0.0000  0.0000  0.0000 </r>
       </set>
       <set comment="band 5">
        <r>  0.0000  0.0000  0.0000  0.0000  0.0000  0.0000  0.7106  0.0000  0.2369 </r>
       </set>
       <set comment="band 6">
        <r>  0.0073  0.0000  0.0000  0.0013  0.0000  0.0000  0.2420  0.0000  0.7261 </r>
       </set>
       <set comment="band 7">
        <r>  0.0000  0.0000  0.0000  0.0000  0.0000  0.0000  0.3338  0.0000  0.1113 </r>
       </set>
       <set comment="band 8">
        <r>  0.0000  0.1061  0.1061  0.0000  0.2860  0.0000  0.0000  0.2860  0.0000 </r>
       </set>
       <set comment="band 9">
        <r>  0.0000  0.1061  0.1061  0.0000  0.2860  0.0000  0.0000  0.2860  0.0000 </r>
       </set>
       <set comment="band 10">
        <r>  0.0829  0.0000  0.0000  0.3570  0.0000  0.0000  0.0155  0.0000  0.0465 </r>
       </set>
       <set comment="band 11">
        <r>  0.0000  0.1919  0.1919  0.0000  0.0189  0.0000  0.0000  0.0189  0.0000 </r>
       </set>
       <set comment="band 12">
        <r>  0.0000  0.1919  0.1919  0.0000  0.0189  0.0000  0.0000  0.0189  0.0000 </r>
       </set>
      </set>
      <set comment="kpoint 4">
       <set comment="band 1">
        <r>  0.1852  0.0023  0.0000  0.0743  0.3070  0.0000  0.2424  0.0000  0.0243 </r>
       </set>
       <set comment="band 2">
        <r>  0.0000  0.0000  0.0086  0.0000  0.0000  0.4139  0.0000  0.5322  0.0000 </r>
       </set>
       <set comment="band 3">
        <r>  0.0319  0.0543  0.0000  0.0712  0.0358  0.0000  0.1854  0.0000  0.4946 </r>
       </set>
       <set comment="band 4">
        <r>  0.0021  0.0121  0.0000  0.0078  0.4768  0.0000  0.4440  0.0000  0.0223 </r>
       </set>
       <set comment="band 5">
        <r>  0.0000  0.0000  0.0055  0.0000  0.0000  0.5595  0.0000  0.4189  0.0000 </r>
       </set>
       <set comment="band 6">
        <r>  0.1165  0.0659  0.0000  0.1394  0.0731  0.0000  0.0562  0.0000  0.4400 </r>
       </set>
       <set comment="band 7">
        <r>  0.2066  0.2036  0.0000  0.0449  0.2721  0.0000  0.0951  0.0000  0.0203 </r>
       </set>
       <set comment="band 8">
        <r>  0.0000  0.0000  0.5377  0.0000  0.0000  0.0351  0.0000  0.3066  0.0000 </r>
       </set>
       <set comment="band 9">
        <r>  0.0763  0.0365  0.0000  0.1129  0.0045  0.0000  0.2118  0.0000  0.0246 </r>
       </set>
       <set comment="band 10">
        <r>  0.0000  0.2417  0.0000  0.0278  0.0516  0.0000  0.1790  0.0000  0.1328 </r>
       </set>
       <set comment="band 11">
        <r>  0.0000  0.0000  0.1678  0.0000  0.0000  0.5553  0.0000  0.2541  0.0000 </r>
       </set>
       <set comment="band 12">
        <r>  0.1608  0.0294  0.0000  0.0039  0.1292  0.0000  0.2627  0.0000  0.1346 </r>
       </set>
      </set>
      <set comment="kpoint 5">
       <set comment="band 1">
        <r>  0.0000  0.0141  0.0566  0.0141  0.0795  0.0199  0.6746  0.0199  0.0000 </r>
       </set>
       <set comment="band 2">
        <r>  0.0000  0.0424  0.0000  0.0424  0.0000  0.0596  0.0000  0.0596  0.6746 </r>
       </set>
       <set comment="band 3">
        <r>  0.0470  0.0015  0.0015  0.0015  0.2940  0.2940  0.0000  0.2940  0.0000 </r>
       </set>
       <set comment="band 4">
        <r>  0.0000  0.0040  0.0160  0.0040  0.5090  0.1272  0.1872  0.1272  0.0000 </r>
       </set>
       <set comment="band 5">
        <r>  0.0000  0.0120  0.0000  0.0120  0.0000  0.3817  0.0000  0.3817  0.1872 </r>
       </set>
       <set comment="band 6">
        <r>  0.0000  0.0804  0.3218  0.0804  0.1081  0.0270  0.1884  0.0270  0.0000 </r>
       </set>
       <set comment="band 7">
        <r>  0.0000  0.2413  0.0000  0.2413  0.0000  0.0811  0.0000  0.0811  0.1884 </r>
       </set>
       <set comment="band 8">
        <r>  0.5270  0.0225  0.0225  0.0225  0.0751  0.0751  0.0000  0.0751  0.0000 </r>
       </set>
       <set comment="band 9">
        <r>  0.0000  0.0163  0.0652  0.0163  0.0278  0.0070  0.5039  0.0070  0.0000 </r>
       </set>
       <set comment="band 10">
        <r>  0.0000  0.0489  0.0000  0.0489  0.0000  0.0209  0.0000  0.0209  0.5039 </r>
       </set>
       <set comment="band 11">
        <r>  0.0002  0.1720  0.1720  0.1720  0.0564  0.0564  0.0000  0.0564  0.0000 </r>
       </set>
       <set comment="band 12">
        <r>  0.2469  0.0472  0.0472  0.0472  0.2424  0.2424  0.0000  0.2424  0.0000 </r>
       </set>
      </set>
      <set comment="kpoint 6">
       <set comment="band 1">
        <r>  0.0143  0.0000  0.0000  0.0646  0.0000  0.0000  0.1955  0.0000  0.5866 </r>
       </set>
       <set comment="band 2">
        <r>  0.0000  0.0000  0.0000  0.0000  0.0000  0.0000  0.6584  0.0000  0.2195 </r>
       </set>
       <set comment="band 3">
        <r>  0.0000  0.0149  0.0149  0.0000  0.4679  0.0000  0.0000  0.4679  0.0000 </r>
       </set>
       <set comment="band 4">
        <r>  0.0000  0.0149  0.0149  0.0000  0.4679  0.0000  0.0000  0.4679  0.0000 </r>
       </set>
       <set comment="band 5">
        <r>  0.0000  0.0000  0.0000  0.0000  0.0000  0.9813  0.0000  0.0000  0.0000 </r>
       </set>
       <set comment="band 6">
        <r>  0.1859  0.0000  0.0000  0.4058  0.0000  0.0000  0.0563  0.0000  0.1688 </r>
       </set>
       <set comment="band 7">
        <r>  0.0000  0.3278  0.3278  0.0000  0.0720  0.0000  0.0000  0.0720  0.0000 </r>
       </set>
       <set comment="band 8">
        <r>  0.0000  0.3278  0.3278  0.0000  0.0720  0.0000  0.0000  0.0720  0.0000 </r>
       </set>
       <set comment="band 9">
        <r>  0.0000  0.0000  0.0000  0.0000  0.0000  0.0000  0.6348  0.0000  0.2116 </r>
       </set>
       <set comment="band 10">
        <r>  0.2769  0.0000  0.0000  0.0072  0.0000  0.0000  0.1065  0.0000  0.3195 </r>
       </set>
       <set comment="band 11">
        <r>  0.2852  0.0000  0.0000  0.2789  0.0000  0.0000  0.0642  0.0000  0.1927 </r>
       </set>
       <set comment="band 12">
        <r>  0.0000  0.0000  0.0000  0.0000  0.0000  0.6653  0.0000  0.0000  0.0000 </r>
       </set>
      </set>
     </set>
     <set comment="spin2">
      <set comment="kpoint 1">
       <set comment="band 1">
        <r>  0.4546  0.0661  0.0661  0.0661  0.0258  0.0258  0.0000  0.0258  0.0000 </r>
       </set>
       <set comment="band 2">
        <r>  0.0000  0.0088  0.0099  0.0057  0.3410  0.1971  0.0432  0.3029  0.0279 </r>
       </set>
       <set comment="band 3">
        <r>  0.0000  0.0075  0.0064  0.0106  0.2196  0.3636  0.0279  0.2578  0.0432 </r>
       </set>
       <set comment="band 4">
        <r>  0.0000  0.0000  0.0000  0.0000  0.0451  0.0001  0.6883  0.0418  0.1970 </r>
       </set>
       <set comment="band 5">
        <r>  0.0000  0.0000  0.0000  0.0000  0.0129  0.0579  0.1970  0.0162  0.6883 </r>
       </set>
       <set comment="band 6">
        <r>  0.0132  0.0172  0.0172  0.0172  0.3005  0.3005  0.0000  0.3005  0.0000 </r>
       </set>
       <set comment="band 7">
        <r>  0.0000  0.0584  0.1614  0.0270  0.2227  0.0372  0.1131  0.0806  0.0022 </r>
       </set>
       <set comment="band 8">
        <r>  0.0000  0.1061  0.0031  0.1375  0.0043  0.1898  0.0022  0.1465  0.1131 </r>
       </set>
       <set comment="band 9">
        <r>  0.2812  0.1506  0.1506  0.1506  0.0399  0.0399  0.0000  0.0399  0.0000 </r>
       </set>
       <set comment="band 10">
        <r>  0.0000  0.0000  0.0000  0.0000  0.0000  0.0000  0.0000  0.0000  0.0000 </r>
       </set>
       <set comment="band 11">
        <r>  0.0000  0.0000  0.0001  0.0001  0.3751  0.3285  0.0978  0.1044  0.0427 </r>
       </set>
       <set comment="band 12">
        <r>  0.0000  0.0001  0.0000  0.0000  0.1636  0.2102  0.0427  0.4343  0.0978 </r>
       </set>
      </set>
      <set comment="kpoint 2">
       <set comment="band 1">
        <r>  0.1017  0.0000  0.0000  0.0701  0.0000  0.5526  0.0345  0.0000  0.1034 </r>
       </set>
       <set comment="band 2">
        <r>  0.0000  0.0194  0.0194  0.0000  0.4458  0.0000  0.0000  0.4458  0.0000 </r>
       </set>
       <set comment="band 3">
        <r>  0.0000  0.1720  0.1720  0.0000  0.2365  0.0000  0.0000  0.2365  0.0000 </r>
       </set>
       <set comment="band 4">
        <r>  0.0039  0.0000  0.0000  0.0006  0.0000  0.1840  0.1982  0.0000  0.5947 </r>
       </set>
       <set comment="band 5">
        <r>  0.0000  0.0000  0.0000  0.0000  0.0000  0.0000  0.7391  0.0000  0.2464 </r>
       </set>
       <set comment="band 6">
        <r>  0.0000  0.1446  0.1446  0.0000  0.2880  0.0000  0.0000  0.2880  0.0000 </r>
       </set>
       <set comment="band 7">
        <r>  0.3497  0.0000  0.0000  0.0598  0.0000  0.4055  0.0175  0.0000  0.0524 </r>
       </set>
       <set comment="band 8">
        <r>  0.0000  0.1500  0.1500  0.0000  0.1924  0.0000  0.0000  0.1924  0.0000 </r>
       </set>
       <set comment="band 9">
        <r>  0.2989  0.0000  0.0000  0.4030  0.0000  0.0438  0.0085  0.0000  0.0256 </r>
       </set>
       <set comment="band 10">
        <r>  0.0000  0.0011  0.0011  0.0000  0.2442  0.0000  0.0000  0.2442  0.0000 </r>
       </set>
       <set comment="band 11">
        <r>  0.0580  0.0000  0.0000  0.1495  0.0000  0.0064  0.1597  0.0000  0.4791 </r>
       </set>
       <set comment="band 12">
        <r>  0.0000  0.0318  0.0318  0.0000  0.0257  0.0000  0.0000  0.0257  0.0000 </r>
       </set>
      </set>
      <set comment="kpoint 3">
       <set comment="band 1">
        <r>  0.6251  0.0000  0.0000  0.0842  0.0000  0.0000  0.0018  0.0000  0.0054 </r>
       </set>
       <set comment="band 2">
        <r>  0.0000  0.0054  0.0054  0.0000  0.4786  0.0000  0.0000  0.4786  0.0000 </r>
       </set>
       <set comment="band 3">
        <r>  0.0000  0.0054  0.0054  0.0000  0.4786  0.0000  0.0000  0.4786  0.0000 </r>
       </set>
       <set comment="band 4">
        <r>  0.0000  0.0000  0.0000  0.0000  0.0000  0.9760  0.0000  0.0000  0.0000 </r>
       </set>
       <set comment="band 5">
        <r>  0.0000  0.0000  0.0000  0.0000  0.0000  0.0000  0.7011  0.0000  0.2337 </r>
       </set>
       <set comment="band 6">
        <r>  0.0045  0.0000  0.0000  0.0010  0.0000  0.0000  0.2427  0.0000  0.7282 </r>
       </set>
       <set comment="band 7">
        <r>  0.0000  0.0000  0.0000  0.0000  0.0000  0.0000  0.3167  0.0000  0.1056 </r>
       </set>
       <set comment="band 8">
        <r>  0.0000  0.0858  0.0858  0.0000  0.2623  0.0000  0.0000  0.2623  0.0000 </r>
       </set>
       <set comment="band 9">
        <r>  0.0000  0.0858  0.0858  0.0000  0.2623  0.0000  0.0000  0.2623  0.0000 </r>
       </set>
       <set comment="band 10">
        <r>  0.0784  0.0000  0.0000  0.3317  0.0000  0.0000  0.0170  0.0000  0.0509 </r>
       </set>
       <set comment="band 11">
        <r>  0.0000  0.2049  0.2049  0.0000  0.0404  0.0000  0.0000  0.0404  0.0000 </r>
       </set>
       <set comment="band 12">
        <r>  0.0000  0.2049  0.2049  0.0000  0.0404  0.0000  0.0000  0.0404  0.0000 </r>
       </set>
      </set>
      <set comment="kpoint 4">
       <set comment="band 1">
        <r>  0.2620  0.0131  0.0000  0.1342  0.2084  0.0000  0.1336  0.0000  0.0325 </r>
       </set>
       <set comment="band 2">
        <r>  0.0000  0.0000  0.0117  0.0000  0.0000  0.4054  0.0000  0.5353  0.0000 </r>
       </set>
       <set comment="band 3">
        <r>  0.0145  0.0950  0.0000  0.0878  0.1770  0.0000  0.2094  0.0000  0.2536 </r>
       </set>
       <set comment="band 4">
        <r>  0.0019  0.0124  0.0000  0.0100  0.4494  0.0000  0.4797  0.0000  0.0027 </r>
       </set>
       <set comment="band 5">
        <r>  0.0000  0.0000  0.0075  0.0000  0.0000  0.5684  0.0000  0.4079  0.0000 </r>
       </set>
       <set comment="band 6">
        <r>  0.0565  0.0314  0.0000  0.0647  0.0247  0.0000  0.0834  0.0000  0.6880 </r>
       </set>
       <set comment="band 7">
        <r>  0.2051  0.1785  0.0000  0.0380  0.3025  0.0000  0.1054  0.0000  0.0217 </r>
       </set>
       <set comment="band 8">
        <r>  0.0000  0.0000  0.5231  0.0000  0.0000  0.0331  0.0000  0.3114  0.0000 </r>
       </set>
       <set comment="band 9">
        <r>  0.0701  0.0366  0.0000  0.1047  0.0058  0.0000  0.2018  0.0000  0.0249 </r>
       </set>
       <set comment="band 10">
        <r>  0.0000  0.2315  0.0000  0.0221  0.0583  0.0000  0.1508  0.0000  0.1344 </r>
       </set>
       <set comment="band 11">
        <r>  0.0000  0.0000  0.1759  0.0000  0.0000  0.5256  0.0000  0.2300  0.0000 </r>
       </set>
       <set comment="band 12">
        <r>  0.1616  0.0370  0.0000  0.0043  0.1021  0.0000  0.2771  0.0000  0.1137 </r>
       </set>
      </set>
      <set comment="kpoint 5">
       <set comment="band 1">
        <r>  0.0000  0.0696  0.0000  0.0696  0.0000  0.0715  0.0000  0.0715  0.5569 </r>
       </set>
       <set comment="band 2">
        <r>  0.0000  0.0232  0.0928  0.0232  0.0953  0.0238  0.5569  0.0238  0.0000 </r>
       </set>
       <set comment="band 3">
        <r>  0.0675  0.0022  0.0022  0.0022  0.2828  0.2828  0.0000  0.2828  0.0000 </r>
       </set>
       <set comment="band 4">
        <r>  0.0000  0.0042  0.0168  0.0042  0.4612  0.1153  0.2550  0.1153  0.0000 </r>
       </set>
       <set comment="band 5">
        <r>  0.0000  0.0126  0.0000  0.0126  0.0000  0.3459  0.0000  0.3459  0.2550 </r>
       </set>
       <set comment="band 6">
        <r>  0.0000  0.2104  0.0000  0.2104  0.0000  0.1044  0.0000  0.1044  0.2272 </r>
       </set>
       <set comment="band 7">
        <r>  0.0000  0.0701  0.2805  0.0701  0.1392  0.0348  0.2272  0.0348  0.0000 </r>
       </set>
       <set comment="band 8">
        <r>  0.5020  0.0222  0.0222  0.0222  0.0856  0.0856  0.0000  0.0856  0.0000 </r>
       </set>
       <set comment="band 9">
        <r>  0.0000  0.0475  0.0000  0.0475  0.0000  0.0215  0.0000  0.0215  0.4712 </r>
       </set>
       <set comment="band 10">
        <r>  0.0000  0.0158  0.0634  0.0158  0.0286  0.0072  0.4712  0.0072  0.0000 </r>
       </set>
       <set comment="band 11">
        <r>  0.0010  0.1682  0.1682  0.1682  0.0575  0.0575  0.0000  0.0575  0.0000 </r>
       </set>
       <set comment="band 12">
        <r>  0.2392  0.0505  0.0505  0.0505  0.2292  0.2292  0.0000  0.2292  0.0000 </r>
       </set>
      </set>
      <set comment="kpoint 6">
       <set comment="band 1">
        <r>  0.0247  0.0000  0.0000  0.1042  0.0000  0.0000  0.1730  0.0000  0.5189 </r>
       </set>
       <set comment="band 2">
        <r>  0.0000  0.0000  0.0000  0.0000  0.0000  0.0000  0.6372  0.0000  0.2124 </r>
       </set>
       <set comment="band 3">
        <r>  0.0000  0.0232  0.0232  0.0000  0.4555  0.0000  0.0000  0.4555  0.0000 </r>
       </set>
       <set comment="band 4">
        <r>  0.0000  0.0232  0.0232  0.0000  0.4555  0.0000  0.0000  0.4555  0.0000 </r>
       </set>
       <set comment="band 5">
        <r>  0.0000  0.0000  0.0000  0.0000  0.0000  0.9814  0.0000  0.0000  0.0000 </r>
       </set>
       <set comment="band 6">
        <r>  0.1769  0.0000  0.0000  0.3658  0.0000  0.0000  0.0725  0.0000  0.2176 </r>
       </set>
       <set comment="band 7">
        <r>  0.0000  0.3147  0.3147  0.0000  0.0841  0.0000  0.0000  0.0841  0.0000 </r>
       </set>
       <set comment="band 8">
        <r>  0.0000  0.3147  0.3147  0.0000  0.0841  0.0000  0.0000  0.0841  0.0000 </r>
       </set>
       <set comment="band 9">
        <r>  0.0000  0.0000  0.0000  0.0000  0.0000  0.0000  0.6263  0.0000  0.2088 </r>
       </set>
       <set comment="band 10">
        <r>  0.2483  0.0000  0.0000  0.0053  0.0000  0.0000  0.1101  0.0000  0.3302 </r>
       </set>
       <set comment="band 11">
        <r>  0.3084  0.0000  0.0000  0.2774  0.0000  0.0000  0.0561  0.0000  0.1684 </r>
       </set>
       <set comment="band 12">
        <r>  0.0000  0.0000  0.0000  0.0000  0.0000  0.6351  0.0000  0.0000  0.0000 </r>
       </set>
      </set>
     </set>
    </set>
   </array>
  </projected>
 </calculation>
 <structure name="finalpos" >
  <crystal>
   <varray name="basis" >
    <v>      -1.42500000       1.42500000       1.42500000 </v>
    <v>       1.42500000      -1.42500000       1.42500000 </v>
    <v>       1.42500000       1.42500000      -1.42500000 </v>
   </varray>
   <i name="volume">     11.57456250 </i>
   <varray name="rec_basis" >
    <v>       0.00000000       0.35087719       0.35087719 </v>
    <v>       0.35087719       0.00000000       0.35087719 </v>
    <v>       0.35087719       0.35087719       0.00000000 </v>
   </varray>
  </crystal>
  <varray name="positions" >
   <v>       0.00000000       0.00000000       0.00000000 </v>
  </varray>
 </structure>
</modeling>
