    2    2    1    1
  0.1350057E+03  0.7254916E-09  0.7254916E-09  0.7254916E-09  0.5000000E-15
  1.000000000000000E-004
  CAR 
 Si diamante                             
      8     47      8
 
  0.0000000E+00  0.0000000E+00  0.0000000E+00  0.1000000E-02
    1       -9.791146   1.000000
    2       -9.261534   1.000000
    3       -3.092503   0.224566
    4       -3.092503   0.224566
    5       -3.092503   0.224565
    6       -2.407265   0.000000
    7       -2.407265   0.000000
    8       -2.407265   0.000000
 
  0.1000000E+00  0.0000000E+00  0.0000000E+00  0.8000000E-02
    1       -9.782137   1.000000
    2       -9.272069   1.000000
    3       -3.109787   0.304174
    4       -3.109003   0.300306
    5       -3.109003   0.300306
    6       -2.401048   0.000000
    7       -2.386767   0.000000
    8       -2.386767   0.000000
 
  0.2000000E+00  0.0000000E+00  0.0000000E+00  0.8000000E-02
    1       -9.756616   1.000000
    2       -9.301544   1.000000
    3       -3.158427   0.569637
    4       -3.148188   0.512225
    5       -3.148188   0.512225
    6       -2.374246   0.000000
    7       -2.337294   0.000000
    8       -2.337294   0.000000
 
  0.3000000E+00  0.0000000E+00  0.0000000E+00  0.8000000E-02
    1       -9.719719   1.000000
    2       -9.343287   1.000000
    3       -3.221980   0.858638
    4       -3.190613   0.735859
    5       -3.190613   0.735859
    6       -2.325012   0.000000
    7       -2.282580   0.000000
    8       -2.282580   0.000000
 
  0.4000000E+00  0.0000000E+00  0.0000000E+00  0.8000000E-02
    1       -9.682601   1.000000
    2       -9.384307   1.000000
    3       -3.274024   0.964870
    4       -3.221366   0.856682
    5       -3.221366   0.856682
    6       -2.275287   0.000000
    7       -2.242267   0.000000
    8       -2.242267   0.000000
 
  0.5000000E+00  0.0000000E+00  0.0000000E+00  0.4000000E-02
    1       -9.665423   1.000000
    2       -9.402972   1.000000
    3       -3.293810   0.981693
    4       -3.232442   0.889178
    5       -3.232442   0.889178
    6       -2.254326   0.000000
    7       -2.227648   0.000000
    8       -2.227648   0.000000
 
  0.1000000E+00  0.1000000E+00  0.0000000E+00  0.6000000E-02
    1       -9.779055   1.000000
    2       -9.275654   1.000000
    3       -3.131753   0.420046
    4       -3.131753   0.420046
    5       -3.076360   0.162273
    6       -2.443690   0.000000
    7       -2.359822   0.000000
    8       -2.359822   0.000000
 
  0.2000000E+00  0.1000000E+00  0.0000000E+00  0.2400000E-01
    1       -9.758757   1.000000
    2       -9.299086   1.000000
    3       -3.182070   0.694906
    4       -3.173717   0.652351
    5       -3.075632   0.159758
    6       -2.458584   0.000000
    7       -2.307197   0.000000
    8       -2.307182   0.000000
 
  0.3000000E+00  0.1000000E+00  0.0000000E+00  0.2400000E-01
    1       -9.724898   1.000000
    2       -9.337484   1.000000
    3       -3.252087   0.933192
    4       -3.215399   0.836742
    5       -3.096817   0.243259
    6       -2.436158   0.000000
    7       -2.252763   0.000000
    8       -2.243252   0.000000
 
  0.4000000E+00  0.1000000E+00  0.0000000E+00  0.2400000E-01
    1       -9.685977   1.000000
    2       -9.380614   1.000000
    3       -3.316879   0.992160
    4       -3.242881   0.914627
    5       -3.125161   0.383996
    6       -2.394292   0.000000
    7       -2.215485   0.000000
    8       -2.185185   0.000000
 
  0.5000000E+00  0.1000000E+00  0.0000000E+00  0.2400000E-01
    1       -9.659273   1.000000
    2       -9.409591   1.000000
    3       -3.353885   0.998357
    4       -3.249218   0.927776
    5       -3.146395   0.502111
    6       -2.360932   0.000000
    7       -2.205737   0.000000
    8       -2.151084   0.000000
 
 -0.4000000E+00  0.1000000E+00  0.0000000E+00  0.2400000E-01
    1       -9.665546   1.000000
    2       -9.402822   1.000000
    3       -3.352043   0.998213
    4       -3.233147   0.891053
    5       -3.152042   0.533929
    6       -2.355722   0.000000
    7       -2.225790   0.000000
    8       -2.151330   0.000000
 
 -0.3000000E+00  0.1000000E+00  0.0000000E+00  0.2400000E-01
    1       -9.699064   1.000000
    2       -9.366225   1.000000
    3       -3.312397   0.990686
    4       -3.198521   0.771094
    5       -3.141514   0.474588
    6       -2.377766   0.000000
    7       -2.270387   0.000000
    8       -2.185071   0.000000
 
 -0.2000000E+00  0.1000000E+00  0.0000000E+00  0.2400000E-01
    1       -9.737652   1.000000
    2       -9.323115   1.000000
    3       -3.246232   0.921788
    4       -3.154981   0.550417
    5       -3.122617   0.370327
    6       -2.405371   0.000000
    7       -2.326433   0.000000
    8       -2.244600   0.000000
 
 -0.1000000E+00  0.1000000E+00  0.0000000E+00  0.1200000E-01
    1       -9.767505   1.000000
    2       -9.289017   1.000000
    3       -3.171624   0.641353
    4       -3.118880   0.350553
    5       -3.108580   0.298230
    6       -2.413763   0.000000
    7       -2.372903   0.000000
    8       -2.318612   0.000000
 
  0.2000000E+00  0.2000000E+00  0.0000000E+00  0.6000000E-02
    1       -9.743767   1.000000
    2       -9.316189   1.000000
    3       -3.217218   0.843002
    4       -3.217218   0.843001
    5       -3.031782   0.053091
    6       -2.532522   0.000000
    7       -2.252210   0.000000
    8       -2.252210   0.000000
 
  0.3000000E+00  0.2000000E+00  0.0000000E+00  0.2400000E-01
    1       -9.713956   1.000000
    2       -9.349714   1.000000
    3       -3.275584   0.966546
    4       -3.259218   0.945295
    5       -3.015401   0.032355
    6       -2.557893   0.000000
    7       -2.196457   0.000000
    8       -2.190279   0.000000
 
  0.4000000E+00  0.2000000E+00  0.0000000E+00  0.2400000E-01
    1       -9.675300   1.000000
    2       -9.392246   1.000000
    3       -3.345939   0.997653
    4       -3.285815   0.975978
    5       -3.016868   0.033888
    6       -2.539227   0.000000
    7       -2.159263   0.000000
    8       -2.131646   0.000000
 
  0.5000000E+00  0.2000000E+00  0.0000000E+00  0.2400000E-01
    1       -9.641330   1.000000
    2       -9.428780   1.000000
    3       -3.400205   0.999838
    4       -3.290163   0.979248
    5       -3.030086   0.050548
    6       -2.500114   0.000000
    7       -2.151373   0.000000
    8       -2.091913   0.000000
 
 -0.4000000E+00  0.2000000E+00  0.0000000E+00  0.2400000E-01
    1       -9.636498   1.000000
    2       -9.433912   1.000000
    3       -3.418799   0.999943
    4       -3.271416   0.961914
    5       -3.047562   0.081896
    6       -2.466754   0.000000
    7       -2.174702   0.000000
    8       -2.082048   0.000000
 
 -0.3000000E+00  0.2000000E+00  0.0000000E+00  0.2400000E-01
    1       -9.665750   1.000000
    2       -9.402589   1.000000
    3       -3.395202   0.999787
    4       -3.234303   0.894076
    5       -3.066912   0.131618
    6       -2.448499   0.000000
    7       -2.222783   0.000000
    8       -2.105277   0.000000
 
 -0.2000000E+00  0.2000000E+00  0.0000000E+00  0.1200000E-01
    1       -9.704939   1.000000
    2       -9.359730   1.000000
    3       -3.333491   0.995990
    4       -3.189725   0.731732
    5       -3.091596   0.220743
    6       -2.433281   0.000000
    7       -2.280792   0.000000
    8       -2.160601   0.000000
 
  0.3000000E+00  0.3000000E+00  0.0000000E+00  0.6000000E-02
    1       -9.688227   1.000000
    2       -9.378146   1.000000
    3       -3.302491   0.986545
    4       -3.302491   0.986545
    5       -2.968343   0.005990
    6       -2.636943   0.000000
    7       -2.138139   0.000000
    8       -2.138139   0.000000
 
  0.4000000E+00  0.3000000E+00  0.0000000E+00  0.2400000E-01
    1       -9.651542   1.000000
    2       -9.417886   1.000000
    3       -3.352137   0.998221
    4       -3.330574   0.995473
    5       -2.939523   0.001748
    6       -2.662452   0.000000
    7       -2.098325   0.000000
    8       -2.089277   0.000000
 
  0.5000000E+00  0.3000000E+00  0.0000000E+00  0.2400000E-01
    1       -9.613121   1.000000
    2       -9.458550   1.000000
    3       -3.409366   0.999902
    4       -3.335952   0.996385
    5       -2.928538   0.001050
    6       -2.641112   0.000000
    7       -2.088982   0.000000
    8       -2.054347   0.000000
 
 -0.4000000E+00  0.3000000E+00  0.0000000E+00  0.2400000E-01
    1       -9.598699   1.000000
    2       -9.473561   1.000000
    3       -3.444901   0.999988
    4       -3.317442   0.992330
    5       -2.948944   0.002659
    6       -2.586144   0.000000
    7       -2.112637   0.000000
    8       -2.042813   0.000000
 
 -0.3000000E+00  0.3000000E+00  0.0000000E+00  0.1200000E-01
    1       -9.626278   1.000000
    2       -9.444715   1.000000
    3       -3.441495   0.999985
    4       -3.279813   0.970761
    5       -2.998020   0.018172
    6       -2.518701   0.000000
    7       -2.162485   0.000000
    8       -2.058857   0.000000
 
  0.4000000E+00  0.4000000E+00  0.0000000E+00  0.6000000E-02
    1       -9.617141   1.000000
    2       -9.454363   1.000000
    3       -3.361485   0.998845
    4       -3.361485   0.998845
    5       -2.895963   0.000203
    6       -2.734001   0.000000
    7       -2.054596   0.000000
    8       -2.054596   0.000000
 
  0.5000000E+00  0.4000000E+00  0.0000000E+00  0.2400000E-01
    1       -9.577139   1.000000
    2       -9.495819   1.000000
    3       -3.393878   0.999772
    4       -3.369937   0.999229
    5       -2.859485   0.000025
    6       -2.755999   0.000000
    7       -2.041580   0.000000
    8       -2.031960   0.000000
 
 -0.4000000E+00  0.4000000E+00  0.0000000E+00  0.1200000E-01
    1       -9.561637   1.000000
    2       -9.511602   1.000000
    3       -3.431458   0.999973
    4       -3.353875   0.998356
    5       -2.876288   0.000068
    6       -2.697388   0.000000
    7       -2.063003   0.000000
    8       -2.027182   0.000000
 
  0.5000000E+00  0.5000000E+00  0.0000000E+00  0.3000000E-02
    1       -9.536720   1.000000
    2       -9.536720   1.000000
    3       -3.382308   0.999584
    4       -3.382308   0.999584
    5       -2.818871   0.000002
    6       -2.818871   0.000002
    7       -2.024082   0.000000
    8       -2.024082   0.000000
 
  0.3000000E+00  0.2000000E+00  0.1000000E+00  0.2400000E-01
    1       -9.733842   1.000000
    2       -9.327424   1.000000
    3       -3.255952   0.939986
    4       -3.200254   0.778451
    5       -3.060881   0.114281
    6       -2.485095   0.000000
    7       -2.273298   0.000000
    8       -2.224622   0.000000
 
  0.4000000E+00  0.2000000E+00  0.1000000E+00  0.4800000E-01
    1       -9.697323   1.000000
    2       -9.368140   1.000000
    3       -3.329918   0.995348
    4       -3.234769   0.895276
    5       -3.059166   0.109664
    6       -2.478803   0.000000
    7       -2.227400   0.000000
    8       -2.156777   0.000000
 
  0.5000000E+00  0.2000000E+00  0.1000000E+00  0.4800000E-01
    1       -9.659466   1.000000
    2       -9.409370   1.000000
    3       -3.383416   0.999606
    4       -3.263247   0.951324
    5       -3.063769   0.122371
    6       -2.456961   0.000000
    7       -2.189829   0.000000
    8       -2.112839   0.000000
 
 -0.4000000E+00  0.2000000E+00  0.1000000E+00  0.2400000E-01
    1       -9.641227   1.000000
    2       -9.428893   1.000000
    3       -3.402932   0.999860
    4       -3.273875   0.964707
    5       -3.066652   0.130836
    6       -2.445490   0.000000
    7       -2.175829   0.000000
    8       -2.097479   0.000000
 
  0.4000000E+00  0.3000000E+00  0.1000000E+00  0.2400000E-01
    1       -9.680896   1.000000
    2       -9.386159   1.000000
    3       -3.335410   0.996301
    4       -3.290468   0.979463
    5       -2.984922   0.011355
    6       -2.590458   0.000000
    7       -2.155556   0.000000
    8       -2.125607   0.000000
 
  0.5000000E+00  0.3000000E+00  0.1000000E+00  0.4800000E-01
    1       -9.641501   1.000000
    2       -9.428600   1.000000
    3       -3.392796   0.999758
    4       -3.315514   0.991735
    5       -2.963753   0.004974
    6       -2.588401   0.000000
    7       -2.125511   0.000000
    8       -2.080441   0.000000
 
 -0.4000000E+00  0.3000000E+00  0.1000000E+00  0.4800000E-01
    1       -9.612992   1.000000
    2       -9.458678   1.000000
    3       -3.429866   0.999970
    4       -3.320341   0.993154
    5       -2.961236   0.004484
    6       -2.565336   0.000000
    7       -2.120867   0.000000
    8       -2.058389   0.000000
 
 -0.3000000E+00  0.3000000E+00  0.1000000E+00  0.4800000E-01
    1       -9.622814   1.000000
    2       -9.448367   1.000000
    3       -3.433051   0.999975
    4       -3.301617   0.986113
    5       -2.979639   0.009311
    6       -2.538045   0.000000
    7       -2.144256   0.000000
    8       -2.061882   0.000000
 
 -0.2000000E+00  0.3000000E+00  0.1000000E+00  0.2400000E-01
    1       -9.659582   1.000000
    2       -9.409230   1.000000
    3       -3.397907   0.999816
    4       -3.267190   0.956698
    5       -3.015579   0.032538
    6       -2.511280   0.000000
    7       -2.185794   0.000000
    8       -2.094028   0.000000
 
  0.5000000E+00  0.4000000E+00  0.1000000E+00  0.2400000E-01
    1       -9.613203   1.000000
    2       -9.458475   1.000000
    3       -3.384158   0.999621
    4       -3.359104   0.998708
    5       -2.895253   0.000195
    6       -2.697474   0.000000
    7       -2.068657   0.000000
    8       -2.055080   0.000000
 
 -0.4000000E+00  0.4000000E+00  0.1000000E+00  0.4800000E-01
    1       -9.577060   1.000000
    2       -9.495874   1.000000
    3       -3.422017   0.999953
    4       -3.365427   0.999042
    5       -2.866206   0.000038
    6       -2.692354   0.000000
    7       -2.066399   0.000000
    8       -2.038364   0.000000
 
 -0.3000000E+00  0.4000000E+00  0.1000000E+00  0.2400000E-01
    1       -9.584028   1.000000
    2       -9.488715   1.000000
    3       -3.445066   0.999988
    4       -3.342087   0.997221
    5       -2.902653   0.000289
    6       -2.625865   0.000000
    7       -2.095980   0.000000
    8       -2.038753   0.000000
 
 -0.4000000E+00  0.5000000E+00  0.1000000E+00  0.1200000E-01
    1       -9.536716   1.000000
    2       -9.536716   1.000000
    3       -3.392327   0.999752
    4       -3.392327   0.999752
    5       -2.798993   0.000000
    6       -2.798993   0.000000
    7       -2.033334   0.000000
    8       -2.033334   0.000000
 
 -0.4000000E+00  0.4000000E+00  0.2000000E+00  0.2400000E-01
    1       -9.601785   1.000000
    2       -9.470358   1.000000
    3       -3.424668   0.999959
    4       -3.350712   0.998103
    5       -2.898559   0.000233
    6       -2.633890   0.000000
    7       -2.095352   0.000000
    8       -2.051317   0.000000
 
 -0.3000000E+00  0.4000000E+00  0.2000000E+00  0.2400000E-01
    1       -9.577013   1.000000
    2       -9.495905   1.000000
    3       -3.433991   0.999977
    4       -3.367921   0.999150
    5       -2.863643   0.000033
    6       -2.658448   0.000000
    7       -2.081484   0.000000
    8       -2.044010   0.000000
 
 -0.3000000E+00  0.5000000E+00  0.2000000E+00  0.1200000E-01
    1       -9.536704   1.000000
    2       -9.536704   1.000000
    3       -3.407486   0.999891
    4       -3.407486   0.999891
    5       -2.767096   0.000000
    6       -2.767096   0.000000
    7       -2.049077   0.000000
    8       -2.049077   0.000000
