 vasp.5.4.1 24Jun15 (build Jul 19 2016 16:50:41) complex                        
  
 executed on           IFC91_ompi date 2019.11.12  11:57:02
 running on    4 total cores
 distrk:  each k-point on    4 cores,    1 groups
 distr:  one band on NCORES_PER_BAND=   1 cores,    4 groups


--------------------------------------------------------------------------------------------------------


 INCAR:
 POTCAR:    US Si                                 
 POTCAR:    US Si                                 
   VRHFIN =Si: s2p2                                                             
   LEXCH  = CA                                                                  
   EATOM  =   115.7612 eV,    8.5082 Ry                                         
   GGA    =    -1.4125   -1.4408     .0293    -.9884 eV                         
                                                                                
   TITEL  = US Si                                                               
   LULTRA =        T    use ultrasoft PP ?                                      
   IUNSCR =        1    unscreen: 0-lin 1-nonlin 2-no                           
   RPACOR =    1.580    partial core radius                                     
   POMASS =   28.085; ZVAL   =    4.000    mass and valenz                      
   RCORE  =    2.480    outmost cutoff radius                                   
   RWIGS  =    2.480; RWIGS  =    1.312    wigner-seitz radius (au A)           
   ENMAX  =  150.544; ENMIN  =  112.908 eV                                      
   EAUG   =  241.945                                                            
                                                                                
   ICORE  =        2    local potential                                         
   LCOR   =        T    correct aug charges                                     
   RMAX   =    3.758    core radius for proj-oper                               
   QCUT   =   -3.326; QGAM   =    6.653    optimization parameters              
                                                                                
   Description                                                                  
     l     E      TYP  RCUT    TYP  RCUT                                        
     0   .000     15  2.210    23  2.480                                        
     0   .000     15  2.210    23  2.480                                        
     1   .000     15  2.210    23  2.480                                        
     1   .000     15  2.210    23  2.480                                        
     2   .000      7  2.480     7  2.480                                        
  local pseudopotential read in
  partial core-charges read in
  atomic valenz-charges read in
  non local Contribution for L=           0  read in
    real space projection operators read in
  non local Contribution for L=           0  read in
    real space projection operators read in
  non local Contribution for L=           1  read in
    real space projection operators read in
  non local Contribution for L=           1  read in
    real space projection operators read in
    augmentation charges read in
 
   number of l-projection  operators is LMAX  =           4
   number of lm-projection operators is LMMAX =           8
 
  US Si                                 :
 energy of atom  1       EATOM= -115.7612
 kinetic energy error for atom=    0.0004 (will be added to EATOM!!)
 
 
 POSCAR: diamond Si                              
  positions in cartesian coordinates
  No initial velocities read in
 exchange correlation table for  LEXCH =        2
   RHO(1)=    0.500       N(1)  =     2000
   RHO(2)=  100.500       N(2)  =     4000
 


--------------------------------------------------------------------------------------------------------


 ion  position               nearest neighbor table
   1  0.000  0.000  0.000-
   2  0.250  0.250  0.250-
 
  LATTYP: Found a face centered cubic cell.
 ALAT       =    10.2600000000
  
  Lattice vectors:
  
 A1 = (   0.0000000000,   5.1300000000,   5.1300000000)
 A2 = (   5.1300000000,   0.0000000000,   5.1300000000)
 A3 = (   5.1300000000,   5.1300000000,   0.0000000000)


Analysis of symmetry for initial positions (statically):
=====================================================================
 Subroutine PRICEL returns:
 Original cell was already a primitive cell.
 

 Routine SETGRP: Setting up the symmetry group for a 
 face centered cubic supercell.


 Subroutine GETGRP returns: Found 48 space group operations
 (whereof 24 operations were pure point group operations)
 out of a pool of 48 trial point group operations.


The static configuration has the point symmetry T_d .
 The point group associated with its full space group is O_h .


Analysis of symmetry for dynamics (positions and initial velocities):
=====================================================================
 Subroutine PRICEL returns:
 Original cell was already a primitive cell.
 

 Routine SETGRP: Setting up the symmetry group for a 
 face centered cubic supercell.


 Subroutine GETGRP returns: Found 48 space group operations
 (whereof 24 operations were pure point group operations)
 out of a pool of 48 trial point group operations.


The dynamic configuration has the point symmetry T_d .
 The point group associated with its full space group is O_h .


 Subroutine INISYM returns: Found 48 space group operations
 (whereof 24 operations are pure point group operations),
 and found     1 'primitive' translations

 
 
 KPOINTS: K-Points                                

Automatic generation of k-mesh.
Space group operators:
 irot       det(A)        alpha          n_x          n_y          n_z        tau_x        tau_y        tau_z
    1     1.000000     0.000000     1.000000     0.000000     0.000000     0.000000     0.000000     0.000000
    2     1.000000   120.000000    -0.577350    -0.577350    -0.577350     0.000000     0.000000     0.000000
    3     1.000000   120.000000     0.577350     0.577350     0.577350     0.000000     0.000000     0.000000
    4    -1.000000    90.000000     0.000000     0.000000    -1.000000     0.000000     0.000000     0.000000
    5    -1.000000   180.000000     0.000000     0.707107     0.707107     0.000000     0.000000     0.000000
    6    -1.000000    90.000000     0.000000     1.000000     0.000000     0.000000     0.000000     0.000000
    7     1.000000   180.000000     0.000000     0.000000     1.000000     0.000000     0.000000     0.000000
    8     1.000000   120.000000    -0.577350     0.577350     0.577350     0.000000     0.000000     0.000000
    9     1.000000   120.000000    -0.577350     0.577350    -0.577350     0.000000     0.000000     0.000000
   10    -1.000000    90.000000     0.000000     0.000000     1.000000     0.000000     0.000000     0.000000
   11    -1.000000    90.000000    -1.000000     0.000000     0.000000     0.000000     0.000000     0.000000
   12    -1.000000   180.000000     0.707107     0.000000     0.707107     0.000000     0.000000     0.000000
   13     1.000000   120.000000     0.577350    -0.577350     0.577350     0.000000     0.000000     0.000000
   14     1.000000   120.000000    -0.577350    -0.577350     0.577350     0.000000     0.000000     0.000000
   15     1.000000   180.000000     1.000000     0.000000     0.000000     0.000000     0.000000     0.000000
   16    -1.000000    90.000000     0.000000    -1.000000     0.000000     0.000000     0.000000     0.000000
   17    -1.000000   180.000000     0.707107     0.707107     0.000000     0.000000     0.000000     0.000000
   18    -1.000000    90.000000     1.000000     0.000000     0.000000     0.000000     0.000000     0.000000
   19     1.000000   120.000000     0.577350    -0.577350    -0.577350     0.000000     0.000000     0.000000
   20     1.000000   180.000000     0.000000     1.000000     0.000000     0.000000     0.000000     0.000000
   21     1.000000   120.000000     0.577350     0.577350    -0.577350     0.000000     0.000000     0.000000
   22    -1.000000   180.000000     0.000000    -0.707107     0.707107     0.000000     0.000000     0.000000
   23    -1.000000   180.000000     0.707107    -0.707107     0.000000     0.000000     0.000000     0.000000
   24    -1.000000   180.000000     0.707107     0.000000    -0.707107     0.000000     0.000000     0.000000
   25    -1.000000     0.000000     1.000000     0.000000     0.000000     0.250000     0.250000     0.250000
   26    -1.000000   120.000000    -0.577350    -0.577350    -0.577350     0.250000     0.250000     0.250000
   27    -1.000000   120.000000     0.577350     0.577350     0.577350     0.250000     0.250000     0.250000
   28     1.000000    90.000000     0.000000     0.000000    -1.000000     0.250000     0.250000     0.250000
   29     1.000000   180.000000     0.000000     0.707107     0.707107     0.250000     0.250000     0.250000
   30     1.000000    90.000000     0.000000     1.000000     0.000000     0.250000     0.250000     0.250000
   31    -1.000000   180.000000     0.000000     0.000000     1.000000     0.250000     0.250000     0.250000
   32    -1.000000   120.000000    -0.577350     0.577350     0.577350     0.250000     0.250000     0.250000
   33    -1.000000   120.000000    -0.577350     0.577350    -0.577350     0.250000     0.250000     0.250000
   34     1.000000    90.000000     0.000000     0.000000     1.000000     0.250000     0.250000     0.250000
   35     1.000000    90.000000    -1.000000     0.000000     0.000000     0.250000     0.250000     0.250000
   36     1.000000   180.000000     0.707107     0.000000     0.707107     0.250000     0.250000     0.250000
   37    -1.000000   120.000000     0.577350    -0.577350     0.577350     0.250000     0.250000     0.250000
   38    -1.000000   120.000000    -0.577350    -0.577350     0.577350     0.250000     0.250000     0.250000
   39    -1.000000   180.000000     1.000000     0.000000     0.000000     0.250000     0.250000     0.250000
   40     1.000000    90.000000     0.000000    -1.000000     0.000000     0.250000     0.250000     0.250000
   41     1.000000   180.000000     0.707107     0.707107     0.000000     0.250000     0.250000     0.250000
   42     1.000000    90.000000     1.000000     0.000000     0.000000     0.250000     0.250000     0.250000
   43    -1.000000   120.000000     0.577350    -0.577350    -0.577350     0.250000     0.250000     0.250000
   44    -1.000000   180.000000     0.000000     1.000000     0.000000     0.250000     0.250000     0.250000
   45    -1.000000   120.000000     0.577350     0.577350    -0.577350     0.250000     0.250000     0.250000
   46     1.000000   180.000000     0.000000    -0.707107     0.707107     0.250000     0.250000     0.250000
   47     1.000000   180.000000     0.707107    -0.707107     0.000000     0.250000     0.250000     0.250000
   48     1.000000   180.000000     0.707107     0.000000    -0.707107     0.250000     0.250000     0.250000
 
 Subroutine IBZKPT returns following result:
 ===========================================
 
 Found     47 irreducible k-points:
 
 Following reciprocal coordinates:
            Coordinates               Weight
  0.000000  0.000000  0.000000      1.000000
  0.100000  0.000000  0.000000      8.000000
  0.200000  0.000000  0.000000      8.000000
  0.300000  0.000000  0.000000      8.000000
  0.400000  0.000000  0.000000      8.000000
  0.500000  0.000000  0.000000      4.000000
  0.100000  0.100000  0.000000      6.000000
  0.200000  0.100000  0.000000     24.000000
  0.300000  0.100000  0.000000     24.000000
  0.400000  0.100000  0.000000     24.000000
  0.500000  0.100000  0.000000     24.000000
 -0.400000  0.100000  0.000000     24.000000
 -0.300000  0.100000  0.000000     24.000000
 -0.200000  0.100000  0.000000     24.000000
 -0.100000  0.100000  0.000000     12.000000
  0.200000  0.200000  0.000000      6.000000
  0.300000  0.200000  0.000000     24.000000
  0.400000  0.200000  0.000000     24.000000
  0.500000  0.200000  0.000000     24.000000
 -0.400000  0.200000  0.000000     24.000000
 -0.300000  0.200000  0.000000     24.000000
 -0.200000  0.200000  0.000000     12.000000
  0.300000  0.300000  0.000000      6.000000
  0.400000  0.300000  0.000000     24.000000
  0.500000  0.300000  0.000000     24.000000
 -0.400000  0.300000  0.000000     24.000000
 -0.300000  0.300000  0.000000     12.000000
  0.400000  0.400000  0.000000      6.000000
  0.500000  0.400000  0.000000     24.000000
 -0.400000  0.400000  0.000000     12.000000
  0.500000  0.500000  0.000000      3.000000
  0.300000  0.200000  0.100000     24.000000
  0.400000  0.200000  0.100000     48.000000
  0.500000  0.200000  0.100000     48.000000
 -0.400000  0.200000  0.100000     24.000000
  0.400000  0.300000  0.100000     24.000000
  0.500000  0.300000  0.100000     48.000000
 -0.400000  0.300000  0.100000     48.000000
 -0.300000  0.300000  0.100000     48.000000
 -0.200000  0.300000  0.100000     24.000000
  0.500000  0.400000  0.100000     24.000000
 -0.400000  0.400000  0.100000     48.000000
 -0.300000  0.400000  0.100000     24.000000
 -0.400000  0.500000  0.100000     12.000000
 -0.400000  0.400000  0.200000     24.000000
 -0.300000  0.400000  0.200000     24.000000
 -0.300000  0.500000  0.200000     12.000000
 
 Following cartesian coordinates:
            Coordinates               Weight
  0.000000  0.000000  0.000000      1.000000
 -0.100000  0.100000  0.100000      8.000000
 -0.200000  0.200000  0.200000      8.000000
 -0.300000  0.300000  0.300000      8.000000
 -0.400000  0.400000  0.400000      8.000000
 -0.500000  0.500000  0.500000      4.000000
  0.000000  0.000000  0.200000      6.000000
 -0.100000  0.100000  0.300000     24.000000
 -0.200000  0.200000  0.400000     24.000000
 -0.300000  0.300000  0.500000     24.000000
 -0.400000  0.400000  0.600000     24.000000
  0.500000 -0.500000 -0.300000     24.000000
  0.400000 -0.400000 -0.200000     24.000000
  0.300000 -0.300000 -0.100000     24.000000
  0.200000 -0.200000  0.000000     12.000000
  0.000000  0.000000  0.400000      6.000000
 -0.100000  0.100000  0.500000     24.000000
 -0.200000  0.200000  0.600000     24.000000
 -0.300000  0.300000  0.700000     24.000000
  0.600000 -0.600000 -0.200000     24.000000
  0.500000 -0.500000 -0.100000     24.000000
  0.400000 -0.400000  0.000000     12.000000
  0.000000  0.000000  0.600000      6.000000
 -0.100000  0.100000  0.700000     24.000000
 -0.200000  0.200000  0.800000     24.000000
  0.700000 -0.700000 -0.100000     24.000000
  0.600000 -0.600000  0.000000     12.000000
  0.000000  0.000000  0.800000      6.000000
 -0.100000  0.100000  0.900000     24.000000
  0.800000 -0.800000  0.000000     12.000000
  0.000000  0.000000  1.000000      3.000000
 -0.000000  0.200000  0.400000     24.000000
 -0.100000  0.300000  0.500000     48.000000
 -0.200000  0.400000  0.600000     48.000000
  0.700000 -0.500000 -0.300000     24.000000
 -0.000000  0.200000  0.600000     24.000000
 -0.100000  0.300000  0.700000     48.000000
  0.800000 -0.600000 -0.200000     48.000000
  0.700000 -0.500000 -0.100000     48.000000
  0.600000 -0.400000  0.000000     24.000000
  0.000000  0.200000  0.800000     24.000000
  0.900000 -0.700000 -0.100000     48.000000
  0.800000 -0.600000  0.000000     24.000000
  1.000000 -0.800000  0.000000     12.000000
  1.000000 -0.600000 -0.200000     24.000000
  0.900000 -0.500000 -0.100000     24.000000
  1.000000 -0.600000  0.000000     12.000000
 


--------------------------------------------------------------------------------------------------------




 Dimension of arrays:
   k-points           NKPTS =     47   k-points in BZ     NKDIM =     47   number of bands    NBANDS=      8
   number of dos      NEDOS =    301   number of ions     NIONS =      2
   non local maximal  LDIM  =      4   non local SUM 2l+1 LMDIM =      8
   total plane-waves  NPLWV =  74088
   max r-space proj   IRMAX =      1   max aug-charges    IRDMAX=  22356
   dimension x,y,z NGX =    42 NGY =   42 NGZ =   42
   dimension x,y,z NGXF=    84 NGYF=   84 NGZF=   84
   support grid    NGXF=    84 NGYF=   84 NGZF=   84
   ions per type =               2
 NGX,Y,Z   is equivalent  to a cutoff of   9.62,  9.62,  9.62 a.u.
 NGXF,Y,Z  is equivalent  to a cutoff of  19.25, 19.25, 19.25 a.u.


 I would recommend the setting:
   dimension x,y,z NGX =    41 NGY =   41 NGZ =   41
 SYSTEM =  Si diamante                             
 POSCAR =  diamond Si                              

 Startparameter for this run:
   NWRITE =      2    write-flag & timer
   PREC   = accura    normal or accurate (medium, high low for compatibility)
   ISTART =      0    job   : 0-new  1-cont  2-samecut
   ICHARG =      2    charge: 1-file 2-atom 10-const
   ISPIN  =      1    spin polarized calculation?
   LNONCOLLINEAR =      F non collinear calculations
   LSORBIT =      F    spin-orbit coupling
   INIWAV =      1    electr: 0-lowe 1-rand  2-diag
   LASPH  =      F    aspherical Exc in radial PAW
   METAGGA=      F    non-selfconsistent MetaGGA calc.

 Electronic Relaxation 1
   ENCUT  =  307.0 eV  22.56 Ry    4.75 a.u.  10.36 10.36 10.36*2*pi/ulx,y,z
   ENINI  =  307.0     initial cutoff
   ENAUG  =  241.9 eV  augmentation charge cutoff
   NELM   =     60;   NELMIN=  2; NELMDL= -5     # of ELM steps 
   EDIFF  = 0.1E-04   stopping-criterion for ELM
   LREAL  =      F    real-space projection
   NLSPLINE    = F    spline interpolate recip. space projectors
   LCOMPAT=      F    compatible to vasp.4.4
   GGA_COMPAT  = T    GGA compatible to vasp.4.4-vasp.4.6
   LMAXPAW     = -100 max onsite density
   LMAXMIX     =    2 max onsite mixed and CHGCAR
   VOSKOWN=      0    Vosko Wilk Nusair interpolation
   ROPT   =    0.00000
 Ionic relaxation
   EDIFFG = 0.1E-03   stopping-criterion for IOM
   NSW    =      0    number of steps for IOM
   NBLOCK =      1;   KBLOCK =      1    inner block; outer block 
   IBRION =     -1    ionic relax: 0-MD 1-quasi-New 2-CG
   NFREE  =      0    steps in history (QN), initial steepest desc. (CG)
   ISIF   =      2    stress and relaxation
   IWAVPR =     10    prediction:  0-non 1-charg 2-wave 3-comb
   ISYM   =      1    0-nonsym 1-usesym 2-fastsym
   LCORR  =      T    Harris-Foulkes like correction to forces

   POTIM  = 0.5000    time-step for ionic-motion
   TEIN   =    0.0    initial temperature
   TEBEG  =    0.0;   TEEND  =   0.0 temperature during run
   SMASS  =  -3.00    Nose mass-parameter (am)
   estimated Nose-frequenzy (Omega)   =  0.10E-29 period in steps =****** mass=  -0.120E-26a.u.
   SCALEE = 1.0000    scale energy and forces
   NPACO  =    256;   APACO  = 16.0  distance and # of slots for P.C.
   PSTRESS=    0.0 pullay stress

  Mass of Ions in am
   POMASS =  28.09
  Ionic Valenz
   ZVAL   =   4.00
  Atomic Wigner-Seitz radii
   RWIGS  =  -1.00
  virtual crystal weights 
   VCA    =   1.00
   NELECT =       8.0000    total number of electrons
   NUPDOWN=      -1.0000    fix difference up-down

 DOS related values:
   EMIN   =  10.00;   EMAX   =-10.00  energy-range for DOS
   EFERMI =   0.00
   ISMEAR =     0;   SIGMA  =   0.10  broadening in eV -4-tet -1-fermi 0-gaus

 Electronic relaxation 2 (details)
   IALGO  =     38    algorithm
   LDIAG  =      T    sub-space diagonalisation (order eigenvalues)
   LSUBROT=      F    optimize rotation matrix (better conditioning)
   TURBO    =      0    0=normal 1=particle mesh
   IRESTART =      0    0=no restart 2=restart with 2 vectors
   NREBOOT  =      0    no. of reboots
   NMIN     =      0    reboot dimension
   EREF     =   0.00    reference energy to select bands
   IMIX   =      4    mixing-type and parameters
     AMIX     =   0.80;   BMIX     =  1.00
     AMIX_MAG =   3.20;   BMIX_MAG =  1.00
     AMIN     =   0.10
     WC   =   100.;   INIMIX=   1;  MIXPRE=   1;  MAXMIX= -45

 Intra band minimization:
   WEIMIN = 0.0000     energy-eigenvalue tresh-hold
   EBREAK =  0.31E-06  absolut break condition
   DEPER  =   0.30     relativ break condition  

   TIME   =   0.40     timestep for ELM

  volume/ion in A,a.u.               =     135.01       911.06
  Fermi-wavevector in a.u.,A,eV,Ry     =   0.506575  0.957289  3.491509  0.256619
  Thomas-Fermi vector in A             =   1.517665
 
 Write flags
   LWAVE  =      T    write WAVECAR
   LCHARG =      T    write CHGCAR
   LVTOT  =      F    write LOCPOT, total local potential
   LVHAR  =      F    write LOCPOT, Hartree potential only
   LELF   =      F    write electronic localiz. function (ELF)
   LORBIT =      0    0 simple, 1 ext, 2 COOP (PROOUT)


 Dipole corrections
   LMONO  =      F    monopole corrections only (constant potential shift)
   LDIPOL =      F    correct potential (dipole corrections)
   IDIPOL =      0    1-x, 2-y, 3-z, 4-all directions 
   EPSILON=  1.0000000 bulk dielectric constant

 Exchange correlation treatment:
   GGA     =    --    GGA type
   LEXCH   =     2    internal setting for exchange type
   VOSKOWN=      0    Vosko Wilk Nusair interpolation
   LHFCALC =     F    Hartree Fock is set to
   LHFONE  =     F    Hartree Fock one center treatment
   AEXX    =    0.0000 exact exchange contribution

 Linear response parameters
   LEPSILON=     F    determine dielectric tensor
   LRPA    =     F    only Hartree local field effects (RPA)
   LNABLA  =     F    use nabla operator in PAW spheres
   LVEL    =     F    velocity operator in full k-point grid
   LINTERFAST=   F  fast interpolation
   KINTER  =     0    interpolate to denser k-point grid
   CSHIFT  =0.1000    complex shift for real part using Kramers Kronig
   OMEGAMAX=  -1.0    maximum frequency
   DEG_THRESHOLD= 0.2000000E-02 threshold for treating states as degnerate
   RTIME   =    0.100 relaxation time in fs

 Orbital magnetization related:
   ORBITALMAG=     F  switch on orbital magnetization
   LCHIMAG   =     F  perturbation theory with respect to B field
   DQ        =  0.001000  dq finite difference perturbation B field



--------------------------------------------------------------------------------------------------------


 Static calculation
 charge density and potential will be updated during run
 non-spin polarized calculation
 Variant of blocked Davidson
 Davidson routine will perform the subspace rotation
 perform sub-space diagonalisation
    after iterative eigenvector-optimisation
 modified Broyden-mixing scheme, WC =      100.0
 initial mixing is a Kerker type mixing with AMIX =  0.8000 and BMIX =      1.0000
 Hartree-type preconditioning will be used
 using additional bands            4
 reciprocal scheme for non local part
 use partial core corrections
 calculate Harris-corrections to forces 
   (improved forces if not selfconsistent)
 use of overlap-Matrix (Vanderbilt PP)
 Gauss-broadening in eV      SIGMA  =   0.10


--------------------------------------------------------------------------------------------------------


  energy-cutoff  :      307.00
  volume of cell :      270.01
      direct lattice vectors                 reciprocal lattice vectors
     0.000000000  5.130000000  5.130000000    -0.097465887  0.097465887  0.097465887
     5.130000000  0.000000000  5.130000000     0.097465887 -0.097465887  0.097465887
     5.130000000  5.130000000  0.000000000     0.097465887  0.097465887 -0.097465887

  length of vectors
     7.254915575  7.254915575  7.254915575     0.168815868  0.168815868  0.168815868


 
 k-points in units of 2pi/SCALE and weight: K-Points                                
   0.00000000  0.00000000  0.00000000       0.001
  -0.10000000  0.10000000  0.10000000       0.008
  -0.20000000  0.20000000  0.20000000       0.008
  -0.30000000  0.30000000  0.30000000       0.008
  -0.40000000  0.40000000  0.40000000       0.008
  -0.50000000  0.50000000  0.50000000       0.004
   0.00000000  0.00000000  0.20000000       0.006
  -0.10000000  0.10000000  0.30000000       0.024
  -0.20000000  0.20000000  0.40000000       0.024
  -0.30000000  0.30000000  0.50000000       0.024
  -0.40000000  0.40000000  0.60000000       0.024
   0.50000000 -0.50000000 -0.30000000       0.024
   0.40000000 -0.40000000 -0.20000000       0.024
   0.30000000 -0.30000000 -0.10000000       0.024
   0.20000000 -0.20000000  0.00000000       0.012
   0.00000000  0.00000000  0.40000000       0.006
  -0.10000000  0.10000000  0.50000000       0.024
  -0.20000000  0.20000000  0.60000000       0.024
  -0.30000000  0.30000000  0.70000000       0.024
   0.60000000 -0.60000000 -0.20000000       0.024
   0.50000000 -0.50000000 -0.10000000       0.024
   0.40000000 -0.40000000  0.00000000       0.012
   0.00000000  0.00000000  0.60000000       0.006
  -0.10000000  0.10000000  0.70000000       0.024
  -0.20000000  0.20000000  0.80000000       0.024
   0.70000000 -0.70000000 -0.10000000       0.024
   0.60000000 -0.60000000  0.00000000       0.012
   0.00000000  0.00000000  0.80000000       0.006
  -0.10000000  0.10000000  0.90000000       0.024
   0.80000000 -0.80000000  0.00000000       0.012
   0.00000000  0.00000000  1.00000000       0.003
  -0.00000000  0.20000000  0.40000000       0.024
  -0.10000000  0.30000000  0.50000000       0.048
  -0.20000000  0.40000000  0.60000000       0.048
   0.70000000 -0.50000000 -0.30000000       0.024
  -0.00000000  0.20000000  0.60000000       0.024
  -0.10000000  0.30000000  0.70000000       0.048
   0.80000000 -0.60000000 -0.20000000       0.048
   0.70000000 -0.50000000 -0.10000000       0.048
   0.60000000 -0.40000000  0.00000000       0.024
   0.00000000  0.20000000  0.80000000       0.024
   0.90000000 -0.70000000 -0.10000000       0.048
   0.80000000 -0.60000000  0.00000000       0.024
   1.00000000 -0.80000000  0.00000000       0.012
   1.00000000 -0.60000000 -0.20000000       0.024
   0.90000000 -0.50000000 -0.10000000       0.024
   1.00000000 -0.60000000  0.00000000       0.012
 
 k-points in reciprocal lattice and weights: K-Points                                
   0.00000000  0.00000000  0.00000000       0.001
   0.10000000  0.00000000  0.00000000       0.008
   0.20000000  0.00000000  0.00000000       0.008
   0.30000000  0.00000000  0.00000000       0.008
   0.40000000  0.00000000  0.00000000       0.008
   0.50000000  0.00000000  0.00000000       0.004
   0.10000000  0.10000000  0.00000000       0.006
   0.20000000  0.10000000  0.00000000       0.024
   0.30000000  0.10000000  0.00000000       0.024
   0.40000000  0.10000000  0.00000000       0.024
   0.50000000  0.10000000  0.00000000       0.024
  -0.40000000  0.10000000  0.00000000       0.024
  -0.30000000  0.10000000  0.00000000       0.024
  -0.20000000  0.10000000  0.00000000       0.024
  -0.10000000  0.10000000  0.00000000       0.012
   0.20000000  0.20000000  0.00000000       0.006
   0.30000000  0.20000000  0.00000000       0.024
   0.40000000  0.20000000  0.00000000       0.024
   0.50000000  0.20000000  0.00000000       0.024
  -0.40000000  0.20000000  0.00000000       0.024
  -0.30000000  0.20000000  0.00000000       0.024
  -0.20000000  0.20000000  0.00000000       0.012
   0.30000000  0.30000000  0.00000000       0.006
   0.40000000  0.30000000  0.00000000       0.024
   0.50000000  0.30000000  0.00000000       0.024
  -0.40000000  0.30000000  0.00000000       0.024
  -0.30000000  0.30000000  0.00000000       0.012
   0.40000000  0.40000000  0.00000000       0.006
   0.50000000  0.40000000  0.00000000       0.024
  -0.40000000  0.40000000  0.00000000       0.012
   0.50000000  0.50000000  0.00000000       0.003
   0.30000000  0.20000000  0.10000000       0.024
   0.40000000  0.20000000  0.10000000       0.048
   0.50000000  0.20000000  0.10000000       0.048
  -0.40000000  0.20000000  0.10000000       0.024
   0.40000000  0.30000000  0.10000000       0.024
   0.50000000  0.30000000  0.10000000       0.048
  -0.40000000  0.30000000  0.10000000       0.048
  -0.30000000  0.30000000  0.10000000       0.048
  -0.20000000  0.30000000  0.10000000       0.024
   0.50000000  0.40000000  0.10000000       0.024
  -0.40000000  0.40000000  0.10000000       0.048
  -0.30000000  0.40000000  0.10000000       0.024
  -0.40000000  0.50000000  0.10000000       0.012
  -0.40000000  0.40000000  0.20000000       0.024
  -0.30000000  0.40000000  0.20000000       0.024
  -0.30000000  0.50000000  0.20000000       0.012
 
 position of ions in fractional coordinates (direct lattice) 
   0.00000000  0.00000000  0.00000000
   0.25000000  0.25000000  0.25000000
 
 position of ions in cartesian coordinates  (Angst):
   0.00000000  0.00000000  0.00000000
   2.56500000  2.56500000  2.56500000
 


--------------------------------------------------------------------------------------------------------


 k-point  1 :   0.0000 0.0000 0.0000  plane waves:    3287
 k-point  2 :   0.1000 0.0000 0.0000  plane waves:    3311
 k-point  3 :   0.2000 0.0000 0.0000  plane waves:    3320
 k-point  4 :   0.3000 0.0000 0.0000  plane waves:    3308
 k-point  5 :   0.4000 0.0000 0.0000  plane waves:    3293
 k-point  6 :   0.5000 0.0000 0.0000  plane waves:    3316
 k-point  7 :   0.1000 0.1000 0.0000  plane waves:    3315
 k-point  8 :   0.2000 0.1000 0.0000  plane waves:    3303
 k-point  9 :   0.3000 0.1000 0.0000  plane waves:    3311
 k-point 10 :   0.4000 0.1000 0.0000  plane waves:    3309
 k-point 11 :   0.5000 0.1000 0.0000  plane waves:    3295
 k-point 12 :  -0.4000 0.1000 0.0000  plane waves:    3293
 k-point 13 :  -0.3000 0.1000 0.0000  plane waves:    3308
 k-point 14 :  -0.2000 0.1000 0.0000  plane waves:    3308
 k-point 15 :  -0.1000 0.1000 0.0000  plane waves:    3305
 k-point 16 :   0.2000 0.2000 0.0000  plane waves:    3315
 k-point 17 :   0.3000 0.2000 0.0000  plane waves:    3308
 k-point 18 :   0.4000 0.2000 0.0000  plane waves:    3301
 k-point 19 :   0.5000 0.2000 0.0000  plane waves:    3299
 k-point 20 :  -0.4000 0.2000 0.0000  plane waves:    3290
 k-point 21 :  -0.3000 0.2000 0.0000  plane waves:    3302
 k-point 22 :  -0.2000 0.2000 0.0000  plane waves:    3324
 k-point 23 :   0.3000 0.3000 0.0000  plane waves:    3315
 k-point 24 :   0.4000 0.3000 0.0000  plane waves:    3302
 k-point 25 :   0.5000 0.3000 0.0000  plane waves:    3285
 k-point 26 :  -0.4000 0.3000 0.0000  plane waves:    3283
 k-point 27 :  -0.3000 0.3000 0.0000  plane waves:    3278
 k-point 28 :   0.4000 0.4000 0.0000  plane waves:    3302
 k-point 29 :   0.5000 0.4000 0.0000  plane waves:    3302
 k-point 30 :  -0.4000 0.4000 0.0000  plane waves:    3286
 k-point 31 :   0.5000 0.5000 0.0000  plane waves:    3306
 k-point 32 :   0.3000 0.2000 0.1000  plane waves:    3308
 k-point 33 :   0.4000 0.2000 0.1000  plane waves:    3308
 k-point 34 :   0.5000 0.2000 0.1000  plane waves:    3299
 k-point 35 :  -0.4000 0.2000 0.1000  plane waves:    3286
 k-point 36 :   0.4000 0.3000 0.1000  plane waves:    3307
 k-point 37 :   0.5000 0.3000 0.1000  plane waves:    3300
 k-point 38 :  -0.4000 0.3000 0.1000  plane waves:    3296
 k-point 39 :  -0.3000 0.3000 0.1000  plane waves:    3291
 k-point 40 :  -0.2000 0.3000 0.1000  plane waves:    3291
 k-point 41 :   0.5000 0.4000 0.1000  plane waves:    3304
 k-point 42 :  -0.4000 0.4000 0.1000  plane waves:    3293
 k-point 43 :  -0.3000 0.4000 0.1000  plane waves:    3287
 k-point 44 :  -0.4000 0.5000 0.1000  plane waves:    3304
 k-point 45 :  -0.4000 0.4000 0.2000  plane waves:    3289
 k-point 46 :  -0.3000 0.4000 0.2000  plane waves:    3294
 k-point 47 :  -0.3000 0.5000 0.2000  plane waves:    3294

 maximum and minimum number of plane-waves per node :      3324     3278

 maximum number of plane-waves:      3324
 maximum index in each direction: 
   IXMAX=   10   IYMAX=   10   IZMAX=   10
   IXMIN=  -10   IYMIN=  -10   IZMIN=  -10

 NGX is ok and might be reduce to  42
 NGY is ok and might be reduce to  42
 NGZ is ok and might be reduce to  42

 serial   3D FFT for wavefunctions
 parallel 3D FFT for charge:
    minimum data exchange during FFTs selected (reduces bandwidth)


 total amount of memory used by VASP on root node    60751. kBytes
========================================================================

   base      :      30000. kBytes
   nonl-proj :      10104. kBytes
   fftplans  :       5401. kBytes
   grid      :      10217. kBytes
   one-center:          6. kBytes
   wavefun   :       5023. kBytes
 
     INWAV:  cpu time    0.0000: real time    0.0000
 Broyden mixing: mesh for mixing (old mesh)
   NGX = 21   NGY = 21   NGZ = 21
  (NGX  = 84   NGY  = 84   NGZ  = 84)
  gives a total of   9261 points

 initial charge density was supplied:
 charge density of overlapping atoms calculated
 number of electron       8.0000000 magnetization 
 keeping initial charge density in first step


--------------------------------------------------------------------------------------------------------


 Maximum index for augmentation-charges         5385 (set IRDMAX)


--------------------------------------------------------------------------------------------------------


 First call to EWALD:  gamma=   0.274
 Maximum number of real-space cells 3x 3x 3
 Maximum number of reciprocal cells 3x 3x 3

 FEWALD executed in parallel
    FEWALD:  cpu time    0.0020: real time    0.0011


----------------------------------------- Iteration    1(   1)  ---------------------------------------


    POTLOK:  cpu time    0.0880: real time    0.0444
    SETDIJ:  cpu time    0.0060: real time    0.0026
     EDDAV:  cpu time    4.4013: real time    2.1851
       DOS:  cpu time    0.0030: real time    0.0014
    --------------------------------------------
      LOOP:  cpu time    4.5023: real time    2.2355

 eigenvalue-minimisations  :   752
 total energy-change (2. order) : 0.1346770E+02  (-0.1517222E+03)
 number of electron       8.0000000 magnetization 
 augmentation part        8.0000000 magnetization 

 Free energy of the ion-electron system (eV)
  ---------------------------------------------------
  alpha Z        PSCENC =         1.24091711
  Ewald energy   TEWEN  =      -120.96490647
  -Hartree energ DENC   =       -53.44003376
  -exchange      EXHF   =         0.00000000
  -V(xc)+E(xc)   XCENC  =       -11.57947515
  PAW double counting   =         0.00000000        0.00000000
  entropy T*S    EENTRO =        -0.00876580
  eigenvalues    EBANDS =       -33.30159485
  atomic energy  EATOM  =       231.52155534
  Solvation  Ediel_sol  =         0.00000000
  ---------------------------------------------------
  free energy    TOTEN  =        13.46769642 eV

  energy without entropy =       13.47646223  energy(sigma->0) =       13.47207932


--------------------------------------------------------------------------------------------------------




----------------------------------------- Iteration    1(   2)  ---------------------------------------


     EDDAV:  cpu time    6.0571: real time    2.9787
       DOS:  cpu time    0.0030: real time    0.0015
    --------------------------------------------
      LOOP:  cpu time    6.0631: real time    2.9825

 eigenvalue-minimisations  :  1464
 total energy-change (2. order) :-0.1504203E+02  (-0.1497550E+02)
 number of electron       8.0000000 magnetization 
 augmentation part        8.0000000 magnetization 

 Free energy of the ion-electron system (eV)
  ---------------------------------------------------
  alpha Z        PSCENC =         1.24091711
  Ewald energy   TEWEN  =      -120.96490647
  -Hartree energ DENC   =       -53.44003376
  -exchange      EXHF   =         0.00000000
  -V(xc)+E(xc)   XCENC  =       -11.57947515
  PAW double counting   =         0.00000000        0.00000000
  entropy T*S    EENTRO =        -0.02946007
  eigenvalues    EBANDS =       -48.32293414
  atomic energy  EATOM  =       231.52155534
  Solvation  Ediel_sol  =         0.00000000
  ---------------------------------------------------
  free energy    TOTEN  =        -1.57433713 eV

  energy without entropy =       -1.54487706  energy(sigma->0) =       -1.55960709


--------------------------------------------------------------------------------------------------------




----------------------------------------- Iteration    1(   3)  ---------------------------------------


     EDDAV:  cpu time    3.6764: real time    1.8451
       DOS:  cpu time    0.0040: real time    0.0017
    --------------------------------------------
      LOOP:  cpu time    3.6844: real time    1.8495

 eigenvalue-minimisations  :   792
 total energy-change (2. order) :-0.8180596E+00  (-0.7940317E+00)
 number of electron       8.0000000 magnetization 
 augmentation part        8.0000000 magnetization 

 Free energy of the ion-electron system (eV)
  ---------------------------------------------------
  alpha Z        PSCENC =         1.24091711
  Ewald energy   TEWEN  =      -120.96490647
  -Hartree energ DENC   =       -53.44003376
  -exchange      EXHF   =         0.00000000
  -V(xc)+E(xc)   XCENC  =       -11.57947515
  PAW double counting   =         0.00000000        0.00000000
  entropy T*S    EENTRO =        -0.03850439
  eigenvalues    EBANDS =       -49.13194938
  atomic energy  EATOM  =       231.52155534
  Solvation  Ediel_sol  =         0.00000000
  ---------------------------------------------------
  free energy    TOTEN  =        -2.39239669 eV

  energy without entropy =       -2.35389230  energy(sigma->0) =       -2.37314450


--------------------------------------------------------------------------------------------------------




----------------------------------------- Iteration    1(   4)  ---------------------------------------


     EDDAV:  cpu time    3.9644: real time    1.9851
       DOS:  cpu time    0.0030: real time    0.0015
    --------------------------------------------
      LOOP:  cpu time    3.9714: real time    1.9892

 eigenvalue-minimisations  :   880
 total energy-change (2. order) :-0.1681521E-01  (-0.1679606E-01)
 number of electron       8.0000000 magnetization 
 augmentation part        8.0000000 magnetization 

 Free energy of the ion-electron system (eV)
  ---------------------------------------------------
  alpha Z        PSCENC =         1.24091711
  Ewald energy   TEWEN  =      -120.96490647
  -Hartree energ DENC   =       -53.44003376
  -exchange      EXHF   =         0.00000000
  -V(xc)+E(xc)   XCENC  =       -11.57947515
  PAW double counting   =         0.00000000        0.00000000
  entropy T*S    EENTRO =        -0.03863017
  eigenvalues    EBANDS =       -49.14863880
  atomic energy  EATOM  =       231.52155534
  Solvation  Ediel_sol  =         0.00000000
  ---------------------------------------------------
  free energy    TOTEN  =        -2.40921189 eV

  energy without entropy =       -2.37058172  energy(sigma->0) =       -2.38989681


--------------------------------------------------------------------------------------------------------




----------------------------------------- Iteration    1(   5)  ---------------------------------------


     EDDAV:  cpu time    3.7744: real time    1.8924
       DOS:  cpu time    0.0040: real time    0.0016
    CHARGE:  cpu time    0.5029: real time    0.2524
    MIXING:  cpu time    0.0210: real time    0.0106
    --------------------------------------------
      LOOP:  cpu time    4.3073: real time    2.1601

 eigenvalue-minimisations  :   816
 total energy-change (2. order) :-0.2655362E-03  (-0.2655242E-03)
 number of electron       8.0000000 magnetization 
 augmentation part       -1.3112022 magnetization 

 Broyden mixing:
  rms(total) = 0.72531E-01    rms(broyden)= 0.72521E-01
  rms(prec ) = 0.18769E+00
  weight for this iteration     100.00

 Free energy of the ion-electron system (eV)
  ---------------------------------------------------
  alpha Z        PSCENC =         1.24091711
  Ewald energy   TEWEN  =      -120.96490647
  -Hartree energ DENC   =       -53.44003376
  -exchange      EXHF   =         0.00000000
  -V(xc)+E(xc)   XCENC  =       -11.57947515
  PAW double counting   =         0.00000000        0.00000000
  entropy T*S    EENTRO =        -0.03863483
  eigenvalues    EBANDS =       -49.14889968
  atomic energy  EATOM  =       231.52155534
  Solvation  Ediel_sol  =         0.00000000
  ---------------------------------------------------
  free energy    TOTEN  =        -2.40947743 eV

  energy without entropy =       -2.37084260  energy(sigma->0) =       -2.39016002


--------------------------------------------------------------------------------------------------------




----------------------------------------- Iteration    1(   6)  ---------------------------------------


    POTLOK:  cpu time    0.0910: real time    0.0455
    SETDIJ:  cpu time    0.0030: real time    0.0015
     EDDAV:  cpu time    3.2435: real time    1.6243
       DOS:  cpu time    0.0040: real time    0.0017
    CHARGE:  cpu time    0.4999: real time    0.2576
    MIXING:  cpu time    0.0030: real time    0.0031
    --------------------------------------------
      LOOP:  cpu time    3.8504: real time    1.9368

 eigenvalue-minimisations  :   752
 total energy-change (2. order) : 0.2950734E-01  (-0.1190868E-01)
 number of electron       8.0000000 magnetization 
 augmentation part       -1.3345461 magnetization 

 Broyden mixing:
  rms(total) = 0.15900E-01    rms(broyden)= 0.15899E-01
  rms(prec ) = 0.36977E-01
  weight for this iteration     100.00

 eigenvalues of (default mixing * dielectric matrix)
  average eigenvalue GAMMA=   1.1234
  1.1234

 Free energy of the ion-electron system (eV)
  ---------------------------------------------------
  alpha Z        PSCENC =         1.24091711
  Ewald energy   TEWEN  =      -120.96490647
  -Hartree energ DENC   =       -51.27647507
  -exchange      EXHF   =         0.00000000
  -V(xc)+E(xc)   XCENC  =       -11.80563204
  PAW double counting   =         0.00000000        0.00000000
  entropy T*S    EENTRO =        -0.03982530
  eigenvalues    EBANDS =       -51.05560366
  atomic energy  EATOM  =       231.52155534
  Solvation  Ediel_sol  =         0.00000000
  ---------------------------------------------------
  free energy    TOTEN  =        -2.37997009 eV

  energy without entropy =       -2.34014478  energy(sigma->0) =       -2.36005744


--------------------------------------------------------------------------------------------------------




----------------------------------------- Iteration    1(   7)  ---------------------------------------


    POTLOK:  cpu time    0.0250: real time    0.0265
    SETDIJ:  cpu time    0.0020: real time    0.0017
     EDDAV:  cpu time    5.1862: real time    2.7277
       DOS:  cpu time    0.0040: real time    0.0017
    CHARGE:  cpu time    0.4929: real time    0.2701
    MIXING:  cpu time    0.0040: real time    0.0033
    --------------------------------------------
      LOOP:  cpu time    5.7161: real time    3.0338

 eigenvalue-minimisations  :  1040
 total energy-change (2. order) :-0.1897884E-02  (-0.2443588E-03)
 number of electron       8.0000000 magnetization 
 augmentation part       -1.3379756 magnetization 

 Broyden mixing:
  rms(total) = 0.41587E-02    rms(broyden)= 0.41579E-02
  rms(prec ) = 0.92971E-02
  weight for this iteration     100.00

 eigenvalues of (default mixing * dielectric matrix)
  average eigenvalue GAMMA=   1.2915
  1.0619  1.5210

 Free energy of the ion-electron system (eV)
  ---------------------------------------------------
  alpha Z        PSCENC =         1.24091711
  Ewald energy   TEWEN  =      -120.96490647
  -Hartree energ DENC   =       -50.96550356
  -exchange      EXHF   =         0.00000000
  -V(xc)+E(xc)   XCENC  =       -11.84999987
  PAW double counting   =         0.00000000        0.00000000
  entropy T*S    EENTRO =        -0.03988330
  eigenvalues    EBANDS =       -51.32404723
  atomic energy  EATOM  =       231.52155534
  Solvation  Ediel_sol  =         0.00000000
  ---------------------------------------------------
  free energy    TOTEN  =        -2.38186797 eV

  energy without entropy =       -2.34198467  energy(sigma->0) =       -2.36192632


--------------------------------------------------------------------------------------------------------




----------------------------------------- Iteration    1(   8)  ---------------------------------------


    POTLOK:  cpu time    0.0270: real time    0.0265
    SETDIJ:  cpu time    0.0000: real time    0.0017
     EDDAV:  cpu time    4.3713: real time    2.2184
       DOS:  cpu time    0.0030: real time    0.0016
    CHARGE:  cpu time    0.4919: real time    0.2469
    MIXING:  cpu time    0.0380: real time    0.0182
    --------------------------------------------
      LOOP:  cpu time    4.9313: real time    2.5160

 eigenvalue-minimisations  :   752
 total energy-change (2. order) :-0.3542011E-03  (-0.1782751E-04)
 number of electron       8.0000000 magnetization 
 augmentation part       -1.3381782 magnetization 

 Broyden mixing:
  rms(total) = 0.41291E-03    rms(broyden)= 0.41242E-03
  rms(prec ) = 0.13404E-02
  weight for this iteration     100.00

 eigenvalues of (default mixing * dielectric matrix)
  average eigenvalue GAMMA=   1.2372
  1.0468  1.1466  1.5183

 Free energy of the ion-electron system (eV)
  ---------------------------------------------------
  alpha Z        PSCENC =         1.24091711
  Ewald energy   TEWEN  =      -120.96490647
  -Hartree energ DENC   =       -50.89444276
  -exchange      EXHF   =         0.00000000
  -V(xc)+E(xc)   XCENC  =       -11.86414311
  PAW double counting   =         0.00000000        0.00000000
  entropy T*S    EENTRO =        -0.03986075
  eigenvalues    EBANDS =       -51.38134154
  atomic energy  EATOM  =       231.52155534
  Solvation  Ediel_sol  =         0.00000000
  ---------------------------------------------------
  free energy    TOTEN  =        -2.38222217 eV

  energy without entropy =       -2.34236142  energy(sigma->0) =       -2.36229180


--------------------------------------------------------------------------------------------------------




----------------------------------------- Iteration    1(   9)  ---------------------------------------


    POTLOK:  cpu time    0.0790: real time    0.0415
    SETDIJ:  cpu time    0.0030: real time    0.0022
     EDDAV:  cpu time    4.1304: real time    2.0519
       DOS:  cpu time    0.0040: real time    0.0016
    CHARGE:  cpu time    0.4969: real time    0.2491
    MIXING:  cpu time    0.0360: real time    0.0178
    --------------------------------------------
      LOOP:  cpu time    4.7543: real time    2.3671

 eigenvalue-minimisations  :   720
 total energy-change (2. order) :-0.2532152E-04  (-0.1198110E-05)
 number of electron       8.0000000 magnetization 
 augmentation part       -1.3382327 magnetization 

 Broyden mixing:
  rms(total) = 0.13571E-03    rms(broyden)= 0.13562E-03
  rms(prec ) = 0.54988E-03
  weight for this iteration     100.00

 eigenvalues of (default mixing * dielectric matrix)
  average eigenvalue GAMMA=   1.3108
  1.0291  1.0291  1.4740  1.7110

 Free energy of the ion-electron system (eV)
  ---------------------------------------------------
  alpha Z        PSCENC =         1.24091711
  Ewald energy   TEWEN  =      -120.96490647
  -Hartree energ DENC   =       -50.88135110
  -exchange      EXHF   =         0.00000000
  -V(xc)+E(xc)   XCENC  =       -11.86504293
  PAW double counting   =         0.00000000        0.00000000
  entropy T*S    EENTRO =        -0.03986547
  eigenvalues    EBANDS =       -51.39355398
  atomic energy  EATOM  =       231.52155534
  Solvation  Ediel_sol  =         0.00000000
  ---------------------------------------------------
  free energy    TOTEN  =        -2.38224750 eV

  energy without entropy =       -2.34238203  energy(sigma->0) =       -2.36231476


--------------------------------------------------------------------------------------------------------




----------------------------------------- Iteration    1(  10)  ---------------------------------------


    POTLOK:  cpu time    0.0910: real time    0.0461
    SETDIJ:  cpu time    0.0050: real time    0.0021
     EDDAV:  cpu time    2.8656: real time    1.4367
       DOS:  cpu time    0.0040: real time    0.0015
    --------------------------------------------
      LOOP:  cpu time    2.9715: real time    1.4896

 eigenvalue-minimisations  :   376
 total energy-change (2. order) :-0.4262476E-05  (-0.2675547E-06)
 number of electron       8.0000000 magnetization 
 augmentation part       -1.3382327 magnetization 

 Free energy of the ion-electron system (eV)
  ---------------------------------------------------
  alpha Z        PSCENC =         1.24091711
  Ewald energy   TEWEN  =      -120.96490647
  -Hartree energ DENC   =       -50.87322866
  -exchange      EXHF   =         0.00000000
  -V(xc)+E(xc)   XCENC  =       -11.86584001
  PAW double counting   =         0.00000000        0.00000000
  entropy T*S    EENTRO =        -0.03986746
  eigenvalues    EBANDS =       -51.40088162
  atomic energy  EATOM  =       231.52155534
  Solvation  Ediel_sol  =         0.00000000
  ---------------------------------------------------
  free energy    TOTEN  =        -2.38225176 eV

  energy without entropy =       -2.34238430  energy(sigma->0) =       -2.36231803


--------------------------------------------------------------------------------------------------------




 average (electrostatic) potential at core
  the test charge radii are     1.2631
  (the norm of the test charge is              1.0000)
       1 -59.7831       2 -59.7831
 
 
 
 E-fermi :  -3.1460     XC(G=0):  -3.9864     alpha+bet : -1.6947


 k-point     1 :       0.0000    0.0000    0.0000
  band No.  band energies     occupation 
      1      -9.7911      2.00000
      2      -9.2615      2.00000
      3      -3.0925      0.44913
      4      -3.0925      0.44913
      5      -3.0925      0.44913
      6      -2.4073      0.00000
      7      -2.4073      0.00000
      8      -2.4073      0.00000

 k-point     2 :       0.1000    0.0000    0.0000
  band No.  band energies     occupation 
      1      -9.7821      2.00000
      2      -9.2721      2.00000
      3      -3.1098      0.60835
      4      -3.1090      0.60061
      5      -3.1090      0.60061
      6      -2.4010      0.00000
      7      -2.3868      0.00000
      8      -2.3868      0.00000

 k-point     3 :       0.2000    0.0000    0.0000
  band No.  band energies     occupation 
      1      -9.7566      2.00000
      2      -9.3015      2.00000
      3      -3.1584      1.13927
      4      -3.1482      1.02445
      5      -3.1482      1.02445
      6      -2.3742      0.00000
      7      -2.3373      0.00000
      8      -2.3373      0.00000

 k-point     4 :       0.3000    0.0000    0.0000
  band No.  band energies     occupation 
      1      -9.7197      2.00000
      2      -9.3433      2.00000
      3      -3.2220      1.71728
      4      -3.1906      1.47172
      5      -3.1906      1.47172
      6      -2.3250      0.00000
      7      -2.2826      0.00000
      8      -2.2826      0.00000

 k-point     5 :       0.4000    0.0000    0.0000
  band No.  band energies     occupation 
      1      -9.6826      2.00000
      2      -9.3843      2.00000
      3      -3.2740      1.92974
      4      -3.2214      1.71336
      5      -3.2214      1.71336
      6      -2.2753      0.00000
      7      -2.2423      0.00000
      8      -2.2423      0.00000

 k-point     6 :       0.5000    0.0000    0.0000
  band No.  band energies     occupation 
      1      -9.6654      2.00000
      2      -9.4030      2.00000
      3      -3.2938      1.96339
      4      -3.2324      1.77836
      5      -3.2324      1.77836
      6      -2.2543      0.00000
      7      -2.2276      0.00000
      8      -2.2276      0.00000

 k-point     7 :       0.1000    0.1000    0.0000
  band No.  band energies     occupation 
      1      -9.7791      2.00000
      2      -9.2757      2.00000
      3      -3.1318      0.84009
      4      -3.1318      0.84009
      5      -3.0764      0.32455
      6      -2.4437      0.00000
      7      -2.3598      0.00000
      8      -2.3598      0.00000

 k-point     8 :       0.2000    0.1000    0.0000
  band No.  band energies     occupation 
      1      -9.7588      2.00000
      2      -9.2991      2.00000
      3      -3.1821      1.38981
      4      -3.1737      1.30470
      5      -3.0756      0.31952
      6      -2.4586      0.00000
      7      -2.3072      0.00000
      8      -2.3072      0.00000

 k-point     9 :       0.3000    0.1000    0.0000
  band No.  band energies     occupation 
      1      -9.7249      2.00000
      2      -9.3375      2.00000
      3      -3.2521      1.86638
      4      -3.2154      1.67348
      5      -3.0968      0.48652
      6      -2.4362      0.00000
      7      -2.2528      0.00000
      8      -2.2433      0.00000

 k-point    10 :       0.4000    0.1000    0.0000
  band No.  band energies     occupation 
      1      -9.6860      2.00000
      2      -9.3806      2.00000
      3      -3.3169      1.98432
      4      -3.2429      1.82925
      5      -3.1252      0.76799
      6      -2.3943      0.00000
      7      -2.2155      0.00000
      8      -2.1852      0.00000

 k-point    11 :       0.5000    0.1000    0.0000
  band No.  band energies     occupation 
      1      -9.6593      2.00000
      2      -9.4096      2.00000
      3      -3.3539      1.99671
      4      -3.2492      1.85555
      5      -3.1464      1.00422
      6      -2.3609      0.00000
      7      -2.2057      0.00000
      8      -2.1511      0.00000

 k-point    12 :      -0.4000    0.1000    0.0000
  band No.  band energies     occupation 
      1      -9.6655      2.00000
      2      -9.4028      2.00000
      3      -3.3520      1.99643
      4      -3.2331      1.78211
      5      -3.1520      1.06786
      6      -2.3557      0.00000
      7      -2.2258      0.00000
      8      -2.1513      0.00000

 k-point    13 :      -0.3000    0.1000    0.0000
  band No.  band energies     occupation 
      1      -9.6991      2.00000
      2      -9.3662      2.00000
      3      -3.3124      1.98137
      4      -3.1985      1.54219
      5      -3.1415      0.94918
      6      -2.3778      0.00000
      7      -2.2704      0.00000
      8      -2.1851      0.00000

 k-point    14 :      -0.2000    0.1000    0.0000
  band No.  band energies     occupation 
      1      -9.7377      2.00000
      2      -9.3231      2.00000
      3      -3.2462      1.84358
      4      -3.1550      1.10083
      5      -3.1226      0.74065
      6      -2.4054      0.00000
      7      -2.3264      0.00000
      8      -2.2446      0.00000

 k-point    15 :      -0.1000    0.1000    0.0000
  band No.  band energies     occupation 
      1      -9.7675      2.00000
      2      -9.2890      2.00000
      3      -3.1716      1.28271
      4      -3.1189      0.70111
      5      -3.1086      0.59646
      6      -2.4138      0.00000
      7      -2.3729      0.00000
      8      -2.3186      0.00000

 k-point    16 :       0.2000    0.2000    0.0000
  band No.  band energies     occupation 
      1      -9.7438      2.00000
      2      -9.3162      2.00000
      3      -3.2172      1.68600
      4      -3.2172      1.68600
      5      -3.0318      0.10618
      6      -2.5325      0.00000
      7      -2.2522      0.00000
      8      -2.2522      0.00000

 k-point    17 :       0.3000    0.2000    0.0000
  band No.  band energies     occupation 
      1      -9.7140      2.00000
      2      -9.3497      2.00000
      3      -3.2756      1.93309
      4      -3.2592      1.89059
      5      -3.0154      0.06471
      6      -2.5579      0.00000
      7      -2.1965      0.00000
      8      -2.1903      0.00000

 k-point    18 :       0.4000    0.2000    0.0000
  band No.  band energies     occupation 
      1      -9.6753      2.00000
      2      -9.3922      2.00000
      3      -3.3459      1.99531
      4      -3.2858      1.95196
      5      -3.0169      0.06778
      6      -2.5392      0.00000
      7      -2.1593      0.00000
      8      -2.1316      0.00000

 k-point    19 :       0.5000    0.2000    0.0000
  band No.  band energies     occupation 
      1      -9.6413      2.00000
      2      -9.4288      2.00000
      3      -3.4002      1.99968
      4      -3.2902      1.95850
      5      -3.0301      0.10110
      6      -2.5001      0.00000
      7      -2.1514      0.00000
      8      -2.0919      0.00000

 k-point    20 :      -0.4000    0.2000    0.0000
  band No.  band energies     occupation 
      1      -9.6365      2.00000
      2      -9.4339      2.00000
      3      -3.4188      1.99989
      4      -3.2714      1.92383
      5      -3.0476      0.16379
      6      -2.4668      0.00000
      7      -2.1747      0.00000
      8      -2.0820      0.00000

 k-point    21 :      -0.3000    0.2000    0.0000
  band No.  band energies     occupation 
      1      -9.6657      2.00000
      2      -9.4026      2.00000
      3      -3.3952      1.99957
      4      -3.2343      1.78815
      5      -3.0669      0.26324
      6      -2.4485      0.00000
      7      -2.2228      0.00000
      8      -2.1053      0.00000

 k-point    22 :      -0.2000    0.2000    0.0000
  band No.  band energies     occupation 
      1      -9.7049      2.00000
      2      -9.3597      2.00000
      3      -3.3335      1.99198
      4      -3.1897      1.46346
      5      -3.0916      0.44149
      6      -2.4333      0.00000
      7      -2.2808      0.00000
      8      -2.1606      0.00000

 k-point    23 :       0.3000    0.3000    0.0000
  band No.  band energies     occupation 
      1      -9.6882      2.00000
      2      -9.3781      2.00000
      3      -3.3025      1.97309
      4      -3.3025      1.97309
      5      -2.9683      0.01198
      6      -2.6369      0.00000
      7      -2.1381      0.00000
      8      -2.1381      0.00000

 k-point    24 :       0.4000    0.3000    0.0000
  band No.  band energies     occupation 
      1      -9.6515      2.00000
      2      -9.4179      2.00000
      3      -3.3521      1.99644
      4      -3.3306      1.99095
      5      -2.9395      0.00350
      6      -2.6625      0.00000
      7      -2.0983      0.00000
      8      -2.0893      0.00000

 k-point    25 :       0.5000    0.3000    0.0000
  band No.  band energies     occupation 
      1      -9.6131      2.00000
      2      -9.4585      2.00000
      3      -3.4094      1.99980
      4      -3.3360      1.99277
      5      -2.9285      0.00210
      6      -2.6411      0.00000
      7      -2.0890      0.00000
      8      -2.0543      0.00000

 k-point    26 :      -0.4000    0.3000    0.0000
  band No.  band energies     occupation 
      1      -9.5987      2.00000
      2      -9.4736      2.00000
      3      -3.4449      1.99998
      4      -3.3174      1.98466
      5      -2.9489      0.00532
      6      -2.5861      0.00000
      7      -2.1126      0.00000
      8      -2.0428      0.00000

 k-point    27 :      -0.3000    0.3000    0.0000
  band No.  band energies     occupation 
      1      -9.6263      2.00000
      2      -9.4447      2.00000
      3      -3.4415      1.99997
      4      -3.2798      1.94152
      5      -2.9980      0.03634
      6      -2.5187      0.00000
      7      -2.1625      0.00000
      8      -2.0589      0.00000

 k-point    28 :       0.4000    0.4000    0.0000
  band No.  band energies     occupation 
      1      -9.6171      2.00000
      2      -9.4544      2.00000
      3      -3.3615      1.99769
      4      -3.3615      1.99769
      5      -2.8960      0.00041
      6      -2.7340      0.00000
      7      -2.0546      0.00000
      8      -2.0546      0.00000

 k-point    29 :       0.5000    0.4000    0.0000
  band No.  band energies     occupation 
      1      -9.5771      2.00000
      2      -9.4958      2.00000
      3      -3.3939      1.99954
      4      -3.3699      1.99846
      5      -2.8595      0.00005
      6      -2.7560      0.00000
      7      -2.0416      0.00000
      8      -2.0320      0.00000

 k-point    30 :      -0.4000    0.4000    0.0000
  band No.  band energies     occupation 
      1      -9.5616      2.00000
      2      -9.5116      2.00000
      3      -3.4315      1.99995
      4      -3.3539      1.99671
      5      -2.8763      0.00014
      6      -2.6974      0.00000
      7      -2.0630      0.00000
      8      -2.0272      0.00000

 k-point    31 :       0.5000    0.5000    0.0000
  band No.  band energies     occupation 
      1      -9.5367      2.00000
      2      -9.5367      2.00000
      3      -3.3823      1.99917
      4      -3.3823      1.99917
      5      -2.8189      0.00000
      6      -2.8189      0.00000
      7      -2.0241      0.00000
      8      -2.0241      0.00000

 k-point    32 :       0.3000    0.2000    0.1000
  band No.  band energies     occupation 
      1      -9.7338      2.00000
      2      -9.3274      2.00000
      3      -3.2560      1.87997
      4      -3.2003      1.55690
      5      -3.0609      0.22856
      6      -2.4851      0.00000
      7      -2.2733      0.00000
      8      -2.2246      0.00000

 k-point    33 :       0.4000    0.2000    0.1000
  band No.  band energies     occupation 
      1      -9.6973      2.00000
      2      -9.3681      2.00000
      3      -3.3299      1.99070
      4      -3.2348      1.79055
      5      -3.0592      0.21933
      6      -2.4788      0.00000
      7      -2.2274      0.00000
      8      -2.1568      0.00000

 k-point    34 :       0.5000    0.2000    0.1000
  band No.  band energies     occupation 
      1      -9.6595      2.00000
      2      -9.4094      2.00000
      3      -3.3834      1.99921
      4      -3.2632      1.90265
      5      -3.0638      0.24474
      6      -2.4570      0.00000
      7      -2.1898      0.00000
      8      -2.1128      0.00000

 k-point    35 :      -0.4000    0.2000    0.1000
  band No.  band energies     occupation 
      1      -9.6412      2.00000
      2      -9.4289      2.00000
      3      -3.4029      1.99972
      4      -3.2739      1.92941
      5      -3.0667      0.26167
      6      -2.4455      0.00000
      7      -2.1758      0.00000
      8      -2.0975      0.00000

 k-point    36 :       0.4000    0.3000    0.1000
  band No.  band energies     occupation 
      1      -9.6809      2.00000
      2      -9.3862      2.00000
      3      -3.3354      1.99260
      4      -3.2905      1.95893
      5      -2.9849      0.02271
      6      -2.5905      0.00000
      7      -2.1556      0.00000
      8      -2.1256      0.00000

 k-point    37 :       0.5000    0.3000    0.1000
  band No.  band energies     occupation 
      1      -9.6415      2.00000
      2      -9.4286      2.00000
      3      -3.3928      1.99952
      4      -3.3155      1.98347
      5      -2.9638      0.00995
      6      -2.5884      0.00000
      7      -2.1255      0.00000
      8      -2.0804      0.00000

 k-point    38 :      -0.4000    0.3000    0.1000
  band No.  band energies     occupation 
      1      -9.6130      2.00000
      2      -9.4587      2.00000
      3      -3.4299      1.99994
      4      -3.3203      1.98631
      5      -2.9612      0.00897
      6      -2.5653      0.00000
      7      -2.1209      0.00000
      8      -2.0584      0.00000

 k-point    39 :      -0.3000    0.3000    0.1000
  band No.  band energies     occupation 
      1      -9.6228      2.00000
      2      -9.4484      2.00000
      3      -3.4331      1.99995
      4      -3.3016      1.97223
      5      -2.9796      0.01862
      6      -2.5380      0.00000
      7      -2.1443      0.00000
      8      -2.0619      0.00000

 k-point    40 :      -0.2000    0.3000    0.1000
  band No.  band energies     occupation 
      1      -9.6596      2.00000
      2      -9.4092      2.00000
      3      -3.3979      1.99963
      4      -3.2672      1.91340
      5      -3.0156      0.06508
      6      -2.5113      0.00000
      7      -2.1858      0.00000
      8      -2.0940      0.00000

 k-point    41 :       0.5000    0.4000    0.1000
  band No.  band energies     occupation 
      1      -9.6132      2.00000
      2      -9.4585      2.00000
      3      -3.3842      1.99924
      4      -3.3591      1.99742
      5      -2.8953      0.00039
      6      -2.6975      0.00000
      7      -2.0687      0.00000
      8      -2.0551      0.00000

 k-point    42 :      -0.4000    0.4000    0.1000
  band No.  band energies     occupation 
      1      -9.5771      2.00000
      2      -9.4959      2.00000
      3      -3.4220      1.99991
      4      -3.3654      1.99808
      5      -2.8662      0.00008
      6      -2.6924      0.00000
      7      -2.0664      0.00000
      8      -2.0384      0.00000

 k-point    43 :      -0.3000    0.4000    0.1000
  band No.  band energies     occupation 
      1      -9.5840      2.00000
      2      -9.4887      2.00000
      3      -3.4451      1.99998
      4      -3.3421      1.99444
      5      -2.9027      0.00058
      6      -2.6259      0.00000
      7      -2.0960      0.00000
      8      -2.0388      0.00000

 k-point    44 :      -0.4000    0.5000    0.1000
  band No.  band energies     occupation 
      1      -9.5367      2.00000
      2      -9.5367      2.00000
      3      -3.3923      1.99950
      4      -3.3923      1.99950
      5      -2.7990      0.00000
      6      -2.7990      0.00000
      7      -2.0333      0.00000
      8      -2.0333      0.00000

 k-point    45 :      -0.4000    0.4000    0.2000
  band No.  band energies     occupation 
      1      -9.6018      2.00000
      2      -9.4704      2.00000
      3      -3.4247      1.99992
      4      -3.3507      1.99621
      5      -2.8986      0.00047
      6      -2.6339      0.00000
      7      -2.0954      0.00000
      8      -2.0513      0.00000

 k-point    46 :      -0.3000    0.4000    0.2000
  band No.  band energies     occupation 
      1      -9.5770      2.00000
      2      -9.4959      2.00000
      3      -3.4340      1.99995
      4      -3.3679      1.99830
      5      -2.8636      0.00007
      6      -2.6584      0.00000
      7      -2.0815      0.00000
      8      -2.0440      0.00000

 k-point    47 :      -0.3000    0.5000    0.2000
  band No.  band energies     occupation 
      1      -9.5367      2.00000
      2      -9.5367      2.00000
      3      -3.4075      1.99978
      4      -3.4075      1.99978
      5      -2.7671      0.00000
      6      -2.7671      0.00000
      7      -2.0491      0.00000
      8      -2.0491      0.00000


--------------------------------------------------------------------------------------------------------


 soft charge-density along one line, spin component           1
         0         1         2         3         4         5         6         7         8         9
 total charge-density along one line
 
 pseudopotential strength for first ion, spin component:           1
  5.814 -20.527   0.000   0.000   0.000  -0.000  -0.000  -0.000
-20.527  89.313  -0.000  -0.000  -0.000  -0.000  -0.000  -0.000
  0.000  -0.000   9.956   0.000   0.000 -22.270   0.000   0.000
  0.000  -0.000   0.000   9.956   0.000   0.000 -22.270   0.000
  0.000  -0.000   0.000   0.000   9.956   0.000   0.000 -22.270
 -0.000  -0.000 -22.270   0.000   0.000  95.113  -0.000  -0.000
 -0.000  -0.000   0.000 -22.270   0.000  -0.000  95.113  -0.000
 -0.000  -0.000   0.000   0.000 -22.270  -0.000  -0.000  95.113
 total augmentation occupancy for first ion, spin component:           1
  8.851   0.009   0.021   0.020  -0.027  -0.000   0.000  -0.000
  0.009   0.000   0.001   0.001  -0.001  -0.000  -0.000   0.000
  0.021   0.001   0.338  -0.005   0.026  -0.001  -0.000   0.000
  0.020   0.001  -0.005   0.145  -0.007  -0.000  -0.000   0.000
 -0.027  -0.001   0.026  -0.007   0.290   0.000   0.000  -0.001
 -0.000  -0.000  -0.001  -0.000   0.000   0.000   0.000  -0.000
  0.000  -0.000  -0.000  -0.000   0.000   0.000   0.000  -0.000
 -0.000   0.000   0.000   0.000  -0.001  -0.000  -0.000   0.000


------------------------ aborting loop because EDIFF is reached ----------------------------------------


    CHARGE:  cpu time    0.4939: real time    0.2476
    FORLOC:  cpu time    0.0410: real time    0.0203
    FORNL :  cpu time    0.2270: real time    0.1154
    STRESS:  cpu time    0.3569: real time    0.3582
    FORCOR:  cpu time    0.0240: real time    0.0236
    FORHAR:  cpu time    0.0210: real time    0.0219
    MIXING:  cpu time    0.0040: real time    0.0033
    OFIELD:  cpu time    0.0000: real time    0.0000

  FORCE on cell =-STRESS in cart. coord.  units (eV):
  Direction    XX          YY          ZZ          XY          YZ          ZX
  --------------------------------------------------------------------------------------
  Alpha Z     1.24092     1.24092     1.24092
  Ewald     -40.32165   -40.32165   -40.32165     0.00000     0.00000     0.00000
  Hartree    16.95736    16.95736    16.95736     0.00000     0.00000     0.00000
  E(xc)     -20.64582   -20.64582   -20.64582    -0.00000    -0.00000    -0.00000
  Local     -62.05289   -62.05289   -62.05289    -0.00000    -0.00000    -0.00000
  n-local    69.77324    70.88393    66.37528     0.58970    -0.11076    -0.16851
  augment   -19.64629   -19.82858   -19.08592    -0.09693     0.01850     0.02631
  Kinetic    53.71541    55.98569    46.35529     1.35310    -0.45463    -0.04780
  Fock        0.00000     0.00000     0.00000     0.00000     0.00000     0.00000
  -------------------------------------------------------------------------------------
  Total      -3.31274    -3.31274    -3.31274     0.00000     0.00000    -0.00000
  in kB     -19.65696   -19.65696   -19.65696     0.00000     0.00000    -0.00000
  external pressure =      -19.66 kB  Pullay stress =        0.00 kB


 VOLUME and BASIS-vectors are now :
 -----------------------------------------------------------------------------
  energy-cutoff  :      307.00
  volume of cell :      270.01
      direct lattice vectors                 reciprocal lattice vectors
     0.000000000  5.130000000  5.130000000    -0.097465887  0.097465887  0.097465887
     5.130000000  0.000000000  5.130000000     0.097465887 -0.097465887  0.097465887
     5.130000000  5.130000000  0.000000000     0.097465887  0.097465887 -0.097465887

  length of vectors
     7.254915575  7.254915575  7.254915575     0.168815868  0.168815868  0.168815868


 FORCES acting on ions
    electron-ion (+dipol)            ewald-force                    non-local-force                 convergence-correction
 -----------------------------------------------------------------------------------------------
   -.783E-09 -.783E-09 -.667E-09   -.447E-14 -.498E-14 -.527E-14   0.520E-16 0.416E-16 0.503E-16   0.477E-08 0.477E-08 0.477E-08
   0.783E-09 0.782E-09 0.667E-09   0.449E-14 0.481E-14 0.514E-14   -.451E-16 -.451E-16 -.503E-16   -.477E-08 -.477E-08 -.477E-08
 -----------------------------------------------------------------------------------------------
   -.850E-13 -.720E-13 -.243E-13   0.196E-16 -.173E-15 -.123E-15   0.694E-17 -.347E-17 0.000E+00   -.120E-13 -.788E-14 0.281E-15
 
 
 POSITION                                       TOTAL-FORCE (eV/Angst)
 -----------------------------------------------------------------------------------
      0.00000      0.00000      0.00000        -0.000000     -0.000000     -0.000000
      2.56500      2.56500      2.56500         0.000000      0.000000      0.000000
 -----------------------------------------------------------------------------------
    total drift:                               -0.000000     -0.000000     -0.000000


--------------------------------------------------------------------------------------------------------



  FREE ENERGIE OF THE ION-ELECTRON SYSTEM (eV)
  ---------------------------------------------------
  free  energy   TOTEN  =        -2.38225176 eV

  energy  without entropy=       -2.34238430  energy(sigma->0) =       -2.36231803
 


--------------------------------------------------------------------------------------------------------


    POTLOK:  cpu time    0.0260: real time    0.0254


--------------------------------------------------------------------------------------------------------


 writing wavefunctions
     LOOP+:  cpu time   46.3270: real time   23.9221
    4ORBIT:  cpu time    0.0000: real time    0.0000

 total amount of memory used by VASP on root node    60751. kBytes
========================================================================

   base      :      30000. kBytes
   nonl-proj :      10104. kBytes
   fftplans  :       5401. kBytes
   grid      :      10217. kBytes
   one-center:          6. kBytes
   wavefun   :       5023. kBytes
 
  
  
 General timing and accounting informations for this job:
 ========================================================
  
                  Total CPU time used (sec):       47.553
                            User time (sec):       45.695
                          System time (sec):        1.858
                         Elapsed time (sec):       26.013
  
                   Maximum memory used (kb):       83724.
                   Average memory used (kb):           0.
  
                          Minor page faults:        46898
                          Major page faults:           31
                 Voluntary context switches:         1629
