 running on    4 total cores
 distrk:  each k-point on    4 cores,    1 groups
 distr:  one band on    1 cores,    4 groups
 using from now: INCAR     
 vasp.5.4.1 24Jun15 (build Jul 19 2016 16:50:41) complex                        
  
 POSCAR found :  1 types and       2 ions
 LDA part: xc-table for Ceperly-Alder, standard interpolation
 POSCAR, INCAR and KPOINTS ok, starting setup
 FFT: planning ...
 WAVECAR not read
 entering main loop
       N       E                     dE             d eps       ncg     rms          rms(c)
DAV:   1     0.134676964232E+02    0.13468E+02   -0.15172E+03   752   0.399E+02
DAV:   2    -0.157433712536E+01   -0.15042E+02   -0.14975E+02  1464   0.551E+01
DAV:   3    -0.239239668828E+01   -0.81806E+00   -0.79403E+00   792   0.150E+01
DAV:   4    -0.240921189485E+01   -0.16815E-01   -0.16796E-01   880   0.274E+00
DAV:   5    -0.240947743102E+01   -0.26554E-03   -0.26552E-03   816   0.317E-01    0.725E-01
DAV:   6    -0.237997008881E+01    0.29507E-01   -0.11909E-01   752   0.139E+00    0.159E-01
DAV:   7    -0.238186797264E+01   -0.18979E-02   -0.24436E-03  1040   0.267E-01    0.416E-02
DAV:   8    -0.238222217372E+01   -0.35420E-03   -0.17828E-04   752   0.731E-02    0.413E-03
DAV:   9    -0.238224749523E+01   -0.25322E-04   -0.11981E-05   720   0.141E-02    0.136E-03
DAV:  10    -0.238225175771E+01   -0.42625E-05   -0.26755E-06   376   0.637E-03
   1 F= -.23822518E+01 E0= -.23623180E+01  d E =-.398675E-01
 writing wavefunctions
