<?xml version="1.0" encoding="ISO-8859-1"?>
<modeling>
 <generator>
  <i name="program" type="string">vasp </i>
  <i name="version" type="string">5.4.1  </i>
  <i name="subversion" type="string">24Jun15 (build Jul 19 2016 16:50:41) complex                          parallel </i>
  <i name="platform" type="string">IFC91_ompi </i>
  <i name="date" type="string">2019 11 12 </i>
  <i name="time" type="string">11:57:02 </i>
 </generator>
 <incar>
  <i type="string" name="SYSTEM"> Si diamante</i>
  <i type="string" name="PREC">accurate</i>
  <i type="int" name="IBRION">    -1</i>
  <i name="EDIFF">      0.00001000</i>
  <i name="ENMAX">    307.00000000</i>
  <i type="int" name="ISMEAR">     0</i>
  <i name="SIGMA">      0.10000000</i>
  <v type="int" name="KPOINT_BSE">    -1     0     0     0</v>
 </incar>
 <kpoints>
  <generation param="Gamma">
   <v type="int" name="divisions">      10       10       10 </v>
   <v name="usershift">      0.00000000       0.00000000       0.00000000 </v>
   <v name="genvec1">      0.10000000       0.00000000       0.00000000 </v>
   <v name="genvec2">      0.00000000       0.10000000       0.00000000 </v>
   <v name="genvec3">      0.00000000       0.00000000       0.10000000 </v>
   <v name="shift">      0.00000000       0.00000000       0.00000000 </v>
  </generation>
  <varray name="kpointlist" >
   <v>       0.00000000       0.00000000       0.00000000 </v>
   <v>       0.10000000       0.00000000       0.00000000 </v>
   <v>       0.20000000       0.00000000       0.00000000 </v>
   <v>       0.30000000       0.00000000       0.00000000 </v>
   <v>       0.40000000       0.00000000       0.00000000 </v>
   <v>       0.50000000       0.00000000       0.00000000 </v>
   <v>       0.10000000       0.10000000       0.00000000 </v>
   <v>       0.20000000       0.10000000       0.00000000 </v>
   <v>       0.30000000       0.10000000       0.00000000 </v>
   <v>       0.40000000       0.10000000       0.00000000 </v>
   <v>       0.50000000       0.10000000       0.00000000 </v>
   <v>      -0.40000000       0.10000000       0.00000000 </v>
   <v>      -0.30000000       0.10000000       0.00000000 </v>
   <v>      -0.20000000       0.10000000       0.00000000 </v>
   <v>      -0.10000000       0.10000000       0.00000000 </v>
   <v>       0.20000000       0.20000000       0.00000000 </v>
   <v>       0.30000000       0.20000000       0.00000000 </v>
   <v>       0.40000000       0.20000000       0.00000000 </v>
   <v>       0.50000000       0.20000000       0.00000000 </v>
   <v>      -0.40000000       0.20000000       0.00000000 </v>
   <v>      -0.30000000       0.20000000       0.00000000 </v>
   <v>      -0.20000000       0.20000000       0.00000000 </v>
   <v>       0.30000000       0.30000000       0.00000000 </v>
   <v>       0.40000000       0.30000000       0.00000000 </v>
   <v>       0.50000000       0.30000000       0.00000000 </v>
   <v>      -0.40000000       0.30000000       0.00000000 </v>
   <v>      -0.30000000       0.30000000       0.00000000 </v>
   <v>       0.40000000       0.40000000       0.00000000 </v>
   <v>       0.50000000       0.40000000       0.00000000 </v>
   <v>      -0.40000000       0.40000000       0.00000000 </v>
   <v>       0.50000000       0.50000000       0.00000000 </v>
   <v>       0.30000000       0.20000000       0.10000000 </v>
   <v>       0.40000000       0.20000000       0.10000000 </v>
   <v>       0.50000000       0.20000000       0.10000000 </v>
   <v>      -0.40000000       0.20000000       0.10000000 </v>
   <v>       0.40000000       0.30000000       0.10000000 </v>
   <v>       0.50000000       0.30000000       0.10000000 </v>
   <v>      -0.40000000       0.30000000       0.10000000 </v>
   <v>      -0.30000000       0.30000000       0.10000000 </v>
   <v>      -0.20000000       0.30000000       0.10000000 </v>
   <v>       0.50000000       0.40000000       0.10000000 </v>
   <v>      -0.40000000       0.40000000       0.10000000 </v>
   <v>      -0.30000000       0.40000000       0.10000000 </v>
   <v>      -0.40000000       0.50000000       0.10000000 </v>
   <v>      -0.40000000       0.40000000       0.20000000 </v>
   <v>      -0.30000000       0.40000000       0.20000000 </v>
   <v>      -0.30000000       0.50000000       0.20000000 </v>
  </varray>
  <varray name="weights" >
   <v>       0.00100000 </v>
   <v>       0.00800000 </v>
   <v>       0.00800000 </v>
   <v>       0.00800000 </v>
   <v>       0.00800000 </v>
   <v>       0.00400000 </v>
   <v>       0.00600000 </v>
   <v>       0.02400000 </v>
   <v>       0.02400000 </v>
   <v>       0.02400000 </v>
   <v>       0.02400000 </v>
   <v>       0.02400000 </v>
   <v>       0.02400000 </v>
   <v>       0.02400000 </v>
   <v>       0.01200000 </v>
   <v>       0.00600000 </v>
   <v>       0.02400000 </v>
   <v>       0.02400000 </v>
   <v>       0.02400000 </v>
   <v>       0.02400000 </v>
   <v>       0.02400000 </v>
   <v>       0.01200000 </v>
   <v>       0.00600000 </v>
   <v>       0.02400000 </v>
   <v>       0.02400000 </v>
   <v>       0.02400000 </v>
   <v>       0.01200000 </v>
   <v>       0.00600000 </v>
   <v>       0.02400000 </v>
   <v>       0.01200000 </v>
   <v>       0.00300000 </v>
   <v>       0.02400000 </v>
   <v>       0.04800000 </v>
   <v>       0.04800000 </v>
   <v>       0.02400000 </v>
   <v>       0.02400000 </v>
   <v>       0.04800000 </v>
   <v>       0.04800000 </v>
   <v>       0.04800000 </v>
   <v>       0.02400000 </v>
   <v>       0.02400000 </v>
   <v>       0.04800000 </v>
   <v>       0.02400000 </v>
   <v>       0.01200000 </v>
   <v>       0.02400000 </v>
   <v>       0.02400000 </v>
   <v>       0.01200000 </v>
  </varray>
 </kpoints>
 <parameters>
  <separator name="general" >
   <i type="string" name="SYSTEM">Si diamante</i>
   <i type="logical" name="LCOMPAT"> F  </i>
  </separator>
  <separator name="electronic" >
   <i type="string" name="PREC">accura</i>
   <i name="ENMAX">    307.00000000</i>
   <i name="ENAUG">    241.94500000</i>
   <i name="EDIFF">      0.00001000</i>
   <i type="int" name="IALGO">    38</i>
   <i type="int" name="IWAVPR">    10</i>
   <i type="int" name="NBANDS">     8</i>
   <i name="NELECT">      8.00000000</i>
   <i type="int" name="TURBO">     0</i>
   <i type="int" name="IRESTART">     0</i>
   <i type="int" name="NREBOOT">     0</i>
   <i type="int" name="NMIN">     0</i>
   <i name="EREF">      0.00000000</i>
   <separator name="electronic smearing" >
    <i type="int" name="ISMEAR">     0</i>
    <i name="SIGMA">      0.10000000</i>
    <i name="KSPACING">      0.50000000</i>
    <i type="logical" name="KGAMMA"> T  </i>
   </separator>
   <separator name="electronic projectors" >
    <i type="logical" name="LREAL"> F  </i>
    <v name="ROPT">      0.00000000</v>
    <i type="int" name="LMAXPAW">  -100</i>
    <i type="int" name="LMAXMIX">     2</i>
    <i type="logical" name="NLSPLINE"> F  </i>
   </separator>
   <separator name="electronic startup" >
    <i type="int" name="ISTART">     0</i>
    <i type="int" name="ICHARG">     2</i>
    <i type="int" name="INIWAV">     1</i>
   </separator>
   <separator name="electronic spin" >
    <i type="int" name="ISPIN">     1</i>
    <i type="logical" name="LNONCOLLINEAR"> F  </i>
    <v name="MAGMOM">      1.00000000      1.00000000</v>
    <i name="NUPDOWN">     -1.00000000</i>
    <i type="logical" name="LSORBIT"> F  </i>
    <v name="SAXIS">      0.00000000      0.00000000      1.00000000</v>
    <i type="logical" name="LSPIRAL"> F  </i>
    <v name="QSPIRAL">      0.00000000      0.00000000      0.00000000</v>
    <i type="logical" name="LZEROZ"> F  </i>
   </separator>
   <separator name="electronic exchange-correlation" >
    <i type="logical" name="LASPH"> F  </i>
    <i type="logical" name="LMETAGGA"> F  </i>
   </separator>
   <separator name="electronic convergence" >
    <i type="int" name="NELM">    60</i>
    <i type="int" name="NELMDL">    -5</i>
    <i type="int" name="NELMIN">     2</i>
    <i name="ENINI">    307.00000000</i>
    <separator name="electronic convergence detail" >
     <i type="logical" name="LDIAG"> T  </i>
     <i type="logical" name="LSUBROT"> F  </i>
     <i name="WEIMIN">      0.00000000</i>
     <i name="EBREAK">      0.00000031</i>
     <i name="DEPER">      0.30000000</i>
     <i type="int" name="NRMM">     4</i>
     <i name="TIME">      0.40000000</i>
    </separator>
   </separator>
   <separator name="electronic mixer" >
    <i name="AMIX">      0.80000000</i>
    <i name="BMIX">      1.00000000</i>
    <i name="AMIN">      0.10000000</i>
    <i name="AMIX_MAG">      3.20000000</i>
    <i name="BMIX_MAG">      1.00000000</i>
    <separator name="electronic mixer details" >
     <i type="int" name="IMIX">     4</i>
     <i type="logical" name="MIXFIRST"> F  </i>
     <i type="int" name="MAXMIX">   -45</i>
     <i name="WC">    100.00000000</i>
     <i type="int" name="INIMIX">     1</i>
     <i type="int" name="MIXPRE">     1</i>
     <i type="int" name="MREMOVE">     5</i>
    </separator>
   </separator>
   <separator name="electronic dipolcorrection" >
    <i type="logical" name="LDIPOL"> F  </i>
    <i type="logical" name="LMONO"> F  </i>
    <i type="int" name="IDIPOL">     0</i>
    <i name="EPSILON">      1.00000000</i>
    <v name="DIPOL">   -100.00000000   -100.00000000   -100.00000000</v>
    <i name="EFIELD">      0.00000000</i>
   </separator>
  </separator>
  <separator name="grids" >
   <i type="int" name="NGX">    42</i>
   <i type="int" name="NGY">    42</i>
   <i type="int" name="NGZ">    42</i>
   <i type="int" name="NGXF">    84</i>
   <i type="int" name="NGYF">    84</i>
   <i type="int" name="NGZF">    84</i>
   <i type="logical" name="ADDGRID"> F  </i>
  </separator>
  <separator name="ionic" >
   <i type="int" name="NSW">     0</i>
   <i type="int" name="IBRION">    -1</i>
   <i type="int" name="ISIF">     2</i>
   <i name="PSTRESS">      0.00000000</i>
   <i name="EDIFFG">      0.00010000</i>
   <i type="int" name="NFREE">     0</i>
   <i name="POTIM">      0.50000000</i>
   <i name="SMASS">     -3.00000000</i>
   <i name="SCALEE">      1.00000000</i>
  </separator>
  <separator name="ionic md" >
   <i name="TEBEG">      0.00010000</i>
   <i name="TEEND">      0.00010000</i>
   <i type="int" name="NBLOCK">     1</i>
   <i type="int" name="KBLOCK">     1</i>
   <i type="int" name="NPACO">   256</i>
   <i name="APACO">     16.00000000</i>
  </separator>
  <separator name="symmetry" >
   <i type="int" name="ISYM">     1</i>
   <i name="SYMPREC">      0.00001000</i>
  </separator>
  <separator name="dos" >
   <i type="logical" name="LORBIT"> F  </i>
   <v name="RWIGS">     -1.00000000</v>
   <i type="int" name="NEDOS">   301</i>
   <i name="EMIN">     10.00000000</i>
   <i name="EMAX">    -10.00000000</i>
   <i name="EFERMI">      0.00000000</i>
  </separator>
  <separator name="writing" >
   <i type="int" name="NWRITE">     2</i>
   <i type="logical" name="LWAVE"> T  </i>
   <i type="logical" name="LCHARG"> T  </i>
   <i type="logical" name="LPARD"> F  </i>
   <i type="logical" name="LVTOT"> F  </i>
   <i type="logical" name="LVHAR"> F  </i>
   <i type="logical" name="LELF"> F  </i>
   <i type="logical" name="LOPTICS"> F  </i>
   <v name="STM">      0.00000000      0.00000000      0.00000000      0.00000000      0.00000000      0.00000000      0.00000000</v>
  </separator>
  <separator name="performance" >
   <i type="int" name="NPAR">     4</i>
   <i type="int" name="NSIM">     4</i>
   <i type="int" name="NBLK">    -1</i>
   <i type="logical" name="LPLANE"> T  </i>
   <i type="logical" name="LSCALAPACK"> F  </i>
   <i type="logical" name="LSCAAWARE"> F  </i>
   <i type="logical" name="LSCALU"> F  </i>
   <i type="logical" name="LASYNC"> F  </i>
   <i type="logical" name="LORBITALREAL"> F  </i>
  </separator>
  <separator name="miscellaneous" >
   <i type="int" name="IDIOT">     3</i>
   <i type="logical" name="LMUSIC"> F  </i>
   <v name="POMASS">     28.08500000</v>
   <v name="DARWINR">      0.00000000</v>
   <v name="DARWINV">      1.00000000</v>
   <i type="logical" name="LCORR"> T  </i>
  </separator>
  <i type="logical" name="GGA_COMPAT"> T  </i>
  <i type="logical" name="LBERRY"> F  </i>
  <i type="int" name="ICORELEVEL">     0</i>
  <i type="logical" name="LDAU"> F  </i>
  <i type="int" name="I_CONSTRAINED_M">     0</i>
  <separator name="electronic exchange-correlation" >
   <i type="string" name="GGA">--</i>
   <i type="int" name="VOSKOWN">     0</i>
   <i type="logical" name="LHFCALC"> F  </i>
   <i type="string" name="PRECFOCK"></i>
   <i type="logical" name="LSYMGRAD"> F  </i>
   <i type="logical" name="LHFONE"> F  </i>
   <i type="logical" name="LRHFCALC"> F  </i>
   <i type="logical" name="LTHOMAS"> F  </i>
   <i type="logical" name="LMODELHF"> F  </i>
   <i name="ENCUT4O">     -1.00000000</i>
   <i type="int" name="EXXOEP">     0</i>
   <i type="int" name="FOURORBIT">     0</i>
   <i name="AEXX">      0.00000000</i>
   <i name="HFALPHA">      0.00000000</i>
   <i name="MCALPHA">      0.00000000</i>
   <i name="ALDAX">      1.00000000</i>
   <i name="AGGAX">      1.00000000</i>
   <i name="ALDAC">      1.00000000</i>
   <i name="AGGAC">      1.00000000</i>
   <i type="int" name="NKREDX">     1</i>
   <i type="int" name="NKREDY">     1</i>
   <i type="int" name="NKREDZ">     1</i>
   <i type="logical" name="SHIFTRED"> F  </i>
   <i type="logical" name="ODDONLY"> F  </i>
   <i type="logical" name="EVENONLY"> F  </i>
   <i type="int" name="LMAXFOCK">     0</i>
   <i type="int" name="NMAXFOCKAE">     0</i>
   <i type="logical" name="LFOCKAEDFT"> F  </i>
   <i name="HFSCREEN">      0.00000000</i>
   <i name="HFSCREENC">      0.00000000</i>
   <i type="int" name="NBANDSGWLOW">     0</i>
  </separator>
  <separator name="vdW DFT" >
   <i type="logical" name="LUSE_VDW"> F  </i>
   <i name="Zab_VDW">     -0.84910000</i>
   <i name="PARAM1">      0.12340000</i>
   <i name="PARAM2">      1.00000000</i>
   <i name="PARAM3">      0.00000000</i>
  </separator>
  <separator name="model GW" >
   <i type="int" name="MODEL_GW">     0</i>
   <i name="MODEL_EPS0">     81.00341820</i>
   <i name="MODEL_ALPHA">      1.00000000</i>
  </separator>
  <separator name="linear response parameters" >
   <i type="logical" name="LEPSILON"> F  </i>
   <i type="logical" name="LRPA"> F  </i>
   <i type="logical" name="LNABLA"> F  </i>
   <i type="logical" name="LVEL"> F  </i>
   <i type="int" name="KINTER">     0</i>
   <i name="CSHIFT">      0.10000000</i>
   <i name="OMEGAMAX">     -1.00000000</i>
   <i name="DEG_THRESHOLD">      0.00200000</i>
  </separator>
  <separator name="orbital magnetization" >
   <i type="logical" name="NUCIND"> F  </i>
   <v name="MAGPOS">      0.00000000      0.00000000      0.00000000</v>
   <i type="logical" name="LNICSALL"> T  </i>
   <i type="logical" name="ORBITALMAG"> F  </i>
   <i type="logical" name="LMAGBLOCH"> F  </i>
   <i type="logical" name="LCHIMAG"> F  </i>
   <i type="logical" name="LGAUGE"> T  </i>
   <i type="int" name="MAGATOM">     0</i>
   <v name="MAGDIPOL">      0.00000000      0.00000000      0.00000000</v>
   <v name="AVECCONST">      0.00000000      0.00000000      0.00000000</v>
  </separator>
  <separator name="response functions" >
   <i type="logical" name="LADDER"> F  </i>
   <i type="logical" name="LFXC"> F  </i>
   <i type="logical" name="LHARTREE"> T  </i>
   <i type="int" name="IBSE">     0</i>
   <v type="int" name="KPOINT">    -1     0     0     0</v>
   <i type="logical" name="LTCTE"> F  </i>
   <i type="logical" name="LTETE"> F  </i>
   <i type="logical" name="LTRIPLET"> F  </i>
   <i type="logical" name="LFXCEPS"> F  </i>
   <i type="logical" name="LFXHEG"> F  </i>
   <i type="int" name="NATURALO">     0</i>
   <i type="logical" name="L2ORDER"> F  </i>
   <i type="logical" name="LUSEW"> F  </i>
   <i name="ENCUTGW">     -2.00000000</i>
   <i name="ENCUTGWSOFT">     -2.00000000</i>
   <i name="ENCUTLF">     -1.00000000</i>
   <i type="int" name="LMAXMP2">    -1</i>
   <i name="SCISSOR">      0.00000000</i>
   <i type="int" name="NOMEGA">     0</i>
   <i type="int" name="NOMEGAR">     0</i>
   <i type="int" name="NBANDSGW">    -1</i>
   <i type="int" name="NBANDSO">    -1</i>
   <i type="int" name="NBANDSV">    -1</i>
   <i type="int" name="NELM">     1</i>
   <i type="int" name="NELMHF">     1</i>
   <i type="int" name="DIM">     3</i>
   <i type="int" name="ANTIRES">     0</i>
   <i name="OMEGAMAX">    -30.00000000</i>
   <i name="OMEGAMIN">    -30.00000000</i>
   <i name="OMEGATL">   -200.00000000</i>
   <i type="int" name="OMEGAGRID">     0</i>
   <i name="CSHIFT">     -0.10000000</i>
   <i type="logical" name="SELFENERGY"> F  </i>
   <i type="logical" name="LSPECTRAL"> F  </i>
   <i type="logical" name="LSPECTRALGW"> F  </i>
   <i type="logical" name="LSINGLES"> F  </i>
   <i type="logical" name="LFERMIGW"> F  </i>
   <i type="logical" name="ODDONLYGW"> F  </i>
   <i type="logical" name="EVENONLYGW"> F  </i>
   <i type="int" name="NKREDLFX">     1</i>
   <i type="int" name="NKREDLFY">     1</i>
   <i type="int" name="NKREDLFZ">     1</i>
   <i type="int" name="MAXMEM">  1800</i>
   <i type="int" name="TELESCOPE">     0</i>
   <i type="int" name="TAUPAR">     1</i>
   <i type="int" name="OMEGAPAR">    -1</i>
   <i name="LAMBDA">      1.00000000</i>
  </separator>
  <separator name="External order field" >
   <i name="OFIELD_KAPPA">      0.00000000</i>
   <v name="OFIELD_K">      0.00000000      0.00000000      0.00000000</v>
   <i name="OFIELD_Q6_NEAR">      0.00000000</i>
   <i name="OFIELD_Q6_FAR">      0.00000000</i>
   <i name="OFIELD_A">      0.00000000</i>
  </separator>
 </parameters>
 <atominfo>
  <atoms>       2 </atoms>
  <types>       1 </types>
  <array name="atoms" >
   <dimension dim="1">ion</dimension>
   <field type="string">element</field>
   <field type="int">atomtype</field>
   <set>
    <rc><c>Si</c><c>   1</c></rc>
    <rc><c>Si</c><c>   1</c></rc>
   </set>
  </array>
  <array name="atomtypes" >
   <dimension dim="1">type</dimension>
   <field type="int">atomspertype</field>
   <field type="string">element</field>
   <field>mass</field>
   <field>valence</field>
   <field type="string">pseudopotential</field>
   <set>
    <rc><c>   2</c><c>Si</c><c>     28.08500000</c><c>      4.00000000</c><c>  US Si                                 </c></rc>
   </set>
  </array>
 </atominfo>
 <structure name="initialpos" >
  <crystal>
   <varray name="basis" >
    <v>       0.00000000       5.13000000       5.13000000 </v>
    <v>       5.13000000       0.00000000       5.13000000 </v>
    <v>       5.13000000       5.13000000       0.00000000 </v>
   </varray>
   <i name="volume">    270.01139400 </i>
   <varray name="rec_basis" >
    <v>      -0.09746589       0.09746589       0.09746589 </v>
    <v>       0.09746589      -0.09746589       0.09746589 </v>
    <v>       0.09746589       0.09746589      -0.09746589 </v>
   </varray>
  </crystal>
  <varray name="positions" >
   <v>       0.00000000       0.00000000       0.00000000 </v>
   <v>       0.25000000       0.25000000       0.25000000 </v>
  </varray>
 </structure>
 <calculation>
  <scstep>
   <time name="dav">    4.40    2.19</time>
   <time name="total">    4.50    2.24</time>
   <energy>
    <i name="alphaZ">      1.24091711 </i>
    <i name="ewald">   -120.96490647 </i>
    <i name="hartreedc">    -53.44003376 </i>
    <i name="XCdc">    -11.57947515 </i>
    <i name="pawpsdc">      0.00000000 </i>
    <i name="pawaedc">      0.00000000 </i>
    <i name="eentropy">     -0.00876580 </i>
    <i name="bandstr">    -33.30159485 </i>
    <i name="atom">    231.52155534 </i>
    <i name="e_fr_energy">     13.46769642 </i>
    <i name="e_wo_entrp">     13.47646223 </i>
    <i name="e_0_energy">     13.47207932 </i>
   </energy>
  </scstep>
  <scstep>
   <time name="dav">    6.06    2.98</time>
   <time name="total">    6.06    2.98</time>
   <energy>
    <i name="e_fr_energy">     -1.57433713 </i>
    <i name="e_wo_entrp">     -1.54487706 </i>
    <i name="e_0_energy">     -1.55960709 </i>
   </energy>
  </scstep>
  <scstep>
   <time name="dav">    3.68    1.85</time>
   <time name="total">    3.68    1.85</time>
   <energy>
    <i name="e_fr_energy">     -2.39239669 </i>
    <i name="e_wo_entrp">     -2.35389230 </i>
    <i name="e_0_energy">     -2.37314450 </i>
   </energy>
  </scstep>
  <scstep>
   <time name="dav">    3.96    1.99</time>
   <time name="total">    3.97    1.99</time>
   <energy>
    <i name="e_fr_energy">     -2.40921189 </i>
    <i name="e_wo_entrp">     -2.37058172 </i>
    <i name="e_0_energy">     -2.38989681 </i>
   </energy>
  </scstep>
  <scstep>
   <time name="dav">    3.77    1.89</time>
   <time name="total">    4.31    2.16</time>
   <energy>
    <i name="e_fr_energy">     -2.40947743 </i>
    <i name="e_wo_entrp">     -2.37084260 </i>
    <i name="e_0_energy">     -2.39016002 </i>
   </energy>
  </scstep>
  <scstep>
   <time name="dav">    3.24    1.62</time>
   <time name="total">    3.85    1.94</time>
   <energy>
    <i name="e_fr_energy">     -2.37997009 </i>
    <i name="e_wo_entrp">     -2.34014478 </i>
    <i name="e_0_energy">     -2.36005744 </i>
   </energy>
  </scstep>
  <scstep>
   <time name="dav">    5.19    2.73</time>
   <time name="total">    5.72    3.03</time>
   <energy>
    <i name="e_fr_energy">     -2.38186797 </i>
    <i name="e_wo_entrp">     -2.34198467 </i>
    <i name="e_0_energy">     -2.36192632 </i>
   </energy>
  </scstep>
  <scstep>
   <time name="dav">    4.37    2.22</time>
   <time name="total">    4.93    2.52</time>
   <energy>
    <i name="e_fr_energy">     -2.38222217 </i>
    <i name="e_wo_entrp">     -2.34236142 </i>
    <i name="e_0_energy">     -2.36229180 </i>
   </energy>
  </scstep>
  <scstep>
   <time name="dav">    4.13    2.05</time>
   <time name="total">    4.75    2.37</time>
   <energy>
    <i name="e_fr_energy">     -2.38224750 </i>
    <i name="e_wo_entrp">     -2.34238203 </i>
    <i name="e_0_energy">     -2.36231476 </i>
   </energy>
  </scstep>
  <scstep>
   <time name="dav">    2.87    1.44</time>
   <time name="total">    2.97    1.49</time>
   <energy>
    <i name="alphaZ">      1.24091711 </i>
    <i name="ewald">   -120.96490647 </i>
    <i name="hartreedc">    -50.87322866 </i>
    <i name="XCdc">    -11.86584001 </i>
    <i name="pawpsdc">      0.00000000 </i>
    <i name="pawaedc">      0.00000000 </i>
    <i name="eentropy">     -0.03986746 </i>
    <i name="bandstr">    -51.40088162 </i>
    <i name="atom">    231.52155534 </i>
    <i name="e_fr_energy">     -2.38225176 </i>
    <i name="e_wo_entrp">     -2.34238430 </i>
    <i name="e_0_energy">     -2.36231803 </i>
   </energy>
  </scstep>
  <structure>
   <crystal>
    <varray name="basis" >
     <v>       0.00000000       5.13000000       5.13000000 </v>
     <v>       5.13000000       0.00000000       5.13000000 </v>
     <v>       5.13000000       5.13000000       0.00000000 </v>
    </varray>
    <i name="volume">    270.01139400 </i>
    <varray name="rec_basis" >
     <v>      -0.09746589       0.09746589       0.09746589 </v>
     <v>       0.09746589      -0.09746589       0.09746589 </v>
     <v>       0.09746589       0.09746589      -0.09746589 </v>
    </varray>
   </crystal>
   <varray name="positions" >
    <v>       0.00000000       0.00000000       0.00000000 </v>
    <v>       0.25000000       0.25000000       0.25000000 </v>
   </varray>
  </structure>
  <varray name="forces" >
   <v>      -0.00000000      -0.00000000      -0.00000000 </v>
   <v>       0.00000000       0.00000000       0.00000000 </v>
  </varray>
  <varray name="stress" >
   <v>     -19.65695627      -0.00000000      -0.00000000 </v>
   <v>       0.00000000     -19.65695627       0.00000000 </v>
   <v>      -0.00000000       0.00000000     -19.65695627 </v>
  </varray>
  <energy>
   <i name="e_fr_energy">     -2.38225176 </i>
   <i name="e_wo_entrp">     -2.36231803 </i>
   <i name="e_0_energy">     -0.03986746 </i>
  </energy>
  <time name="totalsc">   46.33   23.92</time>
  <eigenvalues>
   <array>
    <dimension dim="1">band</dimension>
    <dimension dim="2">kpoint</dimension>
    <dimension dim="3">spin</dimension>
    <field>eigene</field>
    <field>occ</field>
    <set>
     <set comment="spin 1">
      <set comment="kpoint 1">
       <r>   -9.7911    1.0000 </r>
       <r>   -9.2615    1.0000 </r>
       <r>   -3.0925    0.2246 </r>
       <r>   -3.0925    0.2246 </r>
       <r>   -3.0925    0.2246 </r>
       <r>   -2.4073    0.0000 </r>
       <r>   -2.4073    0.0000 </r>
       <r>   -2.4073    0.0000 </r>
      </set>
      <set comment="kpoint 2">
       <r>   -9.7821    1.0000 </r>
       <r>   -9.2721    1.0000 </r>
       <r>   -3.1098    0.3042 </r>
       <r>   -3.1090    0.3003 </r>
       <r>   -3.1090    0.3003 </r>
       <r>   -2.4010    0.0000 </r>
       <r>   -2.3868    0.0000 </r>
       <r>   -2.3868    0.0000 </r>
      </set>
      <set comment="kpoint 3">
       <r>   -9.7566    1.0000 </r>
       <r>   -9.3015    1.0000 </r>
       <r>   -3.1584    0.5696 </r>
       <r>   -3.1482    0.5122 </r>
       <r>   -3.1482    0.5122 </r>
       <r>   -2.3742    0.0000 </r>
       <r>   -2.3373    0.0000 </r>
       <r>   -2.3373    0.0000 </r>
      </set>
      <set comment="kpoint 4">
       <r>   -9.7197    1.0000 </r>
       <r>   -9.3433    1.0000 </r>
       <r>   -3.2220    0.8586 </r>
       <r>   -3.1906    0.7359 </r>
       <r>   -3.1906    0.7359 </r>
       <r>   -2.3250    0.0000 </r>
       <r>   -2.2826    0.0000 </r>
       <r>   -2.2826    0.0000 </r>
      </set>
      <set comment="kpoint 5">
       <r>   -9.6826    1.0000 </r>
       <r>   -9.3843    1.0000 </r>
       <r>   -3.2740    0.9649 </r>
       <r>   -3.2214    0.8567 </r>
       <r>   -3.2214    0.8567 </r>
       <r>   -2.2753    0.0000 </r>
       <r>   -2.2423    0.0000 </r>
       <r>   -2.2423    0.0000 </r>
      </set>
      <set comment="kpoint 6">
       <r>   -9.6654    1.0000 </r>
       <r>   -9.4030    1.0000 </r>
       <r>   -3.2938    0.9817 </r>
       <r>   -3.2324    0.8892 </r>
       <r>   -3.2324    0.8892 </r>
       <r>   -2.2543    0.0000 </r>
       <r>   -2.2276    0.0000 </r>
       <r>   -2.2276    0.0000 </r>
      </set>
      <set comment="kpoint 7">
       <r>   -9.7791    1.0000 </r>
       <r>   -9.2757    1.0000 </r>
       <r>   -3.1318    0.4200 </r>
       <r>   -3.1318    0.4200 </r>
       <r>   -3.0764    0.1623 </r>
       <r>   -2.4437    0.0000 </r>
       <r>   -2.3598    0.0000 </r>
       <r>   -2.3598    0.0000 </r>
      </set>
      <set comment="kpoint 8">
       <r>   -9.7588    1.0000 </r>
       <r>   -9.2991    1.0000 </r>
       <r>   -3.1821    0.6949 </r>
       <r>   -3.1737    0.6524 </r>
       <r>   -3.0756    0.1598 </r>
       <r>   -2.4586    0.0000 </r>
       <r>   -2.3072    0.0000 </r>
       <r>   -2.3072    0.0000 </r>
      </set>
      <set comment="kpoint 9">
       <r>   -9.7249    1.0000 </r>
       <r>   -9.3375    1.0000 </r>
       <r>   -3.2521    0.9332 </r>
       <r>   -3.2154    0.8367 </r>
       <r>   -3.0968    0.2433 </r>
       <r>   -2.4362    0.0000 </r>
       <r>   -2.2528    0.0000 </r>
       <r>   -2.2433    0.0000 </r>
      </set>
      <set comment="kpoint 10">
       <r>   -9.6860    1.0000 </r>
       <r>   -9.3806    1.0000 </r>
       <r>   -3.3169    0.9922 </r>
       <r>   -3.2429    0.9146 </r>
       <r>   -3.1252    0.3840 </r>
       <r>   -2.3943    0.0000 </r>
       <r>   -2.2155    0.0000 </r>
       <r>   -2.1852    0.0000 </r>
      </set>
      <set comment="kpoint 11">
       <r>   -9.6593    1.0000 </r>
       <r>   -9.4096    1.0000 </r>
       <r>   -3.3539    0.9984 </r>
       <r>   -3.2492    0.9278 </r>
       <r>   -3.1464    0.5021 </r>
       <r>   -2.3609    0.0000 </r>
       <r>   -2.2057    0.0000 </r>
       <r>   -2.1511    0.0000 </r>
      </set>
      <set comment="kpoint 12">
       <r>   -9.6655    1.0000 </r>
       <r>   -9.4028    1.0000 </r>
       <r>   -3.3520    0.9982 </r>
       <r>   -3.2331    0.8911 </r>
       <r>   -3.1520    0.5339 </r>
       <r>   -2.3557    0.0000 </r>
       <r>   -2.2258    0.0000 </r>
       <r>   -2.1513    0.0000 </r>
      </set>
      <set comment="kpoint 13">
       <r>   -9.6991    1.0000 </r>
       <r>   -9.3662    1.0000 </r>
       <r>   -3.3124    0.9907 </r>
       <r>   -3.1985    0.7711 </r>
       <r>   -3.1415    0.4746 </r>
       <r>   -2.3778    0.0000 </r>
       <r>   -2.2704    0.0000 </r>
       <r>   -2.1851    0.0000 </r>
      </set>
      <set comment="kpoint 14">
       <r>   -9.7377    1.0000 </r>
       <r>   -9.3231    1.0000 </r>
       <r>   -3.2462    0.9218 </r>
       <r>   -3.1550    0.5504 </r>
       <r>   -3.1226    0.3703 </r>
       <r>   -2.4054    0.0000 </r>
       <r>   -2.3264    0.0000 </r>
       <r>   -2.2446    0.0000 </r>
      </set>
      <set comment="kpoint 15">
       <r>   -9.7675    1.0000 </r>
       <r>   -9.2890    1.0000 </r>
       <r>   -3.1716    0.6414 </r>
       <r>   -3.1189    0.3506 </r>
       <r>   -3.1086    0.2982 </r>
       <r>   -2.4138    0.0000 </r>
       <r>   -2.3729    0.0000 </r>
       <r>   -2.3186    0.0000 </r>
      </set>
      <set comment="kpoint 16">
       <r>   -9.7438    1.0000 </r>
       <r>   -9.3162    1.0000 </r>
       <r>   -3.2172    0.8430 </r>
       <r>   -3.2172    0.8430 </r>
       <r>   -3.0318    0.0531 </r>
       <r>   -2.5325    0.0000 </r>
       <r>   -2.2522    0.0000 </r>
       <r>   -2.2522    0.0000 </r>
      </set>
      <set comment="kpoint 17">
       <r>   -9.7140    1.0000 </r>
       <r>   -9.3497    1.0000 </r>
       <r>   -3.2756    0.9665 </r>
       <r>   -3.2592    0.9453 </r>
       <r>   -3.0154    0.0324 </r>
       <r>   -2.5579    0.0000 </r>
       <r>   -2.1965    0.0000 </r>
       <r>   -2.1903    0.0000 </r>
      </set>
      <set comment="kpoint 18">
       <r>   -9.6753    1.0000 </r>
       <r>   -9.3922    1.0000 </r>
       <r>   -3.3459    0.9977 </r>
       <r>   -3.2858    0.9760 </r>
       <r>   -3.0169    0.0339 </r>
       <r>   -2.5392    0.0000 </r>
       <r>   -2.1593    0.0000 </r>
       <r>   -2.1316    0.0000 </r>
      </set>
      <set comment="kpoint 19">
       <r>   -9.6413    1.0000 </r>
       <r>   -9.4288    1.0000 </r>
       <r>   -3.4002    0.9998 </r>
       <r>   -3.2902    0.9792 </r>
       <r>   -3.0301    0.0505 </r>
       <r>   -2.5001    0.0000 </r>
       <r>   -2.1514    0.0000 </r>
       <r>   -2.0919    0.0000 </r>
      </set>
      <set comment="kpoint 20">
       <r>   -9.6365    1.0000 </r>
       <r>   -9.4339    1.0000 </r>
       <r>   -3.4188    0.9999 </r>
       <r>   -3.2714    0.9619 </r>
       <r>   -3.0476    0.0819 </r>
       <r>   -2.4668    0.0000 </r>
       <r>   -2.1747    0.0000 </r>
       <r>   -2.0820    0.0000 </r>
      </set>
      <set comment="kpoint 21">
       <r>   -9.6657    1.0000 </r>
       <r>   -9.4026    1.0000 </r>
       <r>   -3.3952    0.9998 </r>
       <r>   -3.2343    0.8941 </r>
       <r>   -3.0669    0.1316 </r>
       <r>   -2.4485    0.0000 </r>
       <r>   -2.2228    0.0000 </r>
       <r>   -2.1053    0.0000 </r>
      </set>
      <set comment="kpoint 22">
       <r>   -9.7049    1.0000 </r>
       <r>   -9.3597    1.0000 </r>
       <r>   -3.3335    0.9960 </r>
       <r>   -3.1897    0.7317 </r>
       <r>   -3.0916    0.2207 </r>
       <r>   -2.4333    0.0000 </r>
       <r>   -2.2808    0.0000 </r>
       <r>   -2.1606    0.0000 </r>
      </set>
      <set comment="kpoint 23">
       <r>   -9.6882    1.0000 </r>
       <r>   -9.3781    1.0000 </r>
       <r>   -3.3025    0.9865 </r>
       <r>   -3.3025    0.9865 </r>
       <r>   -2.9683    0.0060 </r>
       <r>   -2.6369    0.0000 </r>
       <r>   -2.1381    0.0000 </r>
       <r>   -2.1381    0.0000 </r>
      </set>
      <set comment="kpoint 24">
       <r>   -9.6515    1.0000 </r>
       <r>   -9.4179    1.0000 </r>
       <r>   -3.3521    0.9982 </r>
       <r>   -3.3306    0.9955 </r>
       <r>   -2.9395    0.0017 </r>
       <r>   -2.6625    0.0000 </r>
       <r>   -2.0983    0.0000 </r>
       <r>   -2.0893    0.0000 </r>
      </set>
      <set comment="kpoint 25">
       <r>   -9.6131    1.0000 </r>
       <r>   -9.4585    1.0000 </r>
       <r>   -3.4094    0.9999 </r>
       <r>   -3.3360    0.9964 </r>
       <r>   -2.9285    0.0011 </r>
       <r>   -2.6411    0.0000 </r>
       <r>   -2.0890    0.0000 </r>
       <r>   -2.0543    0.0000 </r>
      </set>
      <set comment="kpoint 26">
       <r>   -9.5987    1.0000 </r>
       <r>   -9.4736    1.0000 </r>
       <r>   -3.4449    1.0000 </r>
       <r>   -3.3174    0.9923 </r>
       <r>   -2.9489    0.0027 </r>
       <r>   -2.5861    0.0000 </r>
       <r>   -2.1126    0.0000 </r>
       <r>   -2.0428    0.0000 </r>
      </set>
      <set comment="kpoint 27">
       <r>   -9.6263    1.0000 </r>
       <r>   -9.4447    1.0000 </r>
       <r>   -3.4415    1.0000 </r>
       <r>   -3.2798    0.9708 </r>
       <r>   -2.9980    0.0182 </r>
       <r>   -2.5187    0.0000 </r>
       <r>   -2.1625    0.0000 </r>
       <r>   -2.0589    0.0000 </r>
      </set>
      <set comment="kpoint 28">
       <r>   -9.6171    1.0000 </r>
       <r>   -9.4544    1.0000 </r>
       <r>   -3.3615    0.9988 </r>
       <r>   -3.3615    0.9988 </r>
       <r>   -2.8960    0.0002 </r>
       <r>   -2.7340    0.0000 </r>
       <r>   -2.0546    0.0000 </r>
       <r>   -2.0546    0.0000 </r>
      </set>
      <set comment="kpoint 29">
       <r>   -9.5771    1.0000 </r>
       <r>   -9.4958    1.0000 </r>
       <r>   -3.3939    0.9998 </r>
       <r>   -3.3699    0.9992 </r>
       <r>   -2.8595    0.0000 </r>
       <r>   -2.7560    0.0000 </r>
       <r>   -2.0416    0.0000 </r>
       <r>   -2.0320    0.0000 </r>
      </set>
      <set comment="kpoint 30">
       <r>   -9.5616    1.0000 </r>
       <r>   -9.5116    1.0000 </r>
       <r>   -3.4315    1.0000 </r>
       <r>   -3.3539    0.9984 </r>
       <r>   -2.8763    0.0001 </r>
       <r>   -2.6974    0.0000 </r>
       <r>   -2.0630    0.0000 </r>
       <r>   -2.0272    0.0000 </r>
      </set>
      <set comment="kpoint 31">
       <r>   -9.5367    1.0000 </r>
       <r>   -9.5367    1.0000 </r>
       <r>   -3.3823    0.9996 </r>
       <r>   -3.3823    0.9996 </r>
       <r>   -2.8189    0.0000 </r>
       <r>   -2.8189    0.0000 </r>
       <r>   -2.0241    0.0000 </r>
       <r>   -2.0241    0.0000 </r>
      </set>
      <set comment="kpoint 32">
       <r>   -9.7338    1.0000 </r>
       <r>   -9.3274    1.0000 </r>
       <r>   -3.2560    0.9400 </r>
       <r>   -3.2003    0.7785 </r>
       <r>   -3.0609    0.1143 </r>
       <r>   -2.4851    0.0000 </r>
       <r>   -2.2733    0.0000 </r>
       <r>   -2.2246    0.0000 </r>
      </set>
      <set comment="kpoint 33">
       <r>   -9.6973    1.0000 </r>
       <r>   -9.3681    1.0000 </r>
       <r>   -3.3299    0.9953 </r>
       <r>   -3.2348    0.8953 </r>
       <r>   -3.0592    0.1097 </r>
       <r>   -2.4788    0.0000 </r>
       <r>   -2.2274    0.0000 </r>
       <r>   -2.1568    0.0000 </r>
      </set>
      <set comment="kpoint 34">
       <r>   -9.6595    1.0000 </r>
       <r>   -9.4094    1.0000 </r>
       <r>   -3.3834    0.9996 </r>
       <r>   -3.2632    0.9513 </r>
       <r>   -3.0638    0.1224 </r>
       <r>   -2.4570    0.0000 </r>
       <r>   -2.1898    0.0000 </r>
       <r>   -2.1128    0.0000 </r>
      </set>
      <set comment="kpoint 35">
       <r>   -9.6412    1.0000 </r>
       <r>   -9.4289    1.0000 </r>
       <r>   -3.4029    0.9999 </r>
       <r>   -3.2739    0.9647 </r>
       <r>   -3.0667    0.1308 </r>
       <r>   -2.4455    0.0000 </r>
       <r>   -2.1758    0.0000 </r>
       <r>   -2.0975    0.0000 </r>
      </set>
      <set comment="kpoint 36">
       <r>   -9.6809    1.0000 </r>
       <r>   -9.3862    1.0000 </r>
       <r>   -3.3354    0.9963 </r>
       <r>   -3.2905    0.9795 </r>
       <r>   -2.9849    0.0114 </r>
       <r>   -2.5905    0.0000 </r>
       <r>   -2.1556    0.0000 </r>
       <r>   -2.1256    0.0000 </r>
      </set>
      <set comment="kpoint 37">
       <r>   -9.6415    1.0000 </r>
       <r>   -9.4286    1.0000 </r>
       <r>   -3.3928    0.9998 </r>
       <r>   -3.3155    0.9917 </r>
       <r>   -2.9638    0.0050 </r>
       <r>   -2.5884    0.0000 </r>
       <r>   -2.1255    0.0000 </r>
       <r>   -2.0804    0.0000 </r>
      </set>
      <set comment="kpoint 38">
       <r>   -9.6130    1.0000 </r>
       <r>   -9.4587    1.0000 </r>
       <r>   -3.4299    1.0000 </r>
       <r>   -3.3203    0.9932 </r>
       <r>   -2.9612    0.0045 </r>
       <r>   -2.5653    0.0000 </r>
       <r>   -2.1209    0.0000 </r>
       <r>   -2.0584    0.0000 </r>
      </set>
      <set comment="kpoint 39">
       <r>   -9.6228    1.0000 </r>
       <r>   -9.4484    1.0000 </r>
       <r>   -3.4331    1.0000 </r>
       <r>   -3.3016    0.9861 </r>
       <r>   -2.9796    0.0093 </r>
       <r>   -2.5380    0.0000 </r>
       <r>   -2.1443    0.0000 </r>
       <r>   -2.0619    0.0000 </r>
      </set>
      <set comment="kpoint 40">
       <r>   -9.6596    1.0000 </r>
       <r>   -9.4092    1.0000 </r>
       <r>   -3.3979    0.9998 </r>
       <r>   -3.2672    0.9567 </r>
       <r>   -3.0156    0.0325 </r>
       <r>   -2.5113    0.0000 </r>
       <r>   -2.1858    0.0000 </r>
       <r>   -2.0940    0.0000 </r>
      </set>
      <set comment="kpoint 41">
       <r>   -9.6132    1.0000 </r>
       <r>   -9.4585    1.0000 </r>
       <r>   -3.3842    0.9996 </r>
       <r>   -3.3591    0.9987 </r>
       <r>   -2.8953    0.0002 </r>
       <r>   -2.6975    0.0000 </r>
       <r>   -2.0687    0.0000 </r>
       <r>   -2.0551    0.0000 </r>
      </set>
      <set comment="kpoint 42">
       <r>   -9.5771    1.0000 </r>
       <r>   -9.4959    1.0000 </r>
       <r>   -3.4220    1.0000 </r>
       <r>   -3.3654    0.9990 </r>
       <r>   -2.8662    0.0000 </r>
       <r>   -2.6924    0.0000 </r>
       <r>   -2.0664    0.0000 </r>
       <r>   -2.0384    0.0000 </r>
      </set>
      <set comment="kpoint 43">
       <r>   -9.5840    1.0000 </r>
       <r>   -9.4887    1.0000 </r>
       <r>   -3.4451    1.0000 </r>
       <r>   -3.3421    0.9972 </r>
       <r>   -2.9027    0.0003 </r>
       <r>   -2.6259    0.0000 </r>
       <r>   -2.0960    0.0000 </r>
       <r>   -2.0388    0.0000 </r>
      </set>
      <set comment="kpoint 44">
       <r>   -9.5367    1.0000 </r>
       <r>   -9.5367    1.0000 </r>
       <r>   -3.3923    0.9998 </r>
       <r>   -3.3923    0.9998 </r>
       <r>   -2.7990    0.0000 </r>
       <r>   -2.7990    0.0000 </r>
       <r>   -2.0333    0.0000 </r>
       <r>   -2.0333    0.0000 </r>
      </set>
      <set comment="kpoint 45">
       <r>   -9.6018    1.0000 </r>
       <r>   -9.4704    1.0000 </r>
       <r>   -3.4247    1.0000 </r>
       <r>   -3.3507    0.9981 </r>
       <r>   -2.8986    0.0002 </r>
       <r>   -2.6339    0.0000 </r>
       <r>   -2.0954    0.0000 </r>
       <r>   -2.0513    0.0000 </r>
      </set>
      <set comment="kpoint 46">
       <r>   -9.5770    1.0000 </r>
       <r>   -9.4959    1.0000 </r>
       <r>   -3.4340    1.0000 </r>
       <r>   -3.3679    0.9991 </r>
       <r>   -2.8636    0.0000 </r>
       <r>   -2.6584    0.0000 </r>
       <r>   -2.0815    0.0000 </r>
       <r>   -2.0440    0.0000 </r>
      </set>
      <set comment="kpoint 47">
       <r>   -9.5367    1.0000 </r>
       <r>   -9.5367    1.0000 </r>
       <r>   -3.4075    0.9999 </r>
       <r>   -3.4075    0.9999 </r>
       <r>   -2.7671    0.0000 </r>
       <r>   -2.7671    0.0000 </r>
       <r>   -2.0491    0.0000 </r>
       <r>   -2.0491    0.0000 </r>
      </set>
     </set>
    </set>
   </array>
  </eigenvalues>
  <separator name="orbital magnetization" >
   <v name="MAGDIPOLOUT">      0.00000000      0.00000000      0.00000000</v>
  </separator>
  <dos>
   <i name="efermi">     -3.14602108 </i>
   <total>
    <array>
     <dimension dim="1">gridpoints</dimension>
     <dimension dim="2">spin</dimension>
     <field>energy</field>
     <field>total</field>
     <field>integrated</field>
     <set>
      <set comment="spin 1">
       <r>   -10.7911     0.0000     0.0000 </r>
       <r>   -10.7586     0.0000     0.0000 </r>
       <r>   -10.7260     0.0000     0.0000 </r>
       <r>   -10.6935     0.0000     0.0000 </r>
       <r>   -10.6609     0.0000     0.0000 </r>
       <r>   -10.6284     0.0000     0.0000 </r>
       <r>   -10.5958     0.0000     0.0000 </r>
       <r>   -10.5632     0.0000     0.0000 </r>
       <r>   -10.5307     0.0000     0.0000 </r>
       <r>   -10.4981     0.0000     0.0000 </r>
       <r>   -10.4656     0.0000     0.0000 </r>
       <r>   -10.4330     0.0000     0.0000 </r>
       <r>   -10.4005     0.0000     0.0000 </r>
       <r>   -10.3679     0.0000     0.0000 </r>
       <r>   -10.3353     0.0000     0.0000 </r>
       <r>   -10.3028     0.0000     0.0000 </r>
       <r>   -10.2702     0.0000     0.0000 </r>
       <r>   -10.2377     0.0000     0.0000 </r>
       <r>   -10.2051     0.0000     0.0000 </r>
       <r>   -10.1726     0.0000     0.0000 </r>
       <r>   -10.1400     0.0000     0.0000 </r>
       <r>   -10.1075     0.0000     0.0000 </r>
       <r>   -10.0749     0.0000     0.0000 </r>
       <r>   -10.0423     0.0002     0.0000 </r>
       <r>   -10.0098     0.0012     0.0000 </r>
       <r>    -9.9772     0.0061     0.0002 </r>
       <r>    -9.9447     0.0252     0.0011 </r>
       <r>    -9.9121     0.0867     0.0039 </r>
       <r>    -9.8796     0.2521     0.0121 </r>
       <r>    -9.8470     0.6245     0.0324 </r>
       <r>    -9.8144     1.3315     0.0758 </r>
       <r>    -9.7819     2.4716     0.1562 </r>
       <r>    -9.7493     4.0351     0.2876 </r>
       <r>    -9.7168     5.8406     0.4778 </r>
       <r>    -9.6842     7.5359     0.7231 </r>
       <r>    -9.6517     8.7092     1.0067 </r>
       <r>    -9.6191     9.0993     1.3029 </r>
       <r>    -9.5865     8.7884     1.5890 </r>
       <r>    -9.5540     8.2035     1.8561 </r>
       <r>    -9.5214     7.8619     2.1121 </r>
       <r>    -9.4889     8.0196     2.3732 </r>
       <r>    -9.4563     8.4975     2.6498 </r>
       <r>    -9.4238     8.8232     2.9371 </r>
       <r>    -9.3912     8.5649     3.2159 </r>
       <r>    -9.3586     7.5900     3.4630 </r>
       <r>    -9.3261     6.0885     3.6613 </r>
       <r>    -9.2935     4.4089     3.8048 </r>
       <r>    -9.2610     2.8718     3.8983 </r>
       <r>    -9.2284     1.6702     3.9527 </r>
       <r>    -9.1959     0.8576     3.9806 </r>
       <r>    -9.1633     0.3836     3.9931 </r>
       <r>    -9.1307     0.1475     3.9979 </r>
       <r>    -9.0982     0.0482     3.9994 </r>
       <r>    -9.0656     0.0133     3.9999 </r>
       <r>    -9.0331     0.0031     4.0000 </r>
       <r>    -9.0005     0.0006     4.0000 </r>
       <r>    -8.9680     0.0001     4.0000 </r>
       <r>    -8.9354     0.0000     4.0000 </r>
       <r>    -8.9028     0.0000     4.0000 </r>
       <r>    -8.8703     0.0000     4.0000 </r>
       <r>    -8.8377     0.0000     4.0000 </r>
       <r>    -8.8052     0.0000     4.0000 </r>
       <r>    -8.7726     0.0000     4.0000 </r>
       <r>    -8.7401     0.0000     4.0000 </r>
       <r>    -8.7075     0.0000     4.0000 </r>
       <r>    -8.6749     0.0000     4.0000 </r>
       <r>    -8.6424     0.0000     4.0000 </r>
       <r>    -8.6098     0.0000     4.0000 </r>
       <r>    -8.5773     0.0000     4.0000 </r>
       <r>    -8.5447     0.0000     4.0000 </r>
       <r>    -8.5122     0.0000     4.0000 </r>
       <r>    -8.4796     0.0000     4.0000 </r>
       <r>    -8.4471     0.0000     4.0000 </r>
       <r>    -8.4145     0.0000     4.0000 </r>
       <r>    -8.3819     0.0000     4.0000 </r>
       <r>    -8.3494     0.0000     4.0000 </r>
       <r>    -8.3168     0.0000     4.0000 </r>
       <r>    -8.2843     0.0000     4.0000 </r>
       <r>    -8.2517     0.0000     4.0000 </r>
       <r>    -8.2192     0.0000     4.0000 </r>
       <r>    -8.1866     0.0000     4.0000 </r>
       <r>    -8.1540     0.0000     4.0000 </r>
       <r>    -8.1215     0.0000     4.0000 </r>
       <r>    -8.0889     0.0000     4.0000 </r>
       <r>    -8.0564     0.0000     4.0000 </r>
       <r>    -8.0238     0.0000     4.0000 </r>
       <r>    -7.9913     0.0000     4.0000 </r>
       <r>    -7.9587     0.0000     4.0000 </r>
       <r>    -7.9261     0.0000     4.0000 </r>
       <r>    -7.8936     0.0000     4.0000 </r>
       <r>    -7.8610     0.0000     4.0000 </r>
       <r>    -7.8285     0.0000     4.0000 </r>
       <r>    -7.7959     0.0000     4.0000 </r>
       <r>    -7.7634     0.0000     4.0000 </r>
       <r>    -7.7308     0.0000     4.0000 </r>
       <r>    -7.6982     0.0000     4.0000 </r>
       <r>    -7.6657     0.0000     4.0000 </r>
       <r>    -7.6331     0.0000     4.0000 </r>
       <r>    -7.6006     0.0000     4.0000 </r>
       <r>    -7.5680     0.0000     4.0000 </r>
       <r>    -7.5355     0.0000     4.0000 </r>
       <r>    -7.5029     0.0000     4.0000 </r>
       <r>    -7.4703     0.0000     4.0000 </r>
       <r>    -7.4378     0.0000     4.0000 </r>
       <r>    -7.4052     0.0000     4.0000 </r>
       <r>    -7.3727     0.0000     4.0000 </r>
       <r>    -7.3401     0.0000     4.0000 </r>
       <r>    -7.3076     0.0000     4.0000 </r>
       <r>    -7.2750     0.0000     4.0000 </r>
       <r>    -7.2424     0.0000     4.0000 </r>
       <r>    -7.2099     0.0000     4.0000 </r>
       <r>    -7.1773     0.0000     4.0000 </r>
       <r>    -7.1448     0.0000     4.0000 </r>
       <r>    -7.1122     0.0000     4.0000 </r>
       <r>    -7.0797     0.0000     4.0000 </r>
       <r>    -7.0471     0.0000     4.0000 </r>
       <r>    -7.0145     0.0000     4.0000 </r>
       <r>    -6.9820     0.0000     4.0000 </r>
       <r>    -6.9494     0.0000     4.0000 </r>
       <r>    -6.9169     0.0000     4.0000 </r>
       <r>    -6.8843     0.0000     4.0000 </r>
       <r>    -6.8518     0.0000     4.0000 </r>
       <r>    -6.8192     0.0000     4.0000 </r>
       <r>    -6.7866     0.0000     4.0000 </r>
       <r>    -6.7541     0.0000     4.0000 </r>
       <r>    -6.7215     0.0000     4.0000 </r>
       <r>    -6.6890     0.0000     4.0000 </r>
       <r>    -6.6564     0.0000     4.0000 </r>
       <r>    -6.6239     0.0000     4.0000 </r>
       <r>    -6.5913     0.0000     4.0000 </r>
       <r>    -6.5588     0.0000     4.0000 </r>
       <r>    -6.5262     0.0000     4.0000 </r>
       <r>    -6.4936     0.0000     4.0000 </r>
       <r>    -6.4611     0.0000     4.0000 </r>
       <r>    -6.4285     0.0000     4.0000 </r>
       <r>    -6.3960     0.0000     4.0000 </r>
       <r>    -6.3634     0.0000     4.0000 </r>
       <r>    -6.3309     0.0000     4.0000 </r>
       <r>    -6.2983     0.0000     4.0000 </r>
       <r>    -6.2657     0.0000     4.0000 </r>
       <r>    -6.2332     0.0000     4.0000 </r>
       <r>    -6.2006     0.0000     4.0000 </r>
       <r>    -6.1681     0.0000     4.0000 </r>
       <r>    -6.1355     0.0000     4.0000 </r>
       <r>    -6.1030     0.0000     4.0000 </r>
       <r>    -6.0704     0.0000     4.0000 </r>
       <r>    -6.0378     0.0000     4.0000 </r>
       <r>    -6.0053     0.0000     4.0000 </r>
       <r>    -5.9727     0.0000     4.0000 </r>
       <r>    -5.9402     0.0000     4.0000 </r>
       <r>    -5.9076     0.0000     4.0000 </r>
       <r>    -5.8751     0.0000     4.0000 </r>
       <r>    -5.8425     0.0000     4.0000 </r>
       <r>    -5.8099     0.0000     4.0000 </r>
       <r>    -5.7774     0.0000     4.0000 </r>
       <r>    -5.7448     0.0000     4.0000 </r>
       <r>    -5.7123     0.0000     4.0000 </r>
       <r>    -5.6797     0.0000     4.0000 </r>
       <r>    -5.6472     0.0000     4.0000 </r>
       <r>    -5.6146     0.0000     4.0000 </r>
       <r>    -5.5820     0.0000     4.0000 </r>
       <r>    -5.5495     0.0000     4.0000 </r>
       <r>    -5.5169     0.0000     4.0000 </r>
       <r>    -5.4844     0.0000     4.0000 </r>
       <r>    -5.4518     0.0000     4.0000 </r>
       <r>    -5.4193     0.0000     4.0000 </r>
       <r>    -5.3867     0.0000     4.0000 </r>
       <r>    -5.3541     0.0000     4.0000 </r>
       <r>    -5.3216     0.0000     4.0000 </r>
       <r>    -5.2890     0.0000     4.0000 </r>
       <r>    -5.2565     0.0000     4.0000 </r>
       <r>    -5.2239     0.0000     4.0000 </r>
       <r>    -5.1914     0.0000     4.0000 </r>
       <r>    -5.1588     0.0000     4.0000 </r>
       <r>    -5.1262     0.0000     4.0000 </r>
       <r>    -5.0937     0.0000     4.0000 </r>
       <r>    -5.0611     0.0000     4.0000 </r>
       <r>    -5.0286     0.0000     4.0000 </r>
       <r>    -4.9960     0.0000     4.0000 </r>
       <r>    -4.9635     0.0000     4.0000 </r>
       <r>    -4.9309     0.0000     4.0000 </r>
       <r>    -4.8984     0.0000     4.0000 </r>
       <r>    -4.8658     0.0000     4.0000 </r>
       <r>    -4.8332     0.0000     4.0000 </r>
       <r>    -4.8007     0.0000     4.0000 </r>
       <r>    -4.7681     0.0000     4.0000 </r>
       <r>    -4.7356     0.0000     4.0000 </r>
       <r>    -4.7030     0.0000     4.0000 </r>
       <r>    -4.6705     0.0000     4.0000 </r>
       <r>    -4.6379     0.0000     4.0000 </r>
       <r>    -4.6053     0.0000     4.0000 </r>
       <r>    -4.5728     0.0000     4.0000 </r>
       <r>    -4.5402     0.0000     4.0000 </r>
       <r>    -4.5077     0.0000     4.0000 </r>
       <r>    -4.4751     0.0000     4.0000 </r>
       <r>    -4.4426     0.0000     4.0000 </r>
       <r>    -4.4100     0.0000     4.0000 </r>
       <r>    -4.3774     0.0000     4.0000 </r>
       <r>    -4.3449     0.0000     4.0000 </r>
       <r>    -4.3123     0.0000     4.0000 </r>
       <r>    -4.2798     0.0000     4.0000 </r>
       <r>    -4.2472     0.0000     4.0000 </r>
       <r>    -4.2147     0.0000     4.0000 </r>
       <r>    -4.1821     0.0000     4.0000 </r>
       <r>    -4.1495     0.0000     4.0000 </r>
       <r>    -4.1170     0.0000     4.0000 </r>
       <r>    -4.0844     0.0000     4.0000 </r>
       <r>    -4.0519     0.0000     4.0000 </r>
       <r>    -4.0193     0.0000     4.0000 </r>
       <r>    -3.9868     0.0000     4.0000 </r>
       <r>    -3.9542     0.0000     4.0000 </r>
       <r>    -3.9216     0.0000     4.0000 </r>
       <r>    -3.8891     0.0000     4.0000 </r>
       <r>    -3.8565     0.0000     4.0000 </r>
       <r>    -3.8240     0.0000     4.0000 </r>
       <r>    -3.7914     0.0000     4.0000 </r>
       <r>    -3.7589     0.0000     4.0000 </r>
       <r>    -3.7263     0.0003     4.0000 </r>
       <r>    -3.6937     0.0020     4.0001 </r>
       <r>    -3.6612     0.0106     4.0004 </r>
       <r>    -3.6286     0.0475     4.0020 </r>
       <r>    -3.5961     0.1754     4.0077 </r>
       <r>    -3.5635     0.5362     4.0251 </r>
       <r>    -3.5310     1.3640     4.0695 </r>
       <r>    -3.4984     2.9091     4.1643 </r>
       <r>    -3.4658     5.2514     4.3352 </r>
       <r>    -3.4333     8.1246     4.5997 </r>
       <r>    -3.4007    10.9455     4.9561 </r>
       <r>    -3.3682    13.0864     5.3821 </r>
       <r>    -3.3356    14.1773     5.8437 </r>
       <r>    -3.3031    14.2019     6.3061 </r>
       <r>    -3.2705    13.3869     6.7419 </r>
       <r>    -3.2379    12.0564     7.1344 </r>
       <r>    -3.2054    10.5564     7.4781 </r>
       <r>    -3.1728     9.2066     7.7778 </r>
       <r>    -3.1403     8.2201     8.0455 </r>
       <r>    -3.1077     7.6311     8.2939 </r>
       <r>    -3.0752     7.3115     8.5320 </r>
       <r>    -3.0426     7.0752     8.7623 </r>
       <r>    -3.0101     6.7850     8.9832 </r>
       <r>    -2.9775     6.3852     9.1911 </r>
       <r>    -2.9449     5.8676     9.3821 </r>
       <r>    -2.9124     5.2378     9.5526 </r>
       <r>    -2.8798     4.5182     9.6997 </r>
       <r>    -2.8473     3.7729     9.8226 </r>
       <r>    -2.8147     3.1167     9.9240 </r>
       <r>    -2.7822     2.6830    10.0114 </r>
       <r>    -2.7496     2.5596    10.0947 </r>
       <r>    -2.7170     2.7430    10.1840 </r>
       <r>    -2.6845     3.1485    10.2865 </r>
       <r>    -2.6519     3.6622    10.4058 </r>
       <r>    -2.6194     4.1923    10.5423 </r>
       <r>    -2.5868     4.6850    10.6948 </r>
       <r>    -2.5543     5.1137    10.8613 </r>
       <r>    -2.5217     5.4605    11.0390 </r>
       <r>    -2.4891     5.6994    11.2246 </r>
       <r>    -2.4566     5.7942    11.4132 </r>
       <r>    -2.4240     5.7326    11.5999 </r>
       <r>    -2.3915     5.5794    11.7815 </r>
       <r>    -2.3589     5.4911    11.9603 </r>
       <r>    -2.3264     5.6709    12.1449 </r>
       <r>    -2.2938     6.2895    12.3497 </r>
       <r>    -2.2612     7.4123    12.5910 </r>
       <r>    -2.2287     8.9638    12.8828 </r>
       <r>    -2.1961    10.7470    13.2327 </r>
       <r>    -2.1636    12.4838    13.6392 </r>
       <r>    -2.1310    13.8217    14.0892 </r>
       <r>    -2.0985    14.3303    14.5557 </r>
       <r>    -2.0659    13.6129    14.9989 </r>
       <r>    -2.0333    11.5702    15.3756 </r>
       <r>    -2.0008     8.6073    15.6558 </r>
       <r>    -1.9682     5.5037    15.8350 </r>
       <r>    -1.9357     2.9832    15.9321 </r>
       <r>    -1.9031     1.3568    15.9763 </r>
       <r>    -1.8706     0.5140    15.9930 </r>
       <r>    -1.8380     0.1613    15.9983 </r>
       <r>    -1.8054     0.0418    15.9997 </r>
       <r>    -1.7729     0.0089    15.9999 </r>
       <r>    -1.7403     0.0016    16.0000 </r>
       <r>    -1.7078     0.0002    16.0000 </r>
       <r>    -1.6752     0.0000    16.0000 </r>
       <r>    -1.6427     0.0000    16.0000 </r>
       <r>    -1.6101     0.0000    16.0000 </r>
       <r>    -1.5775     0.0000    16.0000 </r>
       <r>    -1.5450     0.0000    16.0000 </r>
       <r>    -1.5124     0.0000    16.0000 </r>
       <r>    -1.4799     0.0000    16.0000 </r>
       <r>    -1.4473     0.0000    16.0000 </r>
       <r>    -1.4148     0.0000    16.0000 </r>
       <r>    -1.3822     0.0000    16.0000 </r>
       <r>    -1.3497     0.0000    16.0000 </r>
       <r>    -1.3171     0.0000    16.0000 </r>
       <r>    -1.2845     0.0000    16.0000 </r>
       <r>    -1.2520     0.0000    16.0000 </r>
       <r>    -1.2194     0.0000    16.0000 </r>
       <r>    -1.1869     0.0000    16.0000 </r>
       <r>    -1.1543     0.0000    16.0000 </r>
       <r>    -1.1218     0.0000    16.0000 </r>
       <r>    -1.0892     0.0000    16.0000 </r>
       <r>    -1.0566     0.0000    16.0000 </r>
       <r>    -1.0241     0.0000    16.0000 </r>
      </set>
     </set>
    </array>
   </total>
  </dos>
 </calculation>
 <structure name="finalpos" >
  <crystal>
   <varray name="basis" >
    <v>       0.00000000       5.13000000       5.13000000 </v>
    <v>       5.13000000       0.00000000       5.13000000 </v>
    <v>       5.13000000       5.13000000       0.00000000 </v>
   </varray>
   <i name="volume">    270.01139400 </i>
   <varray name="rec_basis" >
    <v>      -0.09746589       0.09746589       0.09746589 </v>
    <v>       0.09746589      -0.09746589       0.09746589 </v>
    <v>       0.09746589       0.09746589      -0.09746589 </v>
   </varray>
  </crystal>
  <varray name="positions" >
   <v>       0.00000000       0.00000000       0.00000000 </v>
   <v>       0.25000000       0.25000000       0.25000000 </v>
  </varray>
 </structure>
</modeling>
