Si diamante                             
           1
     0.000000    5.130000    5.130000
     5.130000    0.000000    5.130000
     5.130000    5.130000    0.000000
   Si
   2
Direct configuration=     1
   0.00000000  0.00000000  0.00000000
   0.25000000  0.25000000  0.25000000
