Fe BCC                                  
   2.78000000000000     
    -0.500000    0.500000    0.500000
     0.500000   -0.500000    0.500000
     0.500000    0.500000   -0.500000
   Fe
     1
Direct
  0.000000  0.000000  0.000000
 
   32   32   32
  90.532      88.510      82.731      73.973      63.313      51.885      40.696      30.522      21.890      15.095    
  10.214      7.1103      5.4349      4.6803      4.2956      4.0543      3.9720      4.0543      4.2956      4.6803    
  5.4349      7.1103      10.214      15.095      21.890      30.522      40.696      51.885      63.313      73.973    
  82.731      88.510      88.510      87.843      83.337      75.611      65.650      54.573      43.425      33.051    
  24.049      16.783      11.401      7.8314      5.7947      4.8300      4.3833      4.0964      3.9617      3.9889    
  4.1762      4.5085      5.0665      6.3296      8.8344      12.988      19.004      26.877      36.391      47.105    
  58.336      69.164      78.500      85.244      82.731      83.337      80.232      73.850      65.028      54.805    
  44.211      34.120      25.179      17.806      12.205      8.3686      6.0823      4.9437      4.4311      4.1105    
  3.9309      3.9052      4.0350      4.3121      4.7335      5.6047      7.4605      10.754      15.769      22.582    
  31.057      40.845      51.370      61.828      71.224      78.500      73.973      75.611      73.850      68.939    
  61.538      52.556      42.954      33.588      25.122      18.009      12.494      8.6215      6.2362      4.9980    
  4.4346      4.0935      3.8799      3.8084      3.8822      4.0985      4.4429      5.0114      6.2596      8.6646    
  12.571      18.134      25.306      33.832      43.246      52.867      61.828      69.164      63.313      65.650    
  65.028      61.538      55.662      48.146      39.841      31.543      23.899      17.370      12.223      8.5405    
  6.2177      4.9737      4.3930      4.0444      3.8097      3.7028      3.7273      3.8831      4.1649      4.5666    
  5.3317      6.9238      9.7301      13.981      19.716      26.776      34.804      43.246      51.370      58.336    
  51.885      54.573      54.805      52.556      48.146      42.156      35.300      28.282      21.700      15.995    
  11.441      8.1389      6.0232      4.8654      4.3080      3.9647      3.7220      3.5922      3.5777      3.6789    
  3.8960      4.2219      4.6905      5.6373      7.4641      10.460      14.750      20.271      26.776      33.832    
  40.845      47.105      40.696      43.425      44.211      42.954      39.841      35.300      29.901      24.238    
  18.836      14.097      10.278      7.4879      5.6853      4.6853      4.1857      3.8586      3.6200      3.4798    
  3.4384      3.4952      3.6524      3.9110      4.2630      4.7970      5.8576      7.7664      10.719      14.750    
  19.716      25.306      31.057      36.391      30.522      33.051      34.120      33.588      31.543      28.282    
  24.238      19.889      15.673      11.938      8.9120      6.6960      5.2622      4.4599      4.0358      3.7325    
  3.5079      3.3685      3.3122      3.3368      3.4440      3.6385      3.9223      4.2888      4.8593      5.9378    
  7.7664      10.460      13.981      18.134      22.582      26.877      21.890      24.049      25.179      25.122    
  23.899      21.700      18.836      15.673      12.561      9.7823      7.5278      5.8817      4.8209      4.2199    
  3.8683      3.5943      3.3910      3.2610      3.2003      3.2048      3.2746      3.4147      3.6318      3.9280    
  4.2979      4.8593      5.8576      7.4641      9.7301      12.571      15.769      19.004      15.095      16.783    
  17.806      18.009      17.370      15.995      14.097      11.938      9.7823      7.8479      6.2817      5.1465    
  4.4182      3.9893      3.6932      3.4525      3.2750      3.1603      3.1030      3.0977      3.1427      3.2414    
  3.4014      3.6297      3.9280      4.2888      4.7970      5.6373      6.9238      8.6646      10.754      12.988    
  10.214      11.401      12.205      12.494      12.223      11.441      10.278      8.9120      7.5278      6.2817    
  5.2778      4.5554      4.0857      3.7750      3.5202      3.3151      3.1655      3.0693      3.0205      3.0130    
  3.0438      3.1146      3.2311      3.4014      3.6318      3.9223      4.2630      4.6905      5.3317      6.2596    
  7.4605      8.8344      7.1103      7.8314      8.3686      8.6215      8.5405      8.1389      7.4879      6.6960    
  5.8817      5.1465      4.5554      4.1252      3.8211      3.5715      3.3578      3.1889      3.0674      2.9905    
  2.9526      2.9480      2.9729      3.0272      3.1146      3.2414      3.4147      3.6385      3.9110      4.2219    
  4.5666      5.0114      5.6047      6.3296      5.4349      5.7947      6.0823      6.2362      6.2177      6.0232    
  5.6853      5.2622      4.8209      4.4182      4.0857      3.8211      3.5906      3.3849      3.2127      3.0789    
  2.9843      2.9263      2.9002      2.9012      2.9259      2.9729      3.0438      3.1427      3.2746      3.4440    
  3.6524      3.8960      4.1649      4.4429      4.7335      5.0665      4.6803      4.8300      4.9437      4.9980    
  4.9737      4.8654      4.6853      4.4599      4.2199      3.9893      3.7750      3.5715      3.3849      3.2226    
  3.0896      2.9883      2.9186      2.8783      2.8641      2.8727      2.9012      2.9480      3.0130      3.0977    
  3.2048      3.3368      3.4952      3.6789      3.8831      4.0985      4.3121      4.5085      4.2956      4.3833    
  4.4311      4.4346      4.3930      4.3080      4.1857      4.0358      3.8683      3.6932      3.5202      3.3578    
  3.2127      3.0896      2.9913      2.9187      2.8714      2.8478      2.8460      2.8641      2.9002      2.9526    
  3.0205      3.1030      3.2003      3.3122      3.4384      3.5777      3.7273      3.8822      4.0350      4.1762    
  4.0543      4.0964      4.1105      4.0935      4.0444      3.9647      3.8586      3.7325      3.5943      3.4525    
  3.3151      3.1889      3.0789      2.9883      2.9187      2.8705      2.8431      2.8358      2.8478      2.8783    
  2.9263      2.9905      3.0693      3.1603      3.2610      3.3685      3.4798      3.5922      3.7028      3.8084    
  3.9052      3.9889      3.9720      3.9617      3.9309      3.8799      3.8097      3.7220      3.6200      3.5079    
  3.3910      3.2750      3.1655      3.0674      2.9843      2.9186      2.8714      2.8431      2.8337      2.8431    
  2.8714      2.9186      2.9843      3.0674      3.1655      3.2750      3.3910      3.5079      3.6200      3.7220    
  3.8097      3.8799      3.9309      3.9617      4.0543      3.9889      3.9052      3.8084      3.7028      3.5922    
  3.4798      3.3685      3.2610      3.1603      3.0693      2.9905      2.9263      2.8783      2.8478      2.8358    
  2.8431      2.8705      2.9187      2.9883      3.0789      3.1889      3.3151      3.4525      3.5943      3.7325    
  3.8586      3.9647      4.0444      4.0935      4.1105      4.0964      4.2956      4.1762      4.0350      3.8822    
  3.7273      3.5777      3.4384      3.3122      3.2003      3.1030      3.0205      2.9526      2.9002      2.8641    
  2.8460      2.8478      2.8714      2.9187      2.9913      3.0896      3.2127      3.3578      3.5202      3.6932    
  3.8683      4.0358      4.1857      4.3080      4.3930      4.4346      4.4311      4.3833      4.6803      4.5085    
  4.3121      4.0985      3.8831      3.6789      3.4952      3.3368      3.2048      3.0977      3.0130      2.9480    
  2.9012      2.8727      2.8641      2.8783      2.9186      2.9883      3.0896      3.2226      3.3849      3.5715    
  3.7750      3.9893      4.2199      4.4599      4.6853      4.8654      4.9737      4.9980      4.9437      4.8300    
  5.4349      5.0665      4.7335      4.4429      4.1649      3.8960      3.6524      3.4440      3.2746      3.1427    
  3.0438      2.9729      2.9259      2.9012      2.9002      2.9263      2.9843      3.0789      3.2127      3.3849    
  3.5906      3.8211      4.0857      4.4182      4.8209      5.2622      5.6853      6.0232      6.2177      6.2362    
  6.0823      5.7947      7.1103      6.3296      5.6047      5.0114      4.5666      4.2219      3.9110      3.6385    
  3.4147      3.2414      3.1146      3.0272      2.9729      2.9480      2.9526      2.9905      3.0674      3.1889    
  3.3578      3.5715      3.8211      4.1252      4.5554      5.1465      5.8817      6.6960      7.4879      8.1389    
  8.5405      8.6215      8.3686      7.8314      10.214      8.8344      7.4605      6.2596      5.3317      4.6905    
  4.2630      3.9223      3.6318      3.4014      3.2311      3.1146      3.0438      3.0130      3.0205      3.0693    
  3.1655      3.3151      3.5202      3.7750      4.0857      4.5554      5.2778      6.2817      7.5278      8.9120    
  10.278      11.441      12.223      12.494      12.205      11.401      15.095      12.988      10.754      8.6646    
  6.9238      5.6373      4.7970      4.2888      3.9280      3.6297      3.4014      3.2414      3.1427      3.0977    
  3.1030      3.1603      3.2750      3.4525      3.6932      3.9893      4.4182      5.1465      6.2817      7.8479    
  9.7823      11.938      14.097      15.995      17.370      18.009      17.806      16.783      21.890      19.004    
  15.769      12.571      9.7301      7.4641      5.8576      4.8593      4.2979      3.9280      3.6318      3.4147    
  3.2746      3.2048      3.2003      3.2610      3.3910      3.5943      3.8683      4.2199      4.8209      5.8817    
  7.5278      9.7823      12.561      15.673      18.836      21.700      23.899      25.122      25.179      24.049    
  30.522      26.877      22.582      18.134      13.981      10.460      7.7664      5.9378      4.8593      4.2888    
  3.9223      3.6385      3.4440      3.3368      3.3122      3.3685      3.5079      3.7325      4.0358      4.4599    
  5.2622      6.6960      8.9120      11.938      15.673      19.889      24.238      28.282      31.543      33.588    
  34.120      33.051      40.696      36.391      31.057      25.306      19.716      14.750      10.719      7.7664    
  5.8576      4.7970      4.2630      3.9110      3.6524      3.4952      3.4384      3.4798      3.6200      3.8586    
  4.1857      4.6853      5.6853      7.4879      10.278      14.097      18.836      24.238      29.901      35.300    
  39.841      42.954      44.211      43.425      51.885      47.105      40.845      33.832      26.776      20.271    
  14.750      10.460      7.4641      5.6373      4.6905      4.2219      3.8960      3.6789      3.5777      3.5922    
  3.7220      3.9647      4.3080      4.8654      6.0232      8.1389      11.441      15.995      21.700      28.282    
  35.300      42.156      48.146      52.556      54.805      54.573      63.313      58.336      51.370      43.246    
  34.804      26.776      19.716      13.981      9.7301      6.9238      5.3317      4.5666      4.1649      3.8831    
  3.7273      3.7028      3.8097      4.0444      4.3930      4.9737      6.2177      8.5405      12.223      17.370    
  23.899      31.543      39.841      48.146      55.662      61.538      65.028      65.650      73.973      69.164    
  61.828      52.867      43.246      33.832      25.306      18.134      12.571      8.6646      6.2596      5.0114    
  4.4429      4.0985      3.8822      3.8084      3.8799      4.0935      4.4346      4.9980      6.2362      8.6215    
  12.494      18.009      25.122      33.588      42.954      52.556      61.538      68.939      73.850      75.611    
  82.731      78.500      71.224      61.828      51.370      40.845      31.057      22.582      15.769      10.754    
  7.4605      5.6047      4.7335      4.3121      4.0350      3.9052      3.9309      4.1105      4.4311      4.9437    
  6.0823      8.3686      12.205      17.806      25.179      34.120      44.211      54.805      65.028      73.850    
  80.232      83.337      88.510      85.244      78.500      69.164      58.336      47.105      36.391      26.877    
  19.004      12.988      8.8344      6.3296      5.0665      4.5085      4.1762      3.9889      3.9617      4.0964    
  4.3833      4.8300      5.7947      7.8314      11.401      16.783      24.049      33.051      43.425      54.573    
  65.650      75.611      83.337      87.843      88.510      87.843      83.337      75.611      65.650      54.573    
  43.425      33.051      24.049      16.783      11.401      7.8314      5.7947      4.8300      4.3833      4.0964    
  3.9617      3.9889      4.1762      4.5085      5.0665      6.3296      8.8344      12.988      19.004      26.877    
  36.391      47.105      58.336      69.164      78.500      85.244      87.843      88.510      85.244      78.500    
  69.164      58.336      47.105      36.391      26.877      19.004      12.988      8.8344      6.3296      5.0665    
  4.5085      4.1762      3.9889      3.9617      4.0964      4.3833      4.8300      5.7947      7.8314      11.401    
  16.783      24.049      33.051      43.425      54.573      65.650      75.611      83.337      83.337      85.244    
  83.337      77.884      69.619      59.556      48.771      38.217      28.635      20.527      14.176      9.6467    
  6.7962      5.2778      4.5949      4.2262      3.9939      3.9149      3.9939      4.2262      4.5949      5.2778    
  6.7962      9.6467      14.176      20.527      28.635      38.217      48.771      59.556      69.619      77.884    
  75.611      78.500      77.884      73.850      66.953      58.068      48.197      38.279      29.076      21.133    
  14.777      10.129      7.1055      5.4235      4.6393      4.2407      3.9747      3.8510      3.8763      4.0497    
  4.3604      4.8371      5.8674      7.9602      11.514      16.750      23.681      32.115      41.648      51.657    
  61.307      69.619      65.650      69.164      69.619      66.953      61.538      54.086      45.474      36.580    
  28.149      20.737      14.699      10.195      7.1927      5.4670      4.6332      4.2171      3.9302      3.7724    
  3.7509      3.8666      4.1157      4.4838      5.1318      6.5252      9.0955      13.129      18.724      25.779    
  33.990      42.850      51.657      59.556      54.573      58.336      59.556      58.068      54.086      48.146    
  40.982      33.369      25.998      19.409      13.960      9.8349      7.0355      5.3897      4.5707      4.1554    
  3.8611      3.6816      3.6236      3.6880      3.8747      4.1778      4.6047      5.4437      7.1281      9.9946    
  14.220      19.793      26.514      33.990      41.648      48.771      43.425      47.105      48.771      48.197    
  45.474      40.982      35.300      29.080      22.934      17.354      12.685      9.1116      6.6604      5.1989    
  4.4541      4.0593      3.7698      3.5814      3.4989      3.5221      3.6520      3.8892      4.2265      4.7191    
  5.7070      7.5503      10.490      14.604      19.793      25.779      32.115      38.217      33.051      36.391    
  38.217      38.279      36.580      33.369      29.080      24.238      19.355      14.862      11.068      8.1465    
  6.1334      4.9253      4.2957      3.9351      3.6605      3.4747      3.3799      3.3739      3.4570      3.6326    
  3.9025      4.2591      4.8034      5.8577      7.7018      10.490      14.220      18.724      23.681      28.635    
  24.049      26.877      28.635      29.076      28.149      25.998      22.934      19.355      15.673      12.245    
  9.3323      7.0869      5.5416      4.6132      4.1134      3.7911      3.5393      3.3654      3.2688      3.2456    
  3.2942      3.4179      3.6226      3.9108      4.2762      4.8347      5.8577      7.5503      9.9946      13.129    
  16.750      20.527      16.783      19.004      20.527      21.133      20.737      19.409      17.354      14.862    
  12.245      9.7823      7.6849      6.0728      4.9703      4.3061      3.9228      3.6368      3.4130      3.2574    
  3.1673      3.1370      3.1632      3.2478      3.3971      3.6183      3.9135      4.2762      4.8034      5.7070    
  7.1281      9.0955      11.514      14.176      11.401      12.988      14.176      14.777      14.699      13.960    
  12.685      11.068      9.3323      7.6849      6.2817      5.2105      4.4825      4.0328      3.7307      3.4813    
  3.2886      3.1553      3.0769      3.0470      3.0612      3.1195      3.2267      3.3906      3.6183      3.9108    
  4.2591      4.7191      5.4437      6.5252      7.9602      9.6467      7.8314      8.8344      9.6467      10.129    
  10.195      9.8349      9.1116      8.1465      7.0869      6.0728      5.2105      4.5554      4.1048      3.7970    
  3.5437      3.3330      3.1727      3.0628      2.9988      2.9743      2.9843      3.0272      3.1059      3.2267    
  3.3971      3.6226      3.9025      4.2265      4.6047      5.1318      5.8674      6.7962      5.7947      6.3296    
  6.7962      7.1055      7.1927      7.0355      6.6604      6.1334      5.5416      4.9703      4.4825      4.1048    
  3.8211      3.5808      3.3703      3.1988      3.0701      2.9835      2.9347      2.9180      2.9289      2.9650    
  3.0272      3.1195      3.2478      3.4179      3.6326      3.8892      4.1778      4.4838      4.8371      5.2778    
  4.8300      5.0665      5.2778      5.4235      5.4670      5.3897      5.1989      4.9253      4.6132      4.3061    
  4.0328      3.7970      3.5808      3.3849      3.2174      3.0833      2.9846      2.9198      2.8858      2.8783    
  2.8934      2.9289      2.9843      3.0612      3.1632      3.2942      3.4570      3.6520      3.8747      4.1157    
  4.3604      4.5949      4.3833      4.5085      4.5949      4.6393      4.6332      4.5707      4.4541      4.2957    
  4.1134      3.9228      3.7307      3.5437      3.3703      3.2174      3.0896      2.9896      2.9179      2.8733    
  2.8536      2.8561      2.8783      2.9180      2.9743      3.0470      3.1370      3.2456      3.3739      3.5221    
  3.6880      3.8666      4.0497      4.2262      4.0964      4.1762      4.2262      4.2407      4.2171      4.1554    
  4.0593      3.9351      3.7911      3.6368      3.4813      3.3330      3.1988      3.0833      2.9896      2.9187    
  2.8707      2.8447      2.8394      2.8536      2.8858      2.9347      2.9988      3.0769      3.1673      3.2688    
  3.3799      3.4989      3.6236      3.7509      3.8763      3.9939      3.9617      3.9889      3.9939      3.9747    
  3.9302      3.8611      3.7698      3.6605      3.5393      3.4130      3.2886      3.1727      3.0701      2.9846    
  2.9179      2.8707      2.8431      2.8345      2.8447      2.8733      2.9198      2.9835      3.0628      3.1553    
  3.2574      3.3654      3.4747      3.5814      3.6816      3.7724      3.8510      3.9149      3.9889      3.9617    
  3.9149      3.8510      3.7724      3.6816      3.5814      3.4747      3.3654      3.2574      3.1553      3.0628    
  2.9835      2.9198      2.8733      2.8447      2.8345      2.8431      2.8707      2.9179      2.9846      3.0701    
  3.1727      3.2886      3.4130      3.5393      3.6605      3.7698      3.8611      3.9302      3.9747      3.9939    
  4.1762      4.0964      3.9939      3.8763      3.7509      3.6236      3.4989      3.3799      3.2688      3.1673    
  3.0769      2.9988      2.9347      2.8858      2.8536      2.8394      2.8447      2.8707      2.9187      2.9896    
  3.0833      3.1988      3.3330      3.4813      3.6368      3.7911      3.9351      4.0593      4.1554      4.2171    
  4.2407      4.2262      4.5085      4.3833      4.2262      4.0497      3.8666      3.6880      3.5221      3.3739    
  3.2456      3.1370      3.0470      2.9743      2.9180      2.8783      2.8561      2.8536      2.8733      2.9179    
  2.9896      3.0896      3.2174      3.3703      3.5437      3.7307      3.9228      4.1134      4.2957      4.4541    
  4.5707      4.6332      4.6393      4.5949      5.0665      4.8300      4.5949      4.3604      4.1157      3.8747    
  3.6520      3.4570      3.2942      3.1632      3.0612      2.9843      2.9289      2.8934      2.8783      2.8858    
  2.9198      2.9846      3.0833      3.2174      3.3849      3.5808      3.7970      4.0328      4.3061      4.6132    
  4.9253      5.1989      5.3897      5.4670      5.4235      5.2778      6.3296      5.7947      5.2778      4.8371    
  4.4838      4.1778      3.8892      3.6326      3.4179      3.2478      3.1195      3.0272      2.9650      2.9289    
  2.9180      2.9347      2.9835      3.0701      3.1988      3.3703      3.5808      3.8211      4.1048      4.4825    
  4.9703      5.5416      6.1334      6.6604      7.0355      7.1927      7.1055      6.7962      8.8344      7.8314    
  6.7962      5.8674      5.1318      4.6047      4.2265      3.9025      3.6226      3.3971      3.2267      3.1059    
  3.0272      2.9843      2.9743      2.9988      3.0628      3.1727      3.3330      3.5437      3.7970      4.1048    
  4.5554      5.2105      6.0728      7.0869      8.1465      9.1116      9.8349      10.195      10.129      9.6467    
  12.988      11.401      9.6467      7.9602      6.5252      5.4437      4.7191      4.2591      3.9108      3.6183    
  3.3906      3.2267      3.1195      3.0612      3.0470      3.0769      3.1553      3.2886      3.4813      3.7307    
  4.0328      4.4825      5.2105      6.2817      7.6849      9.3323      11.068      12.685      13.960      14.699    
  14.777      14.176      19.004      16.783      14.176      11.514      9.0955      7.1281      5.7070      4.8034    
  4.2762      3.9135      3.6183      3.3971      3.2478      3.1632      3.1370      3.1673      3.2574      3.4130    
  3.6368      3.9228      4.3061      4.9703      6.0728      7.6849      9.7823      12.245      14.862      17.354    
  19.409      20.737      21.133      20.527      26.877      24.049      20.527      16.750      13.129      9.9946    
  7.5503      5.8577      4.8347      4.2762      3.9108      3.6226      3.4179      3.2942      3.2456      3.2688    
  3.3654      3.5393      3.7911      4.1134      4.6132      5.5416      7.0869      9.3323      12.245      15.673    
  19.355      22.934      25.998      28.149      29.076      28.635      36.391      33.051      28.635      23.681    
  18.724      14.220      10.490      7.7018      5.8577      4.8034      4.2591      3.9025      3.6326      3.4570    
  3.3739      3.3799      3.4747      3.6605      3.9351      4.2957      4.9253      6.1334      8.1465      11.068    
  14.862      19.355      24.238      29.080      33.369      36.580      38.279      38.217      47.105      43.425    
  38.217      32.115      25.779      19.793      14.604      10.490      7.5503      5.7070      4.7191      4.2265    
  3.8892      3.6520      3.5221      3.4989      3.5814      3.7698      4.0593      4.4541      5.1989      6.6604    
  9.1116      12.685      17.354      22.934      29.080      35.300      40.982      45.474      48.197      48.771    
  58.336      54.573      48.771      41.648      33.990      26.514      19.793      14.220      9.9946      7.1281    
  5.4437      4.6047      4.1778      3.8747      3.6880      3.6236      3.6816      3.8611      4.1554      4.5707    
  5.3897      7.0355      9.8349      13.960      19.409      25.998      33.369      40.982      48.146      54.086    
  58.068      59.556      69.164      65.650      59.556      51.657      42.850      33.990      25.779      18.724    
  13.129      9.0955      6.5252      5.1318      4.4838      4.1157      3.8666      3.7509      3.7724      3.9302    
  4.2171      4.6332      5.4670      7.1927      10.195      14.699      20.737      28.149      36.580      45.474    
  54.086      61.538      66.953      69.619      78.500      75.611      69.619      61.307      51.657      41.648    
  32.115      23.681      16.750      11.514      7.9602      5.8674      4.8371      4.3604      4.0497      3.8763    
  3.8510      3.9747      4.2407      4.6393      5.4235      7.1055      10.129      14.777      21.133      29.076    
  38.279      48.197      58.068      66.953      73.850      77.884      85.244      83.337      77.884      69.619    
  59.556      48.771      38.217      28.635      20.527      14.176      9.6467      6.7962      5.2778      4.5949    
  4.2262      3.9939      3.9149      3.9939      4.2262      4.5949      5.2778      6.7962      9.6467      14.176    
  20.527      28.635      38.217      48.771      59.556      69.619      77.884      83.337      82.731      83.337    
  80.232      73.850      65.028      54.805      44.211      34.120      25.179      17.806      12.205      8.3686    
  6.0823      4.9437      4.4311      4.1105      3.9309      3.9052      4.0350      4.3121      4.7335      5.6047    
  7.4605      10.754      15.769      22.582      31.057      40.845      51.370      61.828      71.224      78.500    
  83.337      85.244      83.337      77.884      69.619      59.556      48.771      38.217      28.635      20.527    
  14.176      9.6467      6.7962      5.2778      4.5949      4.2262      3.9939      3.9149      3.9939      4.2262    
  4.5949      5.2778      6.7962      9.6467      14.176      20.527      28.635      38.217      48.771      59.556    
  69.619      77.884      80.232      83.337      82.731      78.500      71.224      61.828      51.370      40.845    
  31.057      22.582      15.769      10.754      7.4605      5.6047      4.7335      4.3121      4.0350      3.9052    
  3.9309      4.1105      4.4311      4.9437      6.0823      8.3686      12.205      17.806      25.179      34.120    
  44.211      54.805      65.028      73.850      73.850      77.884      78.500      75.611      69.619      61.307    
  51.657      41.648      32.115      23.681      16.750      11.514      7.9602      5.8674      4.8371      4.3604    
  4.0497      3.8763      3.8510      3.9747      4.2407      4.6393      5.4235      7.1055      10.129      14.777    
  21.133      29.076      38.279      48.197      58.068      66.953      65.028      69.619      71.224      69.619    
  65.028      58.068      49.595      40.520      31.664      23.667      16.967      11.800      8.2009      6.0096    
  4.8860      4.3664      4.0350      3.8284      3.7588      3.8284      4.0350      4.3664      4.8860      6.0096    
  8.2009      11.800      16.967      23.667      31.664      40.520      49.595      58.068      54.805      59.556    
  61.828      61.307      58.068      52.556      45.474      37.627      29.778      22.552      16.394      11.564    
  8.1344      5.9952      4.8633      4.3287      3.9897      3.7622      3.6584      3.6805      3.8285      4.0982    
  4.4793      5.1685      6.6071      9.1739      13.100      18.434      25.034      32.569      40.520      48.197    
  44.211      48.771      51.370      51.657      49.595      45.474      39.841      33.369      26.733      20.509    
  15.127      10.849      7.7710      5.8199      4.7641      4.2496      3.9150      3.6795      3.5534      3.5379    
  3.6333      3.8399      4.1523      4.5877      5.4388      7.0950      9.8418      13.809      18.948      25.034    
  31.664      38.279      34.120      38.217      40.845      41.648      40.520      37.627      33.369      28.282    
  22.934      17.830      13.361      9.7757      7.1755      5.5128      4.5994      4.1348      3.8149      3.5829    
  3.4466      3.4053      3.4580      3.6067      3.8533      4.1911      4.6797      5.6342      7.3685      10.079    
  13.809      18.434      23.667      29.076      25.179      28.635      31.057      32.115      31.664      29.778    
  26.733      22.934      18.836      14.862      11.346      8.5102      6.4483      5.1271      4.3926      3.9926    
  3.6953      3.4766      3.3408      3.2852      3.3071      3.4078      3.5923      3.8634      4.2142      4.7335    
  5.7054      7.3685      9.8418      13.100      16.967      21.133      17.806      20.527      22.582      23.681    
  23.667      22.552      20.509      17.830      14.862      11.938      9.3323      7.2266      5.6998      4.7241    
  4.1711      3.8326      3.5639      3.3655      3.2388      3.1789      3.1815      3.2465      3.3788      3.5851    
  3.8684      4.2221      4.7335      5.6342      7.0950      9.1739      11.800      14.777      12.205      14.176    
  15.769      16.750      16.967      16.394      15.127      13.361      11.346      9.3323      7.5278      6.0728    
  5.0248      4.3554      3.9552      3.6647      3.4287      3.2552      3.1431      3.0866      3.0799      3.1212    
  3.2140      3.3654      3.5829      3.8684      4.2142      4.6797      5.4388      6.6071      8.2009      10.129    
  8.3686      9.6467      10.754      11.514      11.800      11.564      10.849      9.7757      8.5102      7.2266    
  6.0728      5.1465      4.4825      4.0483      3.7492      3.4984      3.2974      3.1510      3.0567      3.0083    
  2.9996      3.0276      3.0938      3.2038      3.3654      3.5851      3.8634      4.1911      4.5877      5.1685    
  6.0096      7.1055      6.0823      6.7962      7.4605      7.9602      8.2009      8.1344      7.7710      7.1755    
  6.4483      5.6998      5.0248      4.4825      4.0857      3.7970      3.5516      3.3420      3.1767      3.0577    