Fe BCC                                  
   2.78000000000000     
    -0.500000    0.500000    0.500000
     0.500000   -0.500000    0.500000
     0.500000    0.500000   -0.500000
   Fe
     1
Direct
  0.000000  0.000000  0.000000
 
   32   32   32
 0.90531562607E+02 0.88510071034E+02 0.82730937764E+02 0.73973251493E+02 0.63312584214E+02
 0.51884909316E+02 0.40696167470E+02 0.30522241586E+02 0.21889865155E+02 0.15094522686E+02
 0.10214362427E+02 0.71103295312E+01 0.54348708549E+01 0.46803071420E+01 0.42956224768E+01
 0.40543227628E+01 0.39720129896E+01 0.40543227628E+01 0.42956224768E+01 0.46803071420E+01
 0.54348708549E+01 0.71103295312E+01 0.10214362427E+02 0.15094522686E+02 0.21889865155E+02
 0.30522241586E+02 0.40696167470E+02 0.51884909316E+02 0.63312584214E+02 0.73973251493E+02
 0.82730937764E+02 0.88510071034E+02 0.88510071034E+02 0.87842782685E+02 0.83336614942E+02
 0.75611227534E+02 0.65650213835E+02 0.54572774724E+02 0.43424996978E+02 0.33050561032E+02
 0.24048576094E+02 0.16783219541E+02 0.11400516927E+02 0.78314440460E+01 0.57947039979E+01
 0.48299932087E+01 0.43832532401E+01 0.40964005002E+01 0.39617145834E+01 0.39888786471E+01
 0.41762200807E+01 0.45085166205E+01 0.50665178094E+01 0.63296363435E+01 0.88344190925E+01
 0.12988379931E+02 0.19003709965E+02 0.26877370458E+02 0.36391290159E+02 0.47104655075E+02
 0.58335650862E+02 0.69163980168E+02 0.78499921625E+02 0.85243804383E+02 0.82730937764E+02
 0.83336614942E+02 0.80231971885E+02 0.73850104954E+02 0.65028112167E+02 0.54804951594E+02
 0.44211399566E+02 0.34120008837E+02 0.25178738338E+02 0.17805946363E+02 0.12204730436E+02
 0.83686311950E+01 0.60823097923E+01 0.49436665841E+01 0.44311226358E+01 0.41105268931E+01
 0.39308961561E+01 0.39052315641E+01 0.40349666431E+01 0.43120761612E+01 0.47335324331E+01
 0.56046689185E+01 0.74604579669E+01 0.10754378863E+02 0.15769474001E+02 0.22582089666E+02
 0.31056884077E+02 0.40844761842E+02 0.51370495408E+02 0.61828024676E+02 0.71223741675E+02
 0.78499921625E+02 0.73973251493E+02 0.75611227534E+02 0.73850104954E+02 0.68939033255E+02
 0.61538404520E+02 0.52556374704E+02 0.42954113318E+02 0.33587761938E+02 0.25122345278E+02
 0.18009453085E+02 0.12494254817E+02 0.86215480844E+01 0.62362287947E+01 0.49980384629E+01
 0.44345792417E+01 0.40935302470E+01 0.38799051528E+01 0.38084034384E+01 0.38822151941E+01
 0.40985041810E+01 0.44429321335E+01 0.50114283588E+01 0.62596027966E+01 0.86645518568E+01
 0.12570682838E+02 0.18134247977E+02 0.25306463986E+02 0.33832320199E+02 0.43245942864E+02
 0.52867074268E+02 0.61828024676E+02 0.69163980168E+02 0.63312584214E+02 0.65650213835E+02
 0.65028112167E+02 0.61538404520E+02 0.55661574442E+02 0.48146018233E+02 0.39840792287E+02
 0.31542807427E+02 0.23899317664E+02 0.17369813797E+02 0.12222989456E+02 0.85405251487E+01
 0.62177094641E+01 0.49737164595E+01 0.43929765059E+01 0.40443882243E+01 0.38096613143E+01
 0.37028295601E+01 0.37273352278E+01 0.38831131790E+01 0.41649093534E+01 0.45665685402E+01
 0.53317142167E+01 0.69238376506E+01 0.97301421837E+01 0.13980972633E+02 0.19715888220E+02
 0.26776078255E+02 0.34804161380E+02 0.43245942864E+02 0.51370495408E+02 0.58335650862E+02
 0.51884909316E+02 0.54572774724E+02 0.54804951594E+02 0.52556374704E+02 0.48146018233E+02
 0.42156492627E+02 0.35300129279E+02 0.28281860783E+02 0.21699642323E+02 0.15995161624E+02
 0.11440707303E+02 0.81389313874E+01 0.60232109824E+01 0.48653630285E+01 0.43080481253E+01
 0.39646694955E+01 0.37220151476E+01 0.35922419783E+01 0.35777162567E+01 0.36789494732E+01
 0.38960321770E+01 0.42218604104E+01 0.46905296563E+01 0.56373256620E+01 0.74641304686E+01
 0.10460094172E+02 0.14749520228E+02 0.20271251335E+02 0.26776078255E+02 0.33832320199E+02
 0.40844761842E+02 0.47104655075E+02 0.40696167470E+02 0.43424996978E+02 0.44211399566E+02
 0.42954113318E+02 0.39840792287E+02 0.35300129279E+02 0.29901180767E+02 0.24237955905E+02
 0.18835759965E+02 0.14096563443E+02 0.10277848978E+02 0.74878744973E+01 0.56852747357E+01
 0.46853281070E+01 0.41857271804E+01 0.38585633342E+01 0.36200085872E+01 0.34798185097E+01
 0.34383777041E+01 0.34952131205E+01 0.36523593303E+01 0.39110237192E+01 0.42629805429E+01
 0.47970373705E+01 0.58575804797E+01 0.77663835436E+01 0.10719267258E+02 0.14749520228E+02
 0.19715888220E+02 0.25306463986E+02 0.31056884077E+02 0.36391290159E+02 0.30522241586E+02
 0.33050561032E+02 0.34120008837E+02 0.33587761938E+02 0.31542807427E+02 0.28281860783E+02
 0.24237955905E+02 0.19888504842E+02 0.15672901612E+02 0.11937992754E+02 0.89120143400E+01
 0.66959733843E+01 0.52622295205E+01 0.44598879077E+01 0.40357815608E+01 0.37324833821E+01
 0.35079123175E+01 0.33684534458E+01 0.33121577885E+01 0.33367855262E+01 0.34439897336E+01
 0.36384875405E+01 0.39223280282E+01 0.42888029305E+01 0.48593384577E+01 0.59377516445E+01
 0.77663835436E+01 0.10460094172E+02 0.13980972633E+02 0.18134247977E+02 0.22582089666E+02
 0.26877370458E+02 0.21889865155E+02 0.24048576094E+02 0.25178738338E+02 0.25122345278E+02
 0.23899317664E+02 0.21699642323E+02 0.18835759965E+02 0.15672901612E+02 0.12560592027E+02
 0.97823396460E+01 0.75278319697E+01 0.58816647871E+01 0.48209132117E+01 0.42199052972E+01
 0.38683015033E+01 0.35943259744E+01 0.33909831925E+01 0.32609913102E+01 0.32002808404E+01
 0.32047760745E+01 0.32745894719E+01 0.34146759090E+01 0.36317630358E+01 0.39280220027E+01
 0.42979134621E+01 0.48593384577E+01 0.58575804797E+01 0.74641304686E+01 0.97301421837E+01
 0.12570682838E+02 0.15769474001E+02 0.19003709965E+02 0.15094522686E+02 0.16783219541E+02
 0.17805946363E+02 0.18009453085E+02 0.17369813797E+02 0.15995161624E+02 0.14096563443E+02
 0.11937992754E+02 0.97823396460E+01 0.78479422484E+01 0.62816961544E+01 0.51465239431E+01
 0.44181505531E+01 0.39893339505E+01 0.36931958652E+01 0.34525289171E+01 0.32749708241E+01
 0.31603165160E+01 0.31030480187E+01 0.30977175505E+01 0.31426837668E+01 0.32414459258E+01
 0.34013525198E+01 0.36297241225E+01 0.39280220027E+01 0.42888029305E+01 0.47970373705E+01
 0.56373256620E+01 0.69238376506E+01 0.86645518568E+01 0.10754378863E+02 0.12988379931E+02
 0.10214362427E+02 0.11400516927E+02 0.12204730436E+02 0.12494254817E+02 0.12222989456E+02
 0.11440707303E+02 0.10277848978E+02 0.89120143400E+01 0.75278319697E+01 0.62816961544E+01
 0.52777513646E+01 0.45554152357E+01 0.40857113692E+01 0.37750239073E+01 0.35201936251E+01
 0.33151100059E+01 0.31654824968E+01 0.30692788832E+01 0.30204558993E+01 0.30129675992E+01
 0.30438203478E+01 0.31145766946E+01 0.32310834356E+01 0.34013525198E+01 0.36317630358E+01
 0.39223280282E+01 0.42629805429E+01 0.46905296563E+01 0.53317142167E+01 0.62596027966E+01
 0.74604579669E+01 0.88344190925E+01 0.71103295312E+01 0.78314440460E+01 0.83686311950E+01
 0.86215480844E+01 0.85405251487E+01 0.81389313874E+01 0.74878744973E+01 0.66959733843E+01
 0.58816647871E+01 0.51465239431E+01 0.45554152357E+01 0.41251936298E+01 0.38210592152E+01
 0.35714807819E+01 0.33577664535E+01 0.31888645028E+01 0.30673677289E+01 0.29905143820E+01
 0.29526486873E+01 0.29479773659E+01 0.29728583446E+01 0.30271765776E+01 0.31145766946E+01
 0.32414459258E+01 0.34146759090E+01 0.36384875405E+01 0.39110237192E+01 0.42218604104E+01
 0.45665685402E+01 0.50114283588E+01 0.56046689185E+01 0.63296363435E+01 0.54348708549E+01
 0.57947039979E+01 0.60823097923E+01 0.62362287947E+01 0.62177094641E+01 0.60232109824E+01
 0.56852747357E+01 0.52622295205E+01 0.48209132117E+01 0.44181505531E+01 0.40857113692E+01
 0.38210592152E+01 0.35905998123E+01 0.33848919003E+01 0.32126520491E+01 0.30788622716E+01
 0.29842864847E+01 0.29262602886E+01 0.29001847650E+01 0.29012290510E+01 0.29258504721E+01
 0.29728583446E+01 0.30438203478E+01 0.31426837668E+01 0.32745894719E+01 0.34439897336E+01
 0.36523593303E+01 0.38960321770E+01 0.41649093534E+01 0.44429321335E+01 0.47335324331E+01
 0.50665178094E+01 0.46803071420E+01 0.48299932087E+01 0.49436665841E+01 0.49980384629E+01
 0.49737164595E+01 0.48653630285E+01 0.46853281070E+01 0.44598879077E+01 0.42199052972E+01
 0.39893339505E+01 0.37750239073E+01 0.35714807819E+01 0.33848919003E+01 0.32225829297E+01
 0.30895953828E+01 0.29883098332E+01 0.29185689715E+01 0.28782559486E+01 0.28641335438E+01
 0.28727434821E+01 0.29012290510E+01 0.29479773659E+01 0.30129675992E+01 0.30977175505E+01
 0.32047760745E+01 0.33367855262E+01 0.34952131205E+01 0.36789494732E+01 0.38831131790E+01
 0.40985041810E+01 0.43120761612E+01 0.45085166205E+01 0.42956224768E+01 0.43832532401E+01
 0.44311226358E+01 0.44345792417E+01 0.43929765059E+01 0.43080481253E+01 0.41857271804E+01
 0.40357815608E+01 0.38683015033E+01 0.36931958652E+01 0.35201936251E+01 0.33577664535E+01
 0.32126520491E+01 0.30895953828E+01 0.29913224492E+01 0.29187489267E+01 0.28713765794E+01
 0.28477751881E+01 0.28460364658E+01 0.28641335438E+01 0.29001847650E+01 0.29526486873E+01
 0.30204558993E+01 0.31030480187E+01 0.32002808404E+01 0.33121577885E+01 0.34383777041E+01
 0.35777162567E+01 0.37273352278E+01 0.38822151941E+01 0.40349666431E+01 0.41762200807E+01
 0.40543227628E+01 0.40964005002E+01 0.41105268931E+01 0.40935302470E+01 0.40443882243E+01
 0.39646694955E+01 0.38585633342E+01 0.37324833821E+01 0.35943259744E+01 0.34525289171E+01
 0.33151100059E+01 0.31888645028E+01 0.30788622716E+01 0.29883098332E+01 0.29187489267E+01
 0.28704820832E+01 0.28430729130E+01 0.28357732928E+01 0.28477751881E+01 0.28782559486E+01
 0.29262602886E+01 0.29905143820E+01 0.30692788832E+01 0.31603165160E+01 0.32609913102E+01
 0.33684534458E+01 0.34798185097E+01 0.35922419783E+01 0.37028295601E+01 0.38084034384E+01
 0.39052315641E+01 0.39888786471E+01 0.39720129896E+01 0.39617145834E+01 0.39308961561E+01
 0.38799051528E+01 0.38096613143E+01 0.37220151476E+01 0.36200085872E+01 0.35079123175E+01
 0.33909831925E+01 0.32749708241E+01 0.31654824968E+01 0.30673677289E+01 0.29842864847E+01
 0.29185689715E+01 0.28713765794E+01 0.28430729130E+01 0.28336526664E+01 0.28430729130E+01
 0.28713765794E+01 0.29185689715E+01 0.29842864847E+01 0.30673677289E+01 0.31654824968E+01
 0.32749708241E+01 0.33909831925E+01 0.35079123175E+01 0.36200085872E+01 0.37220151476E+01
 0.38096613143E+01 0.38799051528E+01 0.39308961561E+01 0.39617145834E+01 0.40543227628E+01
 0.39888786471E+01 0.39052315641E+01 0.38084034384E+01 0.37028295601E+01 0.35922419783E+01
 0.34798185097E+01 0.33684534458E+01 0.32609913102E+01 0.31603165160E+01 0.30692788832E+01
 0.29905143820E+01 0.29262602886E+01 0.28782559486E+01 0.28477751881E+01 0.28357732928E+01
 0.28430729130E+01 0.28704820832E+01 0.29187489267E+01 0.29883098332E+01 0.30788622716E+01
 0.31888645028E+01 0.33151100059E+01 0.34525289171E+01 0.35943259744E+01 0.37324833821E+01
 0.38585633342E+01 0.39646694955E+01 0.40443882243E+01 0.40935302470E+01 0.41105268931E+01
 0.40964005002E+01 0.42956224768E+01 0.41762200807E+01 0.40349666431E+01 0.38822151941E+01
 0.37273352278E+01 0.35777162567E+01 0.34383777041E+01 0.33121577885E+01 0.32002808404E+01
 0.31030480187E+01 0.30204558993E+01 0.29526486873E+01 0.29001847650E+01 0.28641335438E+01
 0.28460364658E+01 0.28477751881E+01 0.28713765794E+01 0.29187489267E+01 0.29913224492E+01
 0.30895953828E+01 0.32126520491E+01 0.33577664535E+01 0.35201936251E+01 0.36931958652E+01
 0.38683015033E+01 0.40357815608E+01 0.41857271804E+01 0.43080481253E+01 0.43929765059E+01
 0.44345792417E+01 0.44311226358E+01 0.43832532401E+01 0.46803071420E+01 0.45085166205E+01
 0.43120761612E+01 0.40985041810E+01 0.38831131790E+01 0.36789494732E+01 0.34952131205E+01
 0.33367855262E+01 0.32047760745E+01 0.30977175505E+01 0.30129675992E+01 0.29479773659E+01
 0.29012290510E+01 0.28727434821E+01 0.28641335438E+01 0.28782559486E+01 0.29185689715E+01
 0.29883098332E+01 0.30895953828E+01 0.32225829297E+01 0.33848919003E+01 0.35714807819E+01
 0.37750239073E+01 0.39893339505E+01 0.42199052972E+01 0.44598879077E+01 0.46853281070E+01
 0.48653630285E+01 0.49737164595E+01 0.49980384629E+01 0.49436665841E+01 0.48299932087E+01
 0.54348708549E+01 0.50665178094E+01 0.47335324331E+01 0.44429321335E+01 0.41649093534E+01
 0.38960321770E+01 0.36523593303E+01 0.34439897336E+01 0.32745894719E+01 0.31426837668E+01
 0.30438203478E+01 0.29728583446E+01 0.29258504721E+01 0.29012290510E+01 0.29001847650E+01
 0.29262602886E+01 0.29842864847E+01 0.30788622716E+01 0.32126520491E+01 0.33848919003E+01
 0.35905998123E+01 0.38210592152E+01 0.40857113692E+01 0.44181505531E+01 0.48209132117E+01
 0.52622295205E+01 0.56852747357E+01 0.60232109824E+01 0.62177094641E+01 0.62362287947E+01
 0.60823097923E+01 0.57947039979E+01 0.71103295312E+01 0.63296363435E+01 0.56046689185E+01
 0.50114283588E+01 0.45665685402E+01 0.42218604104E+01 0.39110237192E+01 0.36384875405E+01
 0.34146759090E+01 0.32414459258E+01 0.31145766946E+01 0.30271765776E+01 0.29728583446E+01
 0.29479773659E+01 0.29526486873E+01 0.29905143820E+01 0.30673677289E+01 0.31888645028E+01
 0.33577664535E+01 0.35714807819E+01 0.38210592152E+01 0.41251936298E+01 0.45554152357E+01
 0.51465239431E+01 0.58816647871E+01 0.66959733843E+01 0.74878744973E+01 0.81389313874E+01
 0.85405251487E+01 0.86215480844E+01 0.83686311950E+01 0.78314440460E+01 0.10214362427E+02
 0.88344190925E+01 0.74604579669E+01 0.62596027966E+01 0.53317142167E+01 0.46905296563E+01
 0.42629805429E+01 0.39223280282E+01 0.36317630358E+01 0.34013525198E+01 0.32310834356E+01
 0.31145766946E+01 0.30438203478E+01 0.30129675992E+01 0.30204558993E+01 0.30692788832E+01
 0.31654824968E+01 0.33151100059E+01 0.35201936251E+01 0.37750239073E+01 0.40857113692E+01
 0.45554152357E+01 0.52777513646E+01 0.62816961544E+01 0.75278319697E+01 0.89120143400E+01
 0.10277848978E+02 0.11440707303E+02 0.12222989456E+02 0.12494254817E+02 0.12204730436E+02
 0.11400516927E+02 0.15094522686E+02 0.12988379931E+02 0.10754378863E+02 0.86645518568E+01
 0.69238376506E+01 0.56373256620E+01 0.47970373705E+01 0.42888029305E+01 0.39280220027E+01
 0.36297241225E+01 0.34013525198E+01 0.32414459258E+01 0.31426837668E+01 0.30977175505E+01
 0.31030480187E+01 0.31603165160E+01 0.32749708241E+01 0.34525289171E+01 0.36931958652E+01
 0.39893339505E+01 0.44181505531E+01 0.51465239431E+01 0.62816961544E+01 0.78479422484E+01
 0.97823396460E+01 0.11937992754E+02 0.14096563443E+02 0.15995161624E+02 0.17369813797E+02
 0.18009453085E+02 0.17805946363E+02 0.16783219541E+02 0.21889865155E+02 0.19003709965E+02
 0.15769474001E+02 0.12570682838E+02 0.97301421837E+01 0.74641304686E+01 0.58575804797E+01
 0.48593384577E+01 0.42979134621E+01 0.39280220027E+01 0.36317630358E+01 0.34146759090E+01
 0.32745894719E+01 0.32047760745E+01 0.32002808404E+01 0.32609913102E+01 0.33909831925E+01
 0.35943259744E+01 0.38683015033E+01 0.42199052972E+01 0.48209132117E+01 0.58816647871E+01
 0.75278319697E+01 0.97823396460E+01 0.12560592027E+02 0.15672901612E+02 0.18835759965E+02
 0.21699642323E+02 0.23899317664E+02 0.25122345278E+02 0.25178738338E+02 0.24048576094E+02
 0.30522241586E+02 0.26877370458E+02 0.22582089666E+02 0.18134247977E+02 0.13980972633E+02
 0.10460094172E+02 0.77663835436E+01 0.59377516445E+01 0.48593384577E+01 0.42888029305E+01
 0.39223280282E+01 0.36384875405E+01 0.34439897336E+01 0.33367855262E+01 0.33121577885E+01
 0.33684534458E+01 0.35079123175E+01 0.37324833821E+01 0.40357815608E+01 0.44598879077E+01
 0.52622295205E+01 0.66959733843E+01 0.89120143400E+01 0.11937992754E+02 0.15672901612E+02
 0.19888504842E+02 0.24237955905E+02 0.28281860783E+02 0.31542807427E+02 0.33587761938E+02
 0.34120008837E+02 0.33050561032E+02 0.40696167470E+02 0.36391290159E+02 0.31056884077E+02
 0.25306463986E+02 0.19715888220E+02 0.14749520228E+02 0.10719267258E+02 0.77663835436E+01
 0.58575804797E+01 0.47970373705E+01 0.42629805429E+01 0.39110237192E+01 0.36523593303E+01
 0.34952131205E+01 0.34383777041E+01 0.34798185097E+01 0.36200085872E+01 0.38585633342E+01
 0.41857271804E+01 0.46853281070E+01 0.56852747357E+01 0.74878744973E+01 0.10277848978E+02
 0.14096563443E+02 0.18835759965E+02 0.24237955905E+02 0.29901180767E+02 0.35300129279E+02
 0.39840792287E+02 0.42954113318E+02 0.44211399566E+02 0.43424996978E+02 0.51884909316E+02
 0.47104655075E+02 0.40844761842E+02 0.33832320199E+02 0.26776078255E+02 0.20271251335E+02
 0.14749520228E+02 0.10460094172E+02 0.74641304686E+01 0.56373256620E+01 0.46905296563E+01
 0.42218604104E+01 0.38960321770E+01 0.36789494732E+01 0.35777162567E+01 0.35922419783E+01
 0.37220151476E+01 0.39646694955E+01 0.43080481253E+01 0.48653630285E+01 0.60232109824E+01
 0.81389313874E+01 0.11440707303E+02 0.15995161624E+02 0.21699642323E+02 0.28281860783E+02
 0.35300129279E+02 0.42156492627E+02 0.48146018233E+02 0.52556374704E+02 0.54804951594E+02
 0.54572774724E+02 0.63312584214E+02 0.58335650862E+02 0.51370495408E+02 0.43245942864E+02
 0.34804161380E+02 0.26776078255E+02 0.19715888220E+02 0.13980972633E+02 0.97301421837E+01
 0.69238376506E+01 0.53317142167E+01 0.45665685402E+01 0.41649093534E+01 0.38831131790E+01
 0.37273352278E+01 0.37028295601E+01 0.38096613143E+01 0.40443882243E+01 0.43929765059E+01
 0.49737164595E+01 0.62177094641E+01 0.85405251487E+01 0.12222989456E+02 0.17369813797E+02
 0.23899317664E+02 0.31542807427E+02 0.39840792287E+02 0.48146018233E+02 0.55661574442E+02
 0.61538404520E+02 0.65028112167E+02 0.65650213835E+02 0.73973251493E+02 0.69163980168E+02
 0.61828024676E+02 0.52867074268E+02 0.43245942864E+02 0.33832320199E+02 0.25306463986E+02
 0.18134247977E+02 0.12570682838E+02 0.86645518568E+01 0.62596027966E+01 0.50114283588E+01
 0.44429321335E+01 0.40985041810E+01 0.38822151941E+01 0.38084034384E+01 0.38799051528E+01
 0.40935302470E+01 0.44345792417E+01 0.49980384629E+01 0.62362287947E+01 0.86215480844E+01
 0.12494254817E+02 0.18009453085E+02 0.25122345278E+02 0.33587761938E+02 0.42954113318E+02
 0.52556374704E+02 0.61538404520E+02 0.68939033255E+02 0.73850104954E+02 0.75611227534E+02
 0.82730937764E+02 0.78499921625E+02 0.71223741675E+02 0.61828024676E+02 0.51370495408E+02
 0.40844761842E+02 0.31056884077E+02 0.22582089666E+02 0.15769474001E+02 0.10754378863E+02
 0.74604579669E+01 0.56046689185E+01 0.47335324331E+01 0.43120761612E+01 0.40349666431E+01
 0.39052315641E+01 0.39308961561E+01 0.41105268931E+01 0.44311226358E+01 0.49436665841E+01
 0.60823097923E+01 0.83686311950E+01 0.12204730436E+02 0.17805946363E+02 0.25178738338E+02
 0.34120008837E+02 0.44211399566E+02 0.54804951594E+02 0.65028112167E+02 0.73850104954E+02
 0.80231971885E+02 0.83336614942E+02 0.88510071034E+02 0.85243804383E+02 0.78499921625E+02
 0.69163980168E+02 0.58335650862E+02 0.47104655075E+02 0.36391290159E+02 0.26877370458E+02
 0.19003709965E+02 0.12988379931E+02 0.88344190925E+01 0.63296363435E+01 0.50665178094E+01
 0.45085166205E+01 0.41762200807E+01 0.39888786471E+01 0.39617145834E+01 0.40964005002E+01
 0.43832532401E+01 0.48299932087E+01 0.57947039979E+01 0.78314440460E+01 0.11400516927E+02
 0.16783219541E+02 0.24048576094E+02 0.33050561032E+02 0.43424996978E+02 0.54572774724E+02
 0.65650213835E+02 0.75611227534E+02 0.83336614942E+02 0.87842782685E+02 0.88510071034E+02
 0.87842782685E+02 0.83336614942E+02 0.75611227534E+02 0.65650213835E+02 0.54572774724E+02
 0.43424996978E+02 0.33050561032E+02 0.24048576094E+02 0.16783219541E+02 0.11400516927E+02
 0.78314440460E+01 0.57947039979E+01 0.48299932087E+01 0.43832532401E+01 0.40964005002E+01
 0.39617145834E+01 0.39888786471E+01 0.41762200807E+01 0.45085166205E+01 0.50665178094E+01
 0.63296363435E+01 0.88344190925E+01 0.12988379931E+02 0.19003709965E+02 0.26877370458E+02
 0.36391290159E+02 0.47104655075E+02 0.58335650862E+02 0.69163980168E+02 0.78499921625E+02
 0.85243804383E+02 0.87842782685E+02 0.88510071170E+02 0.85243804641E+02 0.78499921974E+02
 0.69163980570E+02 0.58335651275E+02 0.47104655463E+02 0.36391290497E+02 0.26877370734E+02
 0.19003710177E+02 0.12988380087E+02 0.88344192040E+01 0.63296364220E+01 0.50665178641E+01
 0.45085166567E+01 0.41762201009E+01 0.39888786525E+01 0.39617145745E+01 0.40964004776E+01
 0.43832532033E+01 0.48299931550E+01 0.57947039211E+01 0.78314439363E+01 0.11400516773E+02
 0.16783219333E+02 0.24048575828E+02 0.33050560714E+02 0.43424996627E+02 0.54572774370E+02
 0.65650213517E+02 0.75611227292E+02 0.83336614810E+02 0.83336614942E+02 0.85243804641E+02
 0.83336615169E+02 0.77883611897E+02 0.69618590139E+02 0.59556134317E+02 0.48770566121E+02
 0.38216806211E+02 0.28634617632E+02 0.20527447345E+02 0.14175587857E+02 0.96467408444E+01
 0.67961594523E+01 0.52778078398E+01 0.45949319369E+01 0.42261712375E+01 0.39938729242E+01
 0.39148834337E+01 0.39938728998E+01 0.42261711886E+01 0.45949318618E+01 0.52778077323E+01
 0.67961592998E+01 0.96467406287E+01 0.14175587558E+02 0.20527446947E+02 0.28634617130E+02
 0.38216805620E+02 0.48770565479E+02 0.59556133679E+02 0.69618589574E+02 0.77883611473E+02
 0.75611227534E+02 0.78499921974E+02 0.77883611897E+02 0.73850105197E+02 0.66952663154E+02
 0.58068310148E+02 0.48197314872E+02 0.38279160991E+02 0.29076457630E+02 0.21133144421E+02
 0.14776926982E+02 0.10129009542E+02 0.71054681849E+01 0.54235334446E+01 0.46392942328E+01
 0.42407476649E+01 0.39746627941E+01 0.38509504889E+01 0.38763190969E+01 0.40497376811E+01
 0.43604388577E+01 0.48370828354E+01 0.58673543218E+01 0.79601640227E+01 0.11514486642E+02
 0.16749833252E+02 0.23680811828E+02 0.32114795622E+02 0.41648213455E+02 0.51657171705E+02
 0.61307011087E+02 0.69618589693E+02 0.65650213835E+02 0.69163980570E+02 0.69618590139E+02
 0.66952663154E+02 0.61538404700E+02 0.54085652715E+02 0.45474274640E+02 0.36580099042E+02
 0.28148870593E+02 0.20736674580E+02 0.14698899563E+02 0.10195472848E+02 0.71926589197E+01
 0.54669772432E+01 0.46332412215E+01 0.42170589835E+01 0.39302336322E+01 0.37723830830E+01
 0.37509093013E+01 0.38666467434E+01 0.41156596980E+01 0.44838188151E+01 0.51317982461E+01
 0.65251902969E+01 0.90954809168E+01 0.13129239231E+02 0.18724437159E+02 0.25778975141E+02
 0.33989799860E+02 0.42850295618E+02 0.51657171803E+02 0.59556133889E+02 0.54572774724E+02
 0.58335651275E+02 0.59556134317E+02 0.58068310148E+02 0.54085652715E+02 0.48146018299E+02
 0.40982145086E+02 0.33368855091E+02 0.25998222344E+02 0.19408502498E+02 0.13960268387E+02
 0.98349228745E+01 0.70355428306E+01 0.53897006827E+01 0.45706719361E+01 0.41553973038E+01
 0.38611230705E+01 0.36816336107E+01 0.36236004447E+01 0.36880062704E+01 0.38746842319E+01
 0.41777942774E+01 0.46047085342E+01 0.54437114405E+01 0.71280829448E+01 0.99945600113E+01
 0.14219716814E+02 0.19793483888E+02 0.26514074496E+02 0.33989799929E+02 0.41648213618E+02
 0.48770565742E+02 0.43424996978E+02 0.47104655463E+02 0.48770566121E+02 0.48197314872E+02
 0.45474274640E+02 0.40982145086E+02 0.35300129229E+02 0.29080379572E+02 0.22933529724E+02
 0.17353599361E+02 0.12684508385E+02 0.91115814196E+01 0.66603790725E+01 0.51988868070E+01
 0.44540837068E+01 0.40592963913E+01 0.37697608715E+01 0.35813715207E+01 0.34988758972E+01
 0.35220956204E+01 0.36519528195E+01 0.38892352393E+01 0.42264880410E+01 0.47190626267E+01
 0.57070202321E+01 0.75503074023E+01 0.10489899283E+02 0.14604301733E+02 0.19793483926E+02
 0.25778975246E+02 0.32114795811E+02 0.38216805899E+02 0.33050561032E+02 0.36391290497E+02
 0.38216806211E+02 0.38279160991E+02 0.36580099042E+02 0.33368855091E+02 0.29080379572E+02
 0.24237955777E+02 0.19354789783E+02 0.14861525455E+02 0.11067507210E+02 0.81465444571E+01
 0.61333688486E+01 0.49253007010E+01 0.42957180659E+01 0.39350989260E+01 0.36604941856E+01
 0.34747203312E+01 0.33798844122E+01 0.33739265444E+01 0.34570191970E+01 0.36325651722E+01
 0.39024641149E+01 0.42590751644E+01 0.48034448823E+01 0.58577010360E+01 0.77018156494E+01
 0.10489899294E+02 0.14219716861E+02 0.18724437267E+02 0.23680812012E+02 0.28634617391E+02
 0.24048576094E+02 0.26877370734E+02 0.28634617632E+02 0.29076457630E+02 0.28148870593E+02
 0.25998222344E+02 0.22933529724E+02 0.19354789783E+02 0.15672901467E+02 0.12244515343E+02
 0.93322738234E+01 0.70869168603E+01 0.55416329444E+01 0.46132072574E+01 0.41133884154E+01
 0.37911495084E+01 0.35392597205E+01 0.33653637241E+01 0.32688175364E+01 0.32455702228E+01
 0.32941547165E+01 0.34178615774E+01 0.36226024887E+01 0.39107941681E+01 0.42762493399E+01
 0.48346695069E+01 0.58577010299E+01 0.75503074059E+01 0.99945600470E+01 0.13129239320E+02
 0.16749833408E+02 0.20527447168E+02 0.16783219541E+02 0.19003710177E+02 0.20527447345E+02
 0.21133144421E+02 0.20736674580E+02 0.19408502498E+02 0.17353599361E+02 0.14861525455E+02
 0.12244515343E+02 0.97823395368E+01 0.76848838262E+01 0.60727917156E+01 0.49703474040E+01
 0.43061163635E+01 0.39227939487E+01 0.36367846700E+01 0.34129531173E+01 0.32574429622E+01
 0.31673312233E+01 0.31369851029E+01 0.31632106782E+01 0.32478074100E+01 0.33970820434E+01
 0.36182895847E+01 0.39135383244E+01 0.42762493279E+01 0.48034448637E+01 0.57070202208E+01
 0.71280829606E+01 0.90954809785E+01 0.11514486760E+02 0.14175587730E+02 0.11400516927E+02
 0.12988380087E+02 0.14175587857E+02 0.14776926982E+02 0.14698899563E+02 0.13960268387E+02
 0.12684508385E+02 0.11067507210E+02 0.93322738234E+01 0.76848838262E+01 0.62816961030E+01
 0.52104501624E+01 0.44824641335E+01 0.40328248394E+01 0.37307090262E+01 0.34812991949E+01
 0.32886210649E+01 0.31552527384E+01 0.30768697362E+01 0.30470166146E+01 0.30612335208E+01
 0.31195073690E+01 0.32266623009E+01 0.33905713758E+01 0.36182895759E+01 0.39107941478E+01
 0.42590751370E+01 0.47190626042E+01 0.54437114393E+01 0.65251903328E+01 0.79601641048E+01
 0.96467407544E+01 0.78314440460E+01 0.88344192040E+01 0.96467408444E+01 0.10129009542E+02
 0.10195472848E+02 0.98349228745E+01 0.91115814196E+01 0.81465444571E+01 0.70869168603E+01
 0.60727917156E+01 0.52104501624E+01 0.45554152337E+01 0.41047661066E+01 0.37970365936E+01
 0.35437336224E+01 0.33330455224E+01 0.31726506355E+01 0.30628234644E+01 0.29988413603E+01
 0.29743159092E+01 0.29842667094E+01 0.30272084323E+01 0.31059076518E+01 0.32266622994E+01
 0.33970820343E+01 0.36226024693E+01 0.39024640885E+01 0.42264880170E+01 0.46047085257E+01
 0.51317982655E+01 0.58673543763E+01 0.67961593878E+01 0.57947039979E+01 0.63296364220E+01
 0.67961594523E+01 0.71054681849E+01 0.71926589197E+01 0.70355428306E+01 0.66603790725E+01
 0.61333688486E+01 0.55416329444E+01 0.49703474040E+01 0.44824641335E+01 0.41047661066E+01
 0.38210592380E+01 0.35807847240E+01 0.33703444709E+01 0.31987825585E+01 0.30701379169E+01
 0.29835255550E+01 0.29346703003E+01 0.29180382284E+01 0.29289181943E+01 0.29650055913E+01
 0.30272084371E+01 0.31195073733E+01 0.32478074088E+01 0.34178615682E+01 0.36325651569E+01
 0.38892352244E+01 0.41777942723E+01 0.44838188289E+01 0.48370828735E+01 0.52778077937E+01
 0.48299932087E+01 0.50665178641E+01 0.52778078398E+01 0.54235334446E+01 0.54669772432E+01
 0.53897006827E+01 0.51988868070E+01 0.49253007010E+01 0.46132072574E+01 0.43061163635E+01
 0.40328248394E+01 0.37970365936E+01 0.35807847240E+01 0.33848919248E+01 0.32173699527E+01
 0.30833386796E+01 0.29845716656E+01 0.29198265457E+01 0.28857819604E+01 0.28782598282E+01
 0.28934481092E+01 0.29289182014E+01 0.29842667218E+01 0.30612335345E+01 0.31632106889E+01
 0.32941547218E+01 0.34570191976E+01 0.36519528193E+01 0.38746842367E+01 0.41156597138E+01
 0.43604388880E+01 0.45949319062E+01 0.43832532401E+01 0.45085166567E+01 0.45949319369E+01
 0.46392942328E+01 0.46332412215E+01 0.45706719361E+01 0.44540837068E+01 0.42957180659E+01
 0.41133884154E+01 0.39227939487E+01 0.37307090262E+01 0.35437336224E+01 0.33703444709E+01
 0.32173699527E+01 0.30895953981E+01 0.29895963530E+01 0.29178739391E+01 0.28732750549E+01
 0.28535770988E+01 0.28560996102E+01 0.28782598340E+01 0.29180382410E+01 0.29743159273E+01
 0.30470166352E+01 0.31369851230E+01 0.32455702400E+01 0.33739265587E+01 0.35220956334E+01
 0.36880062852E+01 0.38666467631E+01 0.40497377076E+01 0.42261712216E+01 0.40964005002E+01
 0.41762201009E+01 0.42261712375E+01 0.42407476649E+01 0.42170589835E+01 0.41553973038E+01
 0.40592963913E+01 0.39350989260E+01 0.37911495084E+01 0.36367846700E+01 0.34812991949E+01
 0.33330455224E+01 0.31987825585E+01 0.30833386796E+01 0.29895963530E+01 0.29187489334E+01
 0.28707315169E+01 0.28446987974E+01 0.28394286386E+01 0.28535771015E+01 0.28857819677E+01
 0.29346703130E+01 0.29988413776E+01 0.30768697565E+01 0.31673312446E+01 0.32688175572E+01
 0.33798844319E+01 0.34988759162E+01 0.36236004638E+01 0.37509093216E+01 0.38763191188E+01
 0.39938729228E+01 0.39617145834E+01 0.39888786525E+01 0.39938729242E+01 0.39746627941E+01
 0.39302336322E+01 0.38611230705E+01 0.37697608715E+01 0.36604941856E+01 0.35392597205E+01
 0.34129531173E+01 0.32886210649E+01 0.31726506355E+01 0.30701379169E+01 0.29845716656E+01
 0.29178739391E+01 0.28707315169E+01 0.28430729161E+01 0.28345230160E+01 0.28446987972E+01
 0.28732750556E+01 0.29198265485E+01 0.29835255604E+01 0.30628234727E+01 0.31552527492E+01
 0.32574429751E+01 0.33653637385E+01 0.34747203466E+01 0.35813715365E+01 0.36816336263E+01
 0.37723830981E+01 0.38509505028E+01 0.39148834455E+01 0.39888786471E+01 0.39617145745E+01
 0.39148834337E+01 0.38509504889E+01 0.37723830830E+01 0.36816336107E+01 0.35813715207E+01
 0.34747203312E+01 0.33653637241E+01 0.32574429622E+01 0.31552527384E+01 0.30628234644E+01
 0.29835255550E+01 0.29198265457E+01 0.28732750549E+01 0.28446987974E+01 0.28345230160E+01
 0.28430729147E+01 0.28707315134E+01 0.29178739333E+01 0.29845716581E+01 0.30701379090E+01
 0.31726506286E+01 0.32886210603E+01 0.34129531160E+01 0.35392597226E+01 0.36604941907E+01
 0.37697608783E+01 0.38611230773E+01 0.39302336374E+01 0.39746627964E+01 0.39938729228E+01
 0.41762200807E+01 0.40964004776E+01 0.39938728998E+01 0.38763190969E+01 0.37509093013E+01
 0.36236004447E+01 0.34988758972E+01 0.33798844122E+01 0.32688175364E+01 0.31673312233E+01
 0.30768697362E+01 0.29988413603E+01 0.29346703003E+01 0.28857819604E+01 0.28535770988E+01
 0.28394286386E+01 0.28446987972E+01 0.28707315134E+01 0.29187489244E+01 0.29895963376E+01
 0.30833386590E+01 0.31987825351E+01 0.33330454995E+01 0.34812991756E+01 0.36367846565E+01
 0.37911495010E+01 0.39350989235E+01 0.40592963910E+01 0.41553973025E+01 0.42170589785E+01