   1   1   1   0
  0.1074248E+02  0.2407551E-09  0.2407551E-09  0.2407551E-09  0.5000000E-15
  1.000000000000000E-004
  CAR 
 Fe BCC                                  
     48.86016830     -4.64897537  301      6.34384374      1.00000000
     -4.649  0.0000E+00  0.0000E+00  0.0000E+00  0.0000E+00
     -4.471  0.0000E+00  0.0000E+00  0.0000E+00  0.0000E+00
     -4.292  0.0000E+00  0.0000E+00  0.0000E+00  0.0000E+00
     -4.114  0.0000E+00  0.0000E+00  0.0000E+00  0.0000E+00
     -3.936  0.0000E+00  0.0000E+00  0.0000E+00  0.0000E+00
     -3.757  0.0000E+00  0.0000E+00  0.0000E+00  0.0000E+00
     -3.579  0.0000E+00  0.0000E+00  0.0000E+00  0.0000E+00
     -3.400  0.0000E+00  0.0000E+00  0.0000E+00  0.0000E+00
     -3.222  0.0000E+00  0.0000E+00  0.0000E+00  0.0000E+00
     -3.044  0.0000E+00  0.0000E+00  0.0000E+00  0.0000E+00
     -2.865  0.0000E+00  0.0000E+00  0.0000E+00  0.0000E+00
     -2.687  0.0000E+00  0.0000E+00  0.0000E+00  0.0000E+00
     -2.509  0.0000E+00  0.0000E+00  0.0000E+00  0.0000E+00
     -2.330  0.0000E+00  0.0000E+00  0.0000E+00  0.0000E+00
     -2.152  0.1165E-01  0.0000E+00  0.1328E-02  0.0000E+00
     -1.974  0.1772E-01  0.0000E+00  0.3961E-02  0.0000E+00
     -1.795  0.2283E-01  0.1139E-01  0.7591E-02  0.1299E-02
     -1.617  0.2700E-01  0.1727E-01  0.1205E-01  0.3868E-02
     -1.438  0.3381E-01  0.2220E-01  0.1741E-01  0.7402E-02
     -1.260  0.4032E-01  0.2618E-01  0.2404E-01  0.1173E-01
     -1.082  0.4524E-01  0.3240E-01  0.3170E-01  0.1688E-01
     -0.903  0.4654E-01  0.3850E-01  0.3992E-01  0.2323E-01
     -0.725  0.5195E-01  0.4300E-01  0.4869E-01  0.3052E-01
     -0.547  0.5788E-01  0.4320E-01  0.5848E-01  0.3835E-01
     -0.368  0.6431E-01  0.4748E-01  0.6937E-01  0.4643E-01
     -0.190  0.7127E-01  0.5208E-01  0.8145E-01  0.5530E-01
     -0.012  0.7874E-01  0.5700E-01  0.9482E-01  0.6503E-01
      0.167  0.8924E-01  0.6224E-01  0.1096E+00  0.7565E-01
      0.345  0.1062E+00  0.6780E-01  0.1270E+00  0.8725E-01
      0.524  0.1245E+00  0.7239E-01  0.1476E+00  0.9986E-01
      0.702  0.1468E+00  0.8147E-01  0.1716E+00  0.1136E+00
      0.880  0.1862E+00  0.9058E-01  0.2011E+00  0.1289E+00
      1.059  0.2380E+00  0.9924E-01  0.2387E+00  0.1459E+00
      1.237  0.4663E+00  0.1082E+00  0.2973E+00  0.1643E+00
      1.415  0.5437E+00  0.1209E+00  0.3845E+00  0.1847E+00
      1.594  0.7392E+00  0.1371E+00  0.4969E+00  0.2077E+00
      1.772  0.1041E+01  0.1558E+00  0.6534E+00  0.2338E+00
      1.950  0.8621E+00  0.1772E+00  0.8275E+00  0.2634E+00
      2.129  0.5452E+00  0.2010E+00  0.9572E+00  0.2971E+00
      2.307  0.4101E+00  0.3736E+00  0.1042E+01  0.3449E+00
      2.486  0.3214E+00  0.4052E+00  0.1100E+01  0.4167E+00
      2.664  0.8581E+00  0.4244E+00  0.1174E+01  0.4904E+00
      2.842  0.1712E+01  0.4884E+00  0.1443E+01  0.5700E+00
      3.021  0.1178E+01  0.6023E+00  0.1694E+01  0.6654E+00
      3.199  0.6965E+00  0.8985E+00  0.1846E+01  0.7991E+00
      3.377  0.7644E+00  0.5689E+00  0.1975E+01  0.9213E+00
      3.556  0.1094E+01  0.3932E+00  0.2137E+01  0.1005E+01
      3.734  0.1791E+01  0.2308E+00  0.2395E+01  0.1060E+01
      3.912  0.8837E+00  0.1646E+00  0.2663E+01  0.1098E+01
      4.091  0.4238E+00  0.7276E+00  0.2763E+01  0.1164E+01
      4.269  0.3626E+00  0.1246E+01  0.2832E+01  0.1369E+01
      4.448  0.3523E+00  0.1317E+01  0.2896E+01  0.1604E+01
      4.626  0.4160E+00  0.8735E+00  0.2961E+01  0.1797E+01
      4.804  0.5810E+00  0.9183E+00  0.3056E+01  0.1956E+01
      4.983  0.9895E+00  0.9596E+00  0.3188E+01  0.2129E+01
      5.161  0.1613E+01  0.1327E+01  0.3418E+01  0.2337E+01
      5.339  0.2125E+01  0.1167E+01  0.3750E+01  0.2576E+01
      5.518  0.1563E+01  0.7693E+00  0.4082E+01  0.2751E+01
      5.696  0.1365E+01  0.3018E+00  0.4433E+01  0.2831E+01
      5.874  0.9933E+00  0.2419E+00  0.4640E+01  0.2879E+01
      6.053  0.7900E+00  0.2312E+00  0.4793E+01  0.2919E+01
      6.231  0.7517E+00  0.1991E+00  0.4929E+01  0.2956E+01
      6.410  0.1010E+01  0.3314E+00  0.5080E+01  0.2999E+01
      6.588  0.3266E+00  0.3939E+00  0.5210E+01  0.3061E+01
      6.766  0.1471E+00  0.5690E+00  0.5247E+01  0.3144E+01
      6.945  0.1476E+00  0.8482E+00  0.5274E+01  0.3273E+01
      7.123  0.1691E+00  0.1275E+01  0.5303E+01  0.3460E+01
      7.301  0.1669E+00  0.1503E+01  0.5333E+01  0.3712E+01
      7.480  0.1581E+00  0.1290E+01  0.5362E+01  0.3979E+01
      7.658  0.1495E+00  0.1342E+01  0.5390E+01  0.4208E+01
      7.836  0.1457E+00  0.2521E+01  0.5416E+01  0.4501E+01
      8.015  0.1454E+00  0.1068E+01  0.5442E+01  0.4787E+01
      8.193  0.1452E+00  0.9181E+00  0.5468E+01  0.4965E+01
      8.372  0.1451E+00  0.1029E+01  0.5494E+01  0.5147E+01
      8.550  0.1451E+00  0.1982E+00  0.5519E+01  0.5240E+01
      8.728  0.1450E+00  0.2192E+00  0.5545E+01  0.5277E+01
      8.907  0.1438E+00  0.2176E+00  0.5571E+01  0.5316E+01
      9.085  0.1415E+00  0.2047E+00  0.5596E+01  0.5354E+01
      9.263  0.1391E+00  0.1862E+00  0.5621E+01  0.5388E+01
      9.442  0.1407E+00  0.1777E+00  0.5647E+01  0.5421E+01
      9.620  0.1335E+00  0.1756E+00  0.5671E+01  0.5452E+01
      9.798  0.1304E+00  0.1741E+00  0.5695E+01  0.5483E+01
      9.977  0.1401E+00  0.1733E+00  0.5720E+01  0.5514E+01
     10.155  0.1214E+00  0.1715E+00  0.5742E+01  0.5545E+01
     10.334  0.1166E+00  0.1677E+00  0.5763E+01  0.5575E+01
     10.512  0.1120E+00  0.1619E+00  0.5784E+01  0.5605E+01
     10.690  0.1073E+00  0.1613E+00  0.5803E+01  0.5634E+01
     10.869  0.1028E+00  0.1493E+00  0.5822E+01  0.5662E+01
     11.047  0.9829E-01  0.1453E+00  0.5840E+01  0.5688E+01
     11.225  0.9186E-01  0.1471E+00  0.5857E+01  0.5714E+01
     11.404  0.8561E-01  0.1343E+00  0.5873E+01  0.5740E+01
     11.582  0.7944E-01  0.1284E+00  0.5887E+01  0.5764E+01
     11.760  0.8195E-01  0.1226E+00  0.5901E+01  0.5786E+01
     11.939  0.7632E-01  0.1170E+00  0.5915E+01  0.5807E+01
     12.117  0.6800E-01  0.1116E+00  0.5928E+01  0.5828E+01
     12.296  0.4710E-01  0.1063E+00  0.5939E+01  0.5847E+01
     12.474  0.4340E-01  0.9876E-01  0.5947E+01  0.5866E+01
     12.652  0.3990E-01  0.9127E-01  0.5955E+01  0.5882E+01
     12.831  0.3660E-01  0.9191E-01  0.5961E+01  0.5899E+01
     13.009  0.2958E-01  0.8342E-01  0.5969E+01  0.5915E+01
     13.187  0.2315E-01  0.7277E-01  0.5973E+01  0.5929E+01
     13.366  0.1869E-01  0.5185E-01  0.5977E+01  0.5940E+01
     13.544  0.1619E-01  0.4748E-01  0.5980E+01  0.5949E+01
     13.722  0.1592E-01  0.4335E-01  0.5983E+01  0.5957E+01
     13.901  0.1840E-01  0.3948E-01  0.5986E+01  0.5964E+01
     14.079  0.2366E-01  0.3118E-01  0.5990E+01  0.5972E+01
     14.258  0.3903E-01  0.2409E-01  0.5995E+01  0.5977E+01
     14.436  0.7229E-01  0.1916E-01  0.6005E+01  0.5981E+01
     14.614  0.1154E+00  0.1638E-01  0.6022E+01  0.5984E+01
     14.793  0.1701E+00  0.1593E-01  0.6047E+01  0.5987E+01
     14.971  0.2234E+00  0.1813E-01  0.6084E+01  0.5990E+01
     15.149  0.2461E+00  0.2300E-01  0.6127E+01  0.5993E+01
     15.328  0.2594E+00  0.3323E-01  0.6172E+01  0.5999E+01
     15.506  0.2694E+00  0.5806E-01  0.6219E+01  0.6006E+01
     15.684  0.1871E+00  0.1026E+00  0.6263E+01  0.6020E+01
     15.863  0.1829E+00  0.1780E+00  0.6296E+01  0.6046E+01
     16.041  0.1782E+00  0.2281E+00  0.6328E+01  0.6083E+01
     16.220  0.1730E+00  0.2784E+00  0.6360E+01  0.6128E+01
     16.398  0.1675E+00  0.2885E+00  0.6390E+01  0.6178E+01
     16.576  0.1674E+00  0.2945E+00  0.6420E+01  0.6231E+01
     16.755  0.1817E+00  0.2035E+00  0.6450E+01  0.6274E+01
     16.933  0.1714E+00  0.1976E+00  0.6482E+01  0.6310E+01
     17.111  0.1731E+00  0.1910E+00  0.6512E+01  0.6345E+01
     17.290  0.1615E+00  0.1925E+00  0.6542E+01  0.6379E+01
     17.468  0.1661E+00  0.1939E+00  0.6571E+01  0.6413E+01
     17.647  0.1711E+00  0.2015E+00  0.6601E+01  0.6451E+01
     17.825  0.1782E+00  0.1627E+00  0.6633E+01  0.6482E+01
     18.003  0.1934E+00  0.1711E+00  0.6667E+01  0.6512E+01
     18.182  0.1958E+00  0.1747E+00  0.6702E+01  0.6542E+01
     18.360  0.1981E+00  0.1790E+00  0.6737E+01  0.6574E+01
     18.538  0.2007E+00  0.1839E+00  0.6772E+01  0.6606E+01
     18.717  0.2035E+00  0.1903E+00  0.6808E+01  0.6640E+01
     18.895  0.2049E+00  0.2048E+00  0.6845E+01  0.6676E+01
     19.073  0.2049E+00  0.2072E+00  0.6881E+01  0.6713E+01
     19.252  0.2415E+00  0.2094E+00  0.6921E+01  0.6750E+01
     19.430  0.1979E+00  0.2118E+00  0.6959E+01  0.6788E+01
     19.609  0.1863E+00  0.2136E+00  0.6993E+01  0.6826E+01
     19.787  0.1840E+00  0.2206E+00  0.7026E+01  0.6866E+01
     19.965  0.1817E+00  0.2078E+00  0.7058E+01  0.6907E+01
     20.144  0.1797E+00  0.2062E+00  0.7090E+01  0.6944E+01
     20.322  0.1789E+00  0.1935E+00  0.7122E+01  0.6979E+01
     20.500  0.1776E+00  0.1912E+00  0.7154E+01  0.7014E+01
     20.679  0.1763E+00  0.1889E+00  0.7186E+01  0.7048E+01
     20.857  0.1798E+00  0.1866E+00  0.7218E+01  0.7081E+01
     21.035  0.1748E+00  0.1847E+00  0.7249E+01  0.7114E+01
     21.214  0.1713E+00  0.1842E+00  0.7280E+01  0.7147E+01
     21.392  0.1703E+00  0.1830E+00  0.7311E+01  0.7180E+01
     21.571  0.1683E+00  0.1818E+00  0.7341E+01  0.7212E+01
     21.749  0.1666E+00  0.1843E+00  0.7371E+01  0.7246E+01
     21.927  0.1654E+00  0.1779E+00  0.7400E+01  0.7278E+01
     22.106  0.1643E+00  0.1770E+00  0.7430E+01  0.7310E+01
     22.284  0.1631E+00  0.1750E+00  0.7459E+01  0.7341E+01
     22.462  0.1619E+00  0.1735E+00  0.7488E+01  0.7372E+01
     22.641  0.1608E+00  0.1725E+00  0.7517E+01  0.7403E+01
     22.819  0.1667E+00  0.1715E+00  0.7547E+01  0.7434E+01
     22.997  0.1691E+00  0.1705E+00  0.7577E+01  0.7464E+01
     23.176  0.1726E+00  0.1695E+00  0.7607E+01  0.7495E+01
     23.354  0.1769E+00  0.1685E+00  0.7638E+01  0.7525E+01
     23.533  0.1853E+00  0.1673E+00  0.7671E+01  0.7555E+01
     23.711  0.1959E+00  0.1662E+00  0.7706E+01  0.7584E+01
     23.889  0.2074E+00  0.1739E+00  0.7742E+01  0.7615E+01
     24.068  0.2220E+00  0.1788E+00  0.7780E+01  0.7647E+01
     24.246  0.2338E+00  0.1868E+00  0.7821E+01  0.7679E+01
     24.424  0.2280E+00  0.1979E+00  0.7862E+01  0.7714E+01
     24.603  0.2337E+00  0.2308E+00  0.7903E+01  0.7751E+01
     24.781  0.2388E+00  0.2237E+00  0.7945E+01  0.7790E+01
     24.959  0.2435E+00  0.2404E+00  0.7988E+01  0.7833E+01
     25.138  0.2386E+00  0.2389E+00  0.8032E+01  0.7875E+01
     25.316  0.2439E+00  0.2450E+00  0.8075E+01  0.7918E+01
     25.495  0.2567E+00  0.2399E+00  0.8120E+01  0.7962E+01
     25.673  0.2655E+00  0.2447E+00  0.8166E+01  0.8005E+01
     25.851  0.2725E+00  0.2475E+00  0.8215E+01  0.8049E+01
     26.030  0.2828E+00  0.2578E+00  0.8265E+01  0.8094E+01
     26.208  0.2988E+00  0.2670E+00  0.8316E+01  0.8141E+01
     26.386  0.2998E+00  0.2733E+00  0.8371E+01  0.8191E+01
     26.565  0.2955E+00  0.2840E+00  0.8424E+01  0.8240E+01
     26.743  0.2862E+00  0.2936E+00  0.8476E+01  0.8292E+01
     26.921  0.2818E+00  0.3152E+00  0.8527E+01  0.8346E+01
     27.100  0.2741E+00  0.3074E+00  0.8577E+01  0.8402E+01
     27.278  0.2655E+00  0.3036E+00  0.8625E+01  0.8456E+01
     27.457  0.2560E+00  0.2924E+00  0.8671E+01  0.8510E+01
     27.635  0.2453E+00  0.2862E+00  0.8716E+01  0.8561E+01
     27.813  0.2325E+00  0.2747E+00  0.8759E+01  0.8611E+01
     27.992  0.2175E+00  0.2643E+00  0.8799E+01  0.8660E+01
     28.170  0.2033E+00  0.2526E+00  0.8836E+01  0.8706E+01
     28.348  0.1819E+00  0.2388E+00  0.8871E+01  0.8750E+01
     28.527  0.1653E+00  0.2229E+00  0.8902E+01  0.8791E+01
     28.705  0.1561E+00  0.2057E+00  0.8930E+01  0.8829E+01
     28.883  0.1477E+00  0.1872E+00  0.8957E+01  0.8864E+01
     29.062  0.1406E+00  0.1719E+00  0.8983E+01  0.8896E+01
     29.240  0.1419E+00  0.1605E+00  0.9008E+01  0.8926E+01
     29.419  0.1496E+00  0.1520E+00  0.9035E+01  0.8954E+01
     29.597  0.1447E+00  0.1457E+00  0.9061E+01  0.8980E+01
     29.775  0.1443E+00  0.1471E+00  0.9087E+01  0.9006E+01
     29.954  0.1437E+00  0.1503E+00  0.9113E+01  0.9032E+01
     30.132  0.1542E+00  0.1447E+00  0.9139E+01  0.9059E+01
     30.310  0.1457E+00  0.1438E+00  0.9166E+01  0.9086E+01
     30.489  0.1363E+00  0.1438E+00  0.9191E+01  0.9112E+01
     30.667  0.1399E+00  0.1620E+00  0.9216E+01  0.9138E+01
     30.845  0.1436E+00  0.1498E+00  0.9241E+01  0.9166E+01
     31.024  0.1486E+00  0.1391E+00  0.9267E+01  0.9191E+01
     31.202  0.1556E+00  0.1421E+00  0.9294E+01  0.9216E+01
     31.381  0.1637E+00  0.1452E+00  0.9323E+01  0.9242E+01
     31.559  0.1690E+00  0.1491E+00  0.9353E+01  0.9268E+01
     31.737  0.2251E+00  0.1506E+00  0.9387E+01  0.9296E+01
     31.916  0.3975E+00  0.1559E+00  0.9439E+01  0.9323E+01
     32.094  0.2734E+00  0.1627E+00  0.9503E+01  0.9352E+01
     32.272  0.2511E+00  0.1947E+00  0.9550E+01  0.9382E+01
     32.451  0.2275E+00  0.2768E+00  0.9593E+01  0.9424E+01
     32.629  0.2000E+00  0.3484E+00  0.9631E+01  0.9486E+01
     32.807  0.1798E+00  0.2805E+00  0.9664E+01  0.9539E+01
     32.986  0.1777E+00  0.2534E+00  0.9696E+01  0.9587E+01
     33.164  0.1788E+00  0.2143E+00  0.9728E+01  0.9629E+01
     33.343  0.1711E+00  0.1881E+00  0.9759E+01  0.9665E+01
     33.521  0.1695E+00  0.1847E+00  0.9789E+01  0.9698E+01
     33.699  0.1637E+00  0.1776E+00  0.9819E+01  0.9730E+01
     33.878  0.1582E+00  0.1703E+00  0.9848E+01  0.9761E+01
     34.056  0.1784E+00  0.1627E+00  0.9876E+01  0.9791E+01
     34.234  0.1559E+00  0.1625E+00  0.9908E+01  0.9820E+01
     34.413  0.1543E+00  0.1582E+00  0.9935E+01  0.9848E+01
     34.591  0.1836E+00  0.1549E+00  0.9962E+01  0.9876E+01
     34.769  0.2107E+00  0.1572E+00  0.1000E+02  0.9909E+01
     34.948  0.2422E+00  0.1555E+00  0.1004E+02  0.9937E+01
     35.126  0.2809E+00  0.1471E+00  0.1009E+02  0.9964E+01
     35.305  0.3062E+00  0.2366E+00  0.1014E+02  0.9998E+01
     35.483  0.3215E+00  0.2320E+00  0.1020E+02  0.1004E+02
     35.661  0.3209E+00  0.2587E+00  0.1025E+02  0.1008E+02
     35.840  0.3242E+00  0.3009E+00  0.1031E+02  0.1013E+02
     36.018  0.3206E+00  0.3133E+00  0.1037E+02  0.1019E+02
     36.196  0.3236E+00  0.3252E+00  0.1043E+02  0.1024E+02
     36.375  0.3110E+00  0.3286E+00  0.1048E+02  0.1030E+02
     36.553  0.2892E+00  0.3236E+00  0.1054E+02  0.1036E+02
     36.731  0.2611E+00  0.3223E+00  0.1059E+02  0.1042E+02
     36.910  0.2489E+00  0.3116E+00  0.1063E+02  0.1047E+02
     37.088  0.2363E+00  0.2958E+00  0.1067E+02  0.1053E+02
     37.267  0.2296E+00  0.2738E+00  0.1072E+02  0.1058E+02
     37.445  0.2268E+00  0.2576E+00  0.1076E+02  0.1063E+02
     37.623  0.2184E+00  0.2475E+00  0.1080E+02  0.1067E+02
     37.802  0.2159E+00  0.2360E+00  0.1084E+02  0.1071E+02
     37.980  0.2033E+00  0.2296E+00  0.1087E+02  0.1076E+02
     38.158  0.1979E+00  0.2365E+00  0.1091E+02  0.1080E+02
     38.337  0.2041E+00  0.2344E+00  0.1095E+02  0.1084E+02
     38.515  0.2160E+00  0.2150E+00  0.1098E+02  0.1088E+02
     38.693  0.2353E+00  0.1984E+00  0.1102E+02  0.1092E+02
     38.872  0.2515E+00  0.2028E+00  0.1107E+02  0.1095E+02
     39.050  0.2659E+00  0.2133E+00  0.1111E+02  0.1099E+02
     39.229  0.2932E+00  0.2279E+00  0.1116E+02  0.1103E+02
     39.407  0.3035E+00  0.2454E+00  0.1122E+02  0.1107E+02
     39.585  0.3654E+00  0.2709E+00  0.1128E+02  0.1112E+02
     39.764  0.3166E+00  0.2846E+00  0.1134E+02  0.1117E+02
     39.942  0.2808E+00  0.2965E+00  0.1139E+02  0.1122E+02
     40.120  0.2303E+00  0.3286E+00  0.1144E+02  0.1128E+02
     40.299  0.2211E+00  0.3212E+00  0.1148E+02  0.1133E+02
     40.477  0.2132E+00  0.2862E+00  0.1152E+02  0.1139E+02
     40.655  0.2053E+00  0.2427E+00  0.1155E+02  0.1144E+02
     40.834  0.1974E+00  0.2217E+00  0.1159E+02  0.1148E+02
     41.012  0.1896E+00  0.2136E+00  0.1162E+02  0.1152E+02
     41.191  0.1765E+00  0.2056E+00  0.1166E+02  0.1155E+02
     41.369  0.1698E+00  0.1922E+00  0.1169E+02  0.1159E+02
     41.547  0.1632E+00  0.1854E+00  0.1172E+02  0.1162E+02
     41.726  0.1689E+00  0.1787E+00  0.1175E+02  0.1166E+02
     41.904  0.1731E+00  0.1722E+00  0.1178E+02  0.1169E+02
     42.082  0.1875E+00  0.1658E+00  0.1181E+02  0.1172E+02
     42.261  0.1858E+00  0.1739E+00  0.1184E+02  0.1175E+02
     42.439  0.1030E+00  0.1735E+00  0.1187E+02  0.1178E+02
     42.617  0.7801E-01  0.1672E+00  0.1188E+02  0.1181E+02
     42.796  0.6571E-01  0.2055E+00  0.1190E+02  0.1184E+02
     42.974  0.6133E-01  0.1047E+00  0.1191E+02  0.1187E+02
     43.153  0.5723E-01  0.7512E-01  0.1192E+02  0.1188E+02
     43.331  0.5327E-01  0.6620E-01  0.1193E+02  0.1190E+02
     43.509  0.4948E-01  0.6186E-01  0.1194E+02  0.1191E+02
     43.688  0.4584E-01  0.5769E-01  0.1195E+02  0.1192E+02
     43.866  0.4236E-01  0.5367E-01  0.1195E+02  0.1193E+02
     44.044  0.3904E-01  0.4981E-01  0.1196E+02  0.1194E+02
     44.223  0.3587E-01  0.4611E-01  0.1197E+02  0.1195E+02
     44.401  0.3286E-01  0.4257E-01  0.1197E+02  0.1195E+02
     44.579  0.3001E-01  0.3918E-01  0.1198E+02  0.1196E+02
     44.758  0.2330E-01  0.3595E-01  0.1198E+02  0.1197E+02
     44.936  0.2127E-01  0.2829E-01  0.1199E+02  0.1197E+02
     45.115  0.1939E-01  0.2592E-01  0.1199E+02  0.1198E+02
     45.293  0.1396E-01  0.2369E-01  0.1200E+02  0.1198E+02
     45.471  0.6743E-02  0.2159E-01  0.1200E+02  0.1199E+02
     45.650  0.3001E-02  0.1963E-01  0.1200E+02  0.1199E+02
     45.828  0.0000E+00  0.1394E-01  0.1200E+02  0.1200E+02
     46.006  0.0000E+00  0.8153E-02  0.1200E+02  0.1200E+02
     46.185  0.0000E+00  0.4232E-02  0.1200E+02  0.1200E+02
     46.363  0.0000E+00  0.1219E-03  0.1200E+02  0.1200E+02
     46.541  0.0000E+00  0.0000E+00  0.1200E+02  0.1200E+02
     46.720  0.0000E+00  0.0000E+00  0.1200E+02  0.1200E+02
     46.898  0.0000E+00  0.0000E+00  0.1200E+02  0.1200E+02
     47.077  0.0000E+00  0.0000E+00  0.1200E+02  0.1200E+02
     47.255  0.0000E+00  0.0000E+00  0.1200E+02  0.1200E+02
     47.433  0.0000E+00  0.0000E+00  0.1200E+02  0.1200E+02
     47.612  0.0000E+00  0.0000E+00  0.1200E+02  0.1200E+02
     47.790  0.0000E+00  0.0000E+00  0.1200E+02  0.1200E+02
     47.968  0.0000E+00  0.0000E+00  0.1200E+02  0.1200E+02
     48.147  0.0000E+00  0.0000E+00  0.1200E+02  0.1200E+02
     48.325  0.0000E+00  0.0000E+00  0.1200E+02  0.1200E+02
     48.503  0.0000E+00  0.0000E+00  0.1200E+02  0.1200E+02
     48.682  0.0000E+00  0.0000E+00  0.1200E+02  0.1200E+02
     48.860  0.0000E+00  0.0000E+00  0.1200E+02  0.1200E+02
     48.86016830     -4.64897537  301      6.34384374      1.00000000
     -4.649  0.0000E+00  0.0000E+00  0.0000E+00  0.0000E+00  0.0000E+00  0.0000E+00  0.0000E+00  0.0000E+00  0.0000E+00  0.0000E+00  0.0000E+00  0.0000E+00  0.0000E+00  0.0000E+00  0.0000E+00  0.0000E+00  0.0000E+00  0.0000E+00
     -4.471  0.0000E+00  0.0000E+00  0.0000E+00  0.0000E+00  0.0000E+00  0.0000E+00  0.0000E+00  0.0000E+00  0.0000E+00  0.0000E+00  0.0000E+00  0.0000E+00  0.0000E+00  0.0000E+00  0.0000E+00  0.0000E+00  0.0000E+00  0.0000E+00
     -4.292  0.0000E+00  0.0000E+00  0.0000E+00  0.0000E+00  0.0000E+00  0.0000E+00  0.0000E+00  0.0000E+00  0.0000E+00  0.0000E+00  0.0000E+00  0.0000E+00  0.0000E+00  0.0000E+00  0.0000E+00  0.0000E+00  0.0000E+00  0.0000E+00
     -4.114  0.0000E+00  0.0000E+00  0.0000E+00  0.0000E+00  0.0000E+00  0.0000E+00  0.0000E+00  0.0000E+00  0.0000E+00  0.0000E+00  0.0000E+00  0.0000E+00  0.0000E+00  0.0000E+00  0.0000E+00  0.0000E+00  0.0000E+00  0.0000E+00
     -3.936  0.0000E+00  0.0000E+00  0.0000E+00  0.0000E+00  0.0000E+00  0.0000E+00  0.0000E+00  0.0000E+00  0.0000E+00  0.0000E+00  0.0000E+00  0.0000E+00  0.0000E+00  0.0000E+00  0.0000E+00  0.0000E+00  0.0000E+00  0.0000E+00
     -3.757  0.0000E+00  0.0000E+00  0.0000E+00  0.0000E+00  0.0000E+00  0.0000E+00  0.0000E+00  0.0000E+00  0.0000E+00  0.0000E+00  0.0000E+00  0.0000E+00  0.0000E+00  0.0000E+00  0.0000E+00  0.0000E+00  0.0000E+00  0.0000E+00
     -3.579  0.0000E+00  0.0000E+00  0.0000E+00  0.0000E+00  0.0000E+00  0.0000E+00  0.0000E+00  0.0000E+00  0.0000E+00  0.0000E+00  0.0000E+00  0.0000E+00  0.0000E+00  0.0000E+00  0.0000E+00  0.0000E+00  0.0000E+00  0.0000E+00
     -3.400  0.0000E+00  0.0000E+00  0.0000E+00  0.0000E+00  0.0000E+00  0.0000E+00  0.0000E+00  0.0000E+00  0.0000E+00  0.0000E+00  0.0000E+00  0.0000E+00  0.0000E+00  0.0000E+00  0.0000E+00  0.0000E+00  0.0000E+00  0.0000E+00
     -3.222  0.0000E+00  0.0000E+00  0.0000E+00  0.0000E+00  0.0000E+00  0.0000E+00  0.0000E+00  0.0000E+00  0.0000E+00  0.0000E+00  0.0000E+00  0.0000E+00  0.0000E+00  0.0000E+00  0.0000E+00  0.0000E+00  0.0000E+00  0.0000E+00
     -3.044  0.0000E+00  0.0000E+00  0.0000E+00  0.0000E+00  0.0000E+00  0.0000E+00  0.0000E+00  0.0000E+00  0.0000E+00  0.0000E+00  0.0000E+00  0.0000E+00  0.0000E+00  0.0000E+00  0.0000E+00  0.0000E+00  0.0000E+00  0.0000E+00
     -2.865  0.0000E+00  0.0000E+00  0.0000E+00  0.0000E+00  0.0000E+00  0.0000E+00  0.0000E+00  0.0000E+00  0.0000E+00  0.0000E+00  0.0000E+00  0.0000E+00  0.0000E+00  0.0000E+00  0.0000E+00  0.0000E+00  0.0000E+00  0.0000E+00
     -2.687  0.0000E+00  0.0000E+00  0.0000E+00  0.0000E+00  0.0000E+00  0.0000E+00  0.0000E+00  0.0000E+00  0.0000E+00  0.0000E+00  0.0000E+00  0.0000E+00  0.0000E+00  0.0000E+00  0.0000E+00  0.0000E+00  0.0000E+00  0.0000E+00
     -2.509  0.0000E+00  0.0000E+00  0.0000E+00  0.0000E+00  0.0000E+00  0.0000E+00  0.0000E+00  0.0000E+00  0.0000E+00  0.0000E+00  0.0000E+00  0.0000E+00  0.0000E+00  0.0000E+00  0.0000E+00  0.0000E+00  0.0000E+00  0.0000E+00
     -2.330  0.0000E+00  0.0000E+00  0.0000E+00  0.0000E+00  0.0000E+00  0.0000E+00  0.0000E+00  0.0000E+00  0.0000E+00  0.0000E+00  0.0000E+00  0.0000E+00  0.0000E+00  0.0000E+00  0.0000E+00  0.0000E+00  0.0000E+00  0.0000E+00
     -2.152  0.8527E-02  0.0000E+00  0.8895E-04  0.0000E+00  0.6036E-04  0.0000E+00  0.3798E-03  0.0000E+00  0.2696E-04  0.0000E+00  0.7078E-05  0.0000E+00  0.9741E-05  0.0000E+00  0.6754E-05  0.0000E+00  0.1108E-04  0.0000E+00
     -1.974  0.1274E-01  0.0000E+00  0.1929E-03  0.0000E+00  0.1211E-03  0.0000E+00  0.6758E-03  0.0000E+00  0.6539E-04  0.0000E+00  0.1918E-04  0.0000E+00  0.2442E-04  0.0000E+00  0.1461E-04  0.0000E+00  0.2767E-04  0.0000E+00
     -1.795  0.1616E-01  0.8403E-02  0.2996E-03  0.8768E-04  0.1710E-03  0.5923E-04  0.1005E-02  0.3727E-03  0.1135E-03  0.1913E-04  0.3633E-04  0.5275E-05  0.4496E-04  0.6813E-05  0.2262E-04  0.5085E-05  0.5327E-04  0.8185E-05
     -1.617  0.1878E-01  0.1253E-01  0.4089E-03  0.1904E-03  0.2101E-03  0.1191E-03  0.1367E-02  0.6613E-03  0.1713E-03  0.4606E-04  0.5854E-04  0.1364E-04  0.7135E-04  0.1680E-04  0.3077E-04  0.1087E-04  0.8788E-04  0.1972E-04
     -1.438  0.2305E-01  0.1586E-01  0.6078E-03  0.2957E-03  0.3110E-03  0.1685E-03  0.1898E-02  0.9808E-03  0.2664E-03  0.7940E-04  0.1204E-03  0.2495E-04  0.1137E-03  0.3065E-04  0.5024E-04  0.1660E-04  0.1427E-03  0.3717E-04
     -1.260  0.2689E-01  0.1841E-01  0.8423E-03  0.4038E-03  0.4557E-03  0.2075E-03  0.2430E-02  0.1331E-02  0.3950E-03  0.1192E-03  0.2344E-03  0.3921E-04  0.1726E-03  0.4836E-04  0.8727E-04  0.2225E-04  0.2184E-03  0.6053E-04
     -1.082  0.2941E-01  0.2237E-01  0.1084E-02  0.5925E-03  0.6241E-03  0.3011E-03  0.2905E-02  0.1834E-02  0.5502E-03  0.1819E-03  0.3940E-03  0.7636E-04  0.2458E-03  0.7534E-04  0.1401E-03  0.3492E-04  0.3122E-03  0.9618E-04
     -0.903  0.2870E-01  0.2607E-01  0.1310E-02  0.8211E-03  0.8399E-03  0.4407E-03  0.3396E-02  0.2347E-02  0.7816E-03  0.2647E-03  0.6380E-03  0.1455E-03  0.3863E-03  0.1111E-03  0.2408E-03  0.5874E-04  0.5276E-03  0.1441E-03
     -0.725  0.3103E-01  0.2848E-01  0.1531E-02  0.1057E-02  0.1013E-02  0.6033E-03  0.3996E-02  0.2802E-02  0.1159E-02  0.3617E-03  0.8257E-03  0.2415E-03  0.6022E-03  0.1538E-03  0.3389E-03  0.9208E-04  0.7238E-03  0.2020E-03
     -0.547  0.3350E-01  0.2732E-01  0.1761E-02  0.1277E-02  0.1194E-02  0.8181E-03  0.4664E-02  0.3221E-02  0.1611E-02  0.4835E-03  0.1046E-02  0.3932E-03  0.8673E-03  0.2239E-03  0.4594E-03  0.1542E-03  0.9535E-03  0.3297E-03
     -0.368  0.3611E-01  0.2927E-01  0.1999E-02  0.1487E-02  0.1383E-02  0.9808E-03  0.5402E-02  0.3755E-02  0.2138E-02  0.6922E-03  0.1298E-02  0.4988E-03  0.1181E-02  0.3324E-03  0.6025E-03  0.2107E-03  0.1217E-02  0.4446E-03
     -0.190  0.3886E-01  0.3131E-01  0.2245E-02  0.1704E-02  0.1579E-02  0.1150E-02  0.6209E-02  0.4345E-02  0.2740E-02  0.9384E-03  0.1583E-02  0.6204E-03  0.1545E-02  0.4631E-03  0.7681E-03  0.2787E-03  0.1513E-02  0.5772E-03
     -0.012  0.4174E-01  0.3344E-01  0.2500E-02  0.1928E-02  0.1783E-02  0.1324E-02  0.7085E-02  0.4993E-02  0.3417E-02  0.1222E-02  0.1900E-02  0.7579E-03  0.1957E-02  0.6159E-03  0.9561E-03  0.3582E-03  0.1843E-02  0.7277E-03
      0.167  0.4488E-01  0.3567E-01  0.2884E-02  0.2159E-02  0.2172E-02  0.1505E-02  0.8164E-02  0.5697E-02  0.4551E-02  0.1544E-02  0.2833E-02  0.9114E-03  0.2725E-02  0.7910E-03  0.1445E-02  0.4491E-03  0.2352E-02  0.8959E-03
      0.345  0.4960E-01  0.3798E-01  0.3439E-02  0.2398E-02  0.2758E-02  0.1692E-02  0.9750E-02  0.6459E-02  0.6560E-02  0.1903E-02  0.4589E-02  0.1081E-02  0.4202E-02  0.9883E-03  0.2140E-02  0.5516E-03  0.3343E-02  0.1082E-02
      0.524  0.5363E-01  0.3947E-01  0.3901E-02  0.2584E-02  0.3308E-02  0.1873E-02  0.1157E-01  0.7211E-02  0.9078E-02  0.2287E-02  0.6700E-02  0.1281E-02  0.6216E-02  0.1217E-02  0.2958E-02  0.7185E-03  0.4719E-02  0.1276E-02
      0.702  0.5712E-01  0.4235E-01  0.4171E-02  0.3022E-02  0.3674E-02  0.2316E-02  0.1376E-01  0.8293E-02  0.1334E-01  0.3098E-02  0.9358E-02  0.1987E-02  0.9609E-02  0.1719E-02  0.3869E-02  0.1009E-02  0.6664E-02  0.1654E-02
      0.880  0.6471E-01  0.4471E-01  0.4646E-02  0.3404E-02  0.4107E-02  0.2747E-02  0.1662E-01  0.9466E-02  0.2200E-01  0.4054E-02  0.1375E-01  0.2816E-02  0.1602E-01  0.2372E-02  0.4868E-02  0.1333E-02  0.9272E-02  0.2179E-02
      1.059  0.7377E-01  0.4628E-01  0.5131E-02  0.3695E-02  0.4598E-02  0.3136E-02  0.1987E-01  0.1069E-01  0.3437E-01  0.5170E-02  0.1982E-01  0.3751E-02  0.2532E-01  0.3191E-02  0.6035E-02  0.1686E-02  0.1257E-01  0.2851E-02
      1.237  0.1069E+00  0.4747E-01  0.6322E-02  0.3888E-02  0.6386E-02  0.3438E-02  0.2636E-01  0.1194E-01  0.8729E-01  0.6692E-02  0.6672E-01  0.4787E-02  0.6730E-01  0.4294E-02  0.8030E-02  0.2053E-02  0.3006E-01  0.3640E-02
      1.415  0.9792E-01  0.5008E-01  0.6134E-02  0.4171E-02  0.6977E-02  0.3768E-02  0.2981E-01  0.1339E-01  0.9033E-01  0.8884E-02  0.6298E-01  0.6059E-02  0.1103E+00  0.5785E-02  0.1179E-01  0.2437E-02  0.5919E-01  0.4538E-02
      1.594  0.1054E+00  0.5347E-01  0.6689E-02  0.4488E-02  0.8276E-02  0.4108E-02  0.4451E-01  0.1504E-01  0.1118E+00  0.1199E-01  0.7773E-01  0.7665E-02  0.1785E+00  0.7852E-02  0.1916E-01  0.2850E-02  0.9754E-01  0.5571E-02
      1.772  0.9637E-01  0.5724E-01  0.8288E-02  0.4810E-02  0.9210E-02  0.4468E-02  0.5924E-01  0.1684E-01  0.1304E+00  0.1582E-01  0.8796E-01  0.9581E-02  0.3463E+00  0.1042E-01  0.3359E-01  0.3309E-02  0.1499E+00  0.6742E-02
      1.950  0.6757E-01  0.6139E-01  0.8275E-02  0.5138E-02  0.7591E-02  0.4847E-02  0.4756E-01  0.1880E-01  0.1057E+00  0.2039E-01  0.8868E-01  0.1181E-01  0.2515E+00  0.1348E-01  0.4386E-01  0.3812E-02  0.1470E+00  0.8052E-02
      2.129  0.3532E-01  0.6590E-01  0.6791E-02  0.5472E-02  0.4568E-02  0.5245E-02  0.2364E-01  0.2091E-01  0.6664E-01  0.2570E-01  0.1019E+00  0.1434E-01  0.9329E-01  0.1703E-01  0.5055E-01  0.4360E-02  0.1097E+00  0.9501E-02
      2.307  0.1881E-01  0.9446E-01  0.6338E-02  0.6985E-02  0.2688E-02  0.7660E-02  0.1675E-01  0.2913E-01  0.3867E-01  0.6440E-01  0.8612E-01  0.4588E-01  0.5556E-01  0.4389E-01  0.4166E-01  0.6784E-02  0.1056E+00  0.2177E-01
      2.486  0.5261E-02  0.9033E-01  0.8354E-02  0.6614E-02  0.2222E-02  0.8289E-02  0.1327E-01  0.3305E-01  0.1165E-01  0.7028E-01  0.5781E-01  0.5230E-01  0.5320E-01  0.5351E-01  0.2341E-01  0.9437E-02  0.1157E+00  0.2623E-01
      2.664  0.8971E-03  0.8405E-01  0.2566E-01  0.6034E-02  0.1981E-01  0.8096E-02  0.1192E-01  0.3548E-01  0.2165E+00  0.7411E-01  0.4037E-01  0.5653E-01  0.9788E-01  0.6159E-01  0.2416E+00  0.1210E-01  0.1422E+00  0.3036E-01
      2.842  0.2298E-02  0.7674E-01  0.3125E-01  0.5880E-02  0.2294E-01  0.7891E-02  0.1753E-01  0.3808E-01  0.2888E+00  0.7426E-01  0.2869E+00  0.5791E-01  0.1538E+00  0.9019E-01  0.6230E+00  0.1540E-01  0.1864E+00  0.5951E-01
      3.021  0.4911E-02  0.6955E-01  0.2419E-01  0.6385E-02  0.1213E-01  0.7834E-02  0.1704E-01  0.4565E-01  0.1280E+00  0.7515E-01  0.2078E+00  0.5798E-01  0.1329E+00  0.1388E+00  0.3892E+00  0.2027E-01  0.1882E+00  0.1051E+00
      3.199  0.7328E-02  0.7159E-01  0.1657E-01  0.9046E-02  0.1630E-01  0.9165E-02  0.7635E-02  0.7144E-01  0.1513E+00  0.8912E-01  0.9885E-01  0.7047E-01  0.8076E-01  0.2580E+00  0.2135E+00  0.3079E-01  0.6166E-01  0.1776E+00
      3.377  0.1108E-01  0.4242E-01  0.2629E-01  0.8712E-02  0.2865E-01  0.8042E-02  0.1557E-01  0.3405E-01  0.1726E+00  0.6582E-01  0.1422E+00  0.7365E-01  0.5799E-01  0.1514E+00  0.1896E+00  0.3200E-01  0.6972E-01  0.8769E-01
      3.556  0.1758E-01  0.2602E-01  0.3879E-01  0.7845E-02  0.3705E-01  0.5737E-02  0.2829E-01  0.2110E-01  0.2454E+00  0.4476E-01  0.2567E+00  0.6814E-01  0.6972E-01  0.8055E-01  0.2138E+00  0.3274E-01  0.1140E+00  0.6420E-01
      3.734  0.2878E-01  0.7720E-02  0.6153E-01  0.6859E-02  0.4390E-01  0.2840E-02  0.5439E-01  0.1295E-01  0.4254E+00  0.9971E-02  0.4103E+00  0.4876E-01  0.9261E-01  0.4495E-01  0.3593E+00  0.1062E-01  0.2019E+00  0.6103E-01
      3.912  0.1582E-01  0.1466E-03  0.3555E-01  0.7032E-02  0.2686E-01  0.1198E-02  0.2449E-01  0.5589E-02  0.1635E+00  0.4192E-02  0.1826E+00  0.1609E-02  0.3827E-01  0.4889E-01  0.2331E+00  0.4744E-02  0.1055E+00  0.7140E-01
      4.091  0.8574E-02  0.4521E-03  0.2263E-01  0.3149E-01  0.1650E-01  0.2059E-01  0.1340E-01  0.1358E-01  0.6055E-01  0.1665E+00  0.9106E-01  0.2203E-01  0.1732E-01  0.8643E-01  0.9620E-01  0.2068E+00  0.6663E-01  0.1206E+00
      4.269  0.5877E-02  0.1571E-02  0.1774E-01  0.4002E-01  0.1289E-01  0.2574E-01  0.1001E-01  0.1895E-01  0.5196E-01  0.2359E+00  0.8395E-01  0.1470E+00  0.1539E-01  0.1254E+00  0.8666E-01  0.4266E+00  0.5398E-01  0.1408E+00