    1    1    1    2
  0.1074248E+02  0.2407551E-09  0.2407551E-09  0.2407551E-09  0.5000000E-15
  1.000000000000000E-004
  CAR 
 Fe BCC                                  
      8     26     12
 
  0.6250000E-01  0.6250000E-01  0.6250000E-01  0.1562500E-01
    1       -1.572256     -1.206219   1.000000   1.000000
    2        3.666187      5.307983   1.000000   1.000000
    3        3.666187      5.307983   1.000000   1.000000
    4        4.559485      6.280131   1.000000   0.490677
    5        5.297391      7.445220   1.000000   0.000000
    6        5.297391      7.445220   1.002925   0.000000
    7       28.201089     28.674311   0.000000   0.000000
    8       28.201089     28.674311   0.000000   0.000000
    9       32.625427     32.767362   0.000000   0.000000
   10       32.697050     33.495988   0.000000   0.000000
   11       38.189908     38.641208   0.000000   0.000000
   12       38.189908     38.641208   0.000000   0.000000
 
  0.1875000E+00  0.6250000E-01  0.6250000E-01  0.4687500E-01
    1        0.081200      0.522650   1.000000   1.000000
    2        3.206975      4.782593   1.000000   1.000000
    3        3.441139      4.978987   1.000000   1.000000
    4        5.217069      7.305819   1.000000  -0.028727
    5        5.438586      7.449622   1.001585   0.000000
    6        5.686980      7.615994   0.870302   0.000000
    7       22.806674     23.550099   0.000000   0.000000
    8       25.848484     26.386613   0.000000   0.000000
    9       28.631868     29.360473   0.000000   0.000000
   10       33.098112     33.400926   0.000000   0.000000
   11       37.736038     38.410141   0.000000   0.000000
   12       38.793889     39.229625   0.000000   0.000000
 
  0.3125000E+00  0.6250000E-01  0.6250000E-01  0.4687500E-01
    1        1.240586      2.163825   1.000000   1.000000
    2        2.815015      4.334491   1.000000   1.000000
    3        4.246258      5.319477   1.000000   1.000000
    4        5.367806      7.437671   1.000000   0.000000
    5        5.552731      7.764386   1.034385   0.000000
    6        7.209918      8.890508  -0.002121   0.000000
    7       17.296174     18.274272   0.000000   0.000000
    8       24.080997     24.589443   0.000000   0.000000
    9       26.148838     26.814237   0.000000   0.000000
   10       32.691283     33.181492   0.000000   0.000000
   11       37.049123     37.726794   0.000000   0.000000
   12       42.167764     42.557463   0.000000   0.000000
 
  0.4375000E+00  0.6250000E-01  0.6250000E-01  0.2343750E-01
    1        1.287830      2.464598   1.000000   1.000000
    2        2.664918      4.163528   1.000000   1.000000
    3        5.318766      6.288950   1.000000   1.000000
    4        5.442265      7.519668   1.000000   0.000000
    5        5.600001      7.828208   1.073408   0.000000
    6        8.554332      9.886764  -0.004857   0.000000
    7       14.206915     15.441506   0.000000   0.000000
    8       23.423726     23.908656   0.000000   0.000000
    9       25.217527     25.844291   0.000000   0.000000
   10       32.492823     33.041450   0.000000   0.000000
   11       36.975584     37.678308   0.000000   0.000000
   12       41.945726     42.246751   0.000000   0.000000
 
 -0.6250000E-01  0.6250000E-01  0.6250000E-01  0.1171875E-01
    1       -2.216742     -1.858400   1.000000   1.000000
    2        3.894204      5.566084   1.000000   1.000000
    3        3.894204      5.566084   1.000000   1.000000
    4        3.992927      5.681385   1.000000   1.181535
    5        5.212582      7.349493   1.000000   0.000000
    6        5.440338      7.622350   1.000000   0.000000
    7       30.023535     30.309862   0.000000   0.000000
    8       31.417620     31.673727   0.000000   0.000000
    9       31.417620     31.673727   0.000000   0.000000
   10       35.003366     35.514856   0.000000   0.000000
   11       37.393099     38.147844   0.000000   0.000000
   12       37.393099     38.147844   0.000000   0.000000
 
  0.1875000E+00  0.1875000E+00  0.6250000E-01  0.4687500E-01
    1        1.613520      2.296835   1.000000   1.000000
    2        2.896202      4.380133   1.000000   1.000000
    3        3.107027      4.522435   1.000000   1.000000
    4        5.306610      7.402288   1.000000  -0.000041
    5        5.583968      7.770919   1.001207   0.000000
    6        7.441721      9.109751  -0.021018   0.000000
    7       20.217781     21.051211   0.000000   0.000000
    8       21.123249     21.840290   0.000000   0.000000
    9       25.180296     25.827980   0.000000   0.000000
   10       35.103022     35.395560   0.000000   0.000000
   11       39.097735     39.599182   0.000000   0.000000
   12       41.585454     42.086842   0.000000   0.000000
 
  0.3125000E+00  0.1875000E+00  0.6250000E-01  0.9375000E-01
    1        1.967277      3.163347   1.000000   1.000000
    2        2.706080      4.145288   1.000000   1.000000
    3        3.795318      4.962096   1.000000   1.000000
    4        5.462352      7.564684   1.000000   0.000000
    5        5.683326      7.857017   1.010570   0.000000
    6        9.961405     11.280855  -0.003068   0.000000
    7       15.561484     16.589877   0.000000   0.000000
    8       19.471099     20.211878   0.000000   0.000000
    9       23.814725     24.440330   0.000000   0.000000
   10       35.550360     35.937483   0.000000   0.000000
   11       40.052251     40.436254   0.000000   0.000000
   12       42.299493     42.880113   0.000000   0.000000
 
 -0.1875000E+00  0.1875000E+00  0.6250000E-01  0.4687500E-01
    1       -0.973307     -0.590940   1.000000   1.000000
    2        3.593439      5.221467   1.000000   1.000000
    3        3.811086      5.438263   1.000000   1.000000
    4        4.677191      6.415259   1.000000   0.187481
    5        4.930528      6.983121   1.000000   0.000000
    6        5.551947      7.743060   1.008063   0.000000
    7       25.689318     26.318648   0.000000   0.000000
    8       29.051148     29.442373   0.000000   0.000000
    9       30.091395     30.654372   0.000000   0.000000
   10       34.357194     34.881627   0.000000   0.000000
   11       34.582142     35.229008   0.000000   0.000000
   12       36.174600     36.706181   0.000000   0.000000
 
  0.3125000E+00  0.3125000E+00  0.6250000E-01  0.1562500E-01
    1        2.308478      3.666130   1.000000   1.000000
    2        3.102053      4.392175   1.000000   1.000000
    3        3.102053      4.392175   1.000000   1.000000
    4        5.618448      7.751144   1.000000   0.000000
    5        5.618448      7.751144   1.001997   0.000000
    6       13.577930     14.645163   0.000000   0.000000
    7       13.577931     14.645163   0.000000   0.000000
    8       16.305913     17.168000   0.000000   0.000000
    9       23.330097     23.978762   0.000000   0.000000
   10       38.054849     38.404026   0.000000   0.000000
   11       38.054849     38.404026   0.000000   0.000000
   12       45.729551     46.427934   0.000000   0.000000
 
 -0.3125000E+00  0.3125000E+00  0.6250000E-01  0.4687500E-01
    1        0.708162      1.335013   1.000000   1.000000
    2        3.148509      4.717364   1.000000   1.000000
    3        3.865022      5.231541   1.000000   1.000000
    4        5.133698      7.104157   1.000000  -0.017908
    5        5.741026      7.641843   1.015759   0.000000
    6        5.805648      7.888224   0.685817   0.000000
    7       19.894453     20.770529   0.000000   0.000000
    8       26.556988     26.934073   0.000000   0.000000
    9       28.039377     28.737963   0.000000   0.000000
   10       32.584271     33.215882   0.000000   0.000000
   11       34.635761     35.265446   0.000000   0.000000
   12       37.526523     37.997463   0.000000   0.000000
 
 -0.1875000E+00  0.3125000E+00  0.6250000E-01  0.4687500E-01
    1        0.529061      1.021045   1.000000   1.000000
    2        3.364775      4.970634   1.000000   1.000000
    3        3.573837      5.127923   1.000000   1.000361
    4        4.770715      6.722339   1.000000  -0.013864
    5        5.521870      7.355788   1.003426   0.000000
    6        5.935955      8.024948   0.713945   0.000000
    7       22.856285     23.634743   0.000000   0.000000
    8       23.958289     24.622081   0.000000   0.000000
    9       30.458566     30.958636   0.000000   0.000000
   10       30.929566     31.492413   0.000000   0.000000
   11       34.764804     35.330282   0.000000   0.000000
   12       39.510715     39.996571   0.000000   0.000000
 
 -0.4375000E+00  0.4375000E+00  0.6250000E-01  0.4687500E-01
    1        1.159412      2.279678   1.000000   1.000000
    2        2.848120      4.379701   1.000000   1.000000
    3        4.752421      6.051961   1.000000   1.000000
    4        5.334986      7.343878   1.000000   0.000000
    5        6.719017      8.427139   0.313640   0.000000
    6        6.982352      8.652282   0.004946   0.000000
    7       15.106525     16.259624   0.000000   0.000000
    8       25.115463     25.459199   0.000000   0.000000
    9       26.357589     27.007167   0.000000   0.000000
   10       31.858041     32.546983   0.000000   0.000000
   11       34.991968     35.697260   0.000000   0.000000
   12       39.109986     39.496099   0.000000   0.000000
 
 -0.3125000E+00  0.4375000E+00  0.6250000E-01  0.9375000E-01
    1        1.613446      2.583408   1.000000   1.000000
    2        3.017930      4.527428   1.000000   1.000000
    3        3.648913      5.033524   1.000000   1.000828
    4        5.098593      7.033114   1.000000  -0.002575
    5        5.969123      7.982024   1.013442   0.000000
    6        7.717146      9.321126  -0.037688   0.000000
    7       17.666356     18.618848   0.000000   0.000000
    8       21.626539     22.337209   0.000000   0.000000
    9       28.310053     28.801986   0.000000   0.000000
   10       31.605112     32.195257   0.000000   0.000000
   11       35.344114     35.875312   0.000000   0.000000
   12       40.125928     40.706369   0.000000   0.000000
 
 -0.4375000E+00 -0.4375000E+00  0.6250000E-01  0.4687500E-01
    1        1.643596      2.886222   1.000000   1.000000
    2        2.998712      4.516782   1.000000   1.000000
    3        3.854695      5.208008   1.000000   1.000745
    4        5.223144      7.194540   1.000000   0.000000
    5        6.335952      8.275375   0.712693   0.000000
    6        9.709814     10.911724  -0.001695   0.000000
    7       14.285569     15.474708   0.000000   0.000000
    8       20.897544     21.594954   0.000000   0.000000
    9       27.418900     27.885064   0.000000   0.000000
   10       32.012093     32.676283   0.000000   0.000000
   11       36.192427     36.593328   0.000000   0.000000
   12       39.434707     40.076474   0.000000   0.000000
 
 -0.3125000E+00 -0.4375000E+00  0.6250000E-01  0.4687500E-01
    1        2.394308      3.673797   1.000000   1.000000
    2        2.693104      4.126702   1.000000   1.000000
    3        3.281359      4.703050   1.000000   1.001966
    4        5.426646      7.368863   1.000000   0.000000
    5        5.932409      7.905689   1.062275   0.000000
    6       11.065700     12.301643  -0.000420   0.000000
    7       15.611415     16.645692   0.000000   0.000000
    8       17.101277     17.919131   0.000000   0.000000
    9       28.815184     29.380985   0.000000   0.000000
   10       31.892991     32.379813   0.000000   0.000000
   11       34.188240     34.672599   0.000000   0.000000
   12       41.989961     42.787112   0.000000   0.000000
 
  0.1875000E+00  0.1875000E+00  0.1875000E+00  0.1562500E-01
    1        2.686024      3.778579   1.000000   1.000000
    2        2.686024      4.085849   1.000000   1.000000
    3        2.859094      4.085849   1.000000   1.000000
    4        5.567221      7.764412   1.000000   0.000000
    5        5.567221      7.764412   1.000000   0.000000
    6        9.982730     11.373050  -0.004022   0.000000
    7       18.522408     19.371206   0.000000   0.000000
    8       18.522408     19.371206   0.000000   0.000000
    9       20.094308     20.741438   0.000000   0.000000
   10       39.886120     40.034325   0.000000   0.000000
   11       42.823825     43.238894   0.000000   0.000000
   12       42.823825     43.238894   0.000000   0.000000
 
  0.3125000E+00  0.1875000E+00  0.1875000E+00  0.2343750E-01
    1        2.556701      3.824964   1.000000   1.000000
    2        2.640024      4.008536   1.000000   1.000000
    3        3.353352      4.564756   1.000000   1.000000
    4        5.604522      7.802857   1.000000   0.000000
    5        5.629118      7.863695   1.000000   0.000000
    6       12.836030     13.905605   0.000000   0.000000
    7       14.820549     15.848171   0.000000   0.000000
    8       17.937760     18.788289   0.000000   0.000000
    9       19.101689     19.761306   0.000000   0.000000
   10       41.036542     41.289521   0.000000   0.000000
   11       44.581532     44.903427   0.000000   0.000000
   12       45.163220     45.680489   0.000000   0.000000
 
 -0.1875000E+00  0.1875000E+00  0.1875000E+00  0.1171875E-01
    1        0.112358      0.547451   1.000000   1.000000
    2        4.046184      5.691119   1.000000   1.000000
    3        4.056188      5.691119   1.000000   1.000327
    4        4.056188      5.957981   1.000000   0.891542
    5        4.692074      6.438888   1.000000   0.000000
    6        5.948548      8.106890   0.852046   0.000000
    7       25.708883     26.347019   0.000000   0.000000
    8       26.976344     27.685447   0.000000   0.000000
    9       26.976344     27.685447   0.000000   0.000000
   10       28.956695     29.422796   0.000000   0.000000
   11       38.621269     39.065963   0.000000   0.000000
   12       38.621269     39.065963   0.000000   0.000000
 
 -0.3125000E+00  0.3125000E+00  0.1875000E+00  0.4687500E-01
    1        1.465386      2.197813   1.000000   1.000000
    2        3.170433      4.822175   1.000000   1.000000
    3        3.899307      5.511080   1.000000   1.009072
    4        4.653127      6.395708   1.000000   0.051516
    5        5.674358      7.497129   1.043885   0.000000
    6        6.816313      8.663326   0.067233   0.000000
    7       20.757417     21.603977   0.000000   0.000000
    8       24.299729     25.029270   0.000000   0.000000
    9       25.355302     25.982539   0.000000   0.000000
   10       29.523540     30.069292   0.000000   0.000000
   11       37.671365     38.263701   0.000000   0.000000
   12       39.533523     40.069148   0.000000   0.000000
 
 -0.4375000E+00  0.4375000E+00  0.1875000E+00  0.4687500E-01
    1        1.759470      3.015296   1.000000   1.000000
    2        3.085700      4.515839   1.000000   1.000000
    3        3.677421      5.262790   1.000000   1.022065
    4        4.909364      6.735627   1.000000   0.000000
    5        6.627333      8.550776   0.166604   0.000000
    6        9.305548     10.544488  -0.010276   0.000000
    7       15.587678     16.637026   0.000000   0.000000
    8       22.601585     23.283102   0.000000   0.000000
    9       24.489451     25.125230   0.000000   0.000000
   10       32.017429     32.528180   0.000000   0.000000
   11       36.710919     37.330445   0.000000   0.000000
   12       37.558773     38.213821   0.000000   0.000000
 
 -0.3125000E+00  0.4375000E+00  0.1875000E+00  0.4687500E-01
    1        2.113633      3.252364   1.000000   1.000000
    2        2.472312      4.047866   1.000000   1.000000
    3        3.990937      5.594536   1.000000   1.008090
    4        5.088616      6.848172   1.000000  -0.002289
    5        6.154555      8.039657   0.968998   0.000000
    6        9.228906     10.566407  -0.012875   0.000000
    7       18.526365     19.457237   0.000000   0.000000
    8       19.205274     19.950993   0.000000   0.000000
    9       26.824831     27.509982   0.000000   0.000000
   10       28.483330     29.028672   0.000000   0.000000
   11       36.408620     37.021089   0.000000   0.000000
   12       39.644223     40.372376   0.000000   0.000000
 
 -0.4375000E+00 -0.4375000E+00  0.1875000E+00  0.4687500E-01
    1        2.064358      3.503330   1.000000   1.000000
    2        2.481313      3.920681   1.000000   1.000000
    3        3.769775      5.319613   1.000000   1.028445
    4        5.438850      7.240201   1.000000   0.000000
    5        6.410737      8.308541   0.341645   0.000000
    6       12.279664     13.319800   0.000000   0.000000
    7       14.684196     15.718125   0.000000   0.000000
    8       18.155084     18.934231   0.000000   0.000000
    9       26.852135     27.500435   0.000000   0.000000
   10       30.041431     30.602232   0.000000   0.000000
   11       34.006212     34.670262   0.000000   0.000000
   12       38.590604     39.315751   0.000000   0.000000
 
 -0.3125000E+00  0.3125000E+00  0.3125000E+00  0.1171875E-01
    1        1.883890      2.985424   1.000000   1.000000
    2        2.427745      4.076239   1.000000   1.000000
    3        4.911882      6.582285   1.000000   0.610976
    4        4.911882      6.582285   1.000000  -0.000088
    5        5.714890      7.553710   1.177650   0.000000
    6        8.572724      9.942093  -0.018381   0.000000
    7       21.228545     21.936390   0.000000   0.000000
    8       21.228545     21.936390   0.000000   0.000000
    9       23.470615     24.418481   0.000000   0.000000
   10       25.723421     26.329800   0.000000   0.000000
   11       38.060403     38.794407   0.000000   0.000000
   12       42.597769     43.185622   0.000000   0.000000
 
 -0.4375000E+00  0.4375000E+00  0.3125000E+00  0.4687500E-01
    1        1.773134      3.198293   1.000000   1.000000
    2        1.920172      3.422291   1.000000   1.000000
    3        5.068069      6.770517   1.000000   0.304353
    4        5.384638      7.101652   1.000000   0.000000
    5        6.500875      8.411384   0.101491   0.000000
    6       11.754095     12.728633   0.000000   0.000000
    7       16.704747     17.524101   0.000000   0.000000
    8       19.298692     19.932472   0.000000   0.000000
    9       23.705421     24.611918   0.000000   0.000000
   10       26.654132     27.348762   0.000000   0.000000
   11       33.395493     34.173649   0.000000   0.000000
   12       42.089116     42.643152   0.000000   0.000000
 
 -0.4375000E+00 -0.4375000E+00  0.3125000E+00  0.1562500E-01
    1        1.619207      3.103834   1.000000   1.000000
    2        1.619207      3.103834   1.000000   1.000000
    3        5.185350      6.872384   1.000000   0.148289
    4        6.322282      8.190598   1.000000   0.000000
    5        6.322282      8.190598   0.254048   0.000000
    6       15.231322     16.024501   0.000000   0.000000
    7       15.231322     16.024501   0.000000   0.000000
    8       16.455352     17.127794   0.000000   0.000000
    9       25.163952     25.989202   0.000000   0.000000
   10       25.163952     25.989202   0.000000   0.000000
   11       30.928709     31.732080   0.000000   0.000000
   12       42.681216     43.225643   0.000000   0.000000
 
 -0.4375000E+00  0.4375000E+00  0.4375000E+00  0.1171875E-01
    1        1.328918      2.795291   1.000000   1.000000
    2        1.330216      2.829419   1.000000   1.000000
    3        6.275125      8.131924   1.000000  -0.037140
    4        6.275125      8.131924   1.000000   0.000000
    5        6.462450      8.373693   0.010768   0.000000
    6       14.572301     15.228518   0.000000   0.000000
    7       17.138570     17.650454   0.000000   0.000000
    8       17.138570     17.650454   0.000000   0.000000
    9       22.654062     23.769909   0.000000   0.000000
   10       23.847168     24.793486   0.000000   0.000000
   11       29.390512     30.216578   0.000000   0.000000
   12       45.785510     46.234996   0.000000   0.000000
