       N       E                     dE             d eps       ncg     rms          rms(c)
DAV:   1     0.176414526908E+02    0.17641E+02   -0.36649E+03  1376   0.779E+02
DAV:   2    -0.919683944054E+01   -0.26838E+02   -0.24951E+02  1332   0.123E+02
DAV:   3    -0.980338905153E+01   -0.60655E+00   -0.60570E+00  1448   0.215E+01
DAV:   4    -0.980569896784E+01   -0.23099E-02   -0.23132E-02  1424   0.119E+00
DAV:   5    -0.980571515489E+01   -0.16187E-04   -0.16212E-04  1456   0.102E-01    0.141E+01
DAV:   6    -0.927077458516E+01    0.53494E+00   -0.91904E+00  1392   0.425E+01    0.479E+00
DAV:   7    -0.923524473325E+01    0.35530E-01   -0.39640E-01  1468   0.875E+00    0.279E+00
DAV:   8    -0.922272742517E+01    0.12517E-01   -0.45021E-03  1528   0.428E-01    0.123E+00
DAV:   9    -0.921314303713E+01    0.95844E-02   -0.70639E-03  1668   0.480E-01    0.230E-01
DAV:  10    -0.921326823515E+01   -0.12520E-03   -0.74326E-05  1496   0.123E-01    0.134E-01
DAV:  11    -0.921359262849E+01   -0.32439E-03   -0.16959E-04  1632   0.149E-01    0.344E-02
DAV:  12    -0.921364341087E+01   -0.50782E-04   -0.64637E-06  1208   0.187E-02    0.309E-02
DAV:  13    -0.921361559956E+01    0.27811E-04   -0.19743E-06   712   0.147E-02    0.822E-03
DAV:  14    -0.921360342649E+01    0.12173E-04   -0.22692E-07   676   0.340E-03    0.338E-03
DAV:  15    -0.921359651712E+01    0.69094E-05   -0.99497E-08   664   0.262E-03    0.579E-04
DAV:  16    -0.921359602960E+01    0.48751E-06   -0.73574E-09   660   0.620E-04
   1 F= -.92135960E+01 E0= -.92135960E+01  d E =0.000000E+00  mag=     2.0385
