PROCAR lm decomposed
# of k-points:   26         # of bands:  12         # of ions:   1

 k-point    1 :    0.06250000 0.06250000 0.06250000     weight = 0.01562500

band   1 # energy   -1.57225576 # occ.  1.00000000
 
ion      s     py     pz     px    dxy    dyz    dz2    dxz    dx2    tot
  1  0.706  0.023  0.023  0.023  0.003  0.003  0.000  0.003  0.000  0.784
 
band   2 # energy    3.66618651 # occ.  1.00000000
 
ion      s     py     pz     px    dxy    dyz    dz2    dxz    dx2    tot
  1  0.000  0.002  0.000  0.001  0.127  0.232  0.005  0.592  0.018  0.977
 
band   3 # energy    3.66618651 # occ.  1.00000000
 
ion      s     py     pz     px    dxy    dyz    dz2    dxz    dx2    tot
  1  0.000  0.000  0.002  0.001  0.507  0.402  0.018  0.042  0.005  0.977
 
band   4 # energy    4.55948480 # occ.  1.00000000
 
ion      s     py     pz     px    dxy    dyz    dz2    dxz    dx2    tot
  1  0.002  0.004  0.004  0.004  0.322  0.322  0.000  0.322  0.000  0.981
 
band   5 # energy    5.29739128 # occ.  1.00000000
 
ion      s     py     pz     px    dxy    dyz    dz2    dxz    dx2    tot
  1  0.000  0.000  0.000  0.000  0.000  0.014  0.009  0.011  0.934  0.969
 
band   6 # energy    5.29739128 # occ.  1.00292472
 
ion      s     py     pz     px    dxy    dyz    dz2    dxz    dx2    tot
  1  0.000  0.000  0.000  0.000  0.017  0.003  0.934  0.006  0.009  0.969
 
band   7 # energy   28.20108889 # occ.  0.00000000
 
ion      s     py     pz     px    dxy    dyz    dz2    dxz    dx2    tot
  1  0.000  0.048  0.000  0.053  0.000  0.152  0.000  0.138  0.210  0.602
 
band   8 # energy   28.20108889 # occ.  0.00000000
 
ion      s     py     pz     px    dxy    dyz    dz2    dxz    dx2    tot
  1  0.000  0.019  0.067  0.015  0.193  0.042  0.210  0.055  0.000  0.602
 
band   9 # energy   32.62542653 # occ.  0.00000000
 
ion      s     py     pz     px    dxy    dyz    dz2    dxz    dx2    tot
  1  0.000  0.000  0.000  0.000  0.000  0.000  0.000  0.000  0.000  0.000
 
band  10 # energy   32.69705018 # occ.  0.00000000
 
ion      s     py     pz     px    dxy    dyz    dz2    dxz    dx2    tot
  1  0.076  0.167  0.167  0.167  0.175  0.175  0.000  0.175  0.000  1.104
 
band  11 # energy   38.18990805 # occ.  0.00000000
 
ion      s     py     pz     px    dxy    dyz    dz2    dxz    dx2    tot
  1  0.000  0.158  0.068  0.042  0.036  0.022  0.031  0.083  0.051  0.492
 
band  12 # energy   38.18990805 # occ.  0.00000000
 
ion      s     py     pz     px    dxy    dyz    dz2    dxz    dx2    tot
  1  0.000  0.021  0.111  0.136  0.059  0.072  0.051  0.011  0.031  0.492
 

 k-point    2 :    0.18750000 0.06250000 0.06250000     weight = 0.04687500

band   1 # energy    0.08120032 # occ.  1.00000000
 
ion      s     py     pz     px    dxy    dyz    dz2    dxz    dx2    tot
  1  0.541  0.070  0.070  0.021  0.007  0.069  0.004  0.007  0.011  0.799
 
band   2 # energy    3.20697501 # occ.  1.00000000
 
ion      s     py     pz     px    dxy    dyz    dz2    dxz    dx2    tot
  1  0.000  0.003  0.003  0.000  0.470  0.000  0.018  0.470  0.006  0.969
 
band   3 # energy    3.44113870 # occ.  1.00000000
 
ion      s     py     pz     px    dxy    dyz    dz2    dxz    dx2    tot
  1  0.014  0.022  0.022  0.003  0.092  0.557  0.036  0.092  0.109  0.946
 
band   4 # energy    5.21706865 # occ.  1.00000000
 
ion      s     py     pz     px    dxy    dyz    dz2    dxz    dx2    tot
  1  0.001  0.000  0.000  0.000  0.016  0.145  0.199  0.016  0.596  0.973
 
band   5 # energy    5.43858603 # occ.  1.00158452
 
ion      s     py     pz     px    dxy    dyz    dz2    dxz    dx2    tot
  1  0.000  0.000  0.000  0.000  0.014  0.000  0.712  0.014  0.237  0.976
 
band   6 # energy    5.68698033 # occ.  0.87030176
 
ion      s     py     pz     px    dxy    dyz    dz2    dxz    dx2    tot
  1  0.014  0.013  0.013  0.012  0.371  0.179  0.000  0.371  0.000  0.973
 
band   7 # energy   22.80667437 # occ.  0.00000000
 
ion      s     py     pz     px    dxy    dyz    dz2    dxz    dx2    tot
  1  0.057  0.113  0.113  0.026  0.010  0.338  0.041  0.010  0.124  0.833
 
band   8 # energy   25.84848399 # occ.  0.00000000
 
ion      s     py     pz     px    dxy    dyz    dz2    dxz    dx2    tot
  1  0.000  0.102  0.102  0.000  0.167  0.000  0.090  0.167  0.030  0.658
 
band   9 # energy   28.63186752 # occ.  0.00000000
 
ion      s     py     pz     px    dxy    dyz    dz2    dxz    dx2    tot
  1  0.129  0.061  0.061  0.386  0.124  0.004  0.010  0.124  0.031  0.930
 
band  10 # energy   33.09811244 # occ.  0.00000000
 
ion      s     py     pz     px    dxy    dyz    dz2    dxz    dx2    tot
  1  0.000  0.002  0.002  0.000  0.191  0.000  0.019  0.191  0.006  0.411
 
band  11 # energy   37.73603764 # occ.  0.00000000
 
ion      s     py     pz     px    dxy    dyz    dz2    dxz    dx2    tot
  1  0.034  0.053  0.053  0.148  0.076  0.117  0.120  0.076  0.360  1.038
 
band  12 # energy   38.79388918 # occ.  0.00000000
 
ion      s     py     pz     px    dxy    dyz    dz2    dxz    dx2    tot
  1  0.000  0.099  0.099  0.000  0.171  0.000  0.002  0.171  0.001  0.541
 

 k-point    3 :    0.31250000 0.06250000 0.06250000     weight = 0.04687500

band   1 # energy    1.24058573 # occ.  1.00000000
 
ion      s     py     pz     px    dxy    dyz    dz2    dxz    dx2    tot
  1  0.226  0.027  0.027  0.019  0.001  0.407  0.042  0.001  0.126  0.875
 
band   2 # energy    2.81501541 # occ.  1.00000000
 
ion      s     py     pz     px    dxy    dyz    dz2    dxz    dx2    tot
  1  0.000  0.004  0.004  0.000  0.475  0.000  0.006  0.475  0.002  0.966
 
band   3 # energy    4.24625771 # occ.  1.00000000
 
ion      s     py     pz     px    dxy    dyz    dz2    dxz    dx2    tot
  1  0.084  0.139  0.139  0.000  0.150  0.101  0.028  0.150  0.083  0.873
 
band   4 # energy    5.36780638 # occ.  1.00000000
 
ion      s     py     pz     px    dxy    dyz    dz2    dxz    dx2    tot
  1  0.003  0.002  0.002  0.001  0.014  0.282  0.166  0.014  0.498  0.981
 
band   5 # energy    5.55273134 # occ.  1.03438485
 
ion      s     py     pz     px    dxy    dyz    dz2    dxz    dx2    tot
  1  0.000  0.000  0.000  0.000  0.004  0.000  0.730  0.004  0.243  0.982
 
band   6 # energy    7.20991828 # occ. -0.00212117
 
ion      s     py     pz     px    dxy    dyz    dz2    dxz    dx2    tot
  1  0.044  0.062  0.062  0.010  0.329  0.106  0.001  0.329  0.002  0.945
 
band   7 # energy   17.29617399 # occ.  0.00000000
 
ion      s     py     pz     px    dxy    dyz    dz2    dxz    dx2    tot
  1  0.224  0.105  0.105  0.014  0.005  0.335  0.026  0.005  0.078  0.899
 
band   8 # energy   24.08099725 # occ.  0.00000000
 
ion      s     py     pz     px    dxy    dyz    dz2    dxz    dx2    tot
  1  0.000  0.132  0.132  0.000  0.152  0.000  0.025  0.152  0.008  0.601
 
band   9 # energy   26.14883769 # occ.  0.00000000
 
ion      s     py     pz     px    dxy    dyz    dz2    dxz    dx2    tot
  1  0.128  0.010  0.010  0.541  0.042  0.012  0.014  0.042  0.041  0.840
 
band  10 # energy   32.69128340 # occ.  0.00000000
 
ion      s     py     pz     px    dxy    dyz    dz2    dxz    dx2    tot
  1  0.000  0.005  0.005  0.000  0.418  0.000  0.007  0.418  0.002  0.854
 
band  11 # energy   37.04912349 # occ.  0.00000000
 
ion      s     py     pz     px    dxy    dyz    dz2    dxz    dx2    tot
  1  0.103  0.023  0.023  0.124  0.019  0.003  0.177  0.019  0.530  1.020
 
band  12 # energy   42.16776414 # occ.  0.00000000
 
ion      s     py     pz     px    dxy    dyz    dz2    dxz    dx2    tot
  1  0.053  0.008  0.011  0.010  0.004  0.311  0.000  0.006  0.002  0.405
 

 k-point    4 :    0.43750000 0.06250000 0.06250000     weight = 0.02343750

band   1 # energy    1.28782957 # occ.  1.00000000
 
ion      s     py     pz     px    dxy    dyz    dz2    dxz    dx2    tot
  1  0.130  0.000  0.000  0.018  0.000  0.504  0.063  0.000  0.188  0.902
 
band   2 # energy    2.66491773 # occ.  1.00000000
 
ion      s     py     pz     px    dxy    dyz    dz2    dxz    dx2    tot
  1  0.000  0.004  0.004  0.000  0.478  0.000  0.000  0.478  0.000  0.965
 
band   3 # energy    5.31876612 # occ.  1.00000000
 
ion      s     py     pz     px    dxy    dyz    dz2    dxz    dx2    tot
  1  0.000  0.171  0.171  0.000  0.271  0.000  0.000  0.271  0.000  0.883
 
band   4 # energy    5.44226482 # occ.  1.00000000
 
ion      s     py     pz     px    dxy    dyz    dz2    dxz    dx2    tot
  1  0.012  0.000  0.000  0.001  0.000  0.289  0.171  0.000  0.512  0.983
 
band   5 # energy    5.60000096 # occ.  1.07340830
 
ion      s     py     pz     px    dxy    dyz    dz2    dxz    dx2    tot
  1  0.000  0.000  0.000  0.000  0.000  0.000  0.739  0.000  0.246  0.986
 
band   6 # energy    8.55433176 # occ. -0.00485653
 
ion      s     py     pz     px    dxy    dyz    dz2    dxz    dx2    tot
  1  0.000  0.201  0.201  0.000  0.235  0.000  0.000  0.235  0.000  0.873
 
band   7 # energy   14.20691503 # occ.  0.00000000
 
ion      s     py     pz     px    dxy    dyz    dz2    dxz    dx2    tot
  1  0.423  0.000  0.000  0.018  0.000  0.407  0.024  0.000  0.072  0.944
 
band   8 # energy   23.42372585 # occ.  0.00000000
 
ion      s     py     pz     px    dxy    dyz    dz2    dxz    dx2    tot
  1  0.000  0.141  0.141  0.000  0.145  0.000  0.000  0.145  0.000  0.571
 
band   9 # energy   25.21752668 # occ.  0.00000000
 
ion      s     py     pz     px    dxy    dyz    dz2    dxz    dx2    tot
  1  0.125  0.000  0.000  0.600  0.000  0.023  0.013  0.000  0.039  0.800
 
band  10 # energy   32.49282255 # occ.  0.00000000
 
ion      s     py     pz     px    dxy    dyz    dz2    dxz    dx2    tot
  1  0.000  0.005  0.005  0.000  0.487  0.000  0.000  0.487  0.000  0.985
 
band  11 # energy   36.97558359 # occ.  0.00000000
 
ion      s     py     pz     px    dxy    dyz    dz2    dxz    dx2    tot
  1  0.146  0.000  0.000  0.116  0.000  0.007  0.202  0.000  0.606  1.077
 
band  12 # energy   41.94572615 # occ.  0.00000000
 
ion      s     py     pz     px    dxy    dyz    dz2    dxz    dx2    tot
  1  0.000  0.035  0.035  0.000  0.008  0.000  0.000  0.008  0.000  0.086
 

 k-point    5 :   -0.06250000 0.06250000 0.06250000     weight = 0.01171875

band   1 # energy   -2.21674156 # occ.  1.00000000
 
ion      s     py     pz     px    dxy    dyz    dz2    dxz    dx2    tot
  1  0.756  0.000  0.000  0.025  0.000  0.000  0.000  0.000  0.000  0.782
 
band   2 # energy    3.89420412 # occ.  1.00000000
 
ion      s     py     pz     px    dxy    dyz    dz2    dxz    dx2    tot
  1  0.000  0.001  0.001  0.000  0.490  0.000  0.000  0.490  0.000  0.983
 
band   3 # energy    3.89420429 # occ.  1.00000000
 
ion      s     py     pz     px    dxy    dyz    dz2    dxz    dx2    tot
  1  0.000  0.001  0.001  0.000  0.490  0.000  0.000  0.490  0.000  0.983
 
band   4 # energy    3.99292661 # occ.  1.00000000
 
ion      s     py     pz     px    dxy    dyz    dz2    dxz    dx2    tot
  1  0.000  0.000  0.000  0.000  0.000  0.984  0.000  0.000  0.000  0.984
 
band   5 # energy    5.21258166 # occ.  1.00000000
 
ion      s     py     pz     px    dxy    dyz    dz2    dxz    dx2    tot
  1  0.000  0.000  0.000  0.000  0.000  0.000  0.724  0.000  0.241  0.965
 
band   6 # energy    5.44033766 # occ.  1.00000000
 
ion      s     py     pz     px    dxy    dyz    dz2    dxz    dx2    tot
  1  0.000  0.000  0.000  0.000  0.000  0.000  0.243  0.000  0.730  0.973
 
band   7 # energy   30.02353536 # occ.  0.00000000
 
ion      s     py     pz     px    dxy    dyz    dz2    dxz    dx2    tot
  1  0.000  0.000  0.000  0.000  0.000  0.000  0.211  0.000  0.070  0.281
 
band   8 # energy   31.41762038 # occ.  0.00000000
 
ion      s     py     pz     px    dxy    dyz    dz2    dxz    dx2    tot
  1  0.000  0.010  0.010  0.000  0.128  0.000  0.000  0.128  0.000  0.276
 
band   9 # energy   31.41762039 # occ.  0.00000000
 
ion      s     py     pz     px    dxy    dyz    dz2    dxz    dx2    tot
  1  0.000  0.010  0.010  0.000  0.128  0.000  0.000  0.128  0.000  0.276
 
band  10 # energy   35.00336620 # occ.  0.00000000
 
ion      s     py     pz     px    dxy    dyz    dz2    dxz    dx2    tot
  1  0.017  0.000  0.000  0.273  0.000  0.000  0.091  0.000  0.274  0.656
 
band  11 # energy   37.39309883 # occ.  0.00000000
 
ion      s     py     pz     px    dxy    dyz    dz2    dxz    dx2    tot
  1  0.000  0.218  0.214  0.000  0.332  0.000  0.000  0.326  0.000  1.089
 
band  12 # energy   37.39309887 # occ.  0.00000000
 
ion      s     py     pz     px    dxy    dyz    dz2    dxz    dx2    tot
  1  0.000  0.214  0.218  0.000  0.326  0.000  0.000  0.332  0.000  1.089
 

 k-point    6 :    0.18750000 0.18750000 0.06250000     weight = 0.04687500

band   1 # energy    1.61352043 # occ.  1.00000000
 
ion      s     py     pz     px    dxy    dyz    dz2    dxz    dx2    tot
  1  0.306  0.050  0.078  0.050  0.000  0.159  0.044  0.159  0.000  0.845
 
band   2 # energy    2.89620234 # occ.  1.00000000
 
ion      s     py     pz     px    dxy    dyz    dz2    dxz    dx2    tot
  1  0.000  0.023  0.000  0.023  0.000  0.352  0.000  0.352  0.189  0.940
 
band   3 # energy    3.10702669 # occ.  1.00000000
 
ion      s     py     pz     px    dxy    dyz    dz2    dxz    dx2    tot
  1  0.032  0.004  0.073  0.004  0.662  0.078  0.007  0.078  0.000  0.939
 
band   4 # energy    5.30661020 # occ.  1.00000000
 
ion      s     py     pz     px    dxy    dyz    dz2    dxz    dx2    tot
  1  0.000  0.001  0.000  0.001  0.000  0.107  0.000  0.107  0.763  0.977
 
band   5 # energy    5.58396773 # occ.  1.00120735
 
ion      s     py     pz     px    dxy    dyz    dz2    dxz    dx2    tot
  1  0.005  0.000  0.001  0.000  0.000  0.033  0.910  0.033  0.000  0.983
 
band   6 # energy    7.44172109 # occ. -0.02101755
 
ion      s     py     pz     px    dxy    dyz    dz2    dxz    dx2    tot
  1  0.063  0.032  0.060  0.032  0.308  0.217  0.019  0.217  0.000  0.948
 
band   7 # energy   20.21778125 # occ.  0.00000000
 
ion      s     py     pz     px    dxy    dyz    dz2    dxz    dx2    tot
  1  0.000  0.166  0.000  0.166  0.000  0.188  0.000  0.188  0.147  0.855
 
band   8 # energy   21.12324936 # occ.  0.00000000
 
ion      s     py     pz     px    dxy    dyz    dz2    dxz    dx2    tot
  1  0.201  0.011  0.259  0.011  0.088  0.109  0.021  0.109  0.000  0.811
 
band   9 # energy   25.18029617 # occ.  0.00000000
 
ion      s     py     pz     px    dxy    dyz    dz2    dxz    dx2    tot
  1  0.156  0.209  0.005  0.209  0.184  0.004  0.032  0.004  0.000  0.803
 
band  10 # energy   35.10302242 # occ.  0.00000000
 
ion      s     py     pz     px    dxy    dyz    dz2    dxz    dx2    tot
  1  0.000  0.012  0.000  0.012  0.000  0.102  0.000  0.102  0.143  0.371
 
band  11 # energy   39.09773496 # occ.  0.00000000
 
ion      s     py     pz     px    dxy    dyz    dz2    dxz    dx2    tot
  1  0.020  0.020  0.027  0.020  0.444  0.181  0.014  0.181  0.000  0.907
 
band  12 # energy   41.58545431 # occ.  0.00000000
 
ion      s     py     pz     px    dxy    dyz    dz2    dxz    dx2    tot
  1  0.000  0.085  0.000  0.085  0.000  0.049  0.000  0.049  0.453  0.720
 

 k-point    7 :    0.31250000 0.18750000 0.06250000     weight = 0.09375000

band   1 # energy    1.96727669 # occ.  1.00000000
 
ion      s     py     pz     px    dxy    dyz    dz2    dxz    dx2    tot
  1  0.093  0.002  0.007  0.052  0.032  0.536  0.054  0.041  0.095  0.912
 
band   2 # energy    2.70607952 # occ.  1.00000000
 
ion      s     py     pz     px    dxy    dyz    dz2    dxz    dx2    tot
  1  0.000  0.025  0.011  0.013  0.327  0.025  0.001  0.478  0.068  0.948
 
band   3 # energy    3.79531803 # occ.  1.00000000
 
ion      s     py     pz     px    dxy    dyz    dz2    dxz    dx2    tot
  1  0.022  0.097  0.135  0.001  0.366  0.011  0.069  0.144  0.055  0.898
 
band   4 # energy    5.46235198 # occ.  1.00000000
 
ion      s     py     pz     px    dxy    dyz    dz2    dxz    dx2    tot
  1  0.003  0.001  0.000  0.002  0.000  0.207  0.050  0.045  0.675  0.982
 
band   5 # energy    5.68332588 # occ.  1.01057020
 
ion      s     py     pz     px    dxy    dyz    dz2    dxz    dx2    tot
  1  0.004  0.004  0.005  0.000  0.048  0.013  0.783  0.072  0.055  0.985
 
band   6 # energy    9.96140508 # occ. -0.00306788
 
ion      s     py     pz     px    dxy    dyz    dz2    dxz    dx2    tot
  1  0.067  0.123  0.182  0.020  0.207  0.080  0.033  0.184  0.000  0.894
 
band   7 # energy   15.56148426 # occ.  0.00000000
 
ion      s     py     pz     px    dxy    dyz    dz2    dxz    dx2    tot
  1  0.246  0.117  0.027  0.076  0.013  0.319  0.005  0.020  0.070  0.893
 
band   8 # energy   19.47109915 # occ.  0.00000000
 
ion      s     py     pz     px    dxy    dyz    dz2    dxz    dx2    tot
  1  0.180  0.053  0.108  0.148  0.103  0.001  0.000  0.186  0.030  0.809
 
band   9 # energy   23.81472470 # occ.  0.00000000
 
ion      s     py     pz     px    dxy    dyz    dz2    dxz    dx2    tot
  1  0.143  0.112  0.052  0.254  0.118  0.042  0.010  0.044  0.004  0.778
 
band  10 # energy   35.55036040 # occ.  0.00000000
 
ion      s     py     pz     px    dxy    dyz    dz2    dxz    dx2    tot
  1  0.007  0.001  0.001  0.024  0.156  0.009  0.013  0.243  0.153  0.608
 
band  11 # energy   40.05225051 # occ.  0.00000000
 
ion      s     py     pz     px    dxy    dyz    dz2    dxz    dx2    tot
  1  0.004  0.057  0.002  0.000  0.176  0.068  0.107  0.009  0.114  0.536
 
band  12 # energy   42.29949336 # occ.  0.00000000
 
ion      s     py     pz     px    dxy    dyz    dz2    dxz    dx2    tot
  1  0.049  0.008  0.005  0.121  0.074  0.001  0.268  0.036  0.358  0.921
 

 k-point    8 :   -0.18750000 0.18750000 0.06250000     weight = 0.04687500

band   1 # energy   -0.97330703 # occ.  1.00000000
 
ion      s     py     pz     px    dxy    dyz    dz2    dxz    dx2    tot
  1  0.651  0.021  0.000  0.090  0.015  0.000  0.006  0.000  0.005  0.787
 
band   2 # energy    3.59343897 # occ.  1.00000000
 
ion      s     py     pz     px    dxy    dyz    dz2    dxz    dx2    tot
  1  0.000  0.000  0.003  0.000  0.000  0.378  0.000  0.596  0.000  0.977
 
band   3 # energy    3.81108554 # occ.  1.00000000
 
ion      s     py     pz     px    dxy    dyz    dz2    dxz    dx2    tot
  1  0.005  0.015  0.000  0.008  0.826  0.000  0.099  0.000  0.010  0.963
 
band   4 # energy    4.67719088 # occ.  1.00000000
 
ion      s     py     pz     px    dxy    dyz    dz2    dxz    dx2    tot
  1  0.000  0.000  0.008  0.000  0.000  0.601  0.000  0.372  0.000  0.980
 
band   5 # energy    4.93052823 # occ.  1.00000000
 
ion      s     py     pz     px    dxy    dyz    dz2    dxz    dx2    tot
  1  0.000  0.000  0.000  0.000  0.117  0.000  0.663  0.000  0.179  0.960
 
band   6 # energy    5.55194655 # occ.  1.00806280
 
ion      s     py     pz     px    dxy    dyz    dz2    dxz    dx2    tot
  1  0.006  0.000  0.000  0.001  0.005  0.000  0.187  0.000  0.779  0.977
 
band   7 # energy   25.68931812 # occ.  0.00000000
 
ion      s     py     pz     px    dxy    dyz    dz2    dxz    dx2    tot
  1  0.024  0.117  0.000  0.051  0.303  0.000  0.241  0.000  0.019  0.756
 
band   8 # energy   29.05114829 # occ.  0.00000000
 
ion      s     py     pz     px    dxy    dyz    dz2    dxz    dx2    tot
  1  0.024  0.000  0.000  0.135  0.068  0.000  0.044  0.000  0.162  0.433
 
band   9 # energy   30.09139463 # occ.  0.00000000
 
ion      s     py     pz     px    dxy    dyz    dz2    dxz    dx2    tot
  1  0.000  0.000  0.177  0.000  0.000  0.034  0.000  0.653  0.000  0.864
 
band  10 # energy   34.35719412 # occ.  0.00000000
 
ion      s     py     pz     px    dxy    dyz    dz2    dxz    dx2    tot
  1  0.002  0.228  0.000  0.085  0.265  0.000  0.116  0.000  0.004  0.700
 
band  11 # energy   34.58214209 # occ.  0.00000000
 
ion      s     py     pz     px    dxy    dyz    dz2    dxz    dx2    tot
  1  0.000  0.000  0.373  0.000  0.000  0.525  0.000  0.021  0.000  0.919
 
band  12 # energy   36.17459966 # occ.  0.00000000
 
ion      s     py     pz     px    dxy    dyz    dz2    dxz    dx2    tot
  1  0.095  0.149  0.000  0.118  0.009  0.000  0.123  0.000  0.005  0.498
 

 k-point    9 :    0.31250000 0.31250000 0.06250000     weight = 0.01562500

band   1 # energy    2.30847784 # occ.  1.00000000
 
ion      s     py     pz     px    dxy    dyz    dz2    dxz    dx2    tot
  1  0.042  0.008  0.008  0.008  0.293  0.293  0.000  0.293  0.000  0.945
 
band   2 # energy    3.10205271 # occ.  1.00000000
 
ion      s     py     pz     px    dxy    dyz    dz2    dxz    dx2    tot
  1  0.000  0.027  0.108  0.027  0.365  0.091  0.203  0.091  0.000  0.913
 
band   3 # energy    3.10205282 # occ.  1.00000000
 
ion      s     py     pz     px    dxy    dyz    dz2    dxz    dx2    tot
  1  0.000  0.081  0.000  0.081  0.000  0.274  0.000  0.274  0.203  0.913
 
band   4 # energy    5.61844797 # occ.  1.00000000
 
ion      s     py     pz     px    dxy    dyz    dz2    dxz    dx2    tot
  1  0.000  0.001  0.005  0.001  0.154  0.039  0.746  0.039  0.000  0.985
 
band   5 # energy    5.61844803 # occ.  1.00199727
 
ion      s     py     pz     px    dxy    dyz    dz2    dxz    dx2    tot
  1  0.000  0.004  0.000  0.004  0.000  0.116  0.000  0.116  0.746  0.985
 
band   6 # energy   13.57793050 # occ.  0.00000000
 
ion      s     py     pz     px    dxy    dyz    dz2    dxz    dx2    tot
  1  0.000  0.075  0.298  0.075  0.239  0.060  0.066  0.060  0.000  0.872
 
band   7 # energy   13.57793055 # occ.  0.00000000
 
ion      s     py     pz     px    dxy    dyz    dz2    dxz    dx2    tot
  1  0.000  0.224  0.000  0.224  0.000  0.179  0.000  0.179  0.066  0.872
 
band   8 # energy   16.30591280 # occ.  0.00000000
 
ion      s     py     pz     px    dxy    dyz    dz2    dxz    dx2    tot
  1  0.586  0.002  0.002  0.002  0.088  0.088  0.000  0.088  0.000  0.856
 
band   9 # energy   23.33009681 # occ.  0.00000000
 
ion      s     py     pz     px    dxy    dyz    dz2    dxz    dx2    tot
  1  0.140  0.132  0.132  0.132  0.089  0.089  0.000  0.089  0.000  0.801
 
band  10 # energy   38.05484888 # occ.  0.00000000
 
ion      s     py     pz     px    dxy    dyz    dz2    dxz    dx2    tot
  1  0.000  0.008  0.032  0.008  0.074  0.018  0.307  0.019  0.000  0.467
 
band  11 # energy   38.05484888 # occ.  0.00000000
 
ion      s     py     pz     px    dxy    dyz    dz2    dxz    dx2    tot
  1  0.000  0.024  0.000  0.024  0.000  0.057  0.000  0.055  0.307  0.467
 
band  12 # energy   45.72955146 # occ.  0.00000000
 
ion      s     py     pz     px    dxy    dyz    dz2    dxz    dx2    tot
  1  0.020  0.049  0.049  0.049  0.402  0.402  0.000  0.402  0.000  1.372
 

 k-point   10 :   -0.31250000 0.31250000 0.06250000     weight = 0.04687500

band   1 # energy    0.70816171 # occ.  1.00000000
 
ion      s     py     pz     px    dxy    dyz    dz2    dxz    dx2    tot
  1  0.390  0.031  0.000  0.102  0.204  0.000  0.093  0.000  0.010  0.830
 
band   2 # energy    3.14850871 # occ.  1.00000000
 
ion      s     py     pz     px    dxy    dyz    dz2    dxz    dx2    tot
  1  0.000  0.000  0.003  0.000  0.000  0.438  0.000  0.530  0.000  0.971
 
band   3 # energy    3.86502201 # occ.  1.00000000
 
ion      s     py     pz     px    dxy    dyz    dz2    dxz    dx2    tot
  1  0.062  0.076  0.000  0.083  0.290  0.000  0.255  0.000  0.129  0.895
 
band   4 # energy    5.13369758 # occ.  1.00000000
 
ion      s     py     pz     px    dxy    dyz    dz2    dxz    dx2    tot
  1  0.001  0.010  0.000  0.011  0.427  0.000  0.491  0.000  0.032  0.972
 
band   5 # energy    5.74102574 # occ.  1.01575908
 
ion      s     py     pz     px    dxy    dyz    dz2    dxz    dx2    tot
  1  0.031  0.008  0.000  0.018  0.002  0.000  0.105  0.000  0.808  0.972
 
band   6 # energy    5.80564814 # occ.  0.68581740
 
ion      s     py     pz     px    dxy    dyz    dz2    dxz    dx2    tot
  1  0.000  0.000  0.010  0.000  0.000  0.538  0.000  0.433  0.000  0.982
 
band   7 # energy   19.89445331 # occ.  0.00000000
 
ion      s     py     pz     px    dxy    dyz    dz2    dxz    dx2    tot
  1  0.140  0.172  0.000  0.091  0.336  0.000  0.139  0.000  0.008  0.886
 
band   8 # energy   26.55698816 # occ.  0.00000000
 
ion      s     py     pz     px    dxy    dyz    dz2    dxz    dx2    tot
  1  0.026  0.056  0.000  0.143  0.005  0.000  0.075  0.000  0.079  0.383
 
band   9 # energy   28.03937651 # occ.  0.00000000
 
ion      s     py     pz     px    dxy    dyz    dz2    dxz    dx2    tot
  1  0.000  0.000  0.458  0.000  0.000  0.020  0.000  0.513  0.000  0.992
 
band  10 # energy   32.58427056 # occ.  0.00000000
 
ion      s     py     pz     px    dxy    dyz    dz2    dxz    dx2    tot
  1  0.000  0.000  0.210  0.000  0.000  0.667  0.000  0.162  0.000  1.039
 
band  11 # energy   34.63576095 # occ.  0.00000000
 
ion      s     py     pz     px    dxy    dyz    dz2    dxz    dx2    tot
  1  0.077  0.234  0.000  0.000  0.034  0.000  0.509  0.000  0.006  0.860
 
band  12 # energy   37.52652254 # occ.  0.00000000
 
ion      s     py     pz     px    dxy    dyz    dz2    dxz    dx2    tot
  1  0.119  0.012  0.000  0.067  0.192  0.000  0.052  0.000  0.117  0.559
 

 k-point   11 :   -0.18750000 0.31250000 0.06250000     weight = 0.04687500

band   1 # energy    0.52906052 # occ.  1.00000000
 
ion      s     py     pz     px    dxy    dyz    dz2    dxz    dx2    tot
  1  0.474  0.014  0.014  0.155  0.040  0.000  0.017  0.040  0.050  0.805
 
band   2 # energy    3.36477534 # occ.  1.00000000
 
ion      s     py     pz     px    dxy    dyz    dz2    dxz    dx2    tot
  1  0.000  0.013  0.013  0.000  0.292  0.000  0.248  0.292  0.083  0.941
 
band   3 # energy    3.57383673 # occ.  1.00000000
 
ion      s     py     pz     px    dxy    dyz    dz2    dxz    dx2    tot
  1  0.010  0.005  0.005  0.023  0.223  0.471  0.000  0.223  0.000  0.962
 
band   4 # energy    4.77071493 # occ.  1.00000000
 
ion      s     py     pz     px    dxy    dyz    dz2    dxz    dx2    tot
  1  0.000  0.002  0.002  0.000  0.178  0.000  0.452  0.178  0.151  0.963
 
band   5 # energy    5.52186995 # occ.  1.00342583
 
ion      s     py     pz     px    dxy    dyz    dz2    dxz    dx2    tot
  1  0.000  0.005  0.005  0.002  0.179  0.390  0.055  0.179  0.165  0.980
 
band   6 # energy    5.93595528 # occ.  0.71394456
 
ion      s     py     pz     px    dxy    dyz    dz2    dxz    dx2    tot
  1  0.047  0.006  0.006  0.024  0.034  0.117  0.176  0.034  0.527  0.970
 
band   7 # energy   22.85628474 # occ.  0.00000000
 
ion      s     py     pz     px    dxy    dyz    dz2    dxz    dx2    tot
  1  0.000  0.125  0.125  0.000  0.151  0.000  0.224  0.151  0.075  0.850
 
band   8 # energy   23.95828930 # occ.  0.00000000
 
ion      s     py     pz     px    dxy    dyz    dz2    dxz    dx2    tot
  1  0.142  0.063  0.063  0.179  0.166  0.021  0.002  0.166  0.006  0.807
 
band   9 # energy   30.45856614 # occ.  0.00000000
 
ion      s     py     pz     px    dxy    dyz    dz2    dxz    dx2    tot
  1  0.000  0.056  0.056  0.000  0.161  0.000  0.203  0.161  0.068  0.706
 
band  10 # energy   30.92956614 # occ.  0.00000000
 
ion      s     py     pz     px    dxy    dyz    dz2    dxz    dx2    tot
  1  0.001  0.229  0.229  0.054  0.025  0.098  0.004  0.025  0.011  0.676
 
band  11 # energy   34.76480400 # occ.  0.00000000
 
ion      s     py     pz     px    dxy    dyz    dz2    dxz    dx2    tot
  1  0.100  0.002  0.002  0.061  0.132  0.395  0.014  0.132  0.043  0.882
 
band  12 # energy   39.51071508 # occ.  0.00000000
 
ion      s     py     pz     px    dxy    dyz    dz2    dxz    dx2    tot
  1  0.000  0.149  0.149  0.000  0.001  0.000  0.123  0.001  0.041  0.463
 

 k-point   12 :   -0.43750000 0.43750000 0.06250000     weight = 0.04687500

band   1 # energy    1.15941232 # occ.  1.00000000
 
ion      s     py     pz     px    dxy    dyz    dz2    dxz    dx2    tot
  1  0.158  0.000  0.000  0.018  0.442  0.000  0.273  0.000  0.001  0.893
 
band   2 # energy    2.84812024 # occ.  1.00000000
 
ion      s     py     pz     px    dxy    dyz    dz2    dxz    dx2    tot
  1  0.000  0.000  0.003  0.000  0.000  0.469  0.000  0.496  0.000  0.968
 
band   3 # energy    4.75242144 # occ.  1.00000000
 
ion      s     py     pz     px    dxy    dyz    dz2    dxz    dx2    tot
  1  0.021  0.088  0.000  0.095  0.000  0.000  0.094  0.000  0.607  0.906
 
band   4 # energy    5.33498601 # occ.  1.00000000
 
ion      s     py     pz     px    dxy    dyz    dz2    dxz    dx2    tot
  1  0.008  0.007  0.000  0.006  0.341  0.000  0.554  0.000  0.063  0.978
 
band   5 # energy    6.71901698 # occ.  0.31364044
 
ion      s     py     pz     px    dxy    dyz    dz2    dxz    dx2    tot
  1  0.000  0.000  0.002  0.000  0.000  0.511  0.000  0.478  0.000  0.991
 
band   6 # energy    6.98235239 # occ.  0.00494627
 
ion      s     py     pz     px    dxy    dyz    dz2    dxz    dx2    tot
  1  0.049  0.198  0.000  0.238  0.053  0.000  0.008  0.000  0.317  0.863
 
band   7 # energy   15.10652452 # occ.  0.00000000
 
ion      s     py     pz     px    dxy    dyz    dz2    dxz    dx2    tot
  1  0.351  0.082  0.000  0.022  0.369  0.000  0.107  0.000  0.003  0.934
 
band   8 # energy   25.11546347 # occ.  0.00000000
 
ion      s     py     pz     px    dxy    dyz    dz2    dxz    dx2    tot
  1  0.024  0.105  0.000  0.131  0.002  0.000  0.074  0.000  0.009  0.345
 
band   9 # energy   26.35758944 # occ.  0.00000000
 
ion      s     py     pz     px    dxy    dyz    dz2    dxz    dx2    tot
  1  0.000  0.000  0.626  0.000  0.000  0.053  0.000  0.207  0.000  0.885
 
band  10 # energy   31.85804101 # occ.  0.00000000
 
ion      s     py     pz     px    dxy    dyz    dz2    dxz    dx2    tot
  1  0.000  0.000  0.126  0.000  0.000  0.625  0.000  0.462  0.000  1.212
 
band  11 # energy   34.99196755 # occ.  0.00000000
 
ion      s     py     pz     px    dxy    dyz    dz2    dxz    dx2    tot