<?xml version="1.0" encoding="ISO-8859-1"?>
<modeling>
 <generator>
  <i name="program" type="string">vasp </i>
  <i name="version" type="string">5.4.1  </i>
  <i name="subversion" type="string">24Jun15 (build Jul 19 2016 16:50:41) complex                          parallel </i>
  <i name="platform" type="string">IFC91_ompi </i>
  <i name="date" type="string">2019 10 17 </i>
  <i name="time" type="string">12:38:55 </i>
 </generator>
 <incar>
  <i type="string" name="SYSTEM"> Fe BCC</i>
  <i type="string" name="PREC">accurate</i>
  <i type="int" name="ISPIN">     2</i>
  <i name="EDIFF">      0.00000100</i>
  <i name="ENMAX">    400.00000000</i>
  <v name="MAGMOM">      4.00000000</v>
  <i type="int" name="ISMEAR">    -5</i>
  <i type="logical" name="LORBIT"> F  </i>
  <v type="int" name="KPOINT_BSE">    -1     0     0     0</v>
 </incar>
 <kpoints>
  <generation param="Monkhorst-Pack">
   <v type="int" name="divisions">       8        8        8 </v>
   <v name="usershift">      0.00000000       0.00000000       0.00000000 </v>
   <v name="genvec1">      0.12500000       0.00000000       0.00000000 </v>
   <v name="genvec2">      0.00000000       0.12500000       0.00000000 </v>
   <v name="genvec3">      0.00000000       0.00000000       0.12500000 </v>
   <v name="shift">      0.50000000       0.50000000       0.50000000 </v>
  </generation>
  <varray name="kpointlist" >
   <v>       0.06250000       0.06250000       0.06250000 </v>
   <v>       0.18750000       0.06250000       0.06250000 </v>
   <v>       0.31250000       0.06250000       0.06250000 </v>
   <v>       0.43750000       0.06250000       0.06250000 </v>
   <v>      -0.06250000       0.06250000       0.06250000 </v>
   <v>       0.18750000       0.18750000       0.06250000 </v>
   <v>       0.31250000       0.18750000       0.06250000 </v>
   <v>      -0.18750000       0.18750000       0.06250000 </v>
   <v>       0.31250000       0.31250000       0.06250000 </v>
   <v>      -0.31250000       0.31250000       0.06250000 </v>
   <v>      -0.18750000       0.31250000       0.06250000 </v>
   <v>      -0.43750000       0.43750000       0.06250000 </v>
   <v>      -0.31250000       0.43750000       0.06250000 </v>
   <v>      -0.43750000      -0.43750000       0.06250000 </v>
   <v>      -0.31250000      -0.43750000       0.06250000 </v>
   <v>       0.18750000       0.18750000       0.18750000 </v>
   <v>       0.31250000       0.18750000       0.18750000 </v>
   <v>      -0.18750000       0.18750000       0.18750000 </v>
   <v>      -0.31250000       0.31250000       0.18750000 </v>
   <v>      -0.43750000       0.43750000       0.18750000 </v>
   <v>      -0.31250000       0.43750000       0.18750000 </v>
   <v>      -0.43750000      -0.43750000       0.18750000 </v>
   <v>      -0.31250000       0.31250000       0.31250000 </v>
   <v>      -0.43750000       0.43750000       0.31250000 </v>
   <v>      -0.43750000      -0.43750000       0.31250000 </v>
   <v>      -0.43750000       0.43750000       0.43750000 </v>
  </varray>
  <varray name="weights" >
   <v>       0.01562500 </v>
   <v>       0.04687500 </v>
   <v>       0.04687500 </v>
   <v>       0.02343750 </v>
   <v>       0.01171875 </v>
   <v>       0.04687500 </v>
   <v>       0.09375000 </v>
   <v>       0.04687500 </v>
   <v>       0.01562500 </v>
   <v>       0.04687500 </v>
   <v>       0.04687500 </v>
   <v>       0.04687500 </v>
   <v>       0.09375000 </v>
   <v>       0.04687500 </v>
   <v>       0.04687500 </v>
   <v>       0.01562500 </v>
   <v>       0.02343750 </v>
   <v>       0.01171875 </v>
   <v>       0.04687500 </v>
   <v>       0.04687500 </v>
   <v>       0.04687500 </v>
   <v>       0.04687500 </v>
   <v>       0.01171875 </v>
   <v>       0.04687500 </v>
   <v>       0.01562500 </v>
   <v>       0.01171875 </v>
  </varray>
  <varray name="tetrahedronlist"  type="int" >
   <v type="int" >        4        1        2        2        6 </v>
   <v type="int" >        8        2        2        6        6 </v>
   <v type="int" >        4        2        6        6       16 </v>
   <v type="int" >        4        2        3        6        7 </v>
   <v type="int" >        4        2        6        6        7 </v>
   <v type="int" >       12        6        6        7       16 </v>
   <v type="int" >        8        3        6        7        7 </v>
   <v type="int" >        8        6        7        7       17 </v>
   <v type="int" >        8        6        7       16       17 </v>
   <v type="int" >        4        3        4        7        7 </v>
   <v type="int" >        4        3        7        7        7 </v>
   <v type="int" >       16        7        7        7       17 </v>
   <v type="int" >        8        4        7        7        7 </v>
   <v type="int" >        4        7        7        7       16 </v>
   <v type="int" >       20        7        7       16       17 </v>
   <v type="int" >        4        3        4        6        7 </v>
   <v type="int" >        4        4        6        7        7 </v>
   <v type="int" >       16        6        7        7       16 </v>
   <v type="int" >        8        3        6        6        7 </v>
   <v type="int" >        4        6        6        6        7 </v>
   <v type="int" >        4        2        2        3        6 </v>
   <v type="int" >        8        2        3        6        6 </v>
   <v type="int" >        4        2        6        6        6 </v>
   <v type="int" >        4        2        2        2        6 </v>
   <v type="int" >        8        2        2        6       11 </v>
   <v type="int" >        4        2        6        6       11 </v>
   <v type="int" >       16        1        2        2        8 </v>
   <v type="int" >        4        2        2        2        8 </v>
   <v type="int" >       12        2        2        8       11 </v>
   <v type="int" >       16        1        2        8        8 </v>
   <v type="int" >        4        2        8        8       18 </v>
   <v type="int" >        4        2        8       11       18 </v>
   <v type="int" >       20        1        5        8        8 </v>
   <v type="int" >        4        1        8        8        8 </v>
   <v type="int" >        4        8        8        8       18 </v>
   <v type="int" >        8        5        8        8        8 </v>
   <v type="int" >        4        8        8        8       11 </v>
   <v type="int" >        4        8        8       11       18 </v>
   <v type="int" >        8        1        2        5        8 </v>
   <v type="int" >        8        2        5        8        8 </v>
   <v type="int" >        8        2        8        8       11 </v>
   <v type="int" >        4        2        2        6        8 </v>
   <v type="int" >        4        2        6        8       11 </v>
   <v type="int" >        4        6        7        9       16 </v>
   <v type="int" >       16        7        9       16       17 </v>
   <v type="int" >       12        9       16       17       17 </v>
   <v type="int" >       20        7        7        9       17 </v>
   <v type="int" >       12        7        9       17       17 </v>
   <v type="int" >        8        7        7       17       17 </v>
   <v type="int" >       12        3        6        7       16 </v>
   <v type="int" >        8        3        7        7       16 </v>
   <v type="int" >        8        3        6        6       16 </v>
   <v type="int" >        4        3        6       13       16 </v>
   <v type="int" >        4        3        7       13       16 </v>
   <v type="int" >        4        2        6        6       10 </v>
   <v type="int" >        4        3        6        6       10 </v>
   <v type="int" >        8        3        6       10       13 </v>
   <v type="int" >       12        2        6       10       11 </v>
   <v type="int" >        4        6       10       11       19 </v>
   <v type="int" >        4        6       10       13       19 </v>
   <v type="int" >        4        2        8       11       11 </v>
   <v type="int" >        4        2       10       11       11 </v>
   <v type="int" >        4       10       11       11       19 </v>
   <v type="int" >        8        8       11       11       18 </v>
   <v type="int" >        8       11       11       18       19 </v>
   <v type="int" >        4       11       11       19       19 </v>
   <v type="int" >        4        8        8       10       18 </v>
   <v type="int" >       12        8       10       11       18 </v>
   <v type="int" >       12       10       11       18       19 </v>
   <v type="int" >        4       10       11       13       18 </v>
   <v type="int" >        4       10       13       18       19 </v>
   <v type="int" >        4        2        3        8       11 </v>
   <v type="int" >        4        3        8       10       11 </v>
   <v type="int" >        8        3       10       11       13 </v>
   <v type="int" >       16        2        3        6       11 </v>
   <v type="int" >        4        3        6        7       11 </v>
   <v type="int" >        4        3        7       11       13 </v>
   <v type="int" >        4        4        7        9       17 </v>
   <v type="int" >        8        4        7        7       17 </v>
   <v type="int" >        4        4        7       14       17 </v>
   <v type="int" >        4        3        7        7       12 </v>
   <v type="int" >        8        4        7        7       12 </v>
   <v type="int" >        8        4        7       12       14 </v>
   <v type="int" >        8        3        7       12       13 </v>
   <v type="int" >        4        7       12       13       20 </v>
   <v type="int" >        4        7       12       14       20 </v>
   <v type="int" >        4        3       10       13       13 </v>
   <v type="int" >        4        3       12       13       13 </v>
   <v type="int" >        4       12       13       13       20 </v>
   <v type="int" >        8       10       13       13       19 </v>
   <v type="int" >       12       13       13       19       21 </v>
   <v type="int" >        4       13       13       20       21 </v>
   <v type="int" >        8       10       11       13       19 </v>
   <v type="int" >        8       11       13       19       19 </v>
   <v type="int" >        4       13       19       19       20 </v>
   <v type="int" >        8       13       19       20       21 </v>
   <v type="int" >        4       10       11       12       19 </v>
   <v type="int" >        4       11       12       13       19 </v>
   <v type="int" >        8       12       13       19       20 </v>
   <v type="int" >        8       10       12       13       19 </v>
   <v type="int" >        4       12       13       14       19 </v>
   <v type="int" >        4       12       14       19       20 </v>
   <v type="int" >        4        3        4       10       13 </v>
   <v type="int" >        4        4       10       12       13 </v>
   <v type="int" >       12        4       12       13       14 </v>
   <v type="int" >       12        3        4        7       13 </v>
   <v type="int" >        8        4        7        7       13 </v>
   <v type="int" >       12        4        7       13       14 </v>
   <v type="int" >        4        4       12       14       14 </v>
   <v type="int" >        4       12       14       14       20 </v>
   <v type="int" >        4       14       14       20       22 </v>
   <v type="int" >        4       12       13       15       20 </v>
   <v type="int" >        4       12       14       15       20 </v>
   <v type="int" >        8       14       15       20       22 </v>
   <v type="int" >       12       13       15       20       21 </v>
   <v type="int" >       12       15       20       21       22 </v>
   <v type="int" >        4       15       20       22       22 </v>
   <v type="int" >        4       13       13       14       21 </v>
   <v type="int" >       12       13       14       15       21 </v>
   <v type="int" >       16       14       15       21       22 </v>
   <v type="int" >        8       13       14       20       21 </v>
   <v type="int" >        4       14       20       20       21 </v>
   <v type="int" >       12       14       20       21       22 </v>
   <v type="int" >        4       12       12       13       20 </v>
   <v type="int" >        8       12       13       14       20 </v>
   <v type="int" >        8       12       14       20       20 </v>
   <v type="int" >        8       12       12       14       20 </v>
   <v type="int" >        4       12       13       20       20 </v>
   <v type="int" >       16        3        4       12       14 </v>
   <v type="int" >        8        3       12       12       14 </v>
   <v type="int" >        8        3       12       13       14 </v>
   <v type="int" >       16        3        4        7       14 </v>
   <v type="int" >        4        3        6        7       14 </v>
   <v type="int" >        4        3        6       13       14 </v>
   <v type="int" >        8       14       15       15       22 </v>
   <v type="int" >        8       15       15       22       22 </v>
   <v type="int" >        8       15       21       22       22 </v>
   <v type="int" >       12       13       14       15       22 </v>
   <v type="int" >        4       13       15       15       22 </v>
   <v type="int" >        8       13       15       21       22 </v>
   <v type="int" >       12       13       14       20       22 </v>
   <v type="int" >        4       13       19       20       22 </v>
   <v type="int" >        4       13       19       21       22 </v>
   <v type="int" >        4       10       12       14       20 </v>
   <v type="int" >        4       10       13       14       20 </v>
   <v type="int" >        8       10       13       19       20 </v>
   <v type="int" >        8       10       12       13       20 </v>
   <v type="int" >        4       10       11       13       20 </v>
   <v type="int" >        4       10       11       19       20 </v>
   <v type="int" >        4        2        3       12       13 </v>
   <v type="int" >        4        2       10       12       13 </v>
   <v type="int" >        8        2       10       11       13 </v>
   <v type="int" >       12        2        3        6       13 </v>
   <v type="int" >        4        2        2        6       13 </v>
   <v type="int" >        4        2        2       11       13 </v>
   <v type="int" >        4       11       13       15       21 </v>
   <v type="int" >        8       11       13       19       21 </v>
   <v type="int" >        4       11       18       19       21 </v>
   <v type="int" >        4        8       10       13       19 </v>
   <v type="int" >        4        8       11       13       19 </v>
   <v type="int" >        8        8       11       18       19 </v>
   <v type="int" >        8        8       10       11       19 </v>
   <v type="int" >        4        8        8       11       19 </v>
   <v type="int" >        4        8        8       18       19 </v>
   <v type="int" >        4        1        2       10       11 </v>
   <v type="int" >        4        1        8       10       11 </v>
   <v type="int" >        8        1        8        8       11 </v>
   <v type="int" >        8        1        2        2       11 </v>
   <v type="int" >       12        1        2        8       11 </v>
   <v type="int" >        4        5        8       11       18 </v>
   <v type="int" >        4        5        8        8       18 </v>
   <v type="int" >        4        1        5        8       18 </v>
   <v type="int" >        4        5        5        8        8 </v>
   <v type="int" >       12        1        5        5        8 </v>
   <v type="int" >        6        1        1        5        5 </v>
   <v type="int" >        8        1        1        5        8 </v>
   <v type="int" >        4        1        1        2        8 </v>
   <v type="int" >        4        2        3        6       16 </v>
   <v type="int" >        4        3        7       16       17 </v>
   <v type="int" >       12        7       16       17       17 </v>
   <v type="int" >        8        7       17       17       17 </v>
   <v type="int" >       12        7        7        9       16 </v>
   <v type="int" >        4        6        6        7        7 </v>
   <v type="int" >       16        3        6        7       13 </v>
   <v type="int" >       12        6        7        7       13 </v>
   <v type="int" >        4        3        6        6       11 </v>
   <v type="int" >       12        3        6       11       13 </v>
   <v type="int" >       12        2        3       10       11 </v>
   <v type="int" >        4        3       10       11       19 </v>
   <v type="int" >        4        3       11       13       19 </v>
   <v type="int" >        4        2        8       10       18 </v>
   <v type="int" >        4        2       10       11       18 </v>
   <v type="int" >        4       10       18       19       19 </v>
   <v type="int" >        4        8        8       11       11 </v>
   <v type="int" >        4        8       10       11       11 </v>
   <v type="int" >        4       10       11       11       13 </v>
   <v type="int" >        4       11       11       13       19 </v>
   <v type="int" >        4        2        6        8       10 </v>
   <v type="int" >        4        6        8       10       11 </v>
   <v type="int" >       12        6       10       11       13 </v>
   <v type="int" >        8        2        3        6       10 </v>
   <v type="int" >        4        3        6        7       10 </v>
   <v type="int" >        4        6        7       10       13 </v>
   <v type="int" >        4       16       17       17       17 </v>
   <v type="int" >        4       17       17       17       17 </v>
   <v type="int" >        4        9       17       17       17 </v>
   <v type="int" >        8        7        7       15       17 </v>
   <v type="int" >        8        7        9       15       17 </v>
   <v type="int" >        4        6        7       13       16 </v>
   <v type="int" >        4        7        7       13       16 </v>
   <v type="int" >       12        7        7       13       15 </v>
   <v type="int" >        8        6        7       13       13 </v>
   <v type="int" >        4        7       13       13       21 </v>
   <v type="int" >        4        7       13       15       21 </v>
   <v type="int" >        4        6       11       13       19 </v>
   <v type="int" >        4        6       13       13       19 </v>
   <v type="int" >        4       13       19       19       23 </v>
   <v type="int" >        4       13       19       21       23 </v>
   <v type="int" >        4       11       18       19       19 </v>
   <v type="int" >        4       11       19       19       19 </v>
   <v type="int" >        4       19       19       19       23 </v>
   <v type="int" >        4       18       19       19       19 </v>
   <v type="int" >        4       19       19       19       21 </v>
   <v type="int" >        4       19       19       21       23 </v>
   <v type="int" >        4       11       13       18       19 </v>
   <v type="int" >        4       13       18       19       19 </v>
   <v type="int" >        8       13       19       19       21 </v>
   <v type="int" >       12       11       13       13       19 </v>
   <v type="int" >        4       13       13       15       19 </v>
   <v type="int" >        4       13       15       19       21 </v>
   <v type="int" >        4        6        7       11       13 </v>
   <v type="int" >        4        7       11       13       13 </v>
   <v type="int" >        8        7       13       13       15 </v>
   <v type="int" >        4        7        7        9       13 </v>
   <v type="int" >        4        7        9       13       15 </v>
   <v type="int" >        4        7        9       14       17 </v>
   <v type="int" >       12        7        9       14       15 </v>
   <v type="int" >        4        9       14       15       22 </v>
   <v type="int" >        4        7       13       15       20 </v>
   <v type="int" >        4        7       14       15       20 </v>
   <v type="int" >        4       15       20       21       24 </v>
   <v type="int" >        4       15       20       22       24 </v>
   <v type="int" >        4       13       19       21       21 </v>
   <v type="int" >        4       13       20       21       21 </v>
   <v type="int" >        4       20       21       21       24 </v>
   <v type="int" >        8       19       21       21       23 </v>
   <v type="int" >        8       21       21       23       24 </v>
   <v type="int" >        4       21       21       24       24 </v>
   <v type="int" >        4       19       19       20       23 </v>
   <v type="int" >       12       19       20       21       23 </v>
   <v type="int" >       12       20       21       23       24 </v>
   <v type="int" >        4       20       21       22       23 </v>
   <v type="int" >        4       20       22       23       24 </v>
   <v type="int" >        4       13       14       19       21 </v>
   <v type="int" >        4       14       19       20       21 </v>
   <v type="int" >        4       14       15       15       21 </v>
   <v type="int" >       16        7       13       14       15 </v>
   <v type="int" >        8        7       14       15       15 </v>
   <v type="int" >       16        7        7        9       15 </v>
   <v type="int" >        4        7        7       15       15 </v>
   <v type="int" >        4       14       20       22       22 </v>
   <v type="int" >        8       20       22       22       24 </v>
   <v type="int" >       16       22       22       24       25 </v>
   <v type="int" >       16       20       21       22       24 </v>
   <v type="int" >        8       21       22       24       24 </v>
   <v type="int" >        4       22       24       24       24 </v>
   <v type="int" >       16       22       24       24       25 </v>
   <v type="int" >        4       20       20       21       24 </v>
   <v type="int" >       12       20       22       24       24 </v>
   <v type="int" >        8       20       20       22       24 </v>
   <v type="int" >        4       20       21       24       24 </v>
   <v type="int" >        4       13       20       20       22 </v>
   <v type="int" >        8       13       20       21       22 </v>
   <v type="int" >        4       13       13       15       22 </v>
   <v type="int" >        4       13       13       21       22 </v>
   <v type="int" >        4        6        7       14       15 </v>
   <v type="int" >        4        6       13       14       15 </v>
   <v type="int" >        4        6       13       13       15 </v>
   <v type="int" >        4        6        7        7       15 </v>
   <v type="int" >        4        3        6        7       15 </v>
   <v type="int" >        4        3        6       13       15 </v>
   <v type="int" >        8       21       22       22       25 </v>
   <v type="int" >       12       21       22       24       25 </v>
   <v type="int" >        4       21       23       24       25 </v>
   <v type="int" >        4       19       20       22       24 </v>
   <v type="int" >        4       19       21       22       24 </v>
   <v type="int" >        8       19       21       23       24 </v>
   <v type="int" >        8       19       20       21       24 </v>
   <v type="int" >        4       19       19       21       24 </v>
   <v type="int" >        4       19       19       23       24 </v>
   <v type="int" >        4       11       13       20       21 </v>
   <v type="int" >        4       11       19       20       21 </v>
   <v type="int" >        4       11       19       19       21 </v>
   <v type="int" >        4       11       13       13       21 </v>
   <v type="int" >        4       10       11       13       21 </v>
   <v type="int" >        4       10       11       19       21 </v>
   <v type="int" >        4        2        6       13       13 </v>
   <v type="int" >        4        2       11       13       13 </v>
   <v type="int" >       12        2        3       10       13 </v>
   <v type="int" >        4        2       10       10       13 </v>
   <v type="int" >        4       18       19       21       23 </v>
   <v type="int" >        4       18       19       19       23 </v>
   <v type="int" >        4       11       18       19       23 </v>
   <v type="int" >        4        8       11       19       19 </v>
   <v type="int" >        4        8       18       19       19 </v>
   <v type="int" >        4        2        8       10       19 </v>
   <v type="int" >        4        2        8       11       19 </v>
   <v type="int" >       16        2        8       10       11 </v>
   <v type="int" >        4        8        8       10       11 </v>
   <v type="int" >       12        2        8        8       10 </v>
   <v type="int" >        8        2        8       10       10 </v>
   <v type="int" >        4        8       10       10       11 </v>
   <v type="int" >        4        1        8       11       18 </v>
   <v type="int" >        4        2        8        8        8 </v>
   <v type="int" >        8        2        2        8       10 </v>
   <v type="int" >        4        2        2        3       10 </v>
   <v type="int" >        4        3        4        7       17 </v>
   <v type="int" >        4        4        7       16       17 </v>
   <v type="int" >        4        7        7        7        9 </v>
   <v type="int" >        4        4        7        7       14 </v>
   <v type="int" >        4        7        7        7       14 </v>
   <v type="int" >       12        3        4       12       13 </v>
   <v type="int" >        4        4       12       13       20 </v>
   <v type="int" >        4        4       13       14       20 </v>
   <v type="int" >        4        3       10       12       19 </v>
   <v type="int" >        4        3       12       13       19 </v>
   <v type="int" >        4       12       13       19       21 </v>
   <v type="int" >        4       12       19       20       21 </v>
   <v type="int" >        4       10       13       19       19 </v>
   <v type="int" >        8       13       13       19       20 </v>
   <v type="int" >        4       10       11       13       13 </v>
   <v type="int" >        4       10       12       13       13 </v>
   <v type="int" >        4       12       13       13       14 </v>
   <v type="int" >        4       13       13       14       20 </v>
   <v type="int" >        4        3        7       10       12 </v>
   <v type="int" >        4        7       10       12       13 </v>
   <v type="int" >        8        7       12       13       14 </v>
   <v type="int" >        8        3        4        7       12 </v>
   <v type="int" >        4        7        7       12       14 </v>
   <v type="int" >        4        7        9       15       16 </v>
   <v type="int" >       12        7        9       15       15 </v>
   <v type="int" >        8        7        7       14       15 </v>
   <v type="int" >        4        7       14       15       22 </v>
   <v type="int" >        4        7       15       15       22 </v>
   <v type="int" >        4        7       13       14       21 </v>
   <v type="int" >        4        7       14       15       21 </v>
   <v type="int" >        4       14       20       21       24 </v>
   <v type="int" >        4       14       21       22       24 </v>
   <v type="int" >        4       13       19       20       23 </v>
   <v type="int" >        4       13       20       21       23 </v>
   <v type="int" >        4       20       23       24       24 </v>
   <v type="int" >        4       19       19       21       21 </v>
   <v type="int" >        4       19       20       21       21 </v>
   <v type="int" >        4       20       21       21       22 </v>
   <v type="int" >        4       21       21       22       24 </v>
   <v type="int" >        4       13       15       19       20 </v>
   <v type="int" >        4       15       19       20       21 </v>
   <v type="int" >        8       13       14       15       20 </v>
   <v type="int" >        4       14       15       15       20 </v>
   <v type="int" >        4       15       15       20       22 </v>
   <v type="int" >        4        7        9       13       14 </v>
   <v type="int" >        4        9       13       14       15 </v>
   <v type="int" >        8        9       14       15       15 </v>
   <v type="int" >        8        7        7        9       14 </v>
   <v type="int" >        4        9       15       15       22 </v>
   <v type="int" >        4       15       22       22       25 </v>
   <v type="int" >        4       15       21       22       24 </v>
   <v type="int" >        4       15       22       22       24 </v>
   <v type="int" >        8       22       24       24       26 </v>
   <v type="int" >        8       22       24       25       26 </v>
   <v type="int" >        4       21       23       24       24 </v>
   <v type="int" >        4       21       24       24       24 </v>
   <v type="int" >        8       24       24       24       26 </v>
   <v type="int" >        4       23       24       24       24 </v>
   <v type="int" >        4       24       24       24       25 </v>
   <v type="int" >       20       24       24       25       26 </v>
   <v type="int" >        4       21       22       23       24 </v>
   <v type="int" >        4       22       23       24       24 </v>
   <v type="int" >       12       21       22       22       24 </v>
   <v type="int" >        4       22       22       22       24 </v>
   <v type="int" >        4       15       15       21       22 </v>
   <v type="int" >        4       15       22       22       22 </v>
   <v type="int" >        4       15       15       15       22 </v>
   <v type="int" >        4       14       15       22       22 </v>
   <v type="int" >        4        7       15       15       15 </v>
   <v type="int" >        4        4        7        7       15 </v>
   <v type="int" >        4        4        7       14       15 </v>
   <v type="int" >        4       22       24       25       25 </v>
   <v type="int" >        8       24       25       25       26 </v>
   <v type="int" >        6       25       25       26       26 </v>
   <v type="int" >       12       24       25       26       26 </v>
   <v type="int" >        4       24       24       26       26 </v>
   <v type="int" >        8       21       24       24       25 </v>
   <v type="int" >        4       20       21       22       25 </v>
   <v type="int" >        4       20       21       24       25 </v>
   <v type="int" >        4       13       15       22       22 </v>
   <v type="int" >        4       13       21       22       22 </v>
   <v type="int" >        4       12       13       14       22 </v>
   <v type="int" >        4       12       13       20       22 </v>
   <v type="int" >        4        3        7       14       15 </v>
   <v type="int" >        4        3       13       14       15 </v>
   <v type="int" >        4       23       24       25       26 </v>
   <v type="int" >        4       23       24       24       26 </v>
   <v type="int" >        4       21       23       24       26 </v>
   <v type="int" >        4       19       21       24       24 </v>
   <v type="int" >        4       19       23       24       24 </v>
   <v type="int" >        4       13       19       20       24 </v>
   <v type="int" >        4       13       19       21       24 </v>
   <v type="int" >        4       10       13       20       21 </v>
   <v type="int" >        4       10       19       20       21 </v>
   <v type="int" >        4        3       10       12       20 </v>
   <v type="int" >        4        3       10       13       20 </v>
   <v type="int" >        8        3       10       12       13 </v>
   <v type="int" >        4       10       10       12       13 </v>
   <v type="int" >        8        3       10       10       12 </v>
   <v type="int" >        8        3       10       12       12 </v>
   <v type="int" >        4       10       12       12       13 </v>
   <v type="int" >        4       11       19       21       23 </v>
   <v type="int" >        4        6       11       13       21 </v>
   <v type="int" >        4        2       10       13       19 </v>
   <v type="int" >        4        2       11       13       19 </v>
   <v type="int" >        8        2        6       11       13 </v>
   <v type="int" >        4        2        6        6       13 </v>
   <v type="int" >        4        3       10       10       11 </v>
   <v type="int" >        4        3       11       13       13 </v>
   <v type="int" >        4        2        2        6       10 </v>
   <v type="int" >        4        6       10       12       13 </v>
   <v type="int" >        4        3        6       10       12 </v>
   <v type="int" >        4        2        3        3       10 </v>
   <v type="int" >        4        3        3       10       12 </v>
   <v type="int" >        4        3        3        4       12 </v>
   <v type="int" >        4        3        4        7       16 </v>
   <v type="int" >        4        6        7        7        7 </v>
   <v type="int" >        4        6        6        7       13 </v>
   <v type="int" >        8        3        7        7       14 </v>
   <v type="int" >        8        3        7       13       14 </v>
   <v type="int" >        4        3       12       14       20 </v>
   <v type="int" >        4        3       13       14       20 </v>
   <v type="int" >        4        4       12       12       20 </v>
   <v type="int" >        4        4       12       14       20 </v>
   <v type="int" >        4       12       14       20       22 </v>
   <v type="int" >        4       12       20       20       22 </v>
   <v type="int" >        4       12       13       14       21 </v>
   <v type="int" >        4       12       14       20       21 </v>
   <v type="int" >        4       14       21       22       22 </v>
   <v type="int" >        4       13       13       15       20 </v>
   <v type="int" >        4       14       15       20       20 </v>
   <v type="int" >        4       15       20       20       22 </v>
   <v type="int" >        4       12       13       14       14 </v>
   <v type="int" >        4       13       14       14       20 </v>
   <v type="int" >        2       14       14       20       20 </v>
   <v type="int" >        2       12       12       14       14 </v>
   <v type="int" >        8        4        7       12       12 </v>
   <v type="int" >        4        7       12       12       14 </v>
   <v type="int" >        4        3        6        7       12 </v>
   <v type="int" >        4        6        7       12       13 </v>
   <v type="int" >        4        6        7       15       16 </v>
   <v type="int" >        8        6        7       13       15 </v>
   <v type="int" >        4        6       13       15       21 </v>
   <v type="int" >        4        7       13       14       22 </v>
   <v type="int" >        4        7       13       15       22 </v>
   <v type="int" >        4       13       20       22       24 </v>
   <v type="int" >        4       13       21       22       24 </v>
   <v type="int" >        4       14       20       20       24 </v>
   <v type="int" >        4       14       20       22       24 </v>
   <v type="int" >        4       20       22       24       25 </v>
   <v type="int" >        4       20       24       24       25 </v>
   <v type="int" >        6       22       22       24       24 </v>
   <v type="int" >        4       20       21       22       22 </v>
   <v type="int" >        2       20       20       22       22 </v>
   <v type="int" >        4        7        7       13       14 </v>
   <v type="int" >        4        3        7       13       13 </v>
   <v type="int" >        4       15       21       22       25 </v>
   <v type="int" >        4       21       24       25       26 </v>
   <v type="int" >        4       24       26       26       26 </v>
   <v type="int" >        6       24       24       25       25 </v>
   <v type="int" >        4        4        7       13       15 </v>
   <v type="int" >        4        4       13       14       15 </v>
   <v type="int" >        8        4       12       12       13 </v>
   <v type="int" >        4       25       26       26       26 </v>
   <v type="int" >        2       26       26       26       26 </v>
   <v type="int" >        4        4       12       12       14 </v>
   <v type="int" >        4       12       12       12       14 </v>
   <v type="int" >        8        4       12       12       12 </v>
   <v type="int" >        4        3        4        4       12 </v>
   <v type="int" >        4        4        4       12       12 </v>
   <v type="int" >        4        1        5        8       11 </v>
   <v type="int" >        4        1        2        6       11 </v>
   <v type="int" >        4        2        8       10       13 </v>
   <v type="int" >        4        2        8       11       13 </v>
   <v type="int" >        4        2        3        7       13 </v>
   <v type="int" >        4        2        6        7       13 </v>
   <v type="int" >        4        3       10       12       14 </v>
   <v type="int" >        4        3       10       13       14 </v>
   <v type="int" >        4        3        4        6       13 </v>
   <v type="int" >        4        4        6        7       13 </v>
   <v type="int" >        4        3       10       11       12 </v>
   <v type="int" >        4        3       11       12       13 </v>
   <v type="int" >        4        2        2        3       11 </v>
   <v type="int" >        6        2        2        8        8 </v>
   <v type="int" >        6        1        1        8        8 </v>
   <v type="int" >        4        5        5        5        8 </v>
   <v type="int" >        4        6       11       13       15 </v>
   <v type="int" >        4        6        7        9       15 </v>
   <v type="int" >        4        7       13       15       15 </v>
   <v type="int" >        4        7        7        7       15 </v>
   <v type="int" >        4        7       13       13       14 </v>
   <v type="int" >        4        3        7        7       13 </v>
   <v type="int" >        4        6       10       13       13 </v>
   <v type="int" >        4        2        6       10       10 </v>
   <v type="int" >        4        3        6       10       10 </v>
   <v type="int" >        4        2        2       10       11 </v>
   <v type="int" >        2        2        2       10       10 </v>
   <v type="int" >        4        1        8        8       10 </v>
   <v type="int" >        4        1        2        8       10 </v>
   <v type="int" >        4        2        3        8       10 </v>
   <v type="int" >        4        3        8       10       10 </v>
   <v type="int" >        4        4        7        9       14 </v>
   <v type="int" >        4        7       12       13       15 </v>
   <v type="int" >        4        7       12       14       15 </v>
   <v type="int" >        4        3        7       12       12 </v>
   <v type="int" >        4        3        3       10       13 </v>
   <v type="int" >        4        3        3       12       13 </v>
   <v type="int" >        2        3        3       12       12 </v>
   <v type="int" >        2        3        3       10       10 </v>
   <v type="int" >        4        2       10       10       12 </v>
   <v type="int" >        4        2        3       10       12 </v>
   <v type="int" >        4        3        4       10       12 </v>
   <v type="int" >        4        4       10       12       12 </v>
   <v type="int" >        4        4        4       12       14 </v>
   <v type="int" >        4        3       12       12       12 </v>
   <v type="int" >        4        3        4       12       12 </v>
   <v type="int" >        4        1        5        5        5 </v>
   <v type="int" >        2        5        5        5        5 </v>
  </varray>
  <i name="volumeweight">      0.00032552 </i>
 </kpoints>
 <parameters>
  <separator name="general" >
   <i type="string" name="SYSTEM">Fe BCC</i>
   <i type="logical" name="LCOMPAT"> F  </i>
  </separator>
  <separator name="electronic" >
   <i type="string" name="PREC">accura</i>
   <i name="ENMAX">    400.00000000</i>
   <i name="ENAUG">    511.36800000</i>
   <i name="EDIFF">      0.00000100</i>
   <i type="int" name="IALGO">    38</i>
   <i type="int" name="IWAVPR">    10</i>
   <i type="int" name="NBANDS">    12</i>
   <i name="NELECT">      8.00000000</i>
   <i type="int" name="TURBO">     0</i>
   <i type="int" name="IRESTART">     0</i>
   <i type="int" name="NREBOOT">     0</i>
   <i type="int" name="NMIN">     0</i>
   <i name="EREF">      0.00000000</i>
   <separator name="electronic smearing" >
    <i type="int" name="ISMEAR">    -5</i>
    <i name="SIGMA">      0.20000000</i>
    <i name="KSPACING">      0.50000000</i>
    <i type="logical" name="KGAMMA"> T  </i>
   </separator>
   <separator name="electronic projectors" >
    <i type="logical" name="LREAL"> F  </i>
    <v name="ROPT">      0.00000000</v>
    <i type="int" name="LMAXPAW">  -100</i>
    <i type="int" name="LMAXMIX">     2</i>
    <i type="logical" name="NLSPLINE"> F  </i>
   </separator>
   <separator name="electronic startup" >
    <i type="int" name="ISTART">     0</i>
    <i type="int" name="ICHARG">     2</i>
    <i type="int" name="INIWAV">     1</i>
   </separator>
   <separator name="electronic spin" >
    <i type="int" name="ISPIN">     2</i>
    <i type="logical" name="LNONCOLLINEAR"> F  </i>
    <v name="MAGMOM">      4.00000000</v>
    <i name="NUPDOWN">     -1.00000000</i>
    <i type="logical" name="LSORBIT"> F  </i>
    <v name="SAXIS">      0.00000000      0.00000000      1.00000000</v>
    <i type="logical" name="LSPIRAL"> F  </i>
    <v name="QSPIRAL">      0.00000000      0.00000000      0.00000000</v>
    <i type="logical" name="LZEROZ"> F  </i>
   </separator>
   <separator name="electronic exchange-correlation" >
    <i type="logical" name="LASPH"> F  </i>
    <i type="logical" name="LMETAGGA"> F  </i>
   </separator>
   <separator name="electronic convergence" >
    <i type="int" name="NELM">    60</i>
    <i type="int" name="NELMDL">    -5</i>
    <i type="int" name="NELMIN">     2</i>
    <i name="ENINI">    400.00000000</i>
    <separator name="electronic convergence detail" >
     <i type="logical" name="LDIAG"> T  </i>
     <i type="logical" name="LSUBROT"> F  </i>
     <i name="WEIMIN">      0.00000000</i>
     <i name="EBREAK">      0.00000002</i>
     <i name="DEPER">      0.30000000</i>
     <i type="int" name="NRMM">     4</i>
     <i name="TIME">      0.40000000</i>
    </separator>
   </separator>
   <separator name="electronic mixer" >
    <i name="AMIX">      0.40000000</i>
    <i name="BMIX">      1.00000000</i>
    <i name="AMIN">      0.10000000</i>
    <i name="AMIX_MAG">      1.60000000</i>
    <i name="BMIX_MAG">      1.00000000</i>
    <separator name="electronic mixer details" >
     <i type="int" name="IMIX">     4</i>
     <i type="logical" name="MIXFIRST"> F  </i>
     <i type="int" name="MAXMIX">   -45</i>
     <i name="WC">    100.00000000</i>
     <i type="int" name="INIMIX">     1</i>
     <i type="int" name="MIXPRE">     1</i>
     <i type="int" name="MREMOVE">     5</i>
    </separator>
   </separator>
   <separator name="electronic dipolcorrection" >
    <i type="logical" name="LDIPOL"> F  </i>
    <i type="logical" name="LMONO"> F  </i>
    <i type="int" name="IDIPOL">     0</i>
    <i name="EPSILON">      1.00000000</i>
    <v name="DIPOL">   -100.00000000   -100.00000000   -100.00000000</v>
    <i name="EFIELD">      0.00000000</i>
   </separator>
  </separator>
  <separator name="grids" >
   <i type="int" name="NGX">    16</i>
   <i type="int" name="NGY">    16</i>
   <i type="int" name="NGZ">    16</i>
   <i type="int" name="NGXF">    32</i>
   <i type="int" name="NGYF">    32</i>
   <i type="int" name="NGZF">    32</i>
   <i type="logical" name="ADDGRID"> F  </i>
  </separator>
  <separator name="ionic" >
   <i type="int" name="NSW">     0</i>
   <i type="int" name="IBRION">    -1</i>
   <i type="int" name="ISIF">     2</i>
   <i name="PSTRESS">      0.00000000</i>
   <i name="EDIFFG">      0.00001000</i>
   <i type="int" name="NFREE">     0</i>
   <i name="POTIM">      0.50000000</i>
   <i name="SMASS">     -3.00000000</i>
   <i name="SCALEE">      1.00000000</i>
  </separator>
  <separator name="ionic md" >
   <i name="TEBEG">      0.00010000</i>
   <i name="TEEND">      0.00010000</i>
   <i type="int" name="NBLOCK">     1</i>
   <i type="int" name="KBLOCK">     1</i>
   <i type="int" name="NPACO">   256</i>
   <i name="APACO">     16.00000000</i>
  </separator>
  <separator name="symmetry" >
   <i type="int" name="ISYM">     2</i>
   <i name="SYMPREC">      0.00001000</i>
  </separator>
  <separator name="dos" >
   <i type="logical" name="LORBIT"> F  </i>
   <v name="RWIGS">     -1.00000000</v>
   <i type="int" name="NEDOS">   301</i>
   <i name="EMIN">     10.00000000</i>
   <i name="EMAX">    -10.00000000</i>
   <i name="EFERMI">      0.00000000</i>
  </separator>
  <separator name="writing" >
   <i type="int" name="NWRITE">     2</i>
   <i type="logical" name="LWAVE"> T  </i>
   <i type="logical" name="LCHARG"> T  </i>
   <i type="logical" name="LPARD"> F  </i>
   <i type="logical" name="LVTOT"> F  </i>
   <i type="logical" name="LVHAR"> F  </i>
   <i type="logical" name="LELF"> F  </i>
   <i type="logical" name="LOPTICS"> F  </i>
   <v name="STM">      0.00000000      0.00000000      0.00000000      0.00000000      0.00000000      0.00000000      0.00000000</v>
  </separator>
  <separator name="performance" >
   <i type="int" name="NPAR">     4</i>
   <i type="int" name="NSIM">     4</i>
   <i type="int" name="NBLK">    -1</i>
   <i type="logical" name="LPLANE"> T  </i>
   <i type="logical" name="LSCALAPACK"> F  </i>
   <i type="logical" name="LSCAAWARE"> F  </i>
   <i type="logical" name="LSCALU"> F  </i>
   <i type="logical" name="LASYNC"> F  </i>
   <i type="logical" name="LORBITALREAL"> F  </i>
  </separator>
  <separator name="miscellaneous" >
   <i type="int" name="IDIOT">     3</i>
   <i type="logical" name="LMUSIC"> F  </i>
   <v name="POMASS">     55.84700000</v>
   <v name="DARWINR">      0.00000000</v>
   <v name="DARWINV">      1.00000000</v>
   <i type="logical" name="LCORR"> T  </i>
  </separator>
  <i type="logical" name="GGA_COMPAT"> T  </i>
  <i type="logical" name="LBERRY"> F  </i>
  <i type="int" name="ICORELEVEL">     0</i>
  <i type="logical" name="LDAU"> F  </i>
  <i type="int" name="I_CONSTRAINED_M">     0</i>
  <separator name="electronic exchange-correlation" >
   <i type="string" name="GGA">--</i>
   <i type="int" name="VOSKOWN">     0</i>
   <i type="logical" name="LHFCALC"> F  </i>
   <i type="string" name="PRECFOCK"></i>
   <i type="logical" name="LSYMGRAD"> F  </i>
   <i type="logical" name="LHFONE"> F  </i>
   <i type="logical" name="LRHFCALC"> F  </i>
   <i type="logical" name="LTHOMAS"> F  </i>
   <i type="logical" name="LMODELHF"> F  </i>
   <i name="ENCUT4O">     -1.00000000</i>
   <i type="int" name="EXXOEP">     0</i>
   <i type="int" name="FOURORBIT">     0</i>
   <i name="AEXX">      0.00000000</i>
   <i name="HFALPHA">      0.00000000</i>
   <i name="MCALPHA">      0.00000000</i>
   <i name="ALDAX">      1.00000000</i>
   <i name="AGGAX">      1.00000000</i>
   <i name="ALDAC">      1.00000000</i>
   <i name="AGGAC">      1.00000000</i>
   <i type="int" name="NKREDX">     1</i>
   <i type="int" name="NKREDY">     1</i>
   <i type="int" name="NKREDZ">     1</i>
   <i type="logical" name="SHIFTRED"> F  </i>
   <i type="logical" name="ODDONLY"> F  </i>
   <i type="logical" name="EVENONLY"> F  </i>
   <i type="int" name="LMAXFOCK">     0</i>
   <i type="int" name="NMAXFOCKAE">     0</i>
   <i type="logical" name="LFOCKAEDFT"> F  </i>
   <i name="HFSCREEN">      0.00000000</i>
   <i name="HFSCREENC">      0.00000000</i>
   <i type="int" name="NBANDSGWLOW">     0</i>
  </separator>
  <separator name="vdW DFT" >
   <i type="logical" name="LUSE_VDW"> F  </i>
   <i name="Zab_VDW">     -0.84910000</i>
   <i name="PARAM1">      0.12340000</i>
   <i name="PARAM2">      1.00000000</i>
   <i name="PARAM3">      0.00000000</i>
  </separator>
  <separator name="model GW" >
   <i type="int" name="MODEL_GW">     0</i>
   <i name="MODEL_EPS0">      6.44548560</i>
   <i name="MODEL_ALPHA">      1.00000000</i>
  </separator>
  <separator name="linear response parameters" >
   <i type="logical" name="LEPSILON"> F  </i>
   <i type="logical" name="LRPA"> F  </i>
   <i type="logical" name="LNABLA"> F  </i>
   <i type="logical" name="LVEL"> F  </i>
   <i type="int" name="KINTER">     0</i>
   <i name="CSHIFT">      0.10000000</i>
   <i name="OMEGAMAX">     -1.00000000</i>
   <i name="DEG_THRESHOLD">      0.00200000</i>
  </separator>
  <separator name="orbital magnetization" >
   <i type="logical" name="NUCIND"> F  </i>
   <v name="MAGPOS">      0.00000000      0.00000000      0.00000000</v>
   <i type="logical" name="LNICSALL"> T  </i>
   <i type="logical" name="ORBITALMAG"> F  </i>
   <i type="logical" name="LMAGBLOCH"> F  </i>
   <i type="logical" name="LCHIMAG"> F  </i>
   <i type="logical" name="LGAUGE"> T  </i>
   <i type="int" name="MAGATOM">     0</i>
   <v name="MAGDIPOL">      0.00000000      0.00000000      0.00000000</v>
   <v name="AVECCONST">      0.00000000      0.00000000      0.00000000</v>
  </separator>
  <separator name="response functions" >
   <i type="logical" name="LADDER"> F  </i>
   <i type="logical" name="LFXC"> F  </i>
   <i type="logical" name="LHARTREE"> T  </i>
   <i type="int" name="IBSE">     0</i>
   <v type="int" name="KPOINT">    -1     0     0     0</v>
   <i type="logical" name="LTCTE"> F  </i>
   <i type="logical" name="LTETE"> F  </i>
   <i type="logical" name="LTRIPLET"> F  </i>
   <i type="logical" name="LFXCEPS"> F  </i>
   <i type="logical" name="LFXHEG"> F  </i>
   <i type="int" name="NATURALO">     0</i>
   <i type="logical" name="L2ORDER"> F  </i>
   <i type="logical" name="LUSEW"> F  </i>
   <i name="ENCUTGW">     -2.00000000</i>
   <i name="ENCUTGWSOFT">     -2.00000000</i>
   <i name="ENCUTLF">     -1.00000000</i>
   <i type="int" name="LMAXMP2">    -1</i>
   <i name="SCISSOR">      0.00000000</i>
   <i type="int" name="NOMEGA">     0</i>
   <i type="int" name="NOMEGAR">     0</i>
   <i type="int" name="NBANDSGW">    -1</i>
   <i type="int" name="NBANDSO">    -1</i>
   <i type="int" name="NBANDSV">    -1</i>
   <i type="int" name="NELM">     1</i>
   <i type="int" name="NELMHF">     1</i>
   <i type="int" name="DIM">     3</i>
   <i type="int" name="ANTIRES">     0</i>
   <i name="OMEGAMAX">    -30.00000000</i>
   <i name="OMEGAMIN">    -30.00000000</i>
   <i name="OMEGATL">   -200.00000000</i>
   <i type="int" name="OMEGAGRID">     0</i>
   <i name="CSHIFT">     -0.10000000</i>
   <i type="logical" name="SELFENERGY"> F  </i>
   <i type="logical" name="LSPECTRAL"> F  </i>
   <i type="logical" name="LSPECTRALGW"> F  </i>
   <i type="logical" name="LSINGLES"> F  </i>
   <i type="logical" name="LFERMIGW"> F  </i>
   <i type="logical" name="ODDONLYGW"> F  </i>
   <i type="logical" name="EVENONLYGW"> F  </i>
   <i type="int" name="NKREDLFX">     1</i>
   <i type="int" name="NKREDLFY">     1</i>
   <i type="int" name="NKREDLFZ">     1</i>
   <i type="int" name="MAXMEM">  1800</i>
   <i type="int" name="TELESCOPE">     0</i>
   <i type="int" name="TAUPAR">     1</i>
   <i type="int" name="OMEGAPAR">    -1</i>
   <i name="LAMBDA">      1.00000000</i>
  </separator>
  <separator name="External order field" >
   <i name="OFIELD_KAPPA">      0.00000000</i>
   <v name="OFIELD_K">      0.00000000      0.00000000      0.00000000</v>
   <i name="OFIELD_Q6_NEAR">      0.00000000</i>
   <i name="OFIELD_Q6_FAR">      0.00000000</i>
   <i name="OFIELD_A">      0.00000000</i>
  </separator>
 </parameters>
 <atominfo>
  <atoms>       1 </atoms>
  <types>       1 </types>
  <array name="atoms" >
   <dimension dim="1">ion</dimension>
   <field type="string">element</field>
   <field type="int">atomtype</field>
   <set>
    <rc><c>Fe</c><c>   1</c></rc>
   </set>
  </array>
  <array name="atomtypes" >
   <dimension dim="1">type</dimension>
   <field type="int">atomspertype</field>
   <field type="string">element</field>
   <field>mass</field>
   <field>valence</field>
   <field type="string">pseudopotential</field>
   <set>
    <rc><c>   1</c><c>Fe</c><c>     55.84700000</c><c>      8.00000000</c><c>  PAW Fe 03Mar1998                      </c></rc>
   </set>
  </array>
 </atominfo>
 <structure name="initialpos" >
  <crystal>
   <varray name="basis" >
    <v>      -1.39000000       1.39000000       1.39000000 </v>
    <v>       1.39000000      -1.39000000       1.39000000 </v>
    <v>       1.39000000       1.39000000      -1.39000000 </v>
   </varray>
   <i name="volume">     10.74247600 </i>
   <varray name="rec_basis" >
    <v>       0.00000000       0.35971223       0.35971223 </v>
    <v>       0.35971223       0.00000000       0.35971223 </v>
    <v>       0.35971223       0.35971223       0.00000000 </v>
   </varray>
  </crystal>
  <varray name="positions" >
   <v>       0.00000000       0.00000000       0.00000000 </v>
  </varray>
 </structure>
 <calculation>
  <scstep>
   <time name="dav">    3.44    2.16</time>
   <time name="total">    3.52    2.22</time>
   <energy>
    <i name="alphaZ">     62.34729870 </i>
    <i name="ewald">   -603.21366465 </i>
    <i name="hartreedc">   -106.79770782 </i>
    <i name="XCdc">      6.65065185 </i>
    <i name="pawpsdc">    552.76102510 </i>
    <i name="pawaedc">   -562.19386350 </i>
    <i name="eentropy">      0.00000000 </i>
    <i name="bandstr">     70.73578579 </i>
    <i name="atom">    597.35192723 </i>
    <i name="e_fr_energy">     17.64145269 </i>
    <i name="e_wo_entrp">     17.64145269 </i>
    <i name="e_0_energy">     17.64145269 </i>
   </energy>
  </scstep>
  <scstep>
   <time name="dav">    1.08    0.55</time>
   <time name="total">    1.16    0.59</time>
   <energy>
    <i name="e_fr_energy">     -9.19683944 </i>
    <i name="e_wo_entrp">     -9.19683944 </i>
    <i name="e_0_energy">     -9.19683944 </i>
   </energy>
  </scstep>
  <scstep>
   <time name="dav">    1.54    0.91</time>
   <time name="total">    1.63    0.97</time>
   <energy>
    <i name="e_fr_energy">     -9.80338905 </i>
    <i name="e_wo_entrp">     -9.80338905 </i>
    <i name="e_0_energy">     -9.80338905 </i>
   </energy>
  </scstep>
  <scstep>
   <time name="dav">    4.04    3.69</time>
   <time name="total">    4.11    3.75</time>
   <energy>
    <i name="e_fr_energy">     -9.80569897 </i>
    <i name="e_wo_entrp">     -9.80569897 </i>
    <i name="e_0_energy">     -9.80569897 </i>
   </energy>
  </scstep>
  <scstep>
   <time name="dav">    3.75    3.76</time>
   <time name="total">    3.86    3.86</time>
   <energy>
    <i name="e_fr_energy">     -9.80571515 </i>
    <i name="e_wo_entrp">     -9.80571515 </i>
    <i name="e_0_energy">     -9.80571515 </i>
   </energy>
  </scstep>
  <scstep>
   <time name="dav">    3.40    3.41</time>
   <time name="total">    3.52    3.53</time>
   <energy>
    <i name="e_fr_energy">     -9.27077459 </i>
    <i name="e_wo_entrp">     -9.27077459 </i>
    <i name="e_0_energy">     -9.27077459 </i>
   </energy>
  </scstep>
  <scstep>
   <time name="dav">    3.93    3.93</time>
   <time name="total">    4.06    4.06</time>
   <energy>
    <i name="e_fr_energy">     -9.23524473 </i>
    <i name="e_wo_entrp">     -9.23524473 </i>
    <i name="e_0_energy">     -9.23524473 </i>
   </energy>
  </scstep>
  <scstep>
   <time name="dav">    3.82    3.83</time>
   <time name="total">    3.94    3.95</time>
   <energy>
    <i name="e_fr_energy">     -9.22272743 </i>
    <i name="e_wo_entrp">     -9.22272743 </i>
    <i name="e_0_energy">     -9.22272743 </i>
   </energy>
  </scstep>
  <scstep>
   <time name="dav">    4.41    4.23</time>
   <time name="total">    4.53    4.35</time>
   <energy>
    <i name="e_fr_energy">     -9.21314304 </i>
    <i name="e_wo_entrp">     -9.21314304 </i>
    <i name="e_0_energy">     -9.21314304 </i>
   </energy>
  </scstep>
  <scstep>
   <time name="dav">    3.89    3.90</time>
   <time name="total">    4.01    4.01</time>
   <energy>
    <i name="e_fr_energy">     -9.21326824 </i>
    <i name="e_wo_entrp">     -9.21326824 </i>
    <i name="e_0_energy">     -9.21326824 </i>
   </energy>
  </scstep>
  <scstep>
   <time name="dav">    4.12    4.12</time>
   <time name="total">    4.24    4.24</time>
   <energy>
    <i name="e_fr_energy">     -9.21359263 </i>
    <i name="e_wo_entrp">     -9.21359263 </i>
    <i name="e_0_energy">     -9.21359263 </i>
   </energy>
  </scstep>
  <scstep>
   <time name="dav">    3.10    3.11</time>
   <time name="total">    3.22    3.23</time>
   <energy>
    <i name="e_fr_energy">     -9.21364341 </i>
    <i name="e_wo_entrp">     -9.21364341 </i>
    <i name="e_0_energy">     -9.21364341 </i>
   </energy>
  </scstep>
  <scstep>
   <time name="dav">    2.40    2.40</time>
   <time name="total">    2.53    2.53</time>
   <energy>
    <i name="e_fr_energy">     -9.21361560 </i>
    <i name="e_wo_entrp">     -9.21361560 </i>
    <i name="e_0_energy">     -9.21361560 </i>
   </energy>
  </scstep>
  <scstep>
   <time name="dav">    2.09    2.09</time>
   <time name="total">    2.22    2.23</time>
   <energy>
    <i name="e_fr_energy">     -9.21360343 </i>
    <i name="e_wo_entrp">     -9.21360343 </i>
    <i name="e_0_energy">     -9.21360343 </i>
   </energy>
  </scstep>
  <scstep>
   <time name="dav">    2.18    2.18</time>
   <time name="total">    2.30    2.31</time>
   <energy>
    <i name="e_fr_energy">     -9.21359652 </i>
    <i name="e_wo_entrp">     -9.21359652 </i>
    <i name="e_0_energy">     -9.21359652 </i>
   </energy>
  </scstep>
  <scstep>
   <time name="dav">    2.11    2.12</time>
   <time name="total">    2.19    2.19</time>
   <energy>
    <i name="alphaZ">     62.34729870 </i>
    <i name="ewald">   -603.21366465 </i>
    <i name="hartreedc">    -90.53493450 </i>
    <i name="XCdc">      4.65714010 </i>
    <i name="pawpsdc">    739.01210727 </i>
    <i name="pawaedc">   -749.83348924 </i>
    <i name="eentropy">      0.00000000 </i>
    <i name="bandstr">     31.00001907 </i>
    <i name="atom">    597.35192723 </i>
    <i name="e_fr_energy">     -9.21359603 </i>
    <i name="e_wo_entrp">     -9.21359603 </i>
    <i name="e_0_energy">     -9.21359603 </i>
   </energy>
  </scstep>
  <structure>
   <crystal>
    <varray name="basis" >
     <v>      -1.39000000       1.39000000       1.39000000 </v>
     <v>       1.39000000      -1.39000000       1.39000000 </v>
     <v>       1.39000000       1.39000000      -1.39000000 </v>
    </varray>
    <i name="volume">     10.74247600 </i>
    <varray name="rec_basis" >
     <v>       0.00000000       0.35971223       0.35971223 </v>
     <v>       0.35971223       0.00000000       0.35971223 </v>
     <v>       0.35971223       0.35971223       0.00000000 </v>
    </varray>
   </crystal>
   <varray name="positions" >
    <v>       0.00000000       0.00000000       0.00000000 </v>
   </varray>
  </structure>
  <varray name="forces" >
   <v>      -0.00000000       0.00000000      -0.00000000 </v>
  </varray>
  <varray name="stress" >
   <v>     -81.01317517       0.00000000       0.00000000 </v>
   <v>      -0.00000000     -81.01317517       0.00000000 </v>
   <v>      -0.00000000      -0.00000000     -81.01317517 </v>
  </varray>
  <energy>
   <i name="e_fr_energy">     -9.21359603 </i>
   <i name="e_wo_entrp">     -9.21359603 </i>
   <i name="e_0_energy">      0.00000000 </i>
  </energy>
  <time name="totalsc">   51.47   48.69</time>
  <eigenvalues>
   <array>
    <dimension dim="1">band</dimension>
    <dimension dim="2">kpoint</dimension>
    <dimension dim="3">spin</dimension>
    <field>eigene</field>
    <field>occ</field>
    <set>
     <set comment="spin 1">
      <set comment="kpoint 1">
       <r>   -1.5723    1.0000 </r>
       <r>    3.6662    1.0000 </r>
       <r>    3.6662    1.0000 </r>
       <r>    4.5595    1.0000 </r>
       <r>    5.2974    1.0000 </r>
       <r>    5.2974    1.0029 </r>
       <r>   28.2011    0.0000 </r>
       <r>   28.2011    0.0000 </r>
       <r>   32.6254    0.0000 </r>
       <r>   32.6971    0.0000 </r>
       <r>   38.1899    0.0000 </r>
       <r>   38.1899    0.0000 </r>
      </set>
      <set comment="kpoint 2">
       <r>    0.0812    1.0000 </r>
       <r>    3.2070    1.0000 </r>
       <r>    3.4411    1.0000 </r>
       <r>    5.2171    1.0000 </r>
       <r>    5.4386    1.0016 </r>
       <r>    5.6870    0.8703 </r>
       <r>   22.8067    0.0000 </r>
       <r>   25.8485    0.0000 </r>
       <r>   28.6319    0.0000 </r>
       <r>   33.0981    0.0000 </r>
       <r>   37.7360    0.0000 </r>
       <r>   38.7939    0.0000 </r>
      </set>
      <set comment="kpoint 3">
       <r>    1.2406    1.0000 </r>
       <r>    2.8150    1.0000 </r>
       <r>    4.2463    1.0000 </r>
       <r>    5.3678    1.0000 </r>
       <r>    5.5527    1.0344 </r>
       <r>    7.2099   -0.0021 </r>
       <r>   17.2962    0.0000 </r>
       <r>   24.0810    0.0000 </r>
       <r>   26.1488    0.0000 </r>
       <r>   32.6913    0.0000 </r>
       <r>   37.0491    0.0000 </r>
       <r>   42.1678    0.0000 </r>
      </set>
      <set comment="kpoint 4">
       <r>    1.2878    1.0000 </r>
       <r>    2.6649    1.0000 </r>
       <r>    5.3188    1.0000 </r>
       <r>    5.4423    1.0000 </r>
       <r>    5.6000    1.0734 </r>
       <r>    8.5543   -0.0049 </r>
       <r>   14.2069    0.0000 </r>
       <r>   23.4237    0.0000 </r>
       <r>   25.2175    0.0000 </r>
       <r>   32.4928    0.0000 </r>
       <r>   36.9756    0.0000 </r>
       <r>   41.9457    0.0000 </r>
      </set>
      <set comment="kpoint 5">
       <r>   -2.2167    1.0000 </r>
       <r>    3.8942    1.0000 </r>
       <r>    3.8942    1.0000 </r>
       <r>    3.9929    1.0000 </r>
       <r>    5.2126    1.0000 </r>
       <r>    5.4403    1.0000 </r>
       <r>   30.0235    0.0000 </r>
       <r>   31.4176    0.0000 </r>
       <r>   31.4176    0.0000 </r>
       <r>   35.0034    0.0000 </r>
       <r>   37.3931    0.0000 </r>
       <r>   37.3931    0.0000 </r>
      </set>
      <set comment="kpoint 6">
       <r>    1.6135    1.0000 </r>
       <r>    2.8962    1.0000 </r>
       <r>    3.1070    1.0000 </r>
       <r>    5.3066    1.0000 </r>
       <r>    5.5840    1.0012 </r>
       <r>    7.4417   -0.0210 </r>
       <r>   20.2178    0.0000 </r>
       <r>   21.1232    0.0000 </r>
       <r>   25.1803    0.0000 </r>
       <r>   35.1030    0.0000 </r>
       <r>   39.0977    0.0000 </r>
       <r>   41.5855    0.0000 </r>
      </set>
      <set comment="kpoint 7">
       <r>    1.9673    1.0000 </r>
       <r>    2.7061    1.0000 </r>
       <r>    3.7953    1.0000 </r>
       <r>    5.4624    1.0000 </r>
       <r>    5.6833    1.0106 </r>
       <r>    9.9614   -0.0031 </r>
       <r>   15.5615    0.0000 </r>
       <r>   19.4711    0.0000 </r>
       <r>   23.8147    0.0000 </r>
       <r>   35.5504    0.0000 </r>
       <r>   40.0523    0.0000 </r>
       <r>   42.2995    0.0000 </r>
      </set>
      <set comment="kpoint 8">
       <r>   -0.9733    1.0000 </r>
       <r>    3.5934    1.0000 </r>
       <r>    3.8111    1.0000 </r>
       <r>    4.6772    1.0000 </r>
       <r>    4.9305    1.0000 </r>
       <r>    5.5519    1.0081 </r>
       <r>   25.6893    0.0000 </r>
       <r>   29.0511    0.0000 </r>
       <r>   30.0914    0.0000 </r>
       <r>   34.3572    0.0000 </r>
       <r>   34.5821    0.0000 </r>
       <r>   36.1746    0.0000 </r>
      </set>
      <set comment="kpoint 9">
       <r>    2.3085    1.0000 </r>
       <r>    3.1021    1.0000 </r>
       <r>    3.1021    1.0000 </r>
       <r>    5.6184    1.0000 </r>
       <r>    5.6184    1.0020 </r>
       <r>   13.5779    0.0000 </r>
       <r>   13.5779    0.0000 </r>
       <r>   16.3059    0.0000 </r>
       <r>   23.3301    0.0000 </r>
       <r>   38.0548    0.0000 </r>
       <r>   38.0548    0.0000 </r>
       <r>   45.7296    0.0000 </r>
      </set>
      <set comment="kpoint 10">
       <r>    0.7082    1.0000 </r>
       <r>    3.1485    1.0000 </r>
       <r>    3.8650    1.0000 </r>
       <r>    5.1337    1.0000 </r>
       <r>    5.7410    1.0158 </r>
       <r>    5.8056    0.6858 </r>
       <r>   19.8945    0.0000 </r>
       <r>   26.5570    0.0000 </r>
       <r>   28.0394    0.0000 </r>
       <r>   32.5843    0.0000 </r>
       <r>   34.6358    0.0000 </r>
       <r>   37.5265    0.0000 </r>
      </set>
      <set comment="kpoint 11">
       <r>    0.5291    1.0000 </r>
       <r>    3.3648    1.0000 </r>
       <r>    3.5738    1.0000 </r>
       <r>    4.7707    1.0000 </r>
       <r>    5.5219    1.0034 </r>
       <r>    5.9360    0.7139 </r>
       <r>   22.8563    0.0000 </r>
       <r>   23.9583    0.0000 </r>
       <r>   30.4586    0.0000 </r>
       <r>   30.9296    0.0000 </r>
       <r>   34.7648    0.0000 </r>
       <r>   39.5107    0.0000 </r>
      </set>
      <set comment="kpoint 12">
       <r>    1.1594    1.0000 </r>
       <r>    2.8481    1.0000 </r>
       <r>    4.7524    1.0000 </r>
       <r>    5.3350    1.0000 </r>
       <r>    6.7190    0.3136 </r>
       <r>    6.9824    0.0049 </r>
       <r>   15.1065    0.0000 </r>
       <r>   25.1155    0.0000 </r>
       <r>   26.3576    0.0000 </r>
       <r>   31.8580    0.0000 </r>
       <r>   34.9920    0.0000 </r>
       <r>   39.1100    0.0000 </r>
      </set>
      <set comment="kpoint 13">
       <r>    1.6134    1.0000 </r>
       <r>    3.0179    1.0000 </r>
       <r>    3.6489    1.0000 </r>
       <r>    5.0986    1.0000 </r>
       <r>    5.9691    1.0134 </r>
       <r>    7.7171   -0.0377 </r>
       <r>   17.6664    0.0000 </r>
       <r>   21.6265    0.0000 </r>
       <r>   28.3101    0.0000 </r>
       <r>   31.6051    0.0000 </r>
       <r>   35.3441    0.0000 </r>
       <r>   40.1259    0.0000 </r>
      </set>
      <set comment="kpoint 14">
       <r>    1.6436    1.0000 </r>
       <r>    2.9987    1.0000 </r>
       <r>    3.8547    1.0000 </r>
       <r>    5.2231    1.0000 </r>
       <r>    6.3360    0.7127 </r>
       <r>    9.7098   -0.0017 </r>
       <r>   14.2856    0.0000 </r>
       <r>   20.8975    0.0000 </r>
       <r>   27.4189    0.0000 </r>
       <r>   32.0121    0.0000 </r>
       <r>   36.1924    0.0000 </r>
       <r>   39.4347    0.0000 </r>
      </set>
      <set comment="kpoint 15">
       <r>    2.3943    1.0000 </r>
       <r>    2.6931    1.0000 </r>
       <r>    3.2814    1.0000 </r>
       <r>    5.4266    1.0000 </r>
       <r>    5.9324    1.0623 </r>
       <r>   11.0657   -0.0004 </r>
       <r>   15.6114    0.0000 </r>
       <r>   17.1013    0.0000 </r>
       <r>   28.8152    0.0000 </r>
       <r>   31.8930    0.0000 </r>
       <r>   34.1882    0.0000 </r>
       <r>   41.9900    0.0000 </r>
      </set>
      <set comment="kpoint 16">
       <r>    2.6860    1.0000 </r>
       <r>    2.6860    1.0000 </r>
       <r>    2.8591    1.0000 </r>
       <r>    5.5672    1.0000 </r>
       <r>    5.5672    1.0000 </r>
       <r>    9.9827   -0.0040 </r>
       <r>   18.5224    0.0000 </r>
       <r>   18.5224    0.0000 </r>
       <r>   20.0943    0.0000 </r>
       <r>   39.8861    0.0000 </r>
       <r>   42.8238    0.0000 </r>
       <r>   42.8238    0.0000 </r>
      </set>
      <set comment="kpoint 17">
       <r>    2.5567    1.0000 </r>
       <r>    2.6400    1.0000 </r>
       <r>    3.3534    1.0000 </r>
       <r>    5.6045    1.0000 </r>
       <r>    5.6291    1.0000 </r>
       <r>   12.8360    0.0000 </r>
       <r>   14.8205    0.0000 </r>
       <r>   17.9378    0.0000 </r>
       <r>   19.1017    0.0000 </r>
       <r>   41.0365    0.0000 </r>
       <r>   44.5815    0.0000 </r>
       <r>   45.1632    0.0000 </r>
      </set>
      <set comment="kpoint 18">
       <r>    0.1124    1.0000 </r>
       <r>    4.0462    1.0000 </r>
       <r>    4.0562    1.0000 </r>
       <r>    4.0562    1.0000 </r>
       <r>    4.6921    1.0000 </r>
       <r>    5.9485    0.8520 </r>
       <r>   25.7089    0.0000 </r>
       <r>   26.9763    0.0000 </r>
       <r>   26.9763    0.0000 </r>
       <r>   28.9567    0.0000 </r>
       <r>   38.6213    0.0000 </r>
       <r>   38.6213    0.0000 </r>
      </set>
      <set comment="kpoint 19">
       <r>    1.4654    1.0000 </r>
       <r>    3.1704    1.0000 </r>
       <r>    3.8993    1.0000 </r>
       <r>    4.6531    1.0000 </r>
       <r>    5.6744    1.0439 </r>
       <r>    6.8163    0.0672 </r>
       <r>   20.7574    0.0000 </r>
       <r>   24.2997    0.0000 </r>
       <r>   25.3553    0.0000 </r>
       <r>   29.5235    0.0000 </r>
       <r>   37.6714    0.0000 </r>
       <r>   39.5335    0.0000 </r>
      </set>
      <set comment="kpoint 20">
       <r>    1.7595    1.0000 </r>
       <r>    3.0857    1.0000 </r>
       <r>    3.6774    1.0000 </r>
       <r>    4.9094    1.0000 </r>
       <r>    6.6273    0.1666 </r>
       <r>    9.3055   -0.0103 </r>
       <r>   15.5877    0.0000 </r>
       <r>   22.6016    0.0000 </r>
       <r>   24.4895    0.0000 </r>
       <r>   32.0174    0.0000 </r>
       <r>   36.7109    0.0000 </r>
       <r>   37.5588    0.0000 </r>
      </set>
      <set comment="kpoint 21">
       <r>    2.1136    1.0000 </r>
       <r>    2.4723    1.0000 </r>
       <r>    3.9909    1.0000 </r>
       <r>    5.0886    1.0000 </r>
       <r>    6.1546    0.9690 </r>
       <r>    9.2289   -0.0129 </r>
       <r>   18.5264    0.0000 </r>
       <r>   19.2053    0.0000 </r>
       <r>   26.8248    0.0000 </r>
       <r>   28.4833    0.0000 </r>
       <r>   36.4086    0.0000 </r>
       <r>   39.6442    0.0000 </r>
      </set>
      <set comment="kpoint 22">
       <r>    2.0644    1.0000 </r>
       <r>    2.4813    1.0000 </r>
       <r>    3.7698    1.0000 </r>
       <r>    5.4388    1.0000 </r>
       <r>    6.4107    0.3416 </r>
       <r>   12.2797    0.0000 </r>
       <r>   14.6842    0.0000 </r>
       <r>   18.1551    0.0000 </r>
       <r>   26.8521    0.0000 </r>
       <r>   30.0414    0.0000 </r>
       <r>   34.0062    0.0000 </r>
       <r>   38.5906    0.0000 </r>
      </set>
      <set comment="kpoint 23">
       <r>    1.8839    1.0000 </r>
       <r>    2.4277    1.0000 </r>
       <r>    4.9119    1.0000 </r>
       <r>    4.9119    1.0000 </r>
       <r>    5.7149    1.1776 </r>
       <r>    8.5727   -0.0184 </r>
       <r>   21.2285    0.0000 </r>
       <r>   21.2285    0.0000 </r>
       <r>   23.4706    0.0000 </r>
       <r>   25.7234    0.0000 </r>
       <r>   38.0604    0.0000 </r>
       <r>   42.5978    0.0000 </r>
      </set>
      <set comment="kpoint 24">
       <r>    1.7731    1.0000 </r>
       <r>    1.9202    1.0000 </r>
       <r>    5.0681    1.0000 </r>
       <r>    5.3846    1.0000 </r>
       <r>    6.5009    0.1015 </r>
       <r>   11.7541    0.0000 </r>
       <r>   16.7047    0.0000 </r>
       <r>   19.2987    0.0000 </r>
       <r>   23.7054    0.0000 </r>
       <r>   26.6541    0.0000 </r>
       <r>   33.3955    0.0000 </r>
       <r>   42.0891    0.0000 </r>
      </set>
      <set comment="kpoint 25">
       <r>    1.6192    1.0000 </r>
       <r>    1.6192    1.0000 </r>
       <r>    5.1854    1.0000 </r>
       <r>    6.3223    1.0000 </r>
       <r>    6.3223    0.2540 </r>
       <r>   15.2313    0.0000 </r>
       <r>   15.2313    0.0000 </r>
       <r>   16.4554    0.0000 </r>
       <r>   25.1640    0.0000 </r>
       <r>   25.1640    0.0000 </r>
       <r>   30.9287    0.0000 </r>
       <r>   42.6812    0.0000 </r>
      </set>
      <set comment="kpoint 26">
       <r>    1.3289    1.0000 </r>
       <r>    1.3302    1.0000 </r>
       <r>    6.2751    1.0000 </r>
       <r>    6.2751    1.0000 </r>
       <r>    6.4625    0.0108 </r>
       <r>   14.5723    0.0000 </r>
       <r>   17.1386    0.0000 </r>
       <r>   17.1386    0.0000 </r>
       <r>   22.6541    0.0000 </r>
       <r>   23.8472    0.0000 </r>
       <r>   29.3905    0.0000 </r>
       <r>   45.7855    0.0000 </r>
      </set>
     </set>
     <set comment="spin 2">
      <set comment="kpoint 1">
       <r>   -1.2062    1.0000 </r>
       <r>    5.3080    1.0000 </r>
       <r>    5.3080    1.0000 </r>
       <r>    6.2801    0.4907 </r>
       <r>    7.4452    0.0000 </r>
       <r>    7.4452    0.0000 </r>
       <r>   28.6743    0.0000 </r>
       <r>   28.6743    0.0000 </r>
       <r>   32.7674    0.0000 </r>
       <r>   33.4960    0.0000 </r>
       <r>   38.6412    0.0000 </r>
       <r>   38.6412    0.0000 </r>
      </set>
      <set comment="kpoint 2">
       <r>    0.5226    1.0000 </r>
       <r>    4.7826    1.0000 </r>
       <r>    4.9790    1.0000 </r>
       <r>    7.3058   -0.0287 </r>
       <r>    7.4496    0.0000 </r>
       <r>    7.6160    0.0000 </r>
       <r>   23.5501    0.0000 </r>
       <r>   26.3866    0.0000 </r>
       <r>   29.3605    0.0000 </r>
       <r>   33.4009    0.0000 </r>
       <r>   38.4101    0.0000 </r>
       <r>   39.2296    0.0000 </r>
      </set>
      <set comment="kpoint 3">
       <r>    2.1638    1.0000 </r>
       <r>    4.3345    1.0000 </r>
       <r>    5.3195    1.0000 </r>
       <r>    7.4377    0.0000 </r>
       <r>    7.7644    0.0000 </r>
       <r>    8.8905    0.0000 </r>
       <r>   18.2743    0.0000 </r>
       <r>   24.5894    0.0000 </r>
       <r>   26.8142    0.0000 </r>
       <r>   33.1815    0.0000 </r>
       <r>   37.7268    0.0000 </r>
       <r>   42.5575    0.0000 </r>
      </set>
      <set comment="kpoint 4">
       <r>    2.4646    1.0000 </r>
       <r>    4.1635    1.0000 </r>
       <r>    6.2889    1.0000 </r>
       <r>    7.5197    0.0000 </r>
       <r>    7.8282    0.0000 </r>
       <r>    9.8868    0.0000 </r>
       <r>   15.4415    0.0000 </r>
       <r>   23.9087    0.0000 </r>
       <r>   25.8443    0.0000 </r>
       <r>   33.0414    0.0000 </r>
       <r>   37.6783    0.0000 </r>
       <r>   42.2468    0.0000 </r>
      </set>
      <set comment="kpoint 5">
       <r>   -1.8584    1.0000 </r>
       <r>    5.5661    1.0000 </r>
       <r>    5.5661    1.0000 </r>
       <r>    5.6814    1.1815 </r>
       <r>    7.3495    0.0000 </r>
       <r>    7.6223    0.0000 </r>
       <r>   30.3099    0.0000 </r>
       <r>   31.6737    0.0000 </r>
       <r>   31.6737    0.0000 </r>
       <r>   35.5149    0.0000 </r>
       <r>   38.1478    0.0000 </r>
       <r>   38.1478    0.0000 </r>
      </set>
      <set comment="kpoint 6">
       <r>    2.2968    1.0000 </r>
       <r>    4.3801    1.0000 </r>
       <r>    4.5224    1.0000 </r>
       <r>    7.4023   -0.0000 </r>
       <r>    7.7709    0.0000 </r>
       <r>    9.1098    0.0000 </r>
       <r>   21.0512    0.0000 </r>
       <r>   21.8403    0.0000 </r>
       <r>   25.8280    0.0000 </r>
       <r>   35.3956    0.0000 </r>
       <r>   39.5992    0.0000 </r>
       <r>   42.0868    0.0000 </r>
      </set>
      <set comment="kpoint 7">
       <r>    3.1633    1.0000 </r>
       <r>    4.1453    1.0000 </r>
       <r>    4.9621    1.0000 </r>
       <r>    7.5647    0.0000 </r>
       <r>    7.8570    0.0000 </r>
       <r>   11.2809    0.0000 </r>
       <r>   16.5899    0.0000 </r>
       <r>   20.2119    0.0000 </r>
       <r>   24.4403    0.0000 </r>
       <r>   35.9375    0.0000 </r>
       <r>   40.4363    0.0000 </r>
       <r>   42.8801    0.0000 </r>
      </set>
      <set comment="kpoint 8">
       <r>   -0.5909    1.0000 </r>
       <r>    5.2215    1.0000 </r>
       <r>    5.4383    1.0000 </r>
       <r>    6.4153    0.1875 </r>
       <r>    6.9831    0.0000 </r>
       <r>    7.7431    0.0000 </r>
       <r>   26.3186    0.0000 </r>
       <r>   29.4424    0.0000 </r>
       <r>   30.6544    0.0000 </r>
       <r>   34.8816    0.0000 </r>
       <r>   35.2290    0.0000 </r>
       <r>   36.7062    0.0000 </r>
      </set>
      <set comment="kpoint 9">
       <r>    3.6661    1.0000 </r>
       <r>    4.3922    1.0000 </r>
       <r>    4.3922    1.0000 </r>
       <r>    7.7511    0.0000 </r>
       <r>    7.7511    0.0000 </r>
       <r>   14.6452    0.0000 </r>
       <r>   14.6452    0.0000 </r>
       <r>   17.1680    0.0000 </r>
       <r>   23.9788    0.0000 </r>
       <r>   38.4040    0.0000 </r>
       <r>   38.4040    0.0000 </r>
       <r>   46.4279    0.0000 </r>
      </set>
      <set comment="kpoint 10">
       <r>    1.3350    1.0000 </r>
       <r>    4.7174    1.0000 </r>
       <r>    5.2315    1.0000 </r>
       <r>    7.1042   -0.0179 </r>
       <r>    7.6418    0.0000 </r>
       <r>    7.8882    0.0000 </r>
       <r>   20.7705    0.0000 </r>
       <r>   26.9341    0.0000 </r>
       <r>   28.7380    0.0000 </r>
       <r>   33.2159    0.0000 </r>
       <r>   35.2654    0.0000 </r>
       <r>   37.9975    0.0000 </r>
      </set>
      <set comment="kpoint 11">
       <r>    1.0210    1.0000 </r>
       <r>    4.9706    1.0000 </r>
       <r>    5.1279    1.0004 </r>
       <r>    6.7223   -0.0139 </r>
       <r>    7.3558    0.0000 </r>
       <r>    8.0249    0.0000 </r>
       <r>   23.6347    0.0000 </r>
       <r>   24.6221    0.0000 </r>
       <r>   30.9586    0.0000 </r>
       <r>   31.4924    0.0000 </r>
       <r>   35.3303    0.0000 </r>
       <r>   39.9966    0.0000 </r>
      </set>
      <set comment="kpoint 12">
       <r>    2.2797    1.0000 </r>
       <r>    4.3797    1.0000 </r>
       <r>    6.0520    1.0000 </r>
       <r>    7.3439    0.0000 </r>
       <r>    8.4271    0.0000 </r>
       <r>    8.6523    0.0000 </r>
       <r>   16.2596    0.0000 </r>
       <r>   25.4592    0.0000 </r>
       <r>   27.0072    0.0000 </r>
       <r>   32.5470    0.0000 </r>
       <r>   35.6973    0.0000 </r>
       <r>   39.4961    0.0000 </r>
      </set>
      <set comment="kpoint 13">
       <r>    2.5834    1.0000 </r>
       <r>    4.5274    1.0000 </r>
       <r>    5.0335    1.0008 </r>
       <r>    7.0331   -0.0026 </r>
       <r>    7.9820    0.0000 </r>
       <r>    9.3211    0.0000 </r>
       <r>   18.6188    0.0000 </r>
       <r>   22.3372    0.0000 </r>
       <r>   28.8020    0.0000 </r>
       <r>   32.1953    0.0000 </r>
       <r>   35.8753    0.0000 </r>
       <r>   40.7064    0.0000 </r>
      </set>
      <set comment="kpoint 14">
       <r>    2.8862    1.0000 </r>
       <r>    4.5168    1.0000 </r>
       <r>    5.2080    1.0007 </r>
       <r>    7.1945    0.0000 </r>
       <r>    8.2754    0.0000 </r>
       <r>   10.9117    0.0000 </r>
       <r>   15.4747    0.0000 </r>
       <r>   21.5950    0.0000 </r>
       <r>   27.8851    0.0000 </r>
       <r>   32.6763    0.0000 </r>
       <r>   36.5933    0.0000 </r>
       <r>   40.0765    0.0000 </r>
      </set>
[...]
       </set>
       <set comment="band 5">
        <r>  0.0079  0.0019  0.0019  0.0145  0.0947  0.3379  0.1073  0.0947  0.3220 </r>
       </set>
       <set comment="band 6">
        <r>  0.0629  0.0485  0.0485  0.2379  0.0905  0.1407  0.0482  0.0905  0.1446 </r>
       </set>
       <set comment="band 7">
        <r>  0.0000  0.2125  0.2125  0.0000  0.1404  0.0000  0.1464  0.1404  0.0488 </r>
       </set>
       <set comment="band 8">
        <r>  0.4670  0.0440  0.0440  0.0282  0.0836  0.0926  0.0015  0.0836  0.0044 </r>
       </set>
       <set comment="band 9">
        <r>  0.0257  0.1882  0.1882  0.0899  0.0575  0.0936  0.0006  0.0575  0.0018 </r>
       </set>
       <set comment="band 10">
        <r>  0.0000  0.0443  0.0443  0.0000  0.0595  0.0000  0.3385  0.0595  0.1128 </r>
       </set>
       <set comment="band 11">
        <r>  0.0257  0.0089  0.0089  0.0300  0.0243  0.1631  0.1047  0.0243  0.3140 </r>
       </set>
       <set comment="band 12">
        <r>  0.1100  0.0354  0.0354  0.1741  0.2527  0.2822  0.0220  0.2527  0.0659 </r>
       </set>
      </set>
      <set comment="kpoint 16">
       <set comment="band 1">
        <r>  0.1556  0.0913  0.0913  0.0913  0.1431  0.1431  0.0000  0.1431  0.0000 </r>
       </set>
       <set comment="band 2">
        <r>  0.0000  0.0423  0.0387  0.0012  0.3809  0.0113  0.0346  0.4166  0.0144 </r>
       </set>
       <set comment="band 3">
        <r>  0.0000  0.0125  0.0161  0.0536  0.1583  0.5279  0.0144  0.1226  0.0346 </r>
       </set>
       <set comment="band 4">
        <r>  0.0000  0.0000  0.0001  0.0000  0.0370  0.0028  0.8429  0.0211  0.0828 </r>
       </set>
       <set comment="band 5">
        <r>  0.0000  0.0000  0.0000  0.0001  0.0036  0.0378  0.0828  0.0195  0.8429 </r>
       </set>
       <set comment="band 6">
        <r>  0.0785  0.0669  0.0669  0.0669  0.2155  0.2155  0.0000  0.2155  0.0000 </r>
       </set>
       <set comment="band 7">
        <r>  0.0000  0.0515  0.0677  0.2334  0.0840  0.2896  0.0123  0.0640  0.0303 </r>
       </set>
       <set comment="band 8">
        <r>  0.0000  0.1836  0.1674  0.0017  0.2077  0.0021  0.0303  0.2278  0.0123 </r>
       </set>
       <set comment="band 9">
        <r>  0.5732  0.0815  0.0815  0.0815  0.0015  0.0015  0.0000  0.0015  0.0000 </r>
       </set>
       <set comment="band 10">
        <r>  0.0000  0.0000  0.0000  0.0000  0.0000  0.0000  0.0000  0.0000  0.0000 </r>
       </set>
       <set comment="band 11">
        <r>  0.0000  0.0030  0.0045  0.0002  0.3683  0.0146  0.0715  0.2421  0.0094 </r>
       </set>
       <set comment="band 12">
        <r>  0.0000  0.0022  0.0006  0.0050  0.0484  0.4020  0.0094  0.1746  0.0715 </r>
       </set>
      </set>
      <set comment="kpoint 17">
       <set comment="band 1">
        <r>  0.0338  0.0000  0.0000  0.1345  0.0000  0.6939  0.0136  0.0000  0.0409 </r>
       </set>
       <set comment="band 2">
        <r>  0.0000  0.0464  0.0464  0.0000  0.4241  0.0000  0.0000  0.4241  0.0000 </r>
       </set>
       <set comment="band 3">
        <r>  0.0000  0.1233  0.1233  0.0000  0.3276  0.0000  0.0000  0.3276  0.0000 </r>
       </set>
       <set comment="band 4">
        <r>  0.0005  0.0000  0.0000  0.0005  0.0000  0.0704  0.2293  0.0000  0.6879 </r>
       </set>
       <set comment="band 5">
        <r>  0.0000  0.0000  0.0000  0.0000  0.0000  0.0000  0.7424  0.0000  0.2475 </r>
       </set>
       <set comment="band 6">
        <r>  0.0000  0.1932  0.1932  0.0000  0.2424  0.0000  0.0000  0.2424  0.0000 </r>
       </set>
       <set comment="band 7">
        <r>  0.2415  0.0000  0.0000  0.1977  0.0000  0.4168  0.0071  0.0000  0.0212 </r>
       </set>
       <set comment="band 8">
        <r>  0.0000  0.1804  0.1804  0.0000  0.2333  0.0000  0.0000  0.2333  0.0000 </r>
       </set>
       <set comment="band 9">
        <r>  0.5411  0.0000  0.0000  0.2186  0.0000  0.0512  0.0020  0.0000  0.0061 </r>
       </set>
       <set comment="band 10">
        <r>  0.0000  0.0002  0.0002  0.0000  0.1412  0.0000  0.0000  0.1412  0.0000 </r>
       </set>
       <set comment="band 11">
        <r>  0.0000  0.0264  0.0264  0.0000  0.0711  0.0000  0.0000  0.0711  0.0000 </r>
       </set>
       <set comment="band 12">
        <r>  0.0129  0.0000  0.0000  0.0974  0.0000  0.1465  0.1208  0.0000  0.3623 </r>
       </set>
      </set>
      <set comment="kpoint 18">
       <set comment="band 1">
        <r>  0.5480  0.0000  0.0000  0.1905  0.0000  0.0000  0.0133  0.0000  0.0398 </r>
       </set>
       <set comment="band 2">
        <r>  0.0000  0.0130  0.0130  0.0000  0.4732  0.0000  0.0000  0.4733  0.0000 </r>
       </set>
       <set comment="band 3">
        <r>  0.0000  0.0130  0.0130  0.0000  0.4733  0.0000  0.0000  0.4732  0.0000 </r>
       </set>
       <set comment="band 4">
        <r>  0.0000  0.0000  0.0000  0.0000  0.0000  0.0000  0.6887  0.0000  0.2296 </r>
       </set>
       <set comment="band 5">
        <r>  0.0000  0.0000  0.0000  0.0000  0.0000  0.9813  0.0000  0.0000  0.0000 </r>
       </set>
       <set comment="band 6">
        <r>  0.0333  0.0000  0.0000  0.0093  0.0000  0.0000  0.2355  0.0000  0.7064 </r>
       </set>
       <set comment="band 7">
        <r>  0.0000  0.0000  0.0000  0.0000  0.0000  0.0000  0.4956  0.0000  0.1652 </r>
       </set>
       <set comment="band 8">
        <r>  0.0000  0.1791  0.1791  0.0000  0.3110  0.0000  0.0000  0.3110  0.0000 </r>
       </set>
       <set comment="band 9">
        <r>  0.0000  0.1791  0.1791  0.0000  0.3110  0.0000  0.0000  0.3110  0.0000 </r>
       </set>
       <set comment="band 10">
        <r>  0.1600  0.0000  0.0000  0.2856  0.0000  0.0000  0.0000  0.0000  0.0000 </r>
       </set>
       <set comment="band 11">
        <r>  0.0000  0.1683  0.1570  0.0000  0.0048  0.0000  0.0000  0.0045  0.0000 </r>
       </set>
       <set comment="band 12">
        <r>  0.0000  0.1570  0.1683  0.0000  0.0045  0.0000  0.0000  0.0048  0.0000 </r>
       </set>
      </set>
      <set comment="kpoint 19">
       <set comment="band 1">
        <r>  0.3253  0.0070  0.0000  0.2290  0.0596  0.0000  0.0820  0.0000  0.1122 </r>
       </set>
       <set comment="band 2">
        <r>  0.0028  0.0291  0.0000  0.0134  0.1697  0.0000  0.4360  0.0000  0.2496 </r>
       </set>
       <set comment="band 3">
        <r>  0.0000  0.0000  0.0258  0.0000  0.0000  0.2821  0.0000  0.6598  0.0000 </r>
       </set>
       <set comment="band 4">
        <r>  0.0000  0.0274  0.0000  0.0092  0.6734  0.0000  0.2427  0.0000  0.0058 </r>
       </set>
       <set comment="band 5">
        <r>  0.0000  0.0000  0.0099  0.0000  0.0000  0.6973  0.0000  0.2725  0.0000 </r>
       </set>
       <set comment="band 6">
        <r>  0.1040  0.0098  0.0000  0.0649  0.0114  0.0000  0.1637  0.0000  0.6130 </r>
       </set>
       <set comment="band 7">
        <r>  0.0924  0.2785  0.0000  0.0356  0.3002  0.0000  0.1307  0.0000  0.0561 </r>
       </set>
       <set comment="band 8">
        <r>  0.0000  0.0000  0.5033  0.0000  0.0000  0.0111  0.0000  0.4514  0.0000 </r>
       </set>
       <set comment="band 9">
        <r>  0.0927  0.0010  0.0000  0.0773  0.0301  0.0000  0.3917  0.0000  0.0525 </r>
       </set>
       <set comment="band 10">
        <r>  0.0611  0.2046  0.0000  0.0680  0.1334  0.0000  0.0441  0.0000  0.1405 </r>
       </set>
       <set comment="band 11">
        <r>  0.0000  0.0000  0.1709  0.0000  0.0000  0.6568  0.0000  0.1552  0.0000 </r>
       </set>
       <set comment="band 12">
        <r>  0.0663  0.1763  0.0000  0.0114  0.1058  0.0000  0.2023  0.0000  0.0996 </r>
       </set>
      </set>
      <set comment="kpoint 20">
       <set comment="band 1">
        <r>  0.1132  0.0015  0.0000  0.0790  0.2652  0.0000  0.3919  0.0000  0.0261 </r>
       </set>
       <set comment="band 2">
        <r>  0.0066  0.0908  0.0000  0.0989  0.0167  0.0000  0.0815  0.0000  0.5711 </r>
       </set>
       <set comment="band 3">
        <r>  0.0000  0.0000  0.0252  0.0000  0.0000  0.4205  0.0000  0.5197  0.0000 </r>
       </set>
       <set comment="band 4">
        <r>  0.0231  0.0126  0.0000  0.0004  0.5211  0.0000  0.3942  0.0000  0.0059 </r>
       </set>
       <set comment="band 5">
        <r>  0.0000  0.0000  0.0028  0.0000  0.0000  0.5562  0.0000  0.4309  0.0000 </r>
       </set>
       <set comment="band 6">
        <r>  0.0762  0.1186  0.0000  0.2456  0.0392  0.0000  0.0313  0.0000  0.3994 </r>
       </set>
       <set comment="band 7">
        <r>  0.2752  0.2008  0.0000  0.0022  0.3104  0.0000  0.1042  0.0000  0.0283 </r>
       </set>
       <set comment="band 8">
        <r>  0.0000  0.0000  0.6031  0.0000  0.0000  0.0704  0.0000  0.2307  0.0000 </r>
       </set>
       <set comment="band 9">
        <r>  0.1053  0.0238  0.0000  0.0550  0.0088  0.0000  0.4259  0.0000  0.0058 </r>
       </set>
       <set comment="band 10">
        <r>  0.0107  0.1536  0.0000  0.0005  0.0295  0.0000  0.0374  0.0000  0.4236 </r>
       </set>
       <set comment="band 11">
        <r>  0.0000  0.0000  0.1437  0.0000  0.0000  0.5700  0.0000  0.3718  0.0000 </r>
       </set>
       <set comment="band 12">
        <r>  0.0026  0.1450  0.0000  0.2148  0.0044  0.0000  0.4089  0.0000  0.1119 </r>
       </set>
      </set>
      <set comment="kpoint 21">
       <set comment="band 1">
        <r>  0.1200  0.0048  0.0048  0.1850  0.0481  0.0003  0.1097  0.0481  0.3290 </r>
       </set>
       <set comment="band 2">
        <r>  0.0000  0.0204  0.0204  0.0000  0.0576  0.0000  0.5504  0.0576  0.1835 </r>
       </set>
       <set comment="band 3">
        <r>  0.0073  0.0167  0.0167  0.0087  0.2524  0.3249  0.0187  0.2524  0.0562 </r>
       </set>
       <set comment="band 4">
        <r>  0.0000  0.0182  0.0182  0.0000  0.3912  0.0000  0.1100  0.3912  0.0367 </r>
       </set>
       <set comment="band 5">
        <r>  0.0141  0.0003  0.0003  0.0075  0.1169  0.6114  0.0283  0.1169  0.0850 </r>
       </set>
       <set comment="band 6">
        <r>  0.1428  0.0210  0.0210  0.2185  0.0457  0.0404  0.0975  0.0457  0.2924 </r>
       </set>
       <set comment="band 7">
        <r>  0.0000  0.2216  0.2216  0.0000  0.1185  0.0000  0.1804  0.1185  0.0601 </r>
       </set>
       <set comment="band 8">
        <r>  0.2402  0.1523  0.1523  0.0320  0.1151  0.0293  0.0040  0.1151  0.0120 </r>
       </set>
       <set comment="band 9">
        <r>  0.0000  0.0626  0.0626  0.0000  0.0520  0.0000  0.4427  0.0520  0.1476 </r>
       </set>
       <set comment="band 10">
        <r>  0.0854  0.1203  0.1203  0.0340  0.0120  0.0021  0.0569  0.0120  0.1707 </r>
       </set>
       <set comment="band 11">
        <r>  0.0012  0.0681  0.0681  0.1268  0.0585  0.2618  0.0648  0.0585  0.1944 </r>
       </set>
       <set comment="band 12">
        <r>  0.1611  0.0001  0.0001  0.1782  0.1288  0.2593  0.0436  0.1288  0.1308 </r>
       </set>
      </set>
      <set comment="kpoint 22">
       <set comment="band 1">
        <r>  0.0260  0.0240  0.0219  0.0240  0.1455  0.0000  0.6407  0.0000  0.0000 </r>
       </set>
       <set comment="band 2">
        <r>  0.0000  0.0725  0.0000  0.0725  0.0000  0.0163  0.0000  0.0163  0.6932 </r>
       </set>
       <set comment="band 3">
        <r>  0.0341  0.0013  0.0220  0.0013  0.1658  0.3435  0.0393  0.3435  0.0000 </r>
       </set>
       <set comment="band 4">
        <r>  0.0109  0.0078  0.0142  0.0078  0.5236  0.1121  0.1788  0.1121  0.0000 </r>
       </set>
       <set comment="band 5">
        <r>  0.0000  0.0113  0.0000  0.0113  0.0000  0.4413  0.0000  0.4413  0.0792 </r>
       </set>
       <set comment="band 6">
        <r>  0.0000  0.2603  0.0000  0.2603  0.0000  0.0468  0.0000  0.0468  0.2798 </r>
       </set>
       <set comment="band 7">
        <r>  0.2666  0.0979  0.0455  0.0979  0.2633  0.0002  0.1386  0.0002  0.0000 </r>
       </set>
       <set comment="band 8">
        <r>  0.1724  0.0026  0.3946  0.0026  0.0029  0.1006  0.0848  0.1006  0.0000 </r>
       </set>
       <set comment="band 9">
        <r>  0.0292  0.0024  0.1510  0.0024  0.0176  0.0151  0.5209  0.0151  0.0000 </r>
       </set>
       <set comment="band 10">
        <r>  0.0000  0.0480  0.0000  0.0480  0.0000  0.0063  0.0000  0.0063  0.6168 </r>
       </set>
       <set comment="band 11">
        <r>  0.0372  0.2139  0.0874  0.2139  0.0001  0.0477  0.1172  0.0477  0.0000 </r>
       </set>
       <set comment="band 12">
        <r>  0.2108  0.0238  0.0073  0.0238  0.2121  0.3182  0.0105  0.3182  0.0000 </r>
       </set>
      </set>
      <set comment="kpoint 23">
       <set comment="band 1">
        <r>  0.1271  0.0000  0.0000  0.2120  0.0000  0.0000  0.1250  0.0000  0.3749 </r>
       </set>
       <set comment="band 2">
        <r>  0.0000  0.0000  0.0000  0.0000  0.0000  0.0000  0.6644  0.0000  0.2215 </r>
       </set>
       <set comment="band 3">
        <r>  0.0000  0.0265  0.0265  0.0000  0.4548  0.0000  0.0000  0.4548  0.0000 </r>
       </set>
       <set comment="band 4">
        <r>  0.0000  0.0265  0.0265  0.0000  0.4548  0.0000  0.0000  0.4548  0.0000 </r>
       </set>
       <set comment="band 5">
        <r>  0.0000  0.0000  0.0000  0.0000  0.0000  0.9793  0.0000  0.0000  0.0000 </r>
       </set>
       <set comment="band 6">
        <r>  0.2048  0.0000  0.0000  0.2059  0.0000  0.0000  0.1283  0.0000  0.3849 </r>
       </set>
       <set comment="band 7">
        <r>  0.0000  0.2949  0.2949  0.0000  0.1622  0.0000  0.0000  0.1623  0.0000 </r>
       </set>
       <set comment="band 8">
        <r>  0.0000  0.2949  0.2949  0.0000  0.1623  0.0000  0.0000  0.1622  0.0000 </r>
       </set>
       <set comment="band 9">
        <r>  0.0000  0.0000  0.0000  0.0000  0.0000  0.0000  0.6716  0.0000  0.2239 </r>
       </set>
       <set comment="band 10">
        <r>  0.2835  0.0000  0.0000  0.0756  0.0000  0.0000  0.0608  0.0000  0.1825 </r>
       </set>
       <set comment="band 11">
        <r>  0.1275  0.0000  0.0000  0.3121  0.0000  0.0000  0.1203  0.0000  0.3608 </r>
       </set>
       <set comment="band 12">
        <r>  0.0000  0.0000  0.0000  0.0000  0.0000  1.1239  0.0000  0.0000  0.0000 </r>
       </set>
      </set>
      <set comment="kpoint 24">
       <set comment="band 1">
        <r>  0.0212  0.0003  0.0000  0.0878  0.0220  0.0000  0.4745  0.0000  0.2644 </r>
       </set>
       <set comment="band 2">
        <r>  0.0002  0.0255  0.0000  0.0142  0.0090  0.0000  0.3284  0.0000  0.5004 </r>
       </set>
       <set comment="band 3">
        <r>  0.0000  0.0000  0.0422  0.0000  0.0000  0.3353  0.0000  0.5867  0.0000 </r>
       </set>
       <set comment="band 4">
        <r>  0.0201  0.0362  0.0000  0.0070  0.8425  0.0000  0.0527  0.0000  0.0016 </r>
       </set>
       <set comment="band 5">
        <r>  0.0000  0.0000  0.0027  0.0000  0.0000  0.6393  0.0000  0.3454  0.0000 </r>
       </set>
       <set comment="band 6">
        <r>  0.1353  0.0443  0.0000  0.4020  0.0290  0.0000  0.0463  0.0000  0.2249 </r>
       </set>
       <set comment="band 7">
        <r>  0.1269  0.4601  0.0000  0.0000  0.1816  0.0000  0.0588  0.0000  0.0517 </r>
       </set>
       <set comment="band 8">
        <r>  0.0000  0.0000  0.6653  0.0000  0.0000  0.0316  0.0000  0.1617  0.0000 </r>
       </set>
       <set comment="band 9">
        <r>  0.0790  0.0029  0.0000  0.0044  0.0089  0.0000  0.7616  0.0000  0.0206 </r>
       </set>
       <set comment="band 10">
        <r>  0.0797  0.1050  0.0000  0.0002  0.0093  0.0000  0.0000  0.0000  0.5920 </r>
       </set>
       <set comment="band 11">
        <r>  0.2794  0.0640  0.0000  0.2797  0.0141  0.0000  0.0948  0.0000  0.1152 </r>
       </set>
       <set comment="band 12">
        <r>  0.0000  0.0000  0.0701  0.0000  0.0000  0.5554  0.0000  0.2687  0.0000 </r>
       </set>
      </set>
      <set comment="kpoint 25">
       <set comment="band 1">
        <r>  0.0000  0.0195  0.0000  0.0195  0.0000  0.0036  0.0000  0.0036  0.8306 </r>
       </set>
       <set comment="band 2">
        <r>  0.0000  0.0065  0.0259  0.0065  0.0048  0.0012  0.8306  0.0012  0.0000 </r>
       </set>
       <set comment="band 3">
        <r>  0.0176  0.0139  0.0139  0.0139  0.2999  0.2999  0.0000  0.2999  0.0000 </r>
       </set>
       <set comment="band 4">
        <r>  0.0000  0.0036  0.0144  0.0036  0.6292  0.1573  0.0157  0.1573  0.0000 </r>
       </set>
       <set comment="band 5">
        <r>  0.0000  0.0108  0.0000  0.0108  0.0000  0.4719  0.0000  0.4719  0.0157 </r>
       </set>
       <set comment="band 6">
        <r>  0.0000  0.3136  0.0000  0.3136  0.0000  0.0297  0.0000  0.0297  0.1792 </r>
       </set>
       <set comment="band 7">
        <r>  0.0000  0.1045  0.4181  0.1045  0.0396  0.0099  0.1792  0.0099  0.0000 </r>
       </set>
       <set comment="band 8">
        <r>  0.2612  0.1358  0.1358  0.1358  0.0547  0.0547  0.0000  0.0547  0.0000 </r>
       </set>
       <set comment="band 9">
        <r>  0.0000  0.0141  0.0565  0.0141  0.0055  0.0014  0.8032  0.0014  0.0000 </r>
       </set>
       <set comment="band 10">
        <r>  0.0000  0.0423  0.0000  0.0424  0.0000  0.0042  0.0000  0.0042  0.8032 </r>
       </set>
       <set comment="band 11">
        <r>  0.4741  0.1009  0.1009  0.1009  0.0036  0.0036  0.0000  0.0036  0.0000 </r>
       </set>
       <set comment="band 12">
        <r>  0.0364  0.0175  0.0175  0.0175  0.2354  0.2354  0.0000  0.2354  0.0000 </r>
       </set>
      </set>
      <set comment="kpoint 26">
       <set comment="band 1">
        <r>  0.0013  0.0000  0.0000  0.0264  0.0000  0.0000  0.2122  0.0000  0.6366 </r>
       </set>
       <set comment="band 2">
        <r>  0.0000  0.0000  0.0000  0.0000  0.0000  0.0000  0.6591  0.0000  0.2197 </r>
       </set>
       <set comment="band 3">
        <r>  0.0000  0.0112  0.0112  0.0000  0.4787  0.0000  0.0000  0.4787  0.0000 </r>
       </set>
       <set comment="band 4">
        <r>  0.0000  0.0112  0.0112  0.0000  0.4787  0.0000  0.0000  0.4787  0.0000 </r>
       </set>
       <set comment="band 5">
        <r>  0.0000  0.0000  0.0000  0.0000  0.0000  0.9873  0.0000  0.0000  0.0000 </r>
       </set>
       <set comment="band 6">
        <r>  0.0852  0.0000  0.0000  0.6194  0.0000  0.0000  0.0306  0.0000  0.0917 </r>
       </set>
       <set comment="band 7">
        <r>  0.0000  0.3723  0.3723  0.0000  0.0301  0.0000  0.0000  0.0301  0.0000 </r>
       </set>
       <set comment="band 8">
        <r>  0.0000  0.3723  0.3723  0.0000  0.0301  0.0000  0.0000  0.0301  0.0000 </r>
       </set>
       <set comment="band 9">
        <r>  0.0000  0.0000  0.0000  0.0000  0.0000  0.0000  0.7586  0.0000  0.2529 </r>
       </set>
       <set comment="band 10">
        <r>  0.0619  0.0000  0.0000  0.0204  0.0000  0.0000  0.2134  0.0000  0.6401 </r>
       </set>
       <set comment="band 11">
        <r>  0.6297  0.0000  0.0000  0.1232  0.0000  0.0000  0.0113  0.0000  0.0338 </r>
       </set>
       <set comment="band 12">
        <r>  0.0000  0.0000  0.0000  0.0000  0.0000  0.2964  0.0000  0.0000  0.0000 </r>
       </set>
      </set>
     </set>
    </set>
   </array>
  </projected>
 </calculation>
 <structure name="finalpos" >
  <crystal>
   <varray name="basis" >
    <v>      -1.39000000       1.39000000       1.39000000 </v>
    <v>       1.39000000      -1.39000000       1.39000000 </v>
    <v>       1.39000000       1.39000000      -1.39000000 </v>
   </varray>
   <i name="volume">     10.74247600 </i>
   <varray name="rec_basis" >
    <v>       0.00000000       0.35971223       0.35971223 </v>
    <v>       0.35971223       0.00000000       0.35971223 </v>
    <v>       0.35971223       0.35971223       0.00000000 </v>
   </varray>
  </crystal>
  <varray name="positions" >
   <v>       0.00000000       0.00000000       0.00000000 </v>
  </varray>
 </structure>
</modeling>
