Fe BCC                                  
   3.00000000000000     
    -0.500000    0.500000    0.500000
     0.500000   -0.500000    0.500000
     0.500000    0.500000   -0.500000
   Fe
     1
Direct
  0.000000  0.000000  0.000000
 
   36   36   36
  114.79      112.42      105.64      95.283      82.548      68.707      54.912      42.081      30.864      21.672    
  14.689      9.8760      6.9571      5.4432      4.7058      4.2052      3.8537      3.6498      3.5836      3.6498    
  3.8537      4.2052      4.7058      5.4432      6.9571      9.8760      14.689      21.672      30.864      42.081    
  54.912      68.707      82.548      95.283      105.64      112.42      112.42      111.64      106.35      97.221    
  85.346      71.973      58.292      45.292      33.700      23.996      16.434      11.045      7.6322      5.7721    
  4.8753      4.3320      3.9349      3.6864      3.5768      3.5986      3.7533      4.0507      4.4976      5.1079    
  6.2544      8.5737      12.610      18.715      27.009      37.385      49.515      62.839      76.540      89.553    
  100.64      108.59      105.64      106.35      102.68      95.117      84.578      72.225      59.233      46.616    
  35.152      25.375      17.594      11.902      8.1707      6.0484      5.0021      4.4207      3.9899      3.7045    
  3.5564      3.5359      3.6411      3.8800      4.2631      4.7883      5.6152      7.3167      10.470      15.497    
  22.602      31.763      42.740      55.071      68.056      80.746      92.005      100.64      95.283      97.221    
  95.117      89.247      80.348      69.441      57.624      45.891      35.036      25.624      18.002      12.309    
  8.4762      6.2204      5.0741      4.4635      4.0127      3.7009      3.5218      3.4643      3.5233      3.7041    
  4.0182      4.4722      5.0872      6.2421      8.5159      12.382      18.128      25.821      35.316      46.250    
  58.040      69.875      80.746      89.553      82.548      85.346      84.578      80.348      73.202      63.990    
  53.690      43.230      33.385      24.721      17.603      12.201      8.4908      6.2495      5.0772      4.4567    
  3.9998      3.6732      3.4725      3.3857      3.4048      3.5318      3.7776      4.1540      4.6601      5.4170    
  6.9184      9.6647      14.012      20.120      27.939      37.211      47.471      58.040      68.056      76.540    
  68.707      71.973      72.225      69.441      63.990      56.546      47.937      38.996      30.438      22.809    
  16.469      11.601      8.2102      6.1238      5.0050      4.4005      3.9504      3.6208      3.4085      3.3011    
  3.2885      3.3694      3.5524      3.8511      4.2744      4.8245      5.7478      7.5269      10.564      15.102    
  21.190      28.676      37.211      46.250      55.071      62.839      54.912      58.292      59.233      57.624    
  53.690      47.937      41.041      33.712      26.586      20.161      14.776      10.610      7.6832      5.8615    
  4.8632      4.2990      3.8670      3.5450      3.3307      3.2116      3.1763      3.2205      3.3497      3.5767    
  3.9153      4.3698      4.9653      6.0199      7.9490      11.057      15.485      21.190      27.939      35.316    
  42.740      49.515      42.081      45.292      46.616      45.891      43.230      38.996      33.712      27.962    
  22.285      17.118      12.762      9.3796      6.9972      5.5051      4.6686      4.1594      3.7545      3.4493    
  3.2412      3.1185      3.0690      3.0865      3.1730      3.3388      3.5985      3.9642      4.4348      5.0636    
  6.1737      8.0998      11.057      15.102      20.120      25.821      31.763      37.385      30.864      33.700    
  35.152      35.036      33.385      30.438      26.586      22.285      17.975      14.020      10.675      8.0793    
  6.2546      5.1082      4.4431      3.9908      3.6201      3.3386      3.1435      3.0239      2.9677      2.9673    
  3.0223      3.1397      3.3323      3.6142      3.9943      4.4676      5.0991      6.1737      7.9490      10.564    
  14.012      18.128      22.602      27.009      21.672      23.996      25.375      25.624      24.721      22.809    
  20.161      17.118      14.020      11.156      8.7327      6.8594      5.5490      4.7198      4.2048      3.8036    
  3.4721      3.2193      3.0419      2.9302      2.8731      2.8626      2.8963      2.9782      3.1180      3.3286    
  3.6223      4.0045      4.4676      5.0636      6.0199      7.5269      9.6647      12.382      15.497      18.715    
  14.689      16.434      17.594      18.002      17.603      16.469      14.776      12.762      10.675      8.7327    
  7.0901      5.8273      4.9457      4.3705      3.9606      3.6085      3.3190      3.0978      2.9412      2.8407    
  2.7868      2.7719      2.7927      2.8505      2.9519      3.1070      3.3274      3.6223      3.9943      4.4348    
  4.9653      5.7478      6.9184      8.5159      10.470      12.610      9.8760      11.045      11.902      12.309    
  12.201      11.601      10.610      9.3796      8.0793      6.8594      5.8273      5.0339      4.4691      4.0629    
  3.7166      3.4153      3.1691      2.9805      2.8460      2.7585      2.7105      2.6952      2.7092      2.7522    
  2.8278      2.9431      3.1070      3.3286      3.6142      3.9642      4.3698      4.8245      5.4170      6.2421    
  7.3167      8.5737      6.9571      7.6322      8.1707      8.4762      8.4908      8.2102      7.6832      6.9972    
  6.2546      5.5490      4.9457      4.4691      4.0982      3.7754      3.4834      3.2327      3.0289      2.8725    
  2.7602      2.6866      2.6458      2.6327      2.6441      2.6789      2.7388      2.8278      2.9519      3.1180    
  3.3323      3.5985      3.9153      4.2744      4.6601      5.0872      5.6152      6.2544      5.4432      5.7721    
  6.0484      6.2204      6.2495      6.1238      5.8615      5.5051      5.1082      4.7198      4.3705      4.0629    
  3.7754      3.5078      3.2698      3.0675      2.9037      2.7778      2.6869      2.6271      2.5943      2.5849    
  2.5964      2.6276      2.6789      2.7522      2.8505      2.9782      3.1397      3.3388      3.5767      3.8511    
  4.1540      4.4722      4.7883      5.1079      4.7058      4.8753      5.0021      5.0741      5.0772      5.0050    
  4.8632      4.6686      4.4431      4.2048      3.9606      3.7166      3.4834      3.2698      3.0821      2.9239    
  2.7963      2.6983      2.6275      2.5812      2.5568      2.5521      2.5656      2.5964      2.6441      2.7092    
  2.7927      2.8963      3.0223      3.1730      3.3497      3.5524      3.7776      4.0182      4.2631      4.4976    
  4.2052      4.3320      4.4207      4.4635      4.4567      4.4005      4.2990      4.1594      3.9908      3.8036    
  3.6085      3.4153      3.2327      3.0675      2.9239      2.8041      2.7081      2.6348      2.5825      2.5493    
  2.5338      2.5350      2.5521      2.5849      2.6327      2.6952      2.7719      2.8626      2.9673      3.0865    
  3.2205      3.3694      3.5318      3.7041      3.8800      4.0507      3.8537      3.9349      3.9899      4.0127    
  3.9998      3.9504      3.8670      3.7545      3.6201      3.4721      3.3190      3.1691      3.0289      2.9037    
  2.7963      2.7081      2.6386      2.5868      2.5513      2.5310      2.5252      2.5338      2.5568      2.5943    
  2.6458      2.7105      2.7868      2.8731      2.9677      3.0690      3.1763      3.2885      3.4048      3.5233    
  3.6411      3.7533      3.6498      3.6864      3.7045      3.7009      3.6732      3.6208      3.5450      3.4493    
  3.3386      3.2193      3.0978      2.9805      2.8725      2.7778      2.6983      2.6348      2.5868      2.5532    
  2.5331      2.5257      2.5310      2.5493      2.5812      2.6271      2.6866      2.7585      2.8407      2.9302    
  3.0239      3.1185      3.2116      3.3011      3.3857      3.4643      3.5359      3.5986      3.5836      3.5768    
  3.5564      3.5218      3.4725      3.4085      3.3307      3.2412      3.1435      3.0419      2.9412      2.8460    
  2.7602      2.6869      2.6275      2.5825      2.5513      2.5331      2.5271      2.5331      2.5513      2.5825    
  2.6275      2.6869      2.7602      2.8460      2.9412      3.0419      3.1435      3.2412      3.3307      3.4085    
  3.4725      3.5218      3.5564      3.5768      3.6498      3.5986      3.5359      3.4643      3.3857      3.3011    
  3.2116      3.1185      3.0239      2.9302      2.8407      2.7585      2.6866      2.6271      2.5812      2.5493    
  2.5310      2.5257      2.5331      2.5532      2.5868      2.6348      2.6983      2.7778      2.8725      2.9805    
  3.0978      3.2193      3.3386      3.4493      3.5450      3.6208      3.6732      3.7009      3.7045      3.6864    
  3.8537      3.7533      3.6411      3.5233      3.4048      3.2885      3.1763      3.0690      2.9677      2.8731    
  2.7868      2.7105      2.6458      2.5943      2.5568      2.5338      2.5252      2.5310      2.5513      2.5868    
  2.6386      2.7081      2.7963      2.9037      3.0289      3.1691      3.3190      3.4721      3.6201      3.7545    
  3.8670      3.9504      3.9998      4.0127      3.9899      3.9349      4.2052      4.0507      3.8800      3.7041    
  3.5318      3.3694      3.2205      3.0865      2.9673      2.8626      2.7719      2.6952      2.6327      2.5849    
  2.5521      2.5350      2.5338      2.5493      2.5825      2.6348      2.7081      2.8041      2.9239      3.0675    
  3.2327      3.4153      3.6085      3.8036      3.9908      4.1594      4.2990      4.4005      4.4567      4.4635    
  4.4207      4.3320      4.7058      4.4976      4.2631      4.0182      3.7776      3.5524      3.3497      3.1730    
  3.0223      2.8963      2.7927      2.7092      2.6441      2.5964      2.5656      2.5521      2.5568      2.5812    
  2.6275      2.6983      2.7963      2.9239      3.0821      3.2698      3.4834      3.7166      3.9606      4.2048    
  4.4431      4.6686      4.8632      5.0050      5.0772      5.0741      5.0021      4.8753      5.4432      5.1079    
  4.7883      4.4722      4.1540      3.8511      3.5767      3.3388      3.1397      2.9782      2.8505      2.7522    
  2.6789      2.6276      2.5964      2.5849      2.5943      2.6271      2.6869      2.7778      2.9037      3.0675    
  3.2698      3.5078      3.7754      4.0629      4.3705      4.7198      5.1082      5.5051      5.8615      6.1238    
  6.2495      6.2204      6.0484      5.7721      6.9571      6.2544      5.6152      5.0872      4.6601      4.2744    
  3.9153      3.5985      3.3323      3.1180      2.9519      2.8278      2.7388      2.6789      2.6441      2.6327    
  2.6458      2.6866      2.7602      2.8725      3.0289      3.2327      3.4834      3.7754      4.0982      4.4691    
  4.9457      5.5490      6.2546      6.9972      7.6832      8.2102      8.4908      8.4762      8.1707      7.6322    
  9.8760      8.5737      7.3167      6.2421      5.4170      4.8245      4.3698      3.9642      3.6142      3.3286    
  3.1070      2.9431      2.8278      2.7522      2.7092      2.6952      2.7105      2.7585      2.8460      2.9805    
  3.1691      3.4153      3.7166      4.0629      4.4691      5.0339      5.8273      6.8594      8.0793      9.3796    
  10.610      11.601      12.201      12.309      11.902      11.045      14.689      12.610      10.470      8.5159    
  6.9184      5.7478      4.9653      4.4348      3.9943      3.6223      3.3274      3.1070      2.9519      2.8505    
  2.7927      2.7719      2.7868      2.8407      2.9412      3.0978      3.3190      3.6085      3.9606      4.3705    
  4.9457      5.8273      7.0901      8.7327      10.675      12.762      14.776      16.469      17.603      18.002    
  17.594      16.434      21.672      18.715      15.497      12.382      9.6647      7.5269      6.0199      5.0636    
  4.4676      4.0045      3.6223      3.3286      3.1180      2.9782      2.8963      2.8626      2.8731      2.9302    
  3.0419      3.2193      3.4721      3.8036      4.2048      4.7198      5.5490      6.8594      8.7327      11.156    
  14.020      17.118      20.161      22.809      24.721      25.624      25.375      23.996      30.864      27.009    
  22.602      18.128      14.012      10.564      7.9490      6.1737      5.0991      4.4676      3.9943      3.6142    
  3.3323      3.1397      3.0223      2.9673      2.9677      3.0239      3.1435      3.3386      3.6201      3.9908    
  4.4431      5.1082      6.2546      8.0793      10.675      14.020      17.975      22.285      26.586      30.438    
  33.385      35.036      35.152      33.700      42.081      37.385      31.763      25.821      20.120      15.102    
  11.057      8.0998      6.1737      5.0636      4.4348      3.9642      3.5985      3.3388      3.1730      3.0865    
  3.0690      3.1185      3.2412      3.4493      3.7545      4.1594      4.6686      5.5051      6.9972      9.3796    
  12.762      17.118      22.285      27.962      33.712      38.996      43.230      45.891      46.616      45.292    
  54.912      49.515      42.740      35.316      27.939      21.190      15.485      11.057      7.9490      6.0199    
  4.9653      4.3698      3.9153      3.5767      3.3497      3.2205      3.1763      3.2116      3.3307      3.5450    
  3.8670      4.2990      4.8632      5.8615      7.6832      10.610      14.776      20.161      26.586      33.712    
  41.041      47.937      53.690      57.624      59.233      58.292      68.707      62.839      55.071      46.250    
  37.211      28.676      21.190      15.102      10.564      7.5269      5.7478      4.8245      4.2744      3.8511    
  3.5524      3.3694      3.2885      3.3011      3.4085      3.6208      3.9504      4.4005      5.0050      6.1238    
  8.2102      11.601      16.469      22.809      30.438      38.996      47.937      56.546      63.990      69.441    
  72.225      71.973      82.548      76.540      68.056      58.040      47.471      37.211      27.939      20.120    
  14.012      9.6647      6.9184      5.4170      4.6601      4.1540      3.7776      3.5318      3.4048      3.3857    
  3.4725      3.6732      3.9998      4.4567      5.0772      6.2495      8.4908      12.201      17.603      24.721    
  33.385      43.230      53.690      63.990      73.202      80.348      84.578      85.346      95.283      89.553    
  80.746      69.875      58.040      46.250      35.316      25.821      18.128      12.382      8.5159      6.2421    
  5.0872      4.4722      4.0182      3.7041      3.5233      3.4643      3.5218      3.7009      4.0127      4.4635    
  5.0741      6.2204      8.4762      12.309      18.002      25.624      35.036      45.891      57.624      69.441    
  80.348      89.247      95.117      97.221      105.64      100.64      92.005      80.746      68.056      55.071    
  42.740      31.763      22.602      15.497      10.470      7.3167      5.6152      4.7883      4.2631      3.8800    
  3.6411      3.5359      3.5564      3.7045      3.9899      4.4207      5.0021      6.0484      8.1707      11.902    
  17.594      25.375      35.152      46.616      59.233      72.225      84.578      95.117      102.68      106.35    
  112.42      108.59      100.64      89.553      76.540      62.839      49.515      37.385      27.009      18.715    
  12.610      8.5737      6.2544      5.1079      4.4976      4.0507      3.7533      3.5986      3.5768      3.6864    
  3.9349      4.3320      4.8753      5.7721      7.6322      11.045      16.434      23.996      33.700      45.292    
  58.292      71.973      85.346      97.221      106.35      111.64      112.42      111.64      106.35      97.221    
  85.346      71.973      58.292      45.292      33.700      23.996      16.434      11.045      7.6322      5.7721    
  4.8753      4.3320      3.9349      3.6864      3.5768      3.5986      3.7533      4.0507      4.4976      5.1079    
  6.2544      8.5737      12.610      18.715      27.009      37.385      49.515      62.839      76.540      89.553    
  100.64      108.59      111.64      112.42      108.59      100.64      89.553      76.540      62.839      49.515    
  37.385      27.009      18.715      12.610      8.5737      6.2544      5.1079      4.4976      4.0507      3.7533    
  3.5986      3.5768      3.6864      3.9349      4.3320      4.8753      5.7721      7.6322      11.045      16.434    
  23.996      33.700      45.292      58.292      71.973      85.346      97.221      106.35      106.35      108.59    
  106.35      99.910      90.085      78.001      64.869      51.789      39.637      29.040      20.387      13.850    
  9.3780      6.6935      5.3126      4.6236      4.1395      3.8013      3.6058      3.5423      3.6058      3.8013    
  4.1395      4.6236      5.3126      6.6935      9.3780      13.850      20.387      29.040      39.637      51.789    
  64.869      78.001      90.085      99.910      97.221      100.64      99.910      95.117      86.878      76.171    
  64.127      51.827      40.169      29.820      21.215      14.576      9.9122      7.0130      5.4631      4.7003    
  4.1933      3.8252      3.5965      3.4962      3.5164      3.6589      3.9338      4.3505      4.9091      5.8696    
  7.8178      11.279      16.608      23.939      33.192      44.068      56.051      68.389      80.107      90.085    
  85.346      89.553      90.085      86.878      80.348      71.296      60.722      49.638      38.924      29.254    
  21.087      14.679      10.084      7.1500      5.5301      4.7228      4.2066      3.8211      3.5689      3.4392    
  3.4219      3.5152      3.7275      4.0710      4.5490      5.2168      6.5173      8.9907      13.050      18.919    
  26.606      35.914      46.432      57.536      68.389      78.001      71.973      76.540      78.001      76.171    
  71.296      63.990      55.099      45.524      36.086      27.436      20.034      14.148      9.8628      7.0739    
  5.4945      4.6891      4.1772      3.7871      3.5220      3.3719      3.3247      3.3757      3.5304      3.8012    
  4.1990      4.7217      5.5446      7.1595      10.016      14.411      20.449      28.032      36.861      46.432    
  56.051      64.869      58.292      62.839      64.869      64.127      60.722      55.099      47.937      40.006    
  32.036      24.628      18.219      13.074      9.2896      6.7950      5.3559      4.6004      4.1064      3.7235    
  3.4561      3.2947      3.2264      3.2439      3.3492      3.5532      3.8701      4.3067      4.8724      5.8460    
  7.6757      10.713      15.147      20.984      28.032      35.914      44.068      51.789      45.292      49.515    
  51.789      51.827      49.638      45.524      40.006      33.712      27.266      21.198      15.902      11.623    
  8.4598      6.3606      5.1334      4.4639      3.9988      3.6334      3.3731      3.2091      3.1282      3.1213    
  3.1873      3.3343      3.5764      3.9265      4.3866      4.9916      6.0595      7.9628      10.959      15.147    
  20.449      26.606      33.192      39.637      33.700      37.385      39.637      40.169      38.924      36.086    
  32.036      27.266      22.285      17.541      13.374      9.9985      7.5006      5.8409      4.8591      4.2910    
  3.8617      3.5218      3.2764      3.1171      3.0312      3.0085      3.0457      3.1475      3.3258      3.5950    
  3.9657      4.4351      5.0587      6.1367      7.9628      10.713      14.411      18.919      23.939      29.040    
  23.996      27.009      29.040      29.820      29.254      27.436      24.628      21.198      17.541      14.020    
  10.912      8.3958      6.5403      5.3096      4.5673      4.0923      3.7036      3.3955      3.1708      3.0218    
  2.9369      2.9058      2.9236      2.9922      3.1202      3.3207      3.6068      3.9857      4.4514      5.0587    
  6.0595      7.6757      10.016      13.050      16.608      20.387      16.434      18.715      20.387      21.215    
  21.087      20.034      18.219      15.902      13.374      10.912      8.7327      6.9728      5.6826      4.8253    
  4.2827      3.8782      3.5343      3.2617      3.0616      2.9269      2.8473      2.8135      2.8198      2.8659    
  2.9572      3.1039      3.3181      3.6107      3.9857      4.4351      4.9916      5.8460      7.1595      8.9907    
  11.279      13.850      11.045      12.610      13.850      14.576      14.679      14.148      13.074      11.623    
  9.9985      8.3958      6.9728      5.8273      4.9888      4.4179      4.0106      3.6600      3.3631      3.1281    
  2.9545      2.8364      2.7650      2.7324      2.7330      2.7653      2.8319      2.9397      3.0984      3.3181    
  3.6068      3.9657      4.3866      4.8724      5.5446      6.5173      7.8178      9.3780      7.6322      8.5737    
  9.3780      9.9122      10.084      9.8628      9.2896      8.4598      7.5006      6.5403      5.6826      4.9888    
  4.4691      4.0804      3.7454      3.4479      3.1983      3.0010      2.8546      2.7539      2.6924      2.6635    
  2.6625      2.6872      2.7386      2.8206      2.9397      3.1039      3.3207      3.5950      3.9265      4.3067    
  4.7217      5.2168      5.8696      6.6935      5.7721      6.2544      6.6935      7.0130      7.1500      7.0739    
  6.7950      6.3606      5.8409      5.3096      4.8253      4.4179      4.0804      3.7754      3.4954      3.2506    
  3.0468      2.8857      2.7657      2.6826      2.6315      2.6078      2.6077      2.6292      2.6723      2.7386    
  2.8319      2.9572      3.1202      3.3258      3.5764      3.8701      4.1990      4.5490      4.9091      5.3126    
  4.8753      5.1079      5.3126      5.4631      5.5301      5.4945      5.3559      5.1334      4.8591      4.5673    
  4.2827      4.0106      3.7454      3.4954      3.2698      3.0746      2.9132      2.7857      2.6904      2.6242    
  2.5838      2.5661      2.5687      2.5899      2.6292      2.6872      2.7653      2.8659      2.9922      3.1475    
  3.3343      3.5532      3.8012      4.0710      4.3505      4.6236      4.3320      4.4976      4.6236      4.7003    
  4.7228      4.6891      4.6004      4.4639      4.2910      4.0923      3.8782      3.6600      3.4479      3.2506    
  3.0746      2.9239      2.8001      2.7026      2.6299      2.5798      2.5501      2.5392      2.5456      2.5687    
  2.6077      2.6625      2.7330      2.8198      2.9236      3.0457      3.1873      3.3492      3.5304      3.7275    
  3.9338      4.1395      3.9349      4.0507      4.1395      4.1933      4.2066      4.1772      4.1064      3.9988    
  3.8617      3.7036      3.5343      3.3631      3.1983      3.0468      2.9132      2.8001      2.7081      2.6365    
  2.5840      2.5490      2.5303      2.5272      2.5392      2.5661      2.6078      2.6635      2.7324      2.8135    
  2.9058      3.0085      3.1213      3.2439      3.3757      3.5152      3.6589      3.8013      3.6864      3.7533    
  3.8013      3.8252      3.8211      3.7871      3.7235      3.6334      3.5218      3.3955      3.2617      3.1281    
  3.0010      2.8857      2.7857      2.7026      2.6365      2.5868      2.5521      2.5315      2.5242      2.5303    
  2.5501      2.5838      2.6315      2.6924      2.7650      2.8473      2.9369      3.0312      3.1282      3.2264    
  3.3247      3.4219      3.5164      3.6058      3.5768      3.5986      3.6058      3.5965      3.5689      3.5220    
  3.4561      3.3731      3.2764      3.1708      3.0616      2.9545      2.8546      2.7657      2.6904      2.6299    
  2.5840      2.5521      2.5331      2.5263      2.5315      2.5490      2.5798      2.6242      2.6826      2.7539    
  2.8364      2.9269      3.0218      3.1171      3.2091      3.2947      3.3719      3.4392      3.4962      3.5423    
  3.5986      3.5768      3.5423      3.4962      3.4392      3.3719      3.2947      3.2091      3.1171      3.0218    
  2.9269      2.8364      2.7539      2.6826      2.6242      2.5798      2.5490      2.5315      2.5263      2.5331    
  2.5521      2.5840      2.6299      2.6904      2.7657      2.8546      2.9545      3.0616      3.1708      3.2764    
  3.3731      3.4561      3.5220      3.5689      3.5965      3.6058      3.7533      3.6864      3.6058      3.5164    
  3.4219      3.3247      3.2264      3.1282      3.0312      2.9369      2.8473      2.7650      2.6924      2.6315    
  2.5838      2.5501      2.5303      2.5242      2.5315      2.5521      2.5868      2.6365      2.7026      2.7857    
  2.8857      3.0010      3.1281      3.2617      3.3955      3.5218      3.6334      3.7235      3.7871      3.8211    
  3.8252      3.8013      4.0507      3.9349      3.8013      3.6589      3.5152      3.3757      3.2439      3.1213    
  3.0085      2.9058      2.8135      2.7324      2.6635      2.6078      2.5661      2.5392      2.5272      2.5303    
  2.5490      2.5840      2.6365      2.7081      2.8001      2.9132      3.0468      3.1983      3.3631      3.5343    
  3.7036      3.8617      3.9988      4.1064      4.1772      4.2066      4.1933      4.1395      4.4976      4.3320    
  4.1395      3.9338      3.7275      3.5304      3.3492      3.1873      3.0457      2.9236      2.8198      2.7330    
  2.6625      2.6077      2.5687      2.5456      2.5392      2.5501      2.5798      2.6299      2.7026      2.8001    
  2.9239      3.0746      3.2506      3.4479      3.6600      3.8782      4.0923      4.2910      4.4639      4.6004    
  4.6891      4.7228      4.7003      4.6236      5.1079      4.8753      4.6236      4.3505      4.0710      3.8012    
  3.5532      3.3343      3.1475      2.9922      2.8659      2.7653      2.6872      2.6292      2.5899      2.5687    
  2.5661      2.5838      2.6242      2.6904      2.7857      2.9132      3.0746      3.2698      3.4954      3.7454    
  4.0106      4.2827      4.5673      4.8591      5.1334      5.3559      5.4945      5.5301      5.4631      5.3126    
  6.2544      5.7721      5.3126      4.9091      4.5490      4.1990      3.8701      3.5764      3.3258      3.1202    
  2.9572      2.8319      2.7386      2.6723      2.6292      2.6077      2.6078      2.6315      2.6826      2.7657    
  2.8857      3.0468      3.2506      3.4954      3.7754      4.0804      4.4179      4.8253      5.3096      5.8409    
  6.3606      6.7950      7.0739      7.1500      7.0130      6.6935      8.5737      7.6322      6.6935      5.8696    
  5.2168      4.7217      4.3067      3.9265      3.5950      3.3207      3.1039      2.9397      2.8206      2.7386    
  2.6872      2.6625      2.6635      2.6924      2.7539      2.8546      3.0010      3.1983      3.4479      3.7454    
  4.0804      4.4691      4.9888      5.6826      6.5403      7.5006      8.4598      9.2896      9.8628      10.084    
  9.9122      9.3780      12.610      11.045      9.3780      7.8178      6.5173      5.5446      4.8724      4.3866    
  3.9657      3.6068      3.3181      3.0984      2.9397      2.8319      2.7653      2.7330      2.7324      2.7650    
  2.8364      2.9545      3.1281      3.3631      3.6600      4.0106      4.4179      4.9888      5.8273      6.9728    
  8.3958      9.9985      11.623      13.074      14.148      14.679      14.576      13.850      18.715      16.434    
  13.850      11.279      8.9907      7.1595      5.8460      4.9916      4.4351      3.9857      3.6107      3.3181    
  3.1039      2.9572      2.8659      2.8198      2.8135      2.8473      2.9269      3.0616      3.2617      3.5343    
  3.8782      4.2827      4.8253      5.6826      6.9728      8.7327      10.912      13.374      15.902      18.219    
  20.034      21.087      21.215      20.387      27.009      23.996      20.387      16.608      13.050      10.016    
  7.6757      6.0595      5.0587      4.4514      3.9857      3.6068      3.3207      3.1202      2.9922      2.9236    
  2.9058      2.9369      3.0218      3.1708      3.3955      3.7036      4.0923      4.5673      5.3096      6.5403    
  8.3958      10.912      14.020      17.541      21.198      24.628      27.436      29.254      29.820      29.040    
  37.385      33.700      29.040      23.939      18.919      14.411      10.713      7.9628      6.1367      5.0587    
  4.4351      3.9657      3.5950      3.3258      3.1475      3.0457      3.0085      3.0312      3.1171      3.2764    
  3.5218      3.8617      4.2910      4.8591      5.8409      7.5006      9.9985      13.374      17.541      22.285    
  27.266      32.036      36.086      38.924      40.169      39.637      49.515      45.292      39.637      33.192    
  26.606      20.449      15.147      10.959      7.9628      6.0595      4.9916      4.3866      3.9265      3.5764    
  3.3343      3.1873      3.1213      3.1282      3.2091      3.3731      3.6334      3.9988      4.4639      5.1334    
  6.3606      8.4598      11.623      15.902      21.198      27.266      33.712      40.006      45.524      49.638    
  51.827      51.789      62.839      58.292      51.789      44.068      35.914      28.032      20.984      15.147    
  10.713      7.6757      5.8460      4.8724      4.3067      3.8701      3.5532      3.3492      3.2439      3.2264    
  3.2947      3.4561      3.7235      4.1064      4.6004      5.3559      6.7950      9.2896      13.074      18.219    
  24.628      32.036      40.006      47.937      55.099      60.722      64.127      64.869      76.540      71.973    